<LesHouchesEvents version="3.0">
<header>
<!--
#*********************************************************************
#                                                                    *
#                        MadGraph5_aMC@NLO                           *
#                                                                    *
#                           Going Beyond                             *
#                                                                    *
#                   http://madgraph.hep.uiuc.edu                     *
#                   http://madgraph.phys.ucl.ac.be                   *
#                   http://amcatnlo.cern.ch                          *
#                                                                    *
#                     The MadGraph5_aMC@NLO team                     *
#                                                                    *
#....................................................................*
#                                                                    *
# This file contains all the information necessary to reproduce      *
# the events generated:                                              *
#                                                                    *
# 1. software version                                                *
# 2. proc_card          : code generation info including model       *
# 3. param_card         : model primary parameters in the LH format  *
# 4. run_card           : running parameters (collider and cuts)     *
# 5. pythia_card        : present only if pythia has been run        *
# 6. pgs_card           : present only if pgs has been run           *
# 7. delphes_cards      : present only if delphes has been run       *
#                                                                    *
#                                                                    *
#*********************************************************************
-->
<MGVersion>
#5.2.2.3
</MGVersion>
<MG5ProcCard>
#************************************************************
#*                     MadGraph5_aMC@NLO                    *
#*                                                          *
#*                *                       *                 *
#*                  *        * *        *                   *
#*                    * * * * 5 * * * *                     *
#*                  *        * *        *                   *
#*                *                       *                 *
#*                                                          *
#*                                                          *
#*         VERSION 2.2.3                 2015-02-10         *
#*                                                          *
#*    The MadGraph5_aMC@NLO Development Team - Find us at   *
#*    https://server06.fynu.ucl.ac.be/projects/madgraph     *
#*                                                          *
#************************************************************
#*                                                          *
#*               Command File for MadGraph5_aMC@NLO         *
#*                                                          *
#*     run as ./bin/mg5_aMC  filename                       *
#*                                                          *
#************************************************************
set group_subprocesses Auto
set ignore_six_quark_processes False
set loop_optimized_output True
set gauge unitary
set complex_mass_scheme False
import model sm
define p = g u c d s u~ c~ d~ s~
define j = g u c d s u~ c~ d~ s~
define l+ = e+ mu+
define l- = e- mu-
define vl = ve vm vt
define vl~ = ve~ vm~ vt~
import model Zprime_UFO
generate p p > zph, zph > j j
add process p p > zph, zph > b b~
output Dijet_signal
</MG5ProcCard>
<MGProcCard>
#*********************************************************************
#                        MadGraph/MadEvent                           *
#                   http://madgraph.hep.uiuc.edu                     *
#                                                                    *
#                          proc_card.dat                             *
#*********************************************************************
#                                                                    *
#            This Files is generated by MADGRAPH 5                   *
#                                                                    *
# WARNING: This Files is generated for MADEVENT (compatibility issue)*
#          This files is NOT a valid MG4 proc_card.dat               *
#          Running this in MG4 will NEVER reproduce the result of MG5*
#                                                                    *
#*********************************************************************
#*********************************************************************
# Process(es) requested : mg2 input                                  *
#*********************************************************************
# Begin PROCESS # This is TAG. Do not modify this line
p p > zph , zph > j j           #Process
# Be carefull the coupling are here in MG5 convention
          
end_coup           # End the couplings input

done               # this tells MG there are no more procs
# End PROCESS  # This is TAG. Do not modify this line
#*********************************************************************
# Model information                                                  *
#*********************************************************************
# Begin MODEL  # This is TAG. Do not modify this line
Zprime_UFO
# End   MODEL  # This is TAG. Do not modify this line
#*********************************************************************
# Start multiparticle definitions                                    *
#*********************************************************************
# Begin MULTIPARTICLES # This is TAG. Do not modify this line

# End  MULTIPARTICLES # This is TAG. Do not modify this line
</MGProcCard>
<MGRunCard>
#*********************************************************************
#                       MadGraph5_aMC@NLO                            *
#                                                                    *
#                     run_card.dat MadEvent                          *
#                                                                    *
#  This file is used to set the parameters of the run.               *
#                                                                    *
#  Some notation/conventions:                                        *
#                                                                    *
#   Lines starting with a '# ' are info or comments                  *
#                                                                    *
#   mind the format:   value    = variable     ! comment             *
#*********************************************************************
#
#*******************                                                 
# Running parameters
#*******************                                                 
#                                                                    
#*********************************************************************
# Tag name for the run (one word)                                    *
#*********************************************************************
  tag_1     = run_tag ! name of the run 
#*********************************************************************
# Run to generate the grid pack                                      *
#*********************************************************************
  .false.     = gridpack  !True = setting up the grid pack
#*********************************************************************
# Number of events and rnd seed                                      *
# Warning: Do not generate more than 1M events in a single run       *
# If you want to run Pythia, avoid more than 50k events in a run.    *
#*********************************************************************
  2000 = nevents ! Number of unweighted events requested 
 2883 = iseed   ! rnd seed (0=assigned automatically=default))
#*********************************************************************
# Collider type and energy                                           *
# lpp: 0=No PDF, 1=proton, -1=antiproton, 2=photon from proton,      *
#                                         3=photon from electron     *
#*********************************************************************
        1     = lpp1    ! beam 1 type 
        1     = lpp2    ! beam 2 type
     4000     = ebeam1  ! beam 1 total energy in GeV
     4000     = ebeam2  ! beam 2 total energy in GeV
#*********************************************************************
# Beam polarization from -100 (left-handed) to 100 (right-handed)    *
#*********************************************************************
        0     = polbeam1 ! beam polarization for beam 1
        0     = polbeam2 ! beam polarization for beam 2
#*********************************************************************
# PDF CHOICE: this automatically fixes also alpha_s and its evol.    *
#*********************************************************************
 'nn23lo1'    = pdlabel     ! PDF set                                     
 230000    = lhaid     ! if pdlabel=lhapdf, this is the lhapdf number
#*********************************************************************
# Renormalization and factorization scales                           *
#*********************************************************************
 F        = fixed_ren_scale  ! if .true. use fixed ren scale
 F        = fixed_fac_scale  ! if .true. use fixed fac scale
 91.1880  = scale            ! fixed ren scale
 91.1880  = dsqrt_q2fact1    ! fixed fact scale for pdf1
 91.1880  = dsqrt_q2fact2    ! fixed fact scale for pdf2
 1        = scalefact        ! scale factor for event-by-event scales
#*********************************************************************
# Matching - Warning! ickkw > 1 is still beta
#*********************************************************************
 0        = ickkw            ! 0 no matching, 1 MLM, 2 CKKW matching
 1        = highestmult      ! for ickkw=2, highest mult group
 1        = ktscheme         ! for ickkw=1, 1 Durham kT, 2 Pythia pTE
 1        = alpsfact         ! scale factor for QCD emission vx
 F        = chcluster        ! cluster only according to channel diag
 T        = pdfwgt           ! for ickkw=1, perform pdf reweighting
 5        = asrwgtflavor     ! highest quark flavor for a_s reweight
 T        = clusinfo         ! include clustering tag in output
 3.0      = lhe_version       ! Change the way clustering information pass to shower.        
#*********************************************************************
#**********************************************************
#
#**********************************************************
# Automatic ptj and mjj cuts if xqcut > 0
# (turn off for VBF and single top processes)
#**********************************************************
   T  = auto_ptj_mjj  ! Automatic setting of ptj and mjj
#**********************************************************
#                                                                    
#**********************************
# BW cutoff (M+/-bwcutoff*Gamma)
#**********************************
  15  = bwcutoff      ! (M+/-bwcutoff*Gamma)
#**********************************************************
# Apply pt/E/eta/dr/mij cuts on decay products or not
# (note that etmiss/ptll/ptheavy/ht/sorted cuts always apply)
#**********************************************************
   T  = cut_decays    ! Cut decay products 
#*************************************************************
# Number of helicities to sum per event (0 = all helicities)
# 0 gives more stable result, but longer run time (needed for
# long decay chains e.g.).
# Use >=2 if most helicities contribute, e.g. pure QCD.
#*************************************************************
   0  = nhel          ! Number of helicities used per event
#*******************                                                 
# Standard Cuts
#*******************                                                 
#                                                                    
#*********************************************************************
# Minimum and maximum pt's (for max, -1 means no cut)                *
#*********************************************************************
 20  = ptj       ! minimum pt for the jets 
  0  = ptb       ! minimum pt for the b 
 10  = pta       ! minimum pt for the photons 
 10  = ptl       ! minimum pt for the charged leptons 
  0  = misset    ! minimum missing Et (sum of neutrino's momenta)
  0  = ptheavy   ! minimum pt for one heavy final state
 1.0 = ptonium   ! minimum pt for the quarkonium states
 -1  = ptjmax    ! maximum pt for the jets
 -1  = ptbmax    ! maximum pt for the b
 -1  = ptamax    ! maximum pt for the photons
 -1  = ptlmax    ! maximum pt for the charged leptons
 -1  = missetmax ! maximum missing Et (sum of neutrino's momenta)
#*********************************************************************
# Minimum and maximum E's (in the center of mass frame)              *
#*********************************************************************
  0  = ej     ! minimum E for the jets 
  0  = eb     ! minimum E for the b 
  0  = ea     ! minimum E for the photons 
  0  = el     ! minimum E for the charged leptons 
 -1   = ejmax ! maximum E for the jets
 -1   = ebmax ! maximum E for the b
 -1   = eamax ! maximum E for the photons
 -1   = elmax ! maximum E for the charged leptons
#*********************************************************************
# Maximum and minimum absolute rapidity (for max, -1 means no cut)   *
#*********************************************************************
   5  = etaj    ! max rap for the jets 
  -1  = etab    ! max rap for the b
 2.5  = etaa    ! max rap for the photons 
 2.5  = etal    ! max rap for the charged leptons 
 0.6  = etaonium ! max rap for the quarkonium states
   0  = etajmin ! min rap for the jets
   0  = etabmin ! min rap for the b
   0  = etaamin ! min rap for the photons
   0  = etalmin ! main rap for the charged leptons
#*********************************************************************
# Minimum and maximum DeltaR distance                                *
#*********************************************************************
 0.4 = drjj    ! min distance between jets 
 0   = drbb    ! min distance between b's 
 0.4 = drll    ! min distance between leptons 
 0.4 = draa    ! min distance between gammas 
 0   = drbj    ! min distance between b and jet 
 0.4 = draj    ! min distance between gamma and jet 
 0.4 = drjl    ! min distance between jet and lepton 
 0   = drab    ! min distance between gamma and b 
 0   = drbl    ! min distance between b and lepton 
 0.4 = dral    ! min distance between gamma and lepton 
 -1  = drjjmax ! max distance between jets
 -1  = drbbmax ! max distance between b's
 -1  = drllmax ! max distance between leptons
 -1  = draamax ! max distance between gammas
 -1  = drbjmax ! max distance between b and jet
 -1  = drajmax ! max distance between gamma and jet
 -1  = drjlmax ! max distance between jet and lepton
 -1  = drabmax ! max distance between gamma and b
 -1  = drblmax ! max distance between b and lepton
 -1  = dralmax ! maxdistance between gamma and lepton
#*********************************************************************
# Minimum and maximum invariant mass for pairs                       *
# WARNING: for four lepton final state mmll cut require to have      *
#          different lepton masses for each flavor!                  *           
#*********************************************************************
 0   = mmjj    ! min invariant mass of a jet pair 
 0   = mmbb    ! min invariant mass of a b pair 
 0   = mmaa    ! min invariant mass of gamma gamma pair
 0   = mmll    ! min invariant mass of l+l- (same flavour) lepton pair
 -1  = mmjjmax ! max invariant mass of a jet pair
 -1  = mmbbmax ! max invariant mass of a b pair
 -1  = mmaamax ! max invariant mass of gamma gamma pair
 -1  = mmllmax ! max invariant mass of l+l- (same flavour) lepton pair
#*********************************************************************
# Minimum and maximum invariant mass for all letpons                 *
#*********************************************************************
 0   = mmnl    ! min invariant mass for all letpons (l+- and vl) 
 -1  = mmnlmax ! max invariant mass for all letpons (l+- and vl) 
#*********************************************************************
# Minimum and maximum pt for 4-momenta sum of leptons                *
#*********************************************************************
 0   = ptllmin  ! Minimum pt for 4-momenta sum of leptons(l and vl)
 -1  = ptllmax  ! Maximum pt for 4-momenta sum of leptons(l and vl)
#*********************************************************************
# Inclusive cuts                                                     *
#*********************************************************************
 0  = xptj ! minimum pt for at least one jet  
 0  = xptb ! minimum pt for at least one b 
 0  = xpta ! minimum pt for at least one photon 
 0  = xptl ! minimum pt for at least one charged lepton 
#*********************************************************************
# Control the pt's of the jets sorted by pt                          *
#*********************************************************************
 0   = ptj1min ! minimum pt for the leading jet in pt
 0   = ptj2min ! minimum pt for the second jet in pt
 0   = ptj3min ! minimum pt for the third jet in pt
 0   = ptj4min ! minimum pt for the fourth jet in pt
 -1  = ptj1max ! maximum pt for the leading jet in pt 
 -1  = ptj2max ! maximum pt for the second jet in pt
 -1  = ptj3max ! maximum pt for the third jet in pt
 -1  = ptj4max ! maximum pt for the fourth jet in pt
 0   = cutuse  ! reject event if fails any (0) / all (1) jet pt cuts
#*********************************************************************
# Control the pt's of leptons sorted by pt                           *
#*********************************************************************
 0   = ptl1min ! minimum pt for the leading lepton in pt
 0   = ptl2min ! minimum pt for the second lepton in pt
 0   = ptl3min ! minimum pt for the third lepton in pt
 0   = ptl4min ! minimum pt for the fourth lepton in pt
 -1  = ptl1max ! maximum pt for the leading lepton in pt 
 -1  = ptl2max ! maximum pt for the second lepton in pt
 -1  = ptl3max ! maximum pt for the third lepton in pt
 -1  = ptl4max ! maximum pt for the fourth lepton in pt
#*********************************************************************
# Control the Ht(k)=Sum of k leading jets                            *
#*********************************************************************
 0   = htjmin ! minimum jet HT=Sum(jet pt)
 -1  = htjmax ! maximum jet HT=Sum(jet pt)
 0   = ihtmin  !inclusive Ht for all partons (including b)
 -1  = ihtmax  !inclusive Ht for all partons (including b)
 0   = ht2min ! minimum Ht for the two leading jets
 0   = ht3min ! minimum Ht for the three leading jets
 0   = ht4min ! minimum Ht for the four leading jets
 -1  = ht2max ! maximum Ht for the two leading jets
 -1  = ht3max ! maximum Ht for the three leading jets
 -1  = ht4max ! maximum Ht for the four leading jets
#***********************************************************************
# Photon-isolation cuts, according to hep-ph/9801442                   *
# When ptgmin=0, all the other parameters are ignored                  *
# When ptgmin>0, pta and draj are not going to be used                 *
#***********************************************************************
   0 = ptgmin ! Min photon transverse momentum
 0.4 = R0gamma ! Radius of isolation code
 1.0 = xn ! n parameter of eq.(3.4) in hep-ph/9801442
 1.0 = epsgamma ! epsilon_gamma parameter of eq.(3.4) in hep-ph/9801442
 .true. = isoEM ! isolate photons from EM energy (photons and leptons)
#*********************************************************************
# WBF cuts                                                           *
#*********************************************************************
 0   = xetamin ! minimum rapidity for two jets in the WBF case  
 0   = deltaeta ! minimum rapidity for two jets in the WBF case 
#*********************************************************************
# KT DURHAM CUT                                                      *
#*********************************************************************
 -1    =  ktdurham        
 0.4  =  dparameter 
#*********************************************************************
# maximal pdg code for quark to be considered as a light jet         *
# (otherwise b cuts are applied)                                     *
#*********************************************************************
 4 = maxjetflavor    ! Maximum jet pdg code
#*********************************************************************
# Jet measure cuts                                                   *
#*********************************************************************
 0   = xqcut   ! minimum kt jet measure between partons
#*********************************************************************
#
#*********************************************************************
# Store info for systematics studies                                 *
# WARNING: If use_syst is T, matched Pythia output is                *
#          meaningful ONLY if plotted taking matchscale              *
#          reweighting into account!                                 *
#*********************************************************************
   F  = use_syst      ! Enable systematics studies
#
#**************************************
# Parameter of the systematics study
#  will be used by SysCalc (if installed)
#**************************************                                  
#
0.5 1 2 = sys_scalefact  # factorization/renormalization scale factor
0.5 1 2 = sys_alpsfact  # \alpha_s emission scale factors
30 50 = sys_matchscale # variation of merging scale
# PDF sets and number of members (0 or none for all members).
CT10nlo.LHgrid = sys_pdf # matching scales
# MSTW2008nlo68cl.LHgrid 1  = sys_pdf
</MGRunCard>
<slha>
######################################################################
## PARAM_CARD AUTOMATICALY GENERATED BY MG5 FOLLOWING UFO MODEL   ####
######################################################################
##                                                                  ##
##  Width set on Auto will be computed following the information    ##
##        present in the decay.py files of the model.               ##
##        See  arXiv:1402.1178 for more details.                    ##
##                                                                  ##
######################################################################

###################################
## INFORMATION FOR CKMBLOCK
###################################
Block ckmblock 
    1 2.277360e-01 # cabi 

###################################
## INFORMATION FOR FRBLOCK
###################################
Block frblock 
    1 1.600000e+00 # gz 

###################################
## INFORMATION FOR MASS
###################################
Block mass 
    1 5.040000e-03 # MD 
    2 2.550000e-03 # MU 
    3 1.010000e-01 # MS 
    4 1.270000e+00 # MC 
    5 4.700000e+00 # MB 
    6 1.720000e+02 # MT 
   11 5.110000e-04 # Me 
   13 1.056600e-01 # MM 
   15 1.777000e+00 # MTA 
   23 9.118760e+01 # MZ 
   25 1.200000e+02 # MH 
  10030 1.800000e+03 # MZph 
  10031 3.000000e+02 # MZpl 
## Dependent parameters, given by model restrictions.
## Those values should be edited following the 
## analytical expression. MG5 ignores those values 
## but they are important for interfacing the output of MG5
## to external program such as Pythia.
  12 0.000000 # ve : 0.0 
  14 0.000000 # vm : 0.0 
  16 0.000000 # vt : 0.0 
  21 0.000000 # g : 0.0 
  22 0.000000 # a : 0.0 
  24 79.824360 # w+ : cmath.sqrt(MZ__exp__2/2. + cmath.sqrt(MZ__exp__4/4. - (aEW*cmath.pi*MZ__exp__2)/(Gf*sqrt__2))) 

###################################
## INFORMATION FOR SMINPUTS
###################################
Block sminputs 
    1 1.279000e+02 # aEWM1 
    2 1.166370e-05 # Gf 
    3 1.184000e-01 # aS 

###################################
## INFORMATION FOR YUKAWA
###################################
Block yukawa 
    1 5.040000e-03 # ymdo 
    2 2.550000e-03 # ymup 
    3 1.010000e-01 # yms 
    4 1.270000e+00 # ymc 
    5 4.700000e+00 # ymb 
    6 1.720000e+02 # ymt 
   11 5.110000e-04 # yme 
   13 1.056600e-01 # ymm 
   15 1.777000e+00 # ymtau 

###################################
## INFORMATION FOR DECAY
###################################
DECAY   6 1.508336e+00 # WT 
DECAY  23 2.495200e+00 # WZ 
DECAY  24 2.085000e+00 # WW 
DECAY  25 5.753088e-03 # WH 
## Dependent parameters, given by model restrictions.
## Those values should be edited following the 
## analytical expression. MG5 ignores those values 
## but they are important for interfacing the output of MG5
## to external program such as Pythia.
DECAY  1 0.000000 # d : 0.0 
DECAY  2 0.000000 # u : 0.0 
DECAY  3 0.000000 # s : 0.0 
DECAY  4 0.000000 # c : 0.0 
DECAY  5 0.000000 # b : 0.0 
DECAY  11 0.000000 # e- : 0.0 
DECAY  12 0.000000 # ve : 0.0 
DECAY  13 0.000000 # mu- : 0.0 
DECAY  14 0.000000 # vm : 0.0 
DECAY  15 0.000000 # ta- : 0.0 
DECAY  16 0.000000 # vt : 0.0 
DECAY  21 0.000000 # g : 0.0 
DECAY  22 0.000000 # a : 0.0 
DECAY  10030 0.308725 # zph : (gz__exp__2*MZph*(5 + cmath.sqrt(1 - (4*MT__exp__2)/MZph__exp__2)))/(144.*cmath.pi) 
DECAY  10031 0.132629 # zpl : (5*gz__exp__2*MZpl)/(144.*cmath.pi) 
#===========================================================
# QUANTUM NUMBERS OF NEW STATE(S) (NON SM PDG CODE)
#===========================================================

Block QNUMBERS 10030  # zph 
        1 0  # 3 times electric charge
        2 3  # number of spin states (2S+1)
        3 1  # colour rep (1: singlet, 3: triplet, 8: octet)
        4 0  # Particle/Antiparticle distinction (0=own anti)
Block QNUMBERS 10031  # zpl 
        1 0  # 3 times electric charge
        2 3  # number of spin states (2S+1)
        3 1  # colour rep (1: singlet, 3: triplet, 8: octet)
        4 0  # Particle/Antiparticle distinction (0=own anti)
</slha>
## END BANNER##
<MGGenerationInfo>
#  Number of Events        :         3971
#  Integrated weight (pb)  :  0.19739E+00
#  Max wgt                 :  0.69291E-04
#  Average wgt             :  0.49708E-04
</MGGenerationInfo>
</header>
<init>
     2212     2212  0.40000000000E+04  0.40000000000E+04 0 0  247000  247000 2   1
  0.19752097611E+00  0.47273346945E-03  0.69291210000E-04   0
</init>
<event>
 5   0  0.6771967E-04  0.1821354E+04  0.7818609E-02  0.8695026E-01
        2   -1    0    0  501    0  0.00000000000E+00  0.00000000000E+00  0.71163382913E+03  0.71163382913E+03  0.25500000920E-02 0. -1.
       -2   -1    0    0    0  501  0.00000000000E+00  0.00000000000E+00 -0.11653918122E+04  0.11653918122E+04  0.25500000920E-02 0.  1.
    10030    2    1    2    0    0  0.00000000000E+00  0.00000000000E+00 -0.45375798303E+03  0.18770256413E+04  0.18213536040E+04 0.  0.
        1    1    3    3  502    0 -0.36880434465E+03 -0.54145580081E+03 -0.87878138541E+03  0.10961057213E+04  0.50400001928E-02 0.  1.
       -1    1    3    3    0  502  0.36880434465E+03  0.54145580081E+03  0.42502340238E+03  0.78091992001E+03  0.50400001928E-02 0. -1.
</event>
<event>
 5   0  0.6771967E-04  0.1801350E+04  0.7818609E-02  0.8705582E-01
        2   -1    0    0  501    0  0.00000000000E+00  0.00000000000E+00  0.93470836759E+03  0.93470836760E+03  0.25500000920E-02 0.  1.
       -2   -1    0    0    0  501  0.00000000000E+00  0.00000000000E+00 -0.86788054345E+03  0.86788054345E+03  0.25500000920E-02 0. -1.
    10030    2    1    2    0    0  0.00000000000E+00  0.00000000000E+00  0.66827824147E+02  0.18025889110E+04  0.18013497229E+04 0.  0.
        1    1    3    3  502    0 -0.17581445604E+03  0.85332874005E+03 -0.19507306380E+03  0.89282370140E+03  0.50400001928E-02 0. -1.
       -1    1    3    3    0  502  0.17581445604E+03 -0.85332874005E+03  0.26190088795E+03  0.90976520964E+03  0.50400001928E-02 0.  1.
</event>
<event>
 5   0  0.6929121E-04  0.1776707E+04  0.7818609E-02  0.8718785E-01
        2   -1    0    0  501    0  0.00000000000E+00  0.00000000000E+00  0.14135093759E+04  0.14135093759E+04  0.25500000920E-02 0.  1.
       -2   -1    0    0    0  501  0.00000000000E+00  0.00000000000E+00 -0.55830712416E+03  0.55830712417E+03  0.25500000920E-02 0. -1.
    10030    2    1    2    0    0  0.00000000000E+00  0.00000000000E+00  0.85520225171E+03  0.19718165000E+04  0.17767074657E+04 0.  0.
        3    1    3    3  502    0 -0.86589095058E+03 -0.11279736704E+03  0.60888510891E+03  0.10645334520E+04  0.10100000352E+00 0.  1.
       -3    1    3    3    0  502  0.86589095058E+03  0.11279736704E+03  0.24631714280E+03  0.90728304808E+03  0.10100000352E+00 0. -1.
</event>
<event>
 5   0  0.6771967E-04  0.1801040E+04  0.7818609E-02  0.8705747E-01
        2   -1    0    0  501    0  0.00000000000E+00  0.00000000000E+00  0.16201369740E+04  0.16201369740E+04  0.25500000920E-02 0. -1.
       -2   -1    0    0    0  501  0.00000000000E+00  0.00000000000E+00 -0.50053563927E+03  0.50053563927E+03  0.25500000920E-02 0.  1.
    10030    2    1    2    0    0  0.00000000000E+00  0.00000000000E+00  0.11196013347E+04  0.21206726132E+04  0.18010400284E+04 0.  0.
        1    1    3    3  502    0  0.20610928450E+03 -0.42521530343E+03  0.14624282485E+04  0.15368752303E+04  0.50400001928E-02 0. -1.
       -1    1    3    3    0  502 -0.20610928450E+03  0.42521530343E+03 -0.34282691384E+03  0.58379738292E+03  0.50400001928E-02 0.  1.
</event>
<event>
 5   0  0.6929121E-04  0.1788040E+04  0.7818609E-02  0.8712686E-01
        2   -1    0    0  501    0  0.00000000000E+00  0.00000000000E+00  0.11023463982E+04  0.11023463982E+04  0.25500000920E-02 0.  1.
       -2   -1    0    0    0  501  0.00000000000E+00  0.00000000000E+00 -0.72506376803E+03  0.72506376804E+03  0.25500000920E-02 0. -1.
    10030    2    1    2    0    0  0.00000000000E+00  0.00000000000E+00  0.37728263016E+03  0.18274101662E+04  0.17880396340E+04 0.  0.
        3    1    3    3  502    0  0.55095142811E+03  0.65315738363E+03 -0.80033767338E+02  0.85823508321E+03  0.10100000352E+00 0. -1.
       -3    1    3    3    0  502 -0.55095142811E+03 -0.65315738363E+03  0.45731639750E+03  0.96917508302E+03  0.10100000352E+00 0.  1.
</event>
<event>
 5   0  0.3404261E-04  0.1925098E+04  0.7818609E-02  0.8642463E-01
       -1   -1    0    0    0  501  0.00000000000E+00  0.00000000000E+00  0.14317520215E+04  0.14317520215E+04  0.50400001928E-02 0.  1.
        1   -1    0    0  501    0  0.00000000000E+00  0.00000000000E+00 -0.64710971615E+03  0.64710971617E+03  0.50400001928E-02 0. -1.
    10030    2    1    2    0    0  0.00000000000E+00  0.00000000000E+00  0.78464230539E+03  0.20788617377E+04  0.19250980695E+04 0.  0.
        1    1    3    3  502    0  0.66444638629E+03  0.60002092643E+03  0.77409340149E+03  0.11835263861E+04  0.50400001928E-02 0.  1.
       -1    1    3    3    0  502 -0.66444638629E+03 -0.60002092643E+03  0.10548903898E+02  0.89533535159E+03  0.50400001928E-02 0. -1.
</event>
<event>
 5   0  0.3308275E-04  0.1781362E+04  0.7818609E-02  0.8716274E-01
        1   -1    0    0  501    0  0.00000000000E+00  0.00000000000E+00  0.13264215780E+04  0.13264215780E+04  0.50400001928E-02 0.  1.
       -1   -1    0    0    0  501  0.00000000000E+00  0.00000000000E+00 -0.59808486491E+03  0.59808486493E+03  0.50400001928E-02 0. -1.
    10030    2    1    2    0    0  0.00000000000E+00  0.00000000000E+00  0.72833671312E+03  0.19245064430E+04  0.17813620298E+04 0.  0.
        3    1    3    3  502    0  0.99251108344E+02  0.18193617514E+03 -0.57167322027E+03  0.60808045134E+03  0.10100000352E+00 0. -1.
       -3    1    3    3    0  502 -0.99251108344E+02 -0.18193617514E+03  0.13000099334E+04  0.13164259916E+04  0.10100000352E+00 0.  1.
</event>
<event>
 5   0  0.6771967E-04  0.1794480E+04  0.7818609E-02  0.8709241E-01
       -2   -1    0    0    0  501  0.00000000000E+00  0.00000000000E+00  0.79127208633E+03  0.79127208634E+03  0.25500000920E-02 0.  1.
        2   -1    0    0  501    0  0.00000000000E+00  0.00000000000E+00 -0.10173990202E+04  0.10173990202E+04  0.25500000920E-02 0. -1.
    10030    2    1    2    0    0  0.00000000000E+00  0.00000000000E+00 -0.22612693385E+03  0.18086711065E+04  0.17944798080E+04 0.  0.
        1    1    3    3  502    0 -0.33797482307E+03  0.78018125084E+03 -0.40191261473E+03  0.94044857121E+03  0.50400001928E-02 0. -1.
       -1    1    3    3    0  502  0.33797482307E+03 -0.78018125084E+03  0.17578568088E+03  0.86822253531E+03  0.50400001928E-02 0.  1.
</event>
<event>
 5   0  0.3377273E-04  0.1785169E+04  0.7818609E-02  0.8714227E-01
       -1   -1    0    0    0  501  0.00000000000E+00  0.00000000000E+00  0.10301090313E+04  0.10301090313E+04  0.50400001928E-02 0.  1.
        1   -1    0    0  501    0  0.00000000000E+00  0.00000000000E+00 -0.77341988989E+03  0.77341988991E+03  0.50400001928E-02 0. -1.
    10030    2    1    2    0    0  0.00000000000E+00  0.00000000000E+00  0.25668914138E+03  0.18035289212E+04  0.17851686907E+04 0.  0.
        2    1    3    3  502    0  0.24827479028E+03  0.76628817207E+02  0.99105596061E+03  0.10245507621E+04  0.25500000920E-02 0.  1.
       -2    1    3    3    0  502 -0.24827479028E+03 -0.76628817207E+02 -0.73436681923E+03  0.77897815907E+03  0.25500000920E-02 0. -1.
</event>
<event>
 5   0  0.6771967E-04  0.1834653E+04  0.7818609E-02  0.8688085E-01
       -2   -1    0    0    0  501  0.00000000000E+00  0.00000000000E+00  0.55262857487E+03  0.55262857488E+03  0.25500000920E-02 0. -1.
        2   -1    0    0  501    0  0.00000000000E+00  0.00000000000E+00 -0.15227013459E+04  0.15227013459E+04  0.25500000920E-02 0.  1.
    10030    2    1    2    0    0  0.00000000000E+00  0.00000000000E+00 -0.97007277100E+03  0.20753299207E+04  0.18346534002E+04 0.  0.
        1    1    3    3  502    0  0.30610129250E+03  0.81455696864E+03 -0.81344457451E+03  0.11911730069E+04  0.50400001928E-02 0.  1.
       -1    1    3    3    0  502 -0.30610129250E+03 -0.81455696864E+03 -0.15662819649E+03  0.88415691390E+03  0.50400001928E-02 0. -1.
</event>
<event>
 5   0  0.2467375E-04  0.1793760E+04  0.7818609E-02  0.8709625E-01
       -4   -1    0    0    0  501  0.00000000000E+00  0.00000000000E+00  0.11816933460E+04  0.11816940284E+04  0.12699999809E+01 0. -1.
        4   -1    0    0  501    0  0.00000000000E+00  0.00000000000E+00 -0.68071100060E+03  0.68071218531E+03  0.12699999809E+01 0.  1.
    10030    2    1    2    0    0  0.00000000000E+00  0.00000000000E+00  0.50098234536E+03  0.18624062137E+04  0.17937596256E+04 0.  0.
        1    1    3    3  502    0 -0.68115698968E+03 -0.42753960995E+03  0.66270964600E+03  0.10420887859E+04  0.50400001928E-02 0. -1.
       -1    1    3    3    0  502  0.68115698968E+03  0.42753960995E+03 -0.16172730064E+03  0.82031742787E+03  0.50400001928E-02 0.  1.
</event>
<event>
 5   0  0.6547153E-04  0.1790582E+04  0.7818609E-02  0.8711324E-01
       -2   -1    0    0    0  501  0.00000000000E+00  0.00000000000E+00  0.56836114764E+03  0.56836114765E+03  0.25500000920E-02 0.  1.
        2   -1    0    0  501    0  0.00000000000E+00  0.00000000000E+00 -0.14102760857E+04  0.14102760857E+04  0.25500000920E-02 0. -1.
    10030    2    1    2    0    0  0.00000000000E+00  0.00000000000E+00 -0.84191493803E+03  0.19786372333E+04  0.17905821786E+04 0.  0.
        5    1    3    3  502    0  0.13604682079E+03  0.80506861201E+03 -0.15126265610E+02  0.81663645608E+03  0.46999998093E+01 0.  1.
       -5    1    3    3    0  502 -0.13604682079E+03 -0.80506861201E+03 -0.82678867242E+03  0.11620007772E+04  0.46999998093E+01 0. -1.
</event>
<event>
 5   0  0.3413839E-04  0.1846232E+04  0.7818609E-02  0.8682093E-01
        1   -1    0    0  501    0  0.00000000000E+00  0.00000000000E+00  0.16415326889E+04  0.16415326889E+04  0.50400001928E-02 0. -1.
       -1   -1    0    0    0  501  0.00000000000E+00  0.00000000000E+00 -0.51911430714E+03  0.51911430716E+03  0.50400001928E-02 0.  1.
    10030    2    1    2    0    0  0.00000000000E+00  0.00000000000E+00  0.11224183818E+04  0.21606469961E+04  0.18462319513E+04 0.  0.
        5    1    3    3  502    0 -0.71086429889E+03  0.20274887806E+03 -0.85836914300E+02  0.74419434615E+03  0.46999998093E+01 0.  1.
       -5    1    3    3    0  502  0.71086429889E+03 -0.20274887806E+03  0.12082552961E+04  0.14164526499E+04  0.46999998093E+01 0. -1.
</event>
<event>
 5   0  0.2467375E-04  0.1784578E+04  0.7818609E-02  0.8714544E-01
        3   -1    0    0  501    0  0.00000000000E+00  0.00000000000E+00  0.49340142845E+03  0.49340143879E+03  0.10100000352E+00 0.  1.
       -3   -1    0    0    0  501  0.00000000000E+00  0.00000000000E+00 -0.16136541011E+04  0.16136541043E+04  0.10100000352E+00 0. -1.
    10030    2    1    2    0    0  0.00000000000E+00  0.00000000000E+00 -0.11202526727E+04  0.21070555431E+04  0.17845775441E+04 0.  0.
        5    1    3    3  502    0 -0.81935726922E+03 -0.25522856237E+03 -0.27171275936E+03  0.90018768447E+03  0.46999998093E+01 0.  1.
       -5    1    3    3    0  502  0.81935726922E+03  0.25522856237E+03 -0.84853991334E+03  0.12068678586E+04  0.46999998093E+01 0. -1.
</event>
<event>
 5   0  0.3404261E-04  0.1816231E+04  0.7818609E-02  0.8697715E-01
       -1   -1    0    0    0  501  0.00000000000E+00  0.00000000000E+00  0.68218984042E+03  0.68218984043E+03  0.50400001928E-02 0. -1.
        1   -1    0    0  501    0  0.00000000000E+00  0.00000000000E+00 -0.12088627902E+04  0.12088627902E+04  0.50400001928E-02 0.  1.
    10030    2    1    2    0    0  0.00000000000E+00  0.00000000000E+00 -0.52667294976E+03  0.18910526306E+04  0.18162311680E+04 0.  0.
        1    1    3    3  502    0  0.36100358762E+02  0.87501951984E+03 -0.13207651397E+02  0.87586348142E+03  0.50400001928E-02 0. -1.
       -1    1    3    3    0  502 -0.36100358762E+02 -0.87501951984E+03 -0.51346529837E+03  0.10151891492E+04  0.50400001928E-02 0.  1.
</event>
<event>
 5   0  0.3308275E-04  0.9267453E+03  0.7818609E-02  0.9392752E-01
       -1   -1    0    0    0  501  0.00000000000E+00  0.00000000000E+00  0.21258720161E+03  0.21258720167E+03  0.50400001928E-02 0. -1.
        1   -1    0    0  501    0  0.00000000000E+00  0.00000000000E+00 -0.10100054202E+04  0.10100054202E+04  0.50400001928E-02 0.  1.
    10030    2    1    2    0    0  0.00000000000E+00  0.00000000000E+00 -0.79741821856E+03  0.12225926218E+04  0.92674532840E+03 0.  0.
        3    1    3    3  502    0 -0.13672403461E+03 -0.44274187337E+03 -0.39788773257E+03  0.61076057994E+03  0.10100000352E+00 0.  1.
       -3    1    3    3    0  502  0.13672403461E+03  0.44274187337E+03 -0.39953048599E+03  0.61183204191E+03  0.10100000352E+00 0. -1.
</event>
<event>
 5   0  0.3308275E-04  0.1769550E+04  0.7818609E-02  0.8722662E-01
        1   -1    0    0  501    0  0.00000000000E+00  0.00000000000E+00  0.98285234396E+03  0.98285234397E+03  0.50400001928E-02 0. -1.
       -1   -1    0    0    0  501  0.00000000000E+00  0.00000000000E+00 -0.79648457754E+03  0.79648457755E+03  0.50400001928E-02 0.  1.
    10030    2    1    2    0    0  0.00000000000E+00  0.00000000000E+00  0.18636776642E+03  0.17793369215E+04  0.17695499247E+04 0.  0.
        3    1    3    3  502    0 -0.65050741760E+03 -0.19227568462E+02 -0.50954532939E+03  0.82653859719E+03  0.10100000352E+00 0.  1.
       -3    1    3    3    0  502  0.65050741760E+03  0.19227568462E+02  0.69591309581E+03  0.95279832434E+03  0.10100000352E+00 0. -1.
</event>
<event>
 5   0  0.6771967E-04  0.1831947E+04  0.7818609E-02  0.8689493E-01
       -2   -1    0    0    0  501  0.00000000000E+00  0.00000000000E+00  0.16701204029E+04  0.16701204029E+04  0.25500000920E-02 0.  1.
        2   -1    0    0  501    0  0.00000000000E+00  0.00000000000E+00 -0.50236343461E+03  0.50236343461E+03  0.25500000920E-02 0. -1.
    10030    2    1    2    0    0  0.00000000000E+00  0.00000000000E+00  0.11677569683E+04  0.21724838375E+04  0.18319469663E+04 0.  0.
        1    1    3    3  502    0 -0.85465719504E+03 -0.26838799766E+03  0.81055495133E+03  0.12080854140E+04  0.50400001928E-02 0.  1.
       -1    1    3    3    0  502  0.85465719504E+03  0.26838799766E+03  0.35720201693E+03  0.96439842350E+03  0.50400001928E-02 0. -1.
</event>
<event>
 5   0  0.3470962E-04  0.1829270E+04  0.7818609E-02  0.8690887E-01
        1   -1    0    0  501    0  0.00000000000E+00  0.00000000000E+00  0.14617256982E+04  0.14617256982E+04  0.50400001928E-02 0.  1.
       -1   -1    0    0    0  501  0.00000000000E+00  0.00000000000E+00 -0.57230796570E+03  0.57230796572E+03  0.50400001928E-02 0. -1.
    10030    2    1    2    0    0  0.00000000000E+00  0.00000000000E+00  0.88941773245E+03  0.20340336639E+04  0.18292700848E+04 0.  0.
        4    1    3    3  502    0  0.70135333929E+02  0.25388041837E+03 -0.52922471650E+03  0.59114688982E+03  0.12699999809E+01 0. -1.
       -4    1    3    3    0  502 -0.70135333929E+02 -0.25388041837E+03  0.14186424489E+04  0.14428867741E+04  0.12699999809E+01 0.  1.
</event>
<event>
 5   0  0.3404261E-04  0.1016492E+04  0.7818609E-02  0.9290640E-01
       -1   -1    0    0    0  501  0.00000000000E+00  0.00000000000E+00  0.29163484501E+03  0.29163484505E+03  0.50400001928E-02 0.  1.
        1   -1    0    0  501    0  0.00000000000E+00  0.00000000000E+00 -0.88574407942E+03  0.88574407944E+03  0.50400001928E-02 0. -1.
    10030    2    1    2    0    0  0.00000000000E+00  0.00000000000E+00 -0.59410923442E+03  0.11773789245E+04  0.10164916868E+04 0.  0.
        1    1    3    3  502    0  0.47932307419E+01  0.42368730437E+03  0.28047818016E+02  0.42464171612E+03  0.50400001928E-02 0.  1.
       -1    1    3    3    0  502 -0.47932307419E+01 -0.42368730437E+03 -0.62215705243E+03  0.75273720837E+03  0.50400001928E-02 0. -1.
</event>
<event>
 5   0  0.6853162E-04  0.2052481E+04  0.7818609E-02  0.8582470E-01
       -2   -1    0    0    0  501  0.00000000000E+00  0.00000000000E+00  0.58511855350E+03  0.58511855351E+03  0.25500000920E-02 0.  1.
        2   -1    0    0  501    0  0.00000000000E+00  0.00000000000E+00 -0.17999248221E+04  0.17999248221E+04  0.25500000920E-02 0. -1.
    10030    2    1    2    0    0  0.00000000000E+00  0.00000000000E+00 -0.12148062686E+04  0.23850433756E+04  0.20524808485E+04 0.  0.
        2    1    3    3  502    0  0.85536481448E+03  0.28101414496E+03 -0.35109198212E+02  0.90102750864E+03  0.25500000920E-02 0.  1.
       -2    1    3    3    0  502 -0.85536481448E+03 -0.28101414496E+03 -0.11796970704E+04  0.14840158670E+04  0.25500000920E-02 0. -1.
</event>
<event>
 5   0  0.3308275E-04  0.1853485E+04  0.7818609E-02  0.8678363E-01
       -1   -1    0    0    0  501  0.00000000000E+00  0.00000000000E+00  0.54055508629E+03  0.54055508632E+03  0.50400001928E-02 0. -1.
        1   -1    0    0  501    0  0.00000000000E+00  0.00000000000E+00 -0.15888331538E+04  0.15888331539E+04  0.50400001928E-02 0.  1.
    10030    2    1    2    0    0  0.00000000000E+00  0.00000000000E+00 -0.10482780676E+04  0.21293882402E+04  0.18534851956E+04 0.  0.
        3    1    3    3  502    0  0.41399406236E+03  0.74662719129E+02  0.42454521300E+03  0.59766567024E+03  0.10100000352E+00 0. -1.
       -3    1    3    3    0  502 -0.41399406236E+03 -0.74662719129E+02 -0.14728232806E+04  0.15317225699E+04  0.10100000352E+00 0.  1.
</event>
<event>
 5   0  0.6929121E-04  0.1728695E+04  0.7818609E-02  0.8745166E-01
       -2   -1    0    0    0  501  0.00000000000E+00  0.00000000000E+00  0.84219001061E+03  0.84219001061E+03  0.25500000920E-02 0.  1.
        2   -1    0    0  501    0  0.00000000000E+00  0.00000000000E+00 -0.88708820188E+03  0.88708820189E+03  0.25500000920E-02 0. -1.
    10030    2    1    2    0    0  0.00000000000E+00  0.00000000000E+00 -0.44898191275E+02  0.17292782125E+04  0.17286952562E+04 0.  0.
        3    1    3    3  502    0  0.67355112793E+03 -0.47973941456E+03  0.22918251500E+03  0.85810585781E+03  0.10100000352E+00 0. -1.
       -3    1    3    3    0  502 -0.67355112793E+03  0.47973941456E+03 -0.27408070627E+03  0.87117235469E+03  0.10100000352E+00 0.  1.
</event>
<event>
 5   0  0.3404261E-04  0.1807451E+04  0.7818609E-02  0.8702347E-01
       -1   -1    0    0    0  501  0.00000000000E+00  0.00000000000E+00  0.50730526703E+03  0.50730526705E+03  0.50400001928E-02 0.  1.
        1   -1    0    0  501    0  0.00000000000E+00  0.00000000000E+00 -0.16099171406E+04  0.16099171406E+04  0.50400001928E-02 0. -1.
    10030    2    1    2    0    0  0.00000000000E+00  0.00000000000E+00 -0.11026118736E+04  0.21172224077E+04  0.18074506300E+04 0.  0.
        1    1    3    3  502    0 -0.40374459790E+03 -0.38599725415E+03 -0.13834978977E+04  0.14920020152E+04  0.50400001928E-02 0. -1.
       -1    1    3    3    0  502  0.40374459790E+03  0.38599725415E+03  0.28088602411E+03  0.62522039243E+03  0.50400001928E-02 0.  1.
</event>
<event>
 5   0  0.6853162E-04  0.9384918E+03  0.7818609E-02  0.9378704E-01
        2   -1    0    0  501    0  0.00000000000E+00  0.00000000000E+00  0.42680032236E+03  0.42680032236E+03  0.25500000920E-02 0.  1.
       -2   -1    0    0    0  501  0.00000000000E+00  0.00000000000E+00 -0.51591276540E+03  0.51591276541E+03  0.25500000920E-02 0. -1.
    10030    2    1    2    0    0  0.00000000000E+00  0.00000000000E+00 -0.89112443049E+02  0.94271308777E+03  0.93849184245E+03 0.  0.
        2    1    3    3  502    0 -0.38457947768E+03 -0.46442555771E+02 -0.31057459444E+03  0.49650263278E+03  0.25500000920E-02 0.  1.
       -2    1    3    3    0  502  0.38457947768E+03  0.46442555771E+02  0.22146215139E+03  0.44621045499E+03  0.25500000920E-02 0. -1.
</event>
<event>
 5   0  0.3377273E-04  0.1789693E+04  0.7818609E-02  0.8711800E-01
        1   -1    0    0  501    0  0.00000000000E+00  0.00000000000E+00  0.15316538695E+04  0.15316538695E+04  0.50400001928E-02 0. -1.
       -1   -1    0    0    0  501  0.00000000000E+00  0.00000000000E+00 -0.52280094668E+03  0.52280094671E+03  0.50400001928E-02 0.  1.
    10030    2    1    2    0    0  0.00000000000E+00  0.00000000000E+00  0.10088529229E+04  0.20544548162E+04  0.17896928150E+04 0.  0.
        2    1    3    3  502    0  0.76245885801E+03 -0.45641061539E+03  0.62534698327E+03  0.10866061888E+04  0.25500000920E-02 0.  1.
       -2    1    3    3    0  502 -0.76245885801E+03  0.45641061539E+03  0.38350593958E+03  0.96784862747E+03  0.25500000920E-02 0. -1.
</event>
<event>
 5   0  0.6929121E-04  0.1679113E+04  0.7818609E-02  0.8773367E-01
        2   -1    0    0  501    0  0.00000000000E+00  0.00000000000E+00  0.57259761835E+03  0.57259761835E+03  0.25500000920E-02 0.  1.
       -2   -1    0    0    0  501  0.00000000000E+00  0.00000000000E+00 -0.12309780554E+04  0.12309780554E+04  0.25500000920E-02 0. -1.
    10030    2    1    2    0    0  0.00000000000E+00  0.00000000000E+00 -0.65838043709E+03  0.18035756738E+04  0.16791129834E+04 0.  0.
        3    1    3    3  502    0  0.24155924270E+03  0.72455675799E+03 -0.70362951435E+03  0.10384738162E+04  0.10100000352E+00 0. -1.
       -3    1    3    3    0  502 -0.24155924270E+03 -0.72455675799E+03  0.45249077256E+02  0.76510185759E+03  0.10100000352E+00 0.  1.
</event>
<event>
 5   0  0.6547153E-04  0.1787431E+04  0.7818609E-02  0.8713012E-01
        2   -1    0    0  501    0  0.00000000000E+00  0.00000000000E+00  0.48705521604E+03  0.48705521604E+03  0.25500000920E-02 0. -1.
       -2   -1    0    0    0  501  0.00000000000E+00  0.00000000000E+00 -0.16399121051E+04  0.16399121051E+04  0.25500000920E-02 0.  1.
    10030    2    1    2    0    0  0.00000000000E+00  0.00000000000E+00 -0.11528568890E+04  0.21269673211E+04  0.17874313913E+04 0.  0.
        5    1    3    3  502    0 -0.18793227537E+02  0.42337386825E+03 -0.15127268995E+04  0.15709752958E+04  0.46999998093E+01 0.  1.
       -5    1    3    3    0  502  0.18793227537E+02 -0.42337386825E+03  0.35987001047E+03  0.55599202526E+03  0.46999998093E+01 0. -1.
</event>
<event>
 5   0  0.3377273E-04  0.1791565E+04  0.7818609E-02  0.8710798E-01
        1   -1    0    0  501    0  0.00000000000E+00  0.00000000000E+00  0.20126480180E+04  0.20126480180E+04  0.50400001928E-02 0.  1.
       -1   -1    0    0    0  501  0.00000000000E+00  0.00000000000E+00 -0.39869195331E+03  0.39869195334E+03  0.50400001928E-02 0. -1.
    10030    2    1    2    0    0  0.00000000000E+00  0.00000000000E+00  0.16139560647E+04  0.24113399714E+04  0.17915653152E+04 0.  0.
        2    1    3    3  502    0 -0.14378705407E+03 -0.45699602768E+02 -0.38146774753E+03  0.41022044443E+03  0.25500000920E-02 0. -1.
       -2    1    3    3    0  502  0.14378705407E+03  0.45699602768E+02  0.19954238123E+04  0.20011195269E+04  0.25500000920E-02 0.  1.
</event>
<event>
 5   0  0.6929121E-04  0.1811473E+04  0.7818609E-02  0.8700222E-01
        2   -1    0    0  501    0  0.00000000000E+00  0.00000000000E+00  0.10725650885E+04  0.10725650885E+04  0.25500000920E-02 0. -1.
       -2   -1    0    0    0  501  0.00000000000E+00  0.00000000000E+00 -0.76485670537E+03  0.76485670538E+03  0.25500000920E-02 0.  1.
    10030    2    1    2    0    0  0.00000000000E+00  0.00000000000E+00  0.30770838314E+03  0.18374217939E+04  0.18114729917E+04 0.  0.
        3    1    3    3  502    0 -0.83386683032E+03 -0.12349006005E+03 -0.18221486988E+03  0.86243026075E+03  0.10100000352E+00 0.  1.
       -3    1    3    3    0  502  0.83386683032E+03  0.12349006005E+03  0.48992325302E+03  0.97499153314E+03  0.10100000352E+00 0. -1.
</event>
<event>
 5   0  0.6771967E-04  0.1799614E+04  0.7818609E-02  0.8706505E-01
        2   -1    0    0  501    0  0.00000000000E+00  0.00000000000E+00  0.22211286072E+04  0.22211286072E+04  0.25500000920E-02 0. -1.
       -2   -1    0    0    0  501  0.00000000000E+00  0.00000000000E+00 -0.36452323161E+03  0.36452323162E+03  0.25500000920E-02 0.  1.
    10030    2    1    2    0    0  0.00000000000E+00  0.00000000000E+00  0.18566053756E+04  0.25856518389E+04  0.17996143784E+04 0.  0.
        1    1    3    3  502    0 -0.43317639318E+03 -0.59933628837E+03  0.16648645436E+04  0.18217079137E+04  0.50400001928E-02 0.  1.
       -1    1    3    3    0  502  0.43317639318E+03  0.59933628837E+03  0.19174083204E+03  0.76394392520E+03  0.50400001928E-02 0. -1.
</event>
<event>
 5   0  0.3413839E-04  0.1808440E+04  0.7818609E-02  0.8701824E-01
        1   -1    0    0  501    0  0.00000000000E+00  0.00000000000E+00  0.83539454085E+03  0.83539454087E+03  0.50400001928E-02 0. -1.
       -1   -1    0    0    0  501  0.00000000000E+00  0.00000000000E+00 -0.97871543996E+03  0.97871543997E+03  0.50400001928E-02 0.  1.
    10030    2    1    2    0    0  0.00000000000E+00  0.00000000000E+00 -0.14332089911E+03  0.18141099808E+04  0.18084396983E+04 0.  0.
        5    1    3    3  502    0  0.66912904646E+03  0.55390412053E+03  0.18022043151E+03  0.88715553850E+03  0.46999998093E+01 0. -1.
       -5    1    3    3    0  502 -0.66912904646E+03 -0.55390412053E+03 -0.32354133062E+03  0.92695444234E+03  0.46999998093E+01 0.  1.
</event>
<event>
 5   0  0.6929121E-04  0.1815137E+04  0.7818609E-02  0.8698291E-01
       -2   -1    0    0    0  501  0.00000000000E+00  0.00000000000E+00  0.57829831910E+03  0.57829831911E+03  0.25500000920E-02 0.  1.
        2   -1    0    0  501    0  0.00000000000E+00  0.00000000000E+00 -0.14243175786E+04  0.14243175786E+04  0.25500000920E-02 0. -1.
    10030    2    1    2    0    0  0.00000000000E+00  0.00000000000E+00 -0.84601925945E+03  0.20026158977E+04  0.18151368671E+04 0.  0.
        3    1    3    3  502    0  0.78978243076E+03 -0.32615585484E+03 -0.85565324105E+02  0.85875221367E+03  0.10100000352E+00 0.  1.
       -3    1    3    3    0  502 -0.78978243076E+03  0.32615585484E+03 -0.76045393535E+03  0.11438636840E+04  0.10100000352E+00 0. -1.
</event>
<event>
 5   0  0.3470962E-04  0.1968223E+04  0.7818609E-02  0.8621623E-01
        1   -1    0    0  501    0  0.00000000000E+00  0.00000000000E+00  0.12710326171E+04  0.12710326171E+04  0.50400001928E-02 0.  1.
       -1   -1    0    0    0  501  0.00000000000E+00  0.00000000000E+00 -0.76195926878E+03  0.76195926880E+03  0.50400001928E-02 0. -1.
    10030    2    1    2    0    0  0.00000000000E+00  0.00000000000E+00  0.50907334833E+03  0.20329918859E+04  0.19682226333E+04 0.  0.
        4    1    3    3  502    0  0.79938794391E+03  0.56885792363E+03  0.17551386113E+03  0.99670815713E+03  0.12699999809E+01 0. -1.
       -4    1    3    3    0  502 -0.79938794391E+03 -0.56885792363E+03  0.33355948720E+03  0.10362837288E+04  0.12699999809E+01 0.  1.
</event>
<event>
 5   0  0.3404261E-04  0.1815950E+04  0.7818609E-02  0.8697863E-01
        1   -1    0    0  501    0  0.00000000000E+00  0.00000000000E+00  0.12884314655E+04  0.12884314655E+04  0.50400001928E-02 0.  1.
       -1   -1    0    0    0  501  0.00000000000E+00  0.00000000000E+00 -0.63986202736E+03  0.63986202738E+03  0.50400001928E-02 0. -1.
    10030    2    1    2    0    0  0.00000000000E+00  0.00000000000E+00  0.64856943815E+03  0.19282934929E+04  0.18159497456E+04 0.  0.
        1    1    3    3  502    0 -0.24889453220E+03  0.49773471625E+03  0.10861164627E+04  0.12203840816E+04  0.50400001928E-02 0.  1.
       -1    1    3    3    0  502  0.24889453220E+03 -0.49773471625E+03 -0.43754702457E+03  0.70790941133E+03  0.50400001928E-02 0. -1.
</event>
<event>
 5   0  0.3308275E-04  0.1822838E+04  0.7818609E-02  0.8694248E-01
       -1   -1    0    0    0  501  0.00000000000E+00  0.00000000000E+00  0.81468850690E+03  0.81468850692E+03  0.50400001928E-02 0.  1.
        1   -1    0    0  501    0  0.00000000000E+00  0.00000000000E+00 -0.10196343684E+04  0.10196343684E+04  0.50400001928E-02 0. -1.
    10030    2    1    2    0    0  0.00000000000E+00  0.00000000000E+00 -0.20494586147E+03  0.18343228753E+04  0.18228377889E+04 0.  0.
        3    1    3    3  502    0 -0.51697316143E+03  0.58891791139E+03 -0.57080707009E+03  0.96948763657E+03  0.10100000352E+00 0. -1.
       -3    1    3    3    0  502  0.51697316143E+03 -0.58891791139E+03  0.36586120862E+03  0.86483523874E+03  0.10100000352E+00 0.  1.
</event>
<event>
 5   0  0.6774451E-04  0.1578916E+04  0.7818609E-02  0.8833606E-01
        2   -1    0    0  501    0  0.00000000000E+00  0.00000000000E+00  0.53304782394E+03  0.53304782394E+03  0.25500000920E-02 0. -1.
       -2   -1    0    0    0  501  0.00000000000E+00  0.00000000000E+00 -0.11692086055E+04  0.11692086055E+04  0.25500000920E-02 0.  1.
    10030    2    1    2    0    0  0.00000000000E+00  0.00000000000E+00 -0.63616078159E+03  0.17022564295E+04  0.15789162143E+04 0.  0.
        4    1    3    3  502    0  0.13564802698E+03  0.73188531516E+03 -0.34500799064E+02  0.74514993109E+03  0.12699999809E+01 0. -1.
       -4    1    3    3    0  502 -0.13564802698E+03 -0.73188531516E+03 -0.60165998253E+03  0.95710649838E+03  0.12699999809E+01 0.  1.
</event>
<event>
 5   0  0.6774451E-04  0.1805201E+04  0.7818609E-02  0.8703538E-01
       -2   -1    0    0    0  501  0.00000000000E+00  0.00000000000E+00  0.98627663933E+03  0.98627663933E+03  0.25500000920E-02 0.  1.
        2   -1    0    0  501    0  0.00000000000E+00  0.00000000000E+00 -0.82602379964E+03  0.82602379964E+03  0.25500000920E-02 0. -1.
    10030    2    1    2    0    0  0.00000000000E+00  0.00000000000E+00  0.16025283969E+03  0.18123004390E+04  0.18052013485E+04 0.  0.
        4    1    3    3  502    0  0.63484749352E+03  0.76706735349E+02  0.71963312599E+03  0.96269866116E+03  0.12699999809E+01 0.  1.
       -4    1    3    3    0  502 -0.63484749352E+03 -0.76706735349E+02 -0.55938028630E+03  0.84960177782E+03  0.12699999809E+01 0. -1.
</event>
<event>
 5   0  0.3377273E-04  0.1797880E+04  0.7818609E-02  0.8707428E-01
        1   -1    0    0  501    0  0.00000000000E+00  0.00000000000E+00  0.90014496133E+03  0.90014496134E+03  0.50400001928E-02 0.  1.
       -1   -1    0    0    0  501  0.00000000000E+00  0.00000000000E+00 -0.89773693821E+03  0.89773693823E+03  0.50400001928E-02 0. -1.
    10030    2    1    2    0    0  0.00000000000E+00  0.00000000000E+00  0.24080231158E+01  0.17978818996E+04  0.17978802870E+04 0.  0.
        2    1    3    3  502    0 -0.64141676137E+03  0.33696945574E+03 -0.53089561595E+03  0.89822827327E+03  0.25500000920E-02 0. -1.
       -2    1    3    3    0  502  0.64141676137E+03 -0.33696945574E+03  0.53330363906E+03  0.89965362630E+03  0.25500000920E-02 0.  1.
</event>
<event>
 5   0  0.3308275E-04  0.1730739E+04  0.7818609E-02  0.8744024E-01
        1   -1    0    0  501    0  0.00000000000E+00  0.00000000000E+00  0.71294931504E+03  0.71294931506E+03  0.50400001928E-02 0.  1.
       -1   -1    0    0    0  501  0.00000000000E+00  0.00000000000E+00 -0.10503756038E+04  0.10503756038E+04  0.50400001928E-02 0. -1.
    10030    2    1    2    0    0  0.00000000000E+00  0.00000000000E+00 -0.33742628879E+03  0.17633249189E+04  0.17307392262E+04 0.  0.
        3    1    3    3  502    0 -0.74417955557E+03  0.81385104395E+02  0.27355405712E+03  0.79703110260E+03  0.10100000352E+00 0.  1.
       -3    1    3    3    0  502  0.74417955557E+03 -0.81385104395E+02 -0.61098034591E+03  0.96629381630E+03  0.10100000352E+00 0. -1.
</event>
<event>
 5   0  0.3413839E-04  0.1782901E+04  0.7818609E-02  0.8715446E-01
        1   -1    0    0  501    0  0.00000000000E+00  0.00000000000E+00  0.48821328424E+03  0.48821328427E+03  0.50400001928E-02 0. -1.
       -1   -1    0    0    0  501  0.00000000000E+00  0.00000000000E+00 -0.16277393454E+04  0.16277393454E+04  0.50400001928E-02 0.  1.
    10030    2    1    2    0    0  0.00000000000E+00  0.00000000000E+00 -0.11395260611E+04  0.21159526296E+04  0.17829009751E+04 0.  0.
        5    1    3    3  502    0  0.65651867754E+02 -0.55721663748E+03 -0.13918856481E+04  0.15007225914E+04  0.46999998093E+01 0.  1.
       -5    1    3    3    0  502 -0.65651867754E+02  0.55721663748E+03  0.25235958701E+03  0.61523003826E+03  0.46999998093E+01 0. -1.
</event>
<event>
 5   0  0.6853162E-04  0.1817527E+04  0.7818609E-02  0.8697034E-01
       -2   -1    0    0    0  501  0.00000000000E+00  0.00000000000E+00  0.10669527430E+04  0.10669527430E+04  0.25500000920E-02 0.  1.
        2   -1    0    0  501    0  0.00000000000E+00  0.00000000000E+00 -0.77402775509E+03  0.77402775510E+03  0.25500000920E-02 0. -1.
    10030    2    1    2    0    0  0.00000000000E+00  0.00000000000E+00  0.29292498788E+03  0.18409804981E+04  0.18175269312E+04 0.  0.
        2    1    3    3  502    0  0.68025085242E+03  0.26037048241E+02 -0.46332923991E+03  0.82346410648E+03  0.25500000920E-02 0. -1.
       -2    1    3    3    0  502 -0.68025085242E+03 -0.26037048241E+02  0.75625422779E+03  0.10175163916E+04  0.25500000920E-02 0.  1.
</event>
<event>
 5   0  0.6929121E-04  0.1865452E+04  0.7818609E-02  0.8672247E-01
        2   -1    0    0  501    0  0.00000000000E+00  0.00000000000E+00  0.13377508254E+04  0.13377508254E+04  0.25500000920E-02 0. -1.
       -2   -1    0    0    0  501  0.00000000000E+00  0.00000000000E+00 -0.65032854862E+03  0.65032854863E+03  0.25500000920E-02 0.  1.
    10030    2    1    2    0    0  0.00000000000E+00  0.00000000000E+00  0.68742227674E+03  0.19880793740E+04  0.18654517444E+04 0.  0.
        3    1    3    3  502    0  0.43703647237E+03  0.89302592155E+02 -0.52928337517E+03  0.69218258616E+03  0.10100000352E+00 0.  1.
       -3    1    3    3    0  502 -0.43703647237E+03 -0.89302592155E+02  0.12167056519E+04  0.12958967878E+04  0.10100000352E+00 0. -1.
</event>
<event>
 5   0  0.6771967E-04  0.1813274E+04  0.7818609E-02  0.8699272E-01
        2   -1    0    0  501    0  0.00000000000E+00  0.00000000000E+00  0.13231492214E+04  0.13231492214E+04  0.25500000920E-02 0. -1.
       -2   -1    0    0    0  501  0.00000000000E+00  0.00000000000E+00 -0.62123837566E+03  0.62123837567E+03  0.25500000920E-02 0.  1.
    10030    2    1    2    0    0  0.00000000000E+00  0.00000000000E+00  0.70191084577E+03  0.19443875971E+04  0.18132744669E+04 0.  0.
        1    1    3    3  502    0  0.15388020624E+03 -0.23682039108E+03 -0.57286589486E+03  0.63870051591E+03  0.50400001928E-02 0.  1.
       -1    1    3    3    0  502 -0.15388020624E+03  0.23682039108E+03  0.12747767406E+04  0.13056870812E+04  0.50400001928E-02 0. -1.
</event>
<event>
 5   0  0.6853162E-04  0.1782168E+04  0.7818609E-02  0.8715840E-01
        2   -1    0    0  501    0  0.00000000000E+00  0.00000000000E+00  0.10095797903E+04  0.10095797903E+04  0.25500000920E-02 0.  1.
       -2   -1    0    0    0  501  0.00000000000E+00  0.00000000000E+00 -0.78649617293E+03  0.78649617293E+03  0.25500000920E-02 0. -1.
    10030    2    1    2    0    0  0.00000000000E+00  0.00000000000E+00  0.22308361740E+03  0.17960759633E+04  0.17821679397E+04 0.  0.
        2    1    3    3  502    0 -0.97761167397E+02  0.88110899124E+03  0.20725633123E+02  0.88675805729E+03  0.25500000920E-02 0. -1.
       -2    1    3    3    0  502  0.97761167397E+02 -0.88110899124E+03  0.20235798427E+03  0.90931790596E+03  0.25500000920E-02 0.  1.
</event>
<event>
 5   0  0.6929121E-04  0.1789037E+04  0.7818609E-02  0.8712151E-01
       -2   -1    0    0    0  501  0.00000000000E+00  0.00000000000E+00  0.11998738542E+04  0.11998738542E+04  0.25500000920E-02 0.  1.
        2   -1    0    0  501    0  0.00000000000E+00  0.00000000000E+00 -0.66687282489E+03  0.66687282490E+03  0.25500000920E-02 0. -1.
    10030    2    1    2    0    0  0.00000000000E+00  0.00000000000E+00  0.53300102930E+03  0.18667466791E+04  0.17890369104E+04 0.  0.
        3    1    3    3  502    0  0.16311491680E+03  0.19850465008E+03  0.11605453159E+04  0.11886446116E+04  0.10100000352E+00 0.  1.
       -3    1    3    3    0  502 -0.16311491680E+03 -0.19850465008E+03 -0.62754428657E+03  0.67810206754E+03  0.10100000352E+00 0. -1.
</event>
<event>
 5   0  0.3308275E-04  0.1786869E+04  0.7818609E-02  0.8713314E-01
       -1   -1    0    0    0  501  0.00000000000E+00  0.00000000000E+00  0.90501532005E+03  0.90501532006E+03  0.50400001928E-02 0. -1.
        1   -1    0    0  501    0  0.00000000000E+00  0.00000000000E+00 -0.88200196867E+03  0.88200196868E+03  0.50400001928E-02 0.  1.
    10030    2    1    2    0    0  0.00000000000E+00  0.00000000000E+00  0.23013351380E+02  0.17870172887E+04  0.17868690987E+04 0.  0.
        3    1    3    3  502    0  0.53771980342E+03 -0.55256809285E+03  0.46293219143E+03  0.89932213822E+03  0.10100000352E+00 0. -1.
       -3    1    3    3    0  502 -0.53771980342E+03  0.55256809285E+03 -0.43991884005E+03  0.88769515052E+03  0.10100000352E+00 0.  1.
</event>
<event>
 5   0  0.6547153E-04  0.1652817E+04  0.7818609E-02  0.8788742E-01
        2   -1    0    0  501    0  0.00000000000E+00  0.00000000000E+00  0.14407967633E+04  0.14407967633E+04  0.25500000920E-02 0.  1.
       -2   -1    0    0    0  501  0.00000000000E+00  0.00000000000E+00 -0.47400898727E+03  0.47400898727E+03  0.25500000920E-02 0. -1.
    10030    2    1    2    0    0  0.00000000000E+00  0.00000000000E+00  0.96678777603E+03  0.19148057506E+04  0.16528165230E+04 0.  0.
        5    1    3    3  502    0 -0.80392489858E+03  0.17386281742E+03  0.39067680936E+03  0.91058990836E+03  0.46999998093E+01 0. -1.
       -5    1    3    3    0  502  0.80392489858E+03 -0.17386281742E+03  0.57611096667E+03  0.10042158422E+04  0.46999998093E+01 0.  1.
</event>
<event>
 5   0  0.3413839E-04  0.1891936E+04  0.7818609E-02  0.8658881E-01
       -1   -1    0    0    0  501  0.00000000000E+00  0.00000000000E+00  0.39619338145E+03  0.39619338148E+03  0.50400001928E-02 0. -1.
        1   -1    0    0  501    0  0.00000000000E+00  0.00000000000E+00 -0.22586321039E+04  0.22586321039E+04  0.50400001928E-02 0.  1.
    10030    2    1    2    0    0  0.00000000000E+00  0.00000000000E+00 -0.18624387224E+04  0.26548254853E+04  0.18919356128E+04 0.  0.
        5    1    3    3  502    0 -0.77777216701E+03  0.21661668960E+03 -0.23952300865E+03  0.84216726109E+03  0.46999998093E+01 0. -1.
       -5    1    3    3    0  502  0.77777216701E+03 -0.21661668960E+03 -0.16229157138E+04  0.18126582243E+04  0.46999998093E+01 0.  1.
</event>
<event>
 5   0  0.3308275E-04  0.1162006E+04  0.7818609E-02  0.9146779E-01
       -1   -1    0    0    0  501  0.00000000000E+00  0.00000000000E+00  0.40144254757E+03  0.40144254760E+03  0.50400001928E-02 0. -1.
        1   -1    0    0  501    0  0.00000000000E+00  0.00000000000E+00 -0.84087826805E+03  0.84087826807E+03  0.50400001928E-02 0.  1.
    10030    2    1    2    0    0  0.00000000000E+00  0.00000000000E+00 -0.43943572048E+03  0.12423208157E+04  0.11620057042E+04 0.  0.
        3    1    3    3  502    0 -0.12906659888E+03  0.32207231968E+03  0.27851337968E+03  0.44492525092E+03  0.10100000352E+00 0. -1.
       -3    1    3    3    0  502  0.12906659888E+03 -0.32207231968E+03 -0.71794910016E+03  0.79739556474E+03  0.10100000352E+00 0.  1.
</event>
<event>
 5   0  0.6929121E-04  0.1887845E+04  0.7818609E-02  0.8660930E-01
        2   -1    0    0  501    0  0.00000000000E+00  0.00000000000E+00  0.12424497351E+04  0.12424497351E+04  0.25500000920E-02 0.  1.
       -2   -1    0    0    0  501  0.00000000000E+00  0.00000000000E+00 -0.71712353733E+03  0.71712353733E+03  0.25500000920E-02 0. -1.
    10030    2    1    2    0    0  0.00000000000E+00  0.00000000000E+00  0.52532619779E+03  0.19595732725E+04  0.18878452786E+04 0.  0.
        3    1    3    3  502    0 -0.61570711487E+03 -0.13382685212E+03 -0.46688178609E+03  0.78420883063E+03  0.10100000352E+00 0. -1.
       -3    1    3    3    0  502  0.61570711487E+03  0.13382685212E+03  0.99220798387E+03  0.11753644418E+04  0.10100000352E+00 0.  1.
</event>
<event>
 5   0  0.3404261E-04  0.1773006E+04  0.7818609E-02  0.8720788E-01
       -1   -1    0    0    0  501  0.00000000000E+00  0.00000000000E+00  0.61852896967E+03  0.61852896969E+03  0.50400001928E-02 0. -1.
        1   -1    0    0  501    0  0.00000000000E+00  0.00000000000E+00 -0.12705755666E+04  0.12705755666E+04  0.50400001928E-02 0.  1.
    10030    2    1    2    0    0  0.00000000000E+00  0.00000000000E+00 -0.65204659697E+03  0.18891045363E+04  0.17730062562E+04 0.  0.
        1    1    3    3  502    0 -0.64190512831E+03  0.57948997522E+03 -0.11822179492E+03  0.87282714093E+03  0.50400001928E-02 0. -1.
       -1    1    3    3    0  502  0.64190512831E+03 -0.57948997522E+03 -0.53382480205E+03  0.10162773954E+04  0.50400001928E-02 0.  1.
</event>
<event>
 5   0  0.3308275E-04  0.1831640E+04  0.7818609E-02  0.8689652E-01
       -1   -1    0    0    0  501  0.00000000000E+00  0.00000000000E+00  0.97705239515E+03  0.97705239517E+03  0.50400001928E-02 0. -1.
        1   -1    0    0  501    0  0.00000000000E+00  0.00000000000E+00 -0.85842519195E+03  0.85842519196E+03  0.50400001928E-02 0.  1.
    10030    2    1    2    0    0  0.00000000000E+00  0.00000000000E+00  0.11862720321E+03  0.18354775871E+04  0.18316401283E+04 0.  0.
        3    1    3    3  502    0 -0.59861729054E+03  0.47401092157E+03 -0.44741108493E+03  0.88498909791E+03  0.10100000352E+00 0.  1.
       -3    1    3    3    0  502  0.59861729054E+03 -0.47401092157E+03  0.56603828814E+03  0.95048848922E+03  0.10100000352E+00 0. -1.
</event>
<event>
 5   0  0.3377273E-04  0.1776367E+04  0.7818609E-02  0.8718969E-01
        1   -1    0    0  501    0  0.00000000000E+00  0.00000000000E+00  0.11102749514E+04  0.11102749514E+04  0.50400001928E-02 0.  1.
       -1   -1    0    0    0  501  0.00000000000E+00  0.00000000000E+00 -0.71051777621E+03  0.71051777622E+03  0.50400001928E-02 0. -1.
    10030    2    1    2    0    0  0.00000000000E+00  0.00000000000E+00  0.39975717518E+03  0.18207927276E+04  0.17763671799E+04 0.  0.
        2    1    3    3  502    0  0.40933944259E+03 -0.50911554092E+03  0.81668607020E+03  0.10458171688E+04  0.25500000920E-02 0.  1.
       -2    1    3    3    0  502 -0.40933944259E+03  0.50911554092E+03 -0.41692889502E+03  0.77497555883E+03  0.25500000920E-02 0. -1.
</event>
<event>
 5   0  0.3413839E-04  0.1856112E+04  0.7818609E-02  0.8677016E-01
       -1   -1    0    0    0  501  0.00000000000E+00  0.00000000000E+00  0.76685993975E+03  0.76685993977E+03  0.50400001928E-02 0. -1.
        1   -1    0    0  501    0  0.00000000000E+00  0.00000000000E+00 -0.11231360217E+04  0.11231360217E+04  0.50400001928E-02 0.  1.
    10030    2    1    2    0    0  0.00000000000E+00  0.00000000000E+00 -0.35627608197E+03  0.18899959615E+04  0.18561120893E+04 0.  0.
        5    1    3    3  502    0 -0.17836524542E+03 -0.91032728123E+03 -0.20613565952E+03  0.95027570729E+03  0.46999998093E+01 0.  1.
       -5    1    3    3    0  502  0.17836524542E+03  0.91032728123E+03 -0.15014042245E+03  0.93972025422E+03  0.46999998093E+01 0. -1.
</event>
<event>
 5   0  0.6774451E-04  0.1761971E+04  0.7818609E-02  0.8726788E-01
        2   -1    0    0  501    0  0.00000000000E+00  0.00000000000E+00  0.12369516167E+04  0.12369516167E+04  0.25500000920E-02 0. -1.
       -2   -1    0    0    0  501  0.00000000000E+00  0.00000000000E+00 -0.62745829845E+03  0.62745829845E+03  0.25500000920E-02 0.  1.
    10030    2    1    2    0    0  0.00000000000E+00  0.00000000000E+00  0.60949331822E+03  0.18644099151E+04  0.17619711197E+04 0.  0.
        4    1    3    3  502    0  0.47948823801E+03  0.34940511515E+03 -0.38437796109E+03  0.70692357066E+03  0.12699999809E+01 0.  1.
       -4    1    3    3    0  502 -0.47948823801E+03 -0.34940511515E+03  0.99387127931E+03  0.11574863445E+04  0.12699999809E+01 0. -1.
</event>
<event>
 5   0  0.6771967E-04  0.1827664E+04  0.7818609E-02  0.8691725E-01
       -2   -1    0    0    0  501  0.00000000000E+00  0.00000000000E+00  0.67188753670E+03  0.67188753670E+03  0.25500000920E-02 0.  1.
        2   -1    0    0  501    0  0.00000000000E+00  0.00000000000E+00 -0.12429002009E+04  0.12429002009E+04  0.25500000920E-02 0. -1.
    10030    2    1    2    0    0  0.00000000000E+00  0.00000000000E+00 -0.57101266423E+03  0.19147877376E+04  0.18276642518E+04 0.  0.
        1    1    3    3  502    0 -0.23686519095E+03  0.54795877271E+03 -0.10103884287E+04  0.11735624023E+04  0.50400001928E-02 0. -1.
       -1    1    3    3    0  502  0.23686519095E+03 -0.54795877271E+03  0.43937576447E+03  0.74122533531E+03  0.50400001928E-02 0.  1.
</event>
<event>
 5   0  0.3470962E-04  0.9164894E+03  0.7818609E-02  0.9405200E-01
        1   -1    0    0  501    0  0.00000000000E+00  0.00000000000E+00  0.13080682704E+04  0.13080682704E+04  0.50400001928E-02 0.  1.
       -1   -1    0    0    0  501  0.00000000000E+00  0.00000000000E+00 -0.16053306260E+03  0.16053306268E+03  0.50400001928E-02 0. -1.
    10030    2    1    2    0    0  0.00000000000E+00  0.00000000000E+00  0.11475352078E+04  0.14686013330E+04  0.91648940113E+03 0.  0.
        4    1    3    3  502    0  0.21798043427E+03 -0.11601704399E+03 -0.44798163075E+02  0.25096595892E+03  0.12699999809E+01 0. -1.
       -4    1    3    3    0  502 -0.21798043427E+03  0.11601704399E+03  0.11923333708E+04  0.12176353741E+04  0.12699999809E+01 0.  1.
</event>
<event>
 5   0  0.6853162E-04  0.1236008E+04  0.7818609E-02  0.9081910E-01
       -2   -1    0    0    0  501  0.00000000000E+00  0.00000000000E+00  0.19582738107E+03  0.19582738109E+03  0.25500000920E-02 0. -1.
        2   -1    0    0  501    0  0.00000000000E+00  0.00000000000E+00 -0.19503358030E+04  0.19503358030E+04  0.25500000920E-02 0.  1.
    10030    2    1    2    0    0  0.00000000000E+00  0.00000000000E+00 -0.17545084220E+04  0.21461631841E+04  0.12360083374E+04 0.  0.
        2    1    3    3  502    0  0.38813778447E+03 -0.45868612589E+03 -0.62631924177E+03  0.86793991407E+03  0.25500000920E-02 0.  1.
       -2    1    3    3    0  502 -0.38813778447E+03  0.45868612589E+03 -0.11281891802E+04  0.12782232701E+04  0.25500000920E-02 0. -1.
</event>
<event>
 5   0  0.3413839E-04  0.1808178E+04  0.7818609E-02  0.8701963E-01
       -1   -1    0    0    0  501  0.00000000000E+00  0.00000000000E+00  0.52266683924E+03  0.52266683927E+03  0.50400001928E-02 0.  1.
        1   -1    0    0  501    0  0.00000000000E+00  0.00000000000E+00 -0.15638584446E+04  0.15638584447E+04  0.50400001928E-02 0. -1.
    10030    2    1    2    0    0  0.00000000000E+00  0.00000000000E+00 -0.10411916054E+04  0.20865252839E+04  0.18081780336E+04 0.  0.
        5    1    3    3  502    0 -0.44176005821E+03 -0.43953538790E+03 -0.12764133268E+04  0.14204211971E+04  0.46999998093E+01 0. -1.
       -5    1    3    3    0  502  0.44176005821E+03  0.43953538790E+03  0.23522172144E+03  0.66610408682E+03  0.46999998093E+01 0.  1.
</event>
<event>
 5   0  0.6853162E-04  0.1712871E+04  0.7818609E-02  0.8754057E-01
        2   -1    0    0  501    0  0.00000000000E+00  0.00000000000E+00  0.68480324106E+03  0.68480324106E+03  0.25500000920E-02 0. -1.
       -2   -1    0    0    0  501  0.00000000000E+00  0.00000000000E+00 -0.10710839238E+04  0.10710839238E+04  0.25500000920E-02 0.  1.
    10030    2    1    2    0    0  0.00000000000E+00  0.00000000000E+00 -0.38628068276E+03  0.17558871649E+04  0.17128709729E+04 0.  0.
        2    1    3    3  502    0 -0.63149922421E+03 -0.28507787269E+03  0.32291148836E+03  0.76441643952E+03  0.25500000920E-02 0. -1.
       -2    1    3    3    0  502  0.63149922421E+03  0.28507787269E+03 -0.70919217112E+03  0.99147072537E+03  0.25500000920E-02 0.  1.
</event>
<event>
 5   0  0.3470962E-04  0.1870238E+04  0.7818609E-02  0.8669814E-01
        1   -1    0    0  501    0  0.00000000000E+00  0.00000000000E+00  0.84969456986E+03  0.84969456988E+03  0.50400001928E-02 0.  1.
       -1   -1    0    0    0  501  0.00000000000E+00  0.00000000000E+00 -0.10291318058E+04  0.10291318058E+04  0.50400001928E-02 0. -1.
    10030    2    1    2    0    0  0.00000000000E+00  0.00000000000E+00 -0.17943723594E+03  0.18788263757E+04  0.18702381742E+04 0.  0.
        4    1    3    3  502    0 -0.46858355252E+03  0.14311971444E+03 -0.88986359105E+03  0.10158310007E+04  0.12699999809E+01 0. -1.
       -4    1    3    3    0  502  0.46858355252E+03 -0.14311971444E+03  0.71042635512E+03  0.86299537501E+03  0.12699999809E+01 0.  1.
</event>
<event>
 5   0  0.3377273E-04  0.1879584E+04  0.7818609E-02  0.8665086E-01
        1   -1    0    0  501    0  0.00000000000E+00  0.00000000000E+00  0.10763532311E+04  0.10763532311E+04  0.50400001928E-02 0.  1.
       -1   -1    0    0    0  501  0.00000000000E+00  0.00000000000E+00 -0.82055692344E+03  0.82055692346E+03  0.50400001928E-02 0. -1.
    10030    2    1    2    0    0  0.00000000000E+00  0.00000000000E+00  0.25579630765E+03  0.18969101546E+04  0.18795840985E+04 0.  0.
        2    1    3    3  502    0  0.60078886049E+03  0.71531472100E+03  0.23173825806E+03  0.96245780439E+03  0.25500000920E-02 0.  1.
       -2    1    3    3    0  502 -0.60078886049E+03 -0.71531472100E+03  0.24058049589E+02  0.93445235017E+03  0.25500000920E-02 0. -1.
</event>
<event>
 5   0  0.3377273E-04  0.1879931E+04  0.7818609E-02  0.8664911E-01
        1   -1    0    0  501    0  0.00000000000E+00  0.00000000000E+00  0.10908074355E+04  0.10908074355E+04  0.50400001928E-02 0. -1.
       -1   -1    0    0    0  501  0.00000000000E+00  0.00000000000E+00 -0.80998263673E+03  0.80998263675E+03  0.50400001928E-02 0.  1.
    10030    2    1    2    0    0  0.00000000000E+00  0.00000000000E+00  0.28082479872E+03  0.19007900722E+04  0.18799309378E+04 0.  0.
        2    1    3    3  502    0  0.77406703586E+03  0.45766667099E+03  0.41712127775E+03  0.99127630764E+03  0.25500000920E-02 0.  1.
       -2    1    3    3    0  502 -0.77406703586E+03 -0.45766667099E+03 -0.13629647903E+03  0.90951376457E+03  0.25500000920E-02 0. -1.
</event>
<event>
 5   0  0.6853162E-04  0.1584254E+04  0.7818609E-02  0.8830280E-01
        2   -1    0    0  501    0  0.00000000000E+00  0.00000000000E+00  0.17850225537E+04  0.17850225537E+04  0.25500000920E-02 0. -1.
       -2   -1    0    0    0  501  0.00000000000E+00  0.00000000000E+00 -0.35151677061E+03  0.35151677062E+03  0.25500000920E-02 0.  1.
    10030    2    1    2    0    0  0.00000000000E+00  0.00000000000E+00  0.14335057831E+04  0.21365393244E+04  0.15842542265E+04 0.  0.
        2    1    3    3  502    0  0.85591894086E+02 -0.36111910289E+03  0.16605212835E+04  0.17014887339E+04  0.25500000920E-02 0. -1.
       -2    1    3    3    0  502 -0.85591894086E+02  0.36111910289E+03 -0.22701550037E+03  0.43505059042E+03  0.25500000920E-02 0.  1.
</event>
<event>
 5   0  0.3413839E-04  0.1858001E+04  0.7818609E-02  0.8676049E-01
        1   -1    0    0  501    0  0.00000000000E+00  0.00000000000E+00  0.16440350102E+04  0.16440350102E+04  0.50400001928E-02 0. -1.
       -1   -1    0    0    0  501  0.00000000000E+00  0.00000000000E+00 -0.52495365261E+03  0.52495365263E+03  0.50400001928E-02 0.  1.
    10030    2    1    2    0    0  0.00000000000E+00  0.00000000000E+00  0.11190813576E+04  0.21689886628E+04  0.18580012741E+04 0.  0.
        5    1    3    3  502    0 -0.55438635683E+03  0.70689347770E+03  0.28334434085E+03  0.94199189325E+03  0.46999998093E+01 0.  1.
       -5    1    3    3    0  502  0.55438635683E+03 -0.70689347770E+03  0.83573701675E+03  0.12269967696E+04  0.46999998093E+01 0. -1.
</event>
<event>
 5   0  0.6547153E-04  0.1764901E+04  0.7818609E-02  0.8725190E-01
        2   -1    0    0  501    0  0.00000000000E+00  0.00000000000E+00  0.12282209411E+04  0.12282209411E+04  0.25500000920E-02 0. -1.
       -2   -1    0    0    0  501  0.00000000000E+00  0.00000000000E+00 -0.63402207964E+03  0.63402207964E+03  0.25500000920E-02 0.  1.
    10030    2    1    2    0    0  0.00000000000E+00  0.00000000000E+00  0.59419886146E+03  0.18622430207E+04  0.17649013517E+04 0.  0.
        5    1    3    3  502    0  0.19401845561E+02  0.88221932295E+03  0.29380641195E+03  0.93007078392E+03  0.46999998093E+01 0.  1.
       -5    1    3    3    0  502 -0.19401845561E+02 -0.88221932295E+03  0.30039244951E+03  0.93217223683E+03  0.46999998093E+01 0. -1.
</event>
<event>
 5   0  0.6547153E-04  0.1802038E+04  0.7818609E-02  0.8705216E-01
       -2   -1    0    0    0  501  0.00000000000E+00  0.00000000000E+00  0.11643385132E+04  0.11643385132E+04  0.25500000920E-02 0. -1.
        2   -1    0    0  501    0  0.00000000000E+00  0.00000000000E+00 -0.69725030604E+03  0.69725030605E+03  0.25500000920E-02 0.  1.
    10030    2    1    2    0    0  0.00000000000E+00  0.00000000000E+00  0.46708820720E+03  0.18615888193E+04  0.18020381624E+04 0.  0.
        5    1    3    3  502    0 -0.27051322428E+03  0.24299224163E+03  0.10851594499E+04  0.11444718239E+04  0.46999998093E+01 0. -1.
       -5    1    3    3    0  502  0.27051322428E+03 -0.24299224163E+03 -0.61807124271E+03  0.71711699538E+03  0.46999998093E+01 0.  1.
</event>
<event>
 5   0  0.6774451E-04  0.1799526E+04  0.7818609E-02  0.8706552E-01
        2   -1    0    0  501    0  0.00000000000E+00  0.00000000000E+00  0.16570325226E+04  0.16570325226E+04  0.25500000920E-02 0.  1.
       -2   -1    0    0    0  501  0.00000000000E+00  0.00000000000E+00 -0.48856799374E+03  0.48856799375E+03  0.25500000920E-02 0. -1.
    10030    2    1    2    0    0  0.00000000000E+00  0.00000000000E+00  0.11684645289E+04  0.21456005163E+04  0.17995255543E+04 0.  0.
        4    1    3    3  502    0 -0.54448745985E+03  0.39981800742E+03 -0.12441837542E+03  0.68687886707E+03  0.12699999809E+01 0. -1.
       -4    1    3    3    0  502  0.54448745985E+03 -0.39981800742E+03  0.12928829043E+04  0.14587216493E+04  0.12699999809E+01 0.  1.
</event>
<event>
 5   0  0.3470962E-04  0.1790331E+04  0.7818609E-02  0.8711458E-01
       -1   -1    0    0    0  501  0.00000000000E+00  0.00000000000E+00  0.48065074430E+03  0.48065074432E+03  0.50400001928E-02 0. -1.
        1   -1    0    0  501    0  0.00000000000E+00  0.00000000000E+00 -0.16671593341E+04  0.16671593341E+04  0.50400001928E-02 0.  1.
    10030    2    1    2    0    0  0.00000000000E+00  0.00000000000E+00 -0.11865085898E+04  0.21478100784E+04  0.17903311144E+04 0.  0.
        4    1    3    3  502    0  0.58430987492E+03 -0.43381202931E+03 -0.12185917082E+04  0.14193584011E+04  0.12699999809E+01 0.  1.
       -4    1    3    3    0  502 -0.58430987492E+03  0.43381202931E+03  0.32083118427E+02  0.72845167725E+03  0.12699999809E+01 0. -1.
</event>
<event>
 5   0  0.3377273E-04  0.1726269E+04  0.7818609E-02  0.8746522E-01
       -1   -1    0    0    0  501  0.00000000000E+00  0.00000000000E+00  0.90143959171E+03  0.90143959172E+03  0.50400001928E-02 0.  1.
        1   -1    0    0  501    0  0.00000000000E+00  0.00000000000E+00 -0.82645715605E+03  0.82645715607E+03  0.50400001928E-02 0. -1.
    10030    2    1    2    0    0  0.00000000000E+00  0.00000000000E+00  0.74982435657E+02  0.17278967478E+04  0.17262690420E+04 0.  0.
        2    1    3    3  502    0 -0.14763742026E+03 -0.85011243886E+03  0.14815171268E+02  0.86296434218E+03  0.25500000920E-02 0. -1.
       -2    1    3    3    0  502  0.14763742026E+03  0.85011243886E+03  0.60167264389E+02  0.86493240561E+03  0.25500000920E-02 0.  1.
</event>
<event>
 5   0  0.6853162E-04  0.1715246E+04  0.7818609E-02  0.8752717E-01
        2   -1    0    0  501    0  0.00000000000E+00  0.00000000000E+00  0.17290008259E+04  0.17290008259E+04  0.25500000920E-02 0. -1.
       -2   -1    0    0    0  501  0.00000000000E+00  0.00000000000E+00 -0.42539993107E+03  0.42539993107E+03  0.25500000920E-02 0.  1.
    10030    2    1    2    0    0  0.00000000000E+00  0.00000000000E+00  0.13036008948E+04  0.21544007569E+04  0.17152455593E+04 0.  0.
        2    1    3    3  502    0  0.53354271153E+03 -0.65022488988E+03  0.86218686916E+03  0.12045025653E+04  0.25500000920E-02 0. -1.
       -2    1    3    3    0  502 -0.53354271153E+03  0.65022488988E+03  0.44141402562E+03  0.94989819163E+03  0.25500000920E-02 0.  1.
</event>
<event>
 5   0  0.3377273E-04  0.1818879E+04  0.7818609E-02  0.8696324E-01
        1   -1    0    0  501    0  0.00000000000E+00  0.00000000000E+00  0.14003439078E+04  0.14003439078E+04  0.50400001928E-02 0.  1.
       -1   -1    0    0    0  501  0.00000000000E+00  0.00000000000E+00 -0.59062672068E+03  0.59062672070E+03  0.50400001928E-02 0. -1.
    10030    2    1    2    0    0  0.00000000000E+00  0.00000000000E+00  0.80971718715E+03  0.19909706285E+04  0.18188793584E+04 0.  0.
        2    1    3    3  502    0 -0.52714186212E+03 -0.66065250651E+03  0.37322105403E+02  0.84601017530E+03  0.25500000920E-02 0. -1.
       -2    1    3    3    0  502  0.52714186212E+03  0.66065250651E+03  0.77239508175E+03  0.11449604532E+04  0.25500000920E-02 0.  1.
</event>
<event>
 5   0  0.6929121E-04  0.1811334E+04  0.7818609E-02  0.8700295E-01
        2   -1    0    0  501    0  0.00000000000E+00  0.00000000000E+00  0.10271264187E+04  0.10271264187E+04  0.25500000920E-02 0.  1.
       -2   -1    0    0    0  501  0.00000000000E+00  0.00000000000E+00 -0.79857008363E+03  0.79857008364E+03  0.25500000920E-02 0. -1.
    10030    2    1    2    0    0  0.00000000000E+00  0.00000000000E+00  0.22855633502E+03  0.18256965023E+04  0.18113336855E+04 0.  0.
        3    1    3    3  502    0  0.29652112211E+03 -0.56077996208E+03  0.76580414543E+03  0.99441185687E+03  0.10100000352E+00 0.  1.
       -3    1    3    3    0  502 -0.29652112211E+03  0.56077996208E+03 -0.53724781041E+03  0.83128464542E+03  0.10100000352E+00 0. -1.
</event>
<event>
 5   0  0.6547153E-04  0.1786131E+04  0.7818609E-02  0.8713710E-01
       -2   -1    0    0    0  501  0.00000000000E+00  0.00000000000E+00  0.55130967928E+03  0.55130967928E+03  0.25500000920E-02 0. -1.
        2   -1    0    0  501    0  0.00000000000E+00  0.00000000000E+00 -0.14466752786E+04  0.14466752786E+04  0.25500000920E-02 0.  1.
    10030    2    1    2    0    0  0.00000000000E+00  0.00000000000E+00 -0.89536559932E+03  0.19979849579E+04  0.17861311081E+04 0.  0.
        5    1    3    3  502    0 -0.22189530117E+03 -0.12742144825E+03 -0.14047782618E+04  0.14278997881E+04  0.46999998093E+01 0.  1.
       -5    1    3    3    0  502  0.22189530117E+03  0.12742144825E+03  0.50941266244E+03  0.57008516978E+03  0.46999998093E+01 0. -1.
</event>
<event>
 5   0  0.3413839E-04  0.1749357E+04  0.7818609E-02  0.8733704E-01
       -1   -1    0    0    0  501  0.00000000000E+00  0.00000000000E+00  0.57915837639E+03  0.57915837641E+03  0.50400001928E-02 0.  1.
        1   -1    0    0  501    0  0.00000000000E+00  0.00000000000E+00 -0.13209900666E+04  0.13209900666E+04  0.50400001928E-02 0. -1.
    10030    2    1    2    0    0  0.00000000000E+00  0.00000000000E+00 -0.74183169021E+03  0.19001484430E+04  0.17493569816E+04 0.  0.
        5    1    3    3  502    0  0.87655614851E+02 -0.31711277122E+03  0.50937149236E+03  0.60640368049E+03  0.46999998093E+01 0.  1.
       -5    1    3    3    0  502 -0.87655614851E+02  0.31711277122E+03 -0.12512031826E+04  0.12937447625E+04  0.46999998093E+01 0. -1.
</event>
<event>
 5   0  0.3308275E-04  0.1751710E+04  0.7818609E-02  0.8732410E-01
       -1   -1    0    0    0  501  0.00000000000E+00  0.00000000000E+00  0.56920976919E+03  0.56920976922E+03  0.50400001928E-02 0.  1.
        1   -1    0    0  501    0  0.00000000000E+00  0.00000000000E+00 -0.13476966978E+04  0.13476966978E+04  0.50400001928E-02 0. -1.
    10030    2    1    2    0    0  0.00000000000E+00  0.00000000000E+00 -0.77848692858E+03  0.19169064670E+04  0.17517101659E+04 0.  0.
        3    1    3    3  502    0  0.39954919370E+03 -0.31915781776E+03  0.38888474033E+03  0.64244269961E+03  0.10100000352E+00 0.  1.
       -3    1    3    3    0  502 -0.39954919370E+03  0.31915781776E+03 -0.11673716689E+04  0.12744637674E+04  0.10100000352E+00 0. -1.
</event>
<event>
 5   0  0.6929121E-04  0.1794104E+04  0.7818609E-02  0.8709441E-01
        2   -1    0    0  501    0  0.00000000000E+00  0.00000000000E+00  0.15296343899E+04  0.15296343899E+04  0.25500000920E-02 0.  1.
       -2   -1    0    0    0  501  0.00000000000E+00  0.00000000000E+00 -0.52607482208E+03  0.52607482209E+03  0.25500000920E-02 0. -1.
    10030    2    1    2    0    0  0.00000000000E+00  0.00000000000E+00  0.10035595678E+04  0.20557092120E+04  0.17941038315E+04 0.  0.
        3    1    3    3  502    0  0.54449325564E+02  0.65096418482E+03 -0.20267035583E+03  0.68395495634E+03  0.10100000352E+00 0. -1.
       -3    1    3    3    0  502 -0.54449325564E+02 -0.65096418482E+03  0.12062299236E+04  0.13717542556E+04  0.10100000352E+00 0.  1.
</event>
<event>
 5   0  0.6771967E-04  0.1780651E+04  0.7818609E-02  0.8716657E-01
       -2   -1    0    0    0  501  0.00000000000E+00  0.00000000000E+00  0.66993370891E+03  0.66993370891E+03  0.25500000920E-02 0. -1.
        2   -1    0    0  501    0  0.00000000000E+00  0.00000000000E+00 -0.11832202009E+04  0.11832202010E+04  0.25500000920E-02 0.  1.
    10030    2    1    2    0    0  0.00000000000E+00  0.00000000000E+00 -0.51328649204E+03  0.18531539099E+04  0.17806505527E+04 0.  0.
        1    1    3    3  502    0  0.47131984123E+03  0.18595397385E+03 -0.10185434665E+04  0.11376080460E+04  0.50400001928E-02 0.  1.
       -1    1    3    3    0  502 -0.47131984123E+03 -0.18595397385E+03  0.50525697442E+03  0.71554586391E+03  0.50400001928E-02 0. -1.
</event>
<event>
 5   0  0.6771967E-04  0.1836650E+04  0.7818609E-02  0.8687048E-01
       -2   -1    0    0    0  501  0.00000000000E+00  0.00000000000E+00  0.61804318810E+03  0.61804318810E+03  0.25500000920E-02 0.  1.
        2   -1    0    0  501    0  0.00000000000E+00  0.00000000000E+00 -0.13645019839E+04  0.13645019839E+04  0.25500000920E-02 0. -1.
    10030    2    1    2    0    0  0.00000000000E+00  0.00000000000E+00 -0.74645879584E+03  0.19825451720E+04  0.18366503819E+04 0.  0.
        1    1    3    3  502    0  0.20572547714E+02  0.11043833329E+03  0.61059829584E+03  0.62084630472E+03  0.50400001928E-02 0.  1.
       -1    1    3    3    0  502 -0.20572547714E+02 -0.11043833329E+03 -0.13570570917E+04  0.13616988673E+04  0.50400001928E-02 0. -1.
</event>
<event>
 5   0  0.6853162E-04  0.1638158E+04  0.7818609E-02  0.8797443E-01
        2   -1    0    0  501    0  0.00000000000E+00  0.00000000000E+00  0.13418885246E+04  0.13418885246E+04  0.25500000920E-02 0. -1.
       -2   -1    0    0    0  501  0.00000000000E+00  0.00000000000E+00 -0.49996015695E+03  0.49996015695E+03  0.25500000920E-02 0.  1.
    10030    2    1    2    0    0  0.00000000000E+00  0.00000000000E+00  0.84192836761E+03  0.18418486815E+04  0.16381584751E+04 0.  0.
        2    1    3    3  502    0 -0.22832185060E+03  0.78310413970E+03  0.50440692170E+03  0.95906689221E+03  0.25500000920E-02 0. -1.
       -2    1    3    3    0  502  0.22832185060E+03 -0.78310413970E+03  0.33752144591E+03  0.88278178930E+03  0.25500000920E-02 0.  1.
</event>
<event>
 5   0  0.3404261E-04  0.1801618E+04  0.7818609E-02  0.8705439E-01
       -1   -1    0    0    0  501  0.00000000000E+00  0.00000000000E+00  0.49704682036E+03  0.49704682038E+03  0.50400001928E-02 0.  1.
        1   -1    0    0  501    0  0.00000000000E+00  0.00000000000E+00 -0.16325568044E+04  0.16325568044E+04  0.50400001928E-02 0. -1.
    10030    2    1    2    0    0  0.00000000000E+00  0.00000000000E+00 -0.11355099840E+04  0.21296036248E+04  0.18016183488E+04 0.  0.
        1    1    3    3  502    0  0.70536544291E+03 -0.55372766296E+03 -0.46674371581E+03  0.10109423470E+04  0.50400001928E-02 0.  1.
       -1    1    3    3    0  502 -0.70536544291E+03  0.55372766296E+03 -0.66876626823E+03  0.11186612777E+04  0.50400001928E-02 0. -1.
</event>
<event>
 5   0  0.6771967E-04  0.1779893E+04  0.7818609E-02  0.8717066E-01
        2   -1    0    0  501    0  0.00000000000E+00  0.00000000000E+00  0.15796264309E+04  0.15796264309E+04  0.25500000920E-02 0. -1.
       -2   -1    0    0    0  501  0.00000000000E+00  0.00000000000E+00 -0.50138724122E+03  0.50138724123E+03  0.25500000920E-02 0.  1.
    10030    2    1    2    0    0  0.00000000000E+00  0.00000000000E+00  0.10782391896E+04  0.20810136721E+04  0.17798927365E+04 0.  0.
        1    1    3    3  502    0 -0.55730296818E+03  0.60624097726E+03  0.14455005876E+03  0.83606784436E+03  0.50400001928E-02 0. -1.
       -1    1    3    3    0  502  0.55730296818E+03 -0.60624097726E+03  0.93368913087E+03  0.12449458277E+04  0.50400001928E-02 0.  1.
</event>
<event>
 5   0  0.6774451E-04  0.1792054E+04  0.7818609E-02  0.8710536E-01
       -2   -1    0    0    0  501  0.00000000000E+00  0.00000000000E+00  0.41043445406E+03  0.41043445407E+03  0.25500000920E-02 0.  1.
        2   -1    0    0  501    0  0.00000000000E+00  0.00000000000E+00 -0.19561331162E+04  0.19561331162E+04  0.25500000920E-02 0. -1.
    10030    2    1    2    0    0  0.00000000000E+00  0.00000000000E+00 -0.15456986621E+04  0.23665675702E+04  0.17920540479E+04 0.  0.
        4    1    3    3  502    0  0.42427445944E+03 -0.29371853800E+03  0.19450689035E+03  0.55146526617E+03  0.12699999809E+01 0.  1.
       -4    1    3    3    0  502 -0.42427445944E+03  0.29371853800E+03 -0.17402055525E+04  0.18151023041E+04  0.12699999809E+01 0. -1.
</event>
<event>
 5   0  0.6929121E-04  0.1810935E+04  0.7818609E-02  0.8700506E-01
        2   -1    0    0  501    0  0.00000000000E+00  0.00000000000E+00  0.12544924365E+04  0.12544924365E+04  0.25500000920E-02 0. -1.
       -2   -1    0    0    0  501  0.00000000000E+00  0.00000000000E+00 -0.65354853171E+03  0.65354853172E+03  0.25500000920E-02 0.  1.
    10030    2    1    2    0    0  0.00000000000E+00  0.00000000000E+00  0.60094390475E+03  0.19080409682E+04  0.18109353273E+04 0.  0.
        3    1    3    3  502    0  0.13333879063E+03  0.35508568267E+03  0.11667558142E+04  0.12268594929E+04  0.10100000352E+00 0. -1.
       -3    1    3    3    0  502 -0.13333879063E+03 -0.35508568267E+03 -0.56581190948E+03  0.68118147526E+03  0.10100000352E+00 0.  1.
</event>
<event>
 5   0  0.3413839E-04  0.1847129E+04  0.7818609E-02  0.8681630E-01
       -1   -1    0    0    0  501  0.00000000000E+00  0.00000000000E+00  0.75235295932E+03  0.75235295934E+03  0.50400001928E-02 0.  1.
        1   -1    0    0  501    0  0.00000000000E+00  0.00000000000E+00 -0.11337387825E+04  0.11337387825E+04  0.50400001928E-02 0. -1.
    10030    2    1    2    0    0  0.00000000000E+00  0.00000000000E+00 -0.38138582314E+03  0.18860917418E+04  0.18471293708E+04 0.  0.
        5    1    3    3  502    0  0.81161237969E+02  0.62858103843E+03 -0.87661268462E+03  0.10817454217E+04  0.46999998093E+01 0. -1.
       -5    1    3    3    0  502 -0.81161237969E+02 -0.62858103843E+03  0.49522686148E+03  0.80434632016E+03  0.46999998093E+01 0.  1.
</event>
<event>
 5   0  0.3377273E-04  0.1859240E+04  0.7818609E-02  0.8675416E-01
        1   -1    0    0  501    0  0.00000000000E+00  0.00000000000E+00  0.10934671875E+04  0.10934671875E+04  0.50400001928E-02 0. -1.
       -1   -1    0    0    0  501  0.00000000000E+00  0.00000000000E+00 -0.79032364052E+03  0.79032364054E+03  0.50400001928E-02 0.  1.
    10030    2    1    2    0    0  0.00000000000E+00  0.00000000000E+00  0.30314354696E+03  0.18837908280E+04  0.18592395956E+04 0.  0.
        2    1    3    3  502    0 -0.73340927050E+03  0.52899027613E+03 -0.66851107484E+02  0.90674634869E+03  0.25500000920E-02 0. -1.
       -2    1    3    3    0  502  0.73340927050E+03 -0.52899027613E+03  0.36999465445E+03  0.97704447935E+03  0.25500000920E-02 0.  1.
</event>
<event>
 5   0  0.6771967E-04  0.1814755E+04  0.7818609E-02  0.8698492E-01
        2   -1    0    0  501    0  0.00000000000E+00  0.00000000000E+00  0.12257416796E+04  0.12257416796E+04  0.25500000920E-02 0.  1.
       -2   -1    0    0    0  501  0.00000000000E+00  0.00000000000E+00 -0.67170280037E+03  0.67170280037E+03  0.25500000920E-02 0. -1.
    10030    2    1    2    0    0  0.00000000000E+00  0.00000000000E+00  0.55403887925E+03  0.18974444800E+04  0.18147552108E+04 0.  0.
        1    1    3    3  502    0 -0.22176260890E+03  0.29942260491E+03 -0.58802466079E+03  0.69613615964E+03  0.50400001928E-02 0. -1.
       -1    1    3    3    0  502  0.22176260890E+03 -0.29942260491E+03  0.11420635400E+04  0.12013083204E+04  0.50400001928E-02 0.  1.
</event>
<event>
 5   0  0.6774451E-04  0.1642291E+04  0.7818609E-02  0.8794980E-01
       -2   -1    0    0    0  501  0.00000000000E+00  0.00000000000E+00  0.13587885828E+04  0.13587885828E+04  0.25500000920E-02 0. -1.
        2   -1    0    0  501    0  0.00000000000E+00  0.00000000000E+00 -0.49623611804E+03  0.49623611805E+03  0.25500000920E-02 0.  1.
    10030    2    1    2    0    0  0.00000000000E+00  0.00000000000E+00  0.86255246476E+03  0.18550247009E+04  0.16422910480E+04 0.  0.
        4    1    3    3  502    0  0.17233426333E+03 -0.45554068781E+02 -0.47411757280E+03  0.50652083593E+03  0.12699999809E+01 0.  1.
       -4    1    3    3    0  502 -0.17233426333E+03  0.45554068781E+02  0.13366700376E+04  0.13485038649E+04  0.12699999809E+01 0. -1.
</event>
<event>
 5   0  0.6929121E-04  0.1749793E+04  0.7818609E-02  0.8733464E-01
       -2   -1    0    0    0  501  0.00000000000E+00  0.00000000000E+00  0.13548596840E+04  0.13548596840E+04  0.25500000920E-02 0. -1.
        2   -1    0    0  501    0  0.00000000000E+00  0.00000000000E+00 -0.56496169973E+03  0.56496169974E+03  0.25500000920E-02 0.  1.
    10030    2    1    2    0    0  0.00000000000E+00  0.00000000000E+00  0.78989798426E+03  0.19198213837E+04  0.17497929363E+04 0.  0.
        3    1    3    3  502    0  0.34245413709E+03  0.15767636681E+03 -0.47126504862E+03  0.60351257560E+03  0.10100000352E+00 0.  1.
       -3    1    3    3    0  502 -0.34245413709E+03 -0.15767636681E+03  0.12611630329E+04  0.13163088081E+04  0.10100000352E+00 0. -1.
</event>
<event>
 5   0  0.3404261E-04  0.1781963E+04  0.7818609E-02  0.8715950E-01
        1   -1    0    0  501    0  0.00000000000E+00  0.00000000000E+00  0.10803548095E+04  0.10803548095E+04  0.50400001928E-02 0. -1.
       -1   -1    0    0    0  501  0.00000000000E+00  0.00000000000E+00 -0.73480347092E+03  0.73480347093E+03  0.50400001928E-02 0.  1.
    10030    2    1    2    0    0  0.00000000000E+00  0.00000000000E+00  0.34555133859E+03  0.18151582805E+04  0.17819634832E+04 0.  0.
        1    1    3    3  502    0  0.55627404164E+03 -0.22987161560E+03  0.84195059893E+03  0.10349698450E+04  0.50400001928E-02 0. -1.
       -1    1    3    3    0  502 -0.55627404164E+03  0.22987161560E+03 -0.49639926034E+03  0.78018843542E+03  0.50400001928E-02 0.  1.
</event>
<event>
 5   0  0.6853162E-04  0.1823215E+04  0.7818609E-02  0.8694051E-01
       -2   -1    0    0    0  501  0.00000000000E+00  0.00000000000E+00  0.56288603688E+03  0.56288603689E+03  0.25500000920E-02 0. -1.
        2   -1    0    0  501    0  0.00000000000E+00  0.00000000000E+00 -0.14763701863E+04  0.14763701863E+04  0.25500000920E-02 0.  1.
    10030    2    1    2    0    0  0.00000000000E+00  0.00000000000E+00 -0.91348414946E+03  0.20392562232E+04  0.18232149222E+04 0.  0.
        2    1    3    3  502    0 -0.65864624039E+01 -0.74324851260E+03  0.13359263494E+03  0.75518787403E+03  0.25500000920E-02 0. -1.
       -2    1    3    3    0  502  0.65864624039E+01  0.74324851260E+03 -0.10470767844E+04  0.12840683492E+04  0.25500000920E-02 0.  1.
</event>
<event>
 5   0  0.3404261E-04  0.1728214E+04  0.7818609E-02  0.8745434E-01
        1   -1    0    0  501    0  0.00000000000E+00  0.00000000000E+00  0.91243852298E+03  0.91243852299E+03  0.50400001928E-02 0. -1.
       -1   -1    0    0    0  501  0.00000000000E+00  0.00000000000E+00 -0.81833570123E+03  0.81833570125E+03  0.50400001928E-02 0.  1.
    10030    2    1    2    0    0  0.00000000000E+00  0.00000000000E+00  0.94102821746E+02  0.17307742242E+04  0.17282141286E+04 0.  0.
        1    1    3    3  502    0 -0.61159565771E+03 -0.58206970421E+03 -0.13714121125E+03  0.85537249251E+03  0.50400001928E-02 0.  1.
       -1    1    3    3    0  502  0.61159565771E+03  0.58206970421E+03  0.23124403299E+03  0.87540173173E+03  0.50400001928E-02 0. -1.
</event>
<event>
 5   0  0.3377273E-04  0.1775637E+04  0.7818609E-02  0.8719364E-01
       -1   -1    0    0    0  501  0.00000000000E+00  0.00000000000E+00  0.49281858430E+03  0.49281858432E+03  0.50400001928E-02 0. -1.
        1   -1    0    0  501    0  0.00000000000E+00  0.00000000000E+00 -0.15994160918E+04  0.15994160919E+04  0.50400001928E-02 0.  1.
    10030    2    1    2    0    0  0.00000000000E+00  0.00000000000E+00 -0.11065975075E+04  0.20922346762E+04  0.17756373212E+04 0.  0.
        2    1    3    3  502    0  0.17123813021E+01 -0.14954912455E+03  0.47786859338E+03  0.50072573875E+03  0.25500000920E-02 0. -1.
       -2    1    3    3    0  502 -0.17123813021E+01  0.14954912455E+03 -0.15844661009E+04  0.15915089374E+04  0.25500000920E-02 0.  1.
</event>
<event>
 5   0  0.6547153E-04  0.1687539E+04  0.7818609E-02  0.8768504E-01
        2   -1    0    0  501    0  0.00000000000E+00  0.00000000000E+00  0.45124865015E+03  0.45124865016E+03  0.25500000920E-02 0.  1.
       -2   -1    0    0    0  501  0.00000000000E+00  0.00000000000E+00 -0.15777258720E+04  0.15777258720E+04  0.25500000920E-02 0. -1.
    10030    2    1    2    0    0  0.00000000000E+00  0.00000000000E+00 -0.11264772219E+04  0.20289745222E+04  0.16875386456E+04 0.  0.
        5    1    3    3  502    0  0.24989780701E+03 -0.38780981379E+03 -0.14126295188E+04  0.14860651443E+04  0.46999998093E+01 0. -1.
       -5    1    3    3    0  502 -0.24989780701E+03  0.38780981379E+03  0.28615229691E+03  0.54290937793E+03  0.46999998093E+01 0.  1.
</event>
<event>
 5   0  0.3404261E-04  0.1783387E+04  0.7818609E-02  0.8715184E-01
        1   -1    0    0  501    0  0.00000000000E+00  0.00000000000E+00  0.75932971052E+03  0.75932971053E+03  0.50400001928E-02 0.  1.
       -1   -1    0    0    0  501  0.00000000000E+00  0.00000000000E+00 -0.10471302593E+04  0.10471302593E+04  0.50400001928E-02 0. -1.
    10030    2    1    2    0    0  0.00000000000E+00  0.00000000000E+00 -0.28780054875E+03  0.18064599698E+04  0.17833867967E+04 0.  0.
        1    1    3    3  502    0 -0.62465085558E+03  0.48483491652E+03 -0.56137757481E+03  0.96974139294E+03  0.50400001928E-02 0. -1.
       -1    1    3    3    0  502  0.62465085558E+03 -0.48483491652E+03  0.27357702607E+03  0.83671857687E+03  0.50400001928E-02 0.  1.
</event>
<event>
 5   0  0.6774451E-04  0.1766727E+04  0.7818609E-02  0.8724197E-01
       -2   -1    0    0    0  501  0.00000000000E+00  0.00000000000E+00  0.80774417311E+03  0.80774417311E+03  0.25500000920E-02 0. -1.
        2   -1    0    0  501    0  0.00000000000E+00  0.00000000000E+00 -0.96606183336E+03  0.96606183336E+03  0.25500000920E-02 0.  1.
    10030    2    1    2    0    0  0.00000000000E+00  0.00000000000E+00 -0.15831766025E+03  0.17738060065E+04  0.17667267098E+04 0.  0.
        4    1    3    3  502    0 -0.30293679105E+03 -0.45116895640E+03  0.62005480517E+03  0.82449602843E+03  0.12699999809E+01 0. -1.
       -4    1    3    3    0  502  0.30293679105E+03  0.45116895640E+03 -0.77837246542E+03  0.94930997804E+03  0.12699999809E+01 0.  1.
</event>
<event>
 5   0  0.2467375E-04  0.1930657E+04  0.7818609E-02  0.8639745E-01
        3   -1    0    0  501    0  0.00000000000E+00  0.00000000000E+00  0.71365832713E+03  0.71365833428E+03  0.10100000352E+00 0.  1.
       -3   -1    0    0    0  501  0.00000000000E+00  0.00000000000E+00 -0.13057501669E+04  0.13057501708E+04  0.10100000352E+00 0. -1.
    10030    2    1    2    0    0  0.00000000000E+00  0.00000000000E+00 -0.59209183980E+03  0.20194085051E+04  0.19306573916E+04 0.  0.
        2    1    3    3  502    0  0.91851727188E+03 -0.19309065156E+03 -0.53203087311E+03  0.10788951888E+04  0.25500000920E-02 0. -1.
       -2    1    3    3    0  502 -0.91851727188E+03  0.19309065156E+03 -0.60060966690E+02  0.94051331632E+03  0.25500000920E-02 0.  1.
</event>
<event>
 5   0  0.6929121E-04  0.1830318E+04  0.7818609E-02  0.8690341E-01
        2   -1    0    0  501    0  0.00000000000E+00  0.00000000000E+00  0.80571649923E+03  0.80571649924E+03  0.25500000920E-02 0. -1.
       -2   -1    0    0    0  501  0.00000000000E+00  0.00000000000E+00 -0.10394671922E+04  0.10394671922E+04  0.25500000920E-02 0.  1.
    10030    2    1    2    0    0  0.00000000000E+00  0.00000000000E+00 -0.23375069300E+03  0.18451836915E+04  0.18303178600E+04 0.  0.
        3    1    3    3  502    0  0.40643499828E+03  0.26568035125E+03  0.66514432035E+03  0.82352439792E+03  0.10100000352E+00 0. -1.
       -3    1    3    3    0  502 -0.40643499828E+03 -0.26568035125E+03 -0.89889501336E+03  0.10216592936E+04  0.10100000352E+00 0.  1.
</event>
<event>
 5   0  0.6929121E-04  0.1961014E+04  0.7818609E-02  0.8625068E-01
       -2   -1    0    0    0  501  0.00000000000E+00  0.00000000000E+00  0.59704703341E+03  0.59704703341E+03  0.25500000920E-02 0. -1.
        2   -1    0    0  501    0  0.00000000000E+00  0.00000000000E+00 -0.16102484236E+04  0.16102484236E+04  0.25500000920E-02 0.  1.
    10030    2    1    2    0    0  0.00000000000E+00  0.00000000000E+00 -0.10132013902E+04  0.22072954570E+04  0.19610140687E+04 0.  0.
        3    1    3    3  502    0  0.22834833653E+03 -0.65904572399E+01  0.56667500732E+03  0.61098851957E+03  0.10100000352E+00 0. -1.
       -3    1    3    3    0  502 -0.22834833653E+03  0.65904572399E+01 -0.15798763975E+04  0.15963069375E+04  0.10100000352E+00 0.  1.
</event>
<event>
 5   0  0.3308275E-04  0.1768278E+04  0.7818609E-02  0.8723353E-01
       -1   -1    0    0    0  501  0.00000000000E+00  0.00000000000E+00  0.12869193475E+04  0.12869193475E+04  0.50400001928E-02 0. -1.
        1   -1    0    0  501    0  0.00000000000E+00  0.00000000000E+00 -0.60742113650E+03  0.60742113653E+03  0.50400001928E-02 0.  1.
    10030    2    1    2    0    0  0.00000000000E+00  0.00000000000E+00  0.67949821101E+03  0.18943404840E+04  0.17682782730E+04 0.  0.
        3    1    3    3  502    0 -0.12628681847E+02  0.21872091210E+03 -0.57788126550E+03  0.61801706142E+03  0.10100000352E+00 0.  1.
       -3    1    3    3    0  502  0.12628681847E+02 -0.21872091210E+03  0.12573794765E+04  0.12763234226E+04  0.10100000352E+00 0. -1.
</event>
<event>
 5   0  0.6853162E-04  0.1803293E+04  0.7818609E-02  0.8704550E-01
       -2   -1    0    0    0  501  0.00000000000E+00  0.00000000000E+00  0.78426643858E+03  0.78426643859E+03  0.25500000920E-02 0. -1.
        2   -1    0    0  501    0  0.00000000000E+00  0.00000000000E+00 -0.10365948386E+04  0.10365948386E+04  0.25500000920E-02 0.  1.
    10030    2    1    2    0    0  0.00000000000E+00  0.00000000000E+00 -0.25232840000E+03  0.18208612772E+04  0.18032931457E+04 0.  0.
        2    1    3    3  502    0  0.79290888136E+02 -0.53590595104E+03 -0.85393855057E+03  0.10112829878E+04  0.25500000920E-02 0.  1.
       -2    1    3    3    0  502 -0.79290888136E+02  0.53590595104E+03  0.60161015057E+03  0.80957828935E+03  0.25500000920E-02 0. -1.
</event>
<event>
 5   0  0.6774451E-04  0.1634555E+04  0.7818609E-02  0.8799596E-01
       -2   -1    0    0    0  501  0.00000000000E+00  0.00000000000E+00  0.46847430287E+03  0.46847430288E+03  0.25500000920E-02 0. -1.
        2   -1    0    0  501    0  0.00000000000E+00  0.00000000000E+00 -0.14257820988E+04  0.14257820988E+04  0.25500000920E-02 0.  1.
    10030    2    1    2    0    0  0.00000000000E+00  0.00000000000E+00 -0.95730779591E+03  0.18942564017E+04  0.16345547097E+04 0.  0.
        4    1    3    3  502    0 -0.77440535606E+03 -0.16007816914E+03 -0.71787814203E+03  0.10680258964E+04  0.12699999809E+01 0.  1.
       -4    1    3    3    0  502  0.77440535606E+03  0.16007816914E+03 -0.23942965387E+03  0.82623050524E+03  0.12699999809E+01 0. -1.
</event>
<event>
 5   0  0.6774451E-04  0.1203363E+04  0.7818609E-02  0.9109918E-01
       -2   -1    0    0    0  501  0.00000000000E+00  0.00000000000E+00  0.29259031821E+03  0.29259031822E+03  0.25500000920E-02 0. -1.
        2   -1    0    0  501    0  0.00000000000E+00  0.00000000000E+00 -0.12372952231E+04  0.12372952231E+04  0.25500000920E-02 0.  1.
    10030    2    1    2    0    0  0.00000000000E+00  0.00000000000E+00 -0.94470490486E+03  0.15298855413E+04  0.12033629594E+04 0.  0.
        4    1    3    3  502    0  0.59945555258E+03  0.29005019067E+02 -0.52674953098E+03  0.79853298738E+03  0.12699999809E+01 0. -1.
       -4    1    3    3    0  502 -0.59945555258E+03 -0.29005019067E+02 -0.41795537388E+03  0.73135255390E+03  0.12699999809E+01 0.  1.
</event>
<event>
 5   0  0.3470962E-04  0.1787788E+04  0.7818609E-02  0.8712821E-01
       -1   -1    0    0    0  501  0.00000000000E+00  0.00000000000E+00  0.71073324734E+03  0.71073324736E+03  0.50400001928E-02 0. -1.
        1   -1    0    0  501    0  0.00000000000E+00  0.00000000000E+00 -0.11242559605E+04  0.11242559605E+04  0.50400001928E-02 0.  1.
    10030    2    1    2    0    0  0.00000000000E+00  0.00000000000E+00 -0.41352271318E+03  0.18349892079E+04  0.17877875597E+04 0.  0.
        4    1    3    3  502    0 -0.45411768187E+02 -0.38987347725E+02 -0.11221960901E+04  0.11237917599E+04  0.12699999809E+01 0.  1.
       -4    1    3    3    0  502  0.45411768187E+02  0.38987347725E+02  0.70867337694E+03  0.71119744801E+03  0.12699999809E+01 0. -1.
</event>
<event>
 5   0  0.3308275E-04  0.1653548E+04  0.7818609E-02  0.8788311E-01
       -1   -1    0    0    0  501  0.00000000000E+00  0.00000000000E+00  0.88184003062E+03  0.88184003063E+03  0.50400001928E-02 0.  1.
        1   -1    0    0  501    0  0.00000000000E+00  0.00000000000E+00 -0.77514609323E+03  0.77514609324E+03  0.50400001928E-02 0. -1.
    10030    2    1    2    0    0  0.00000000000E+00  0.00000000000E+00  0.10669393739E+03  0.16569861239E+04  0.16535475253E+04 0.  0.
        3    1    3    3  502    0  0.23581449361E+03 -0.23018673038E+03 -0.70649131499E+03  0.77956679931E+03  0.10100000352E+00 0. -1.
       -3    1    3    3    0  502 -0.23581449361E+03  0.23018673038E+03  0.81318525237E+03  0.87741932456E+03  0.10100000352E+00 0.  1.
</event>
<event>
 5   0  0.3404261E-04  0.1819476E+04  0.7818609E-02  0.8696010E-01
        1   -1    0    0  501    0  0.00000000000E+00  0.00000000000E+00  0.26304169923E+04  0.26304169923E+04  0.50400001928E-02 0. -1.
       -1   -1    0    0    0  501  0.00000000000E+00  0.00000000000E+00 -0.31463585954E+03  0.31463585958E+03  0.50400001928E-02 0.  1.
    10030    2    1    2    0    0  0.00000000000E+00  0.00000000000E+00  0.23157811327E+04  0.29450528518E+04  0.18194763108E+04 0.  0.
        1    1    3    3  502    0  0.36117965765E+03 -0.70526465392E+03  0.18813542758E+04  0.20414070854E+04  0.50400001928E-02 0. -1.
       -1    1    3    3    0  502 -0.36117965765E+03  0.70526465392E+03  0.43442685687E+03  0.90364576642E+03  0.50400001928E-02 0.  1.
</event>
<event>
 5   0  0.3470962E-04  0.1822091E+04  0.7818609E-02  0.8694639E-01
       -1   -1    0    0    0  501  0.00000000000E+00  0.00000000000E+00  0.83367416643E+03  0.83367416644E+03  0.50400001928E-02 0.  1.
        1   -1    0    0  501    0  0.00000000000E+00  0.00000000000E+00 -0.99559773328E+03  0.99559773329E+03  0.50400001928E-02 0. -1.
    10030    2    1    2    0    0  0.00000000000E+00  0.00000000000E+00 -0.16192356686E+03  0.18292718997E+04  0.18220912276E+04 0.  0.
        4    1    3    3  502    0 -0.90593081235E+03  0.78542176394E+02 -0.13706570948E+03  0.91960215955E+03  0.12699999809E+01 0.  1.
       -4    1    3    3    0  502  0.90593081235E+03 -0.78542176394E+02 -0.24857857375E+02  0.90966974019E+03  0.12699999809E+01 0. -1.
</event>
<event>
 5   0  0.3404261E-04  0.2080016E+04  0.7818609E-02  0.8570098E-01
       -1   -1    0    0    0  501  0.00000000000E+00  0.00000000000E+00  0.55147604018E+03  0.55147604020E+03  0.50400001928E-02 0. -1.
        1   -1    0    0  501    0  0.00000000000E+00  0.00000000000E+00 -0.19613115643E+04  0.19613115643E+04  0.50400001928E-02 0.  1.
    10030    2    1    2    0    0  0.00000000000E+00  0.00000000000E+00 -0.14098355242E+04  0.25127876045E+04  0.20800157068E+04 0.  0.
        1    1    3    3  502    0 -0.69940744543E+03  0.76819427274E+03 -0.76314483492E+03  0.12890629366E+04  0.50400001928E-02 0.  1.
       -1    1    3    3    0  502  0.69940744543E+03 -0.76819427274E+03 -0.64669068923E+03  0.12237246680E+04  0.50400001928E-02 0. -1.
</event>
<event>
 5   0  0.6853162E-04  0.1825940E+04  0.7818609E-02  0.8692625E-01
       -2   -1    0    0    0  501  0.00000000000E+00  0.00000000000E+00  0.39836203910E+03  0.39836203910E+03  0.25500000920E-02 0.  1.
        2   -1    0    0  501    0  0.00000000000E+00  0.00000000000E+00 -0.20923530691E+04  0.20923530691E+04  0.25500000920E-02 0. -1.
    10030    2    1    2    0    0  0.00000000000E+00  0.00000000000E+00 -0.16939910300E+04  0.24907151082E+04  0.18259397965E+04 0.  0.
        2    1    3    3  502    0  0.16950521605E+03 -0.32437649251E+03 -0.19879036524E+04  0.20213146856E+04  0.25500000920E-02 0. -1.
       -2    1    3    3    0  502 -0.16950521605E+03  0.32437649251E+03  0.29391262235E+03  0.46940042261E+03  0.25500000920E-02 0.  1.
</event>
<event>
 5   0  0.3470962E-04  0.1790319E+04  0.7818609E-02  0.8711465E-01
        1   -1    0    0  501    0  0.00000000000E+00  0.00000000000E+00  0.86740805760E+03  0.86740805761E+03  0.50400001928E-02 0. -1.
       -1   -1    0    0    0  501  0.00000000000E+00  0.00000000000E+00 -0.92379852737E+03  0.92379852739E+03  0.50400001928E-02 0.  1.
    10030    2    1    2    0    0  0.00000000000E+00  0.00000000000E+00 -0.56390469775E+02  0.17912065850E+04  0.17903187272E+04 0.  0.
        4    1    3    3  502    0  0.48468298575E+03  0.32359377109E+03  0.65161074765E+03  0.87420175287E+03  0.12699999809E+01 0. -1.
       -4    1    3    3    0  502 -0.48468298575E+03 -0.32359377109E+03 -0.70800121743E+03  0.91700483213E+03  0.12699999809E+01 0.  1.
</event>
<event>
 5   0  0.6774451E-04  0.1777876E+04  0.7818609E-02  0.8718154E-01
       -2   -1    0    0    0  501  0.00000000000E+00  0.00000000000E+00  0.43618622567E+03  0.43618622567E+03  0.25500000920E-02 0.  1.
        2   -1    0    0  501    0  0.00000000000E+00  0.00000000000E+00 -0.18116364245E+04  0.18116364245E+04  0.25500000920E-02 0. -1.
    10030    2    1    2    0    0  0.00000000000E+00  0.00000000000E+00 -0.13754501988E+04  0.22478226502E+04  0.17778760972E+04 0.  0.
        4    1    3    3  502    0  0.29094951037E+03  0.48586719106E+03 -0.15540365351E+04  0.16540101905E+04  0.12699999809E+01 0. -1.
       -4    1    3    3    0  502 -0.29094951037E+03 -0.48586719106E+03  0.17858633623E+03  0.59381245972E+03  0.12699999809E+01 0.  1.
</event>
<event>
 5   0  0.3404261E-04  0.1795081E+04  0.7818609E-02  0.8708920E-01
       -1   -1    0    0    0  501  0.00000000000E+00  0.00000000000E+00  0.45286510590E+03  0.45286510592E+03  0.50400001928E-02 0.  1.
        1   -1    0    0  501    0  0.00000000000E+00  0.00000000000E+00 -0.17788499951E+04  0.17788499951E+04  0.50400001928E-02 0. -1.
    10030    2    1    2    0    0  0.00000000000E+00  0.00000000000E+00 -0.13259848892E+04  0.22317151010E+04  0.17950811585E+04 0.  0.
        1    1    3    3  502    0  0.22010265434E+03  0.36538492575E+03  0.31879480181E+03  0.53252365966E+03  0.50400001928E-02 0.  1.
       -1    1    3    3    0  502 -0.22010265434E+03 -0.36538492575E+03 -0.16447796910E+04  0.16991914413E+04  0.50400001928E-02 0. -1.
</event>
<event>
 5   0  0.3308275E-04  0.1777355E+04  0.7818609E-02  0.8718435E-01
       -1   -1    0    0    0  501  0.00000000000E+00  0.00000000000E+00  0.54969452358E+03  0.54969452361E+03  0.50400001928E-02 0. -1.
        1   -1    0    0  501    0  0.00000000000E+00  0.00000000000E+00 -0.14367031052E+04  0.14367031052E+04  0.50400001928E-02 0.  1.
    10030    2    1    2    0    0  0.00000000000E+00  0.00000000000E+00 -0.88700858161E+03  0.19863976288E+04  0.17773551462E+04 0.  0.
        3    1    3    3  502    0 -0.67562032615E+03  0.46942058289E+03 -0.67930472504E+02  0.82548959293E+03  0.10100000352E+00 0.  1.
       -3    1    3    3    0  502  0.67562032615E+03 -0.46942058289E+03 -0.81907810910E+03  0.11609080359E+04  0.10100000352E+00 0. -1.
</event>
<event>
 5   0  0.6853162E-04  0.1779487E+04  0.7818609E-02  0.8717285E-01
       -2   -1    0    0    0  501  0.00000000000E+00  0.00000000000E+00  0.11675391861E+04  0.11675391861E+04  0.25500000920E-02 0. -1.
        2   -1    0    0  501    0  0.00000000000E+00  0.00000000000E+00 -0.67804461478E+03  0.67804461478E+03  0.25500000920E-02 0.  1.
    10030    2    1    2    0    0  0.00000000000E+00  0.00000000000E+00  0.48949457127E+03  0.18455838008E+04  0.17794871819E+04 0.  0.
        2    1    3    3  502    0  0.53254481303E+03  0.51068728832E+03 -0.27095216491E+03  0.78601562326E+03  0.25500000920E-02 0.  1.
       -2    1    3    3    0  502 -0.53254481303E+03 -0.51068728832E+03  0.76044673619E+03  0.10595681776E+04  0.25500000920E-02 0. -1.
</event>
<event>
 5   0  0.6929121E-04  0.1757083E+04  0.7818609E-02  0.8729461E-01
       -2   -1    0    0    0  501  0.00000000000E+00  0.00000000000E+00  0.46019639044E+03  0.46019639045E+03  0.25500000920E-02 0.  1.
        2   -1    0    0  501    0  0.00000000000E+00  0.00000000000E+00 -0.16771868360E+04  0.16771868360E+04  0.25500000920E-02 0. -1.
    10030    2    1    2    0    0  0.00000000000E+00  0.00000000000E+00 -0.12169904456E+04  0.21373832265E+04  0.17570831830E+04 0.  0.
        3    1    3    3  502    0  0.62636516568E+03 -0.58508272578E+03 -0.84305089599E+03  0.12022437108E+04  0.10100000352E+00 0.  1.
       -3    1    3    3    0  502 -0.62636516568E+03  0.58508272578E+03 -0.37393954959E+03  0.93513951565E+03  0.10100000352E+00 0. -1.
</event>
<event>
 5   0  0.6547153E-04  0.1790542E+04  0.7818609E-02  0.8711346E-01
       -2   -1    0    0    0  501  0.00000000000E+00  0.00000000000E+00  0.61721090323E+03  0.61721090323E+03  0.25500000920E-02 0. -1.
        2   -1    0    0  501    0  0.00000000000E+00  0.00000000000E+00 -0.12985996734E+04  0.12985996734E+04  0.25500000920E-02 0.  1.
    10030    2    1    2    0    0  0.00000000000E+00  0.00000000000E+00 -0.68138877012E+03  0.19158105766E+04  0.17905416804E+04 0.  0.
        5    1    3    3  502    0  0.20345060718E+03 -0.27382897241E+03  0.54492954067E+03  0.64291892956E+03  0.46999998093E+01 0. -1.
       -5    1    3    3    0  502 -0.20345060718E+03  0.27382897241E+03 -0.12263183108E+04  0.12728916470E+04  0.46999998093E+01 0.  1.
</event>
<event>
 5   0  0.3470962E-04  0.1824788E+04  0.7818609E-02  0.8693228E-01
        1   -1    0    0  501    0  0.00000000000E+00  0.00000000000E+00  0.83487157970E+03  0.83487157971E+03  0.50400001928E-02 0. -1.
       -1   -1    0    0    0  501  0.00000000000E+00  0.00000000000E+00 -0.99711468214E+03  0.99711468216E+03  0.50400001928E-02 0.  1.
    10030    2    1    2    0    0  0.00000000000E+00  0.00000000000E+00 -0.16224310245E+03  0.18319862619E+04  0.18247878889E+04 0.  0.
        4    1    3    3  502    0  0.49947494383E+03 -0.40969144429E+02  0.68432126401E+03  0.84820451283E+03  0.12699999809E+01 0. -1.
       -4    1    3    3    0  502 -0.49947494383E+03  0.40969144429E+02 -0.84656436645E+03  0.98378174904E+03  0.12699999809E+01 0.  1.
</event>
<event>
 5   0  0.3404261E-04  0.1863556E+04  0.7818609E-02  0.8673213E-01
        1   -1    0    0  501    0  0.00000000000E+00  0.00000000000E+00  0.21250885554E+04  0.21250885554E+04  0.50400001928E-02 0.  1.
       -1   -1    0    0    0  501  0.00000000000E+00  0.00000000000E+00 -0.40855247346E+03  0.40855247349E+03  0.50400001928E-02 0. -1.
    10030    2    1    2    0    0  0.00000000000E+00  0.00000000000E+00  0.17165360820E+04  0.25336410289E+04  0.18635559403E+04 0.  0.
        1    1    3    3  502    0  0.13104179368E+03 -0.16426393656E+03 -0.37591878116E+03  0.43066172642E+03  0.50400001928E-02 0. -1.
       -1    1    3    3    0  502 -0.13104179368E+03  0.16426393656E+03  0.20924548631E+04  0.21029793025E+04  0.50400001928E-02 0.  1.
</event>
<event>
 5   0  0.3308275E-04  0.1675585E+04  0.7818609E-02  0.8775413E-01
        1   -1    0    0  501    0  0.00000000000E+00  0.00000000000E+00  0.20298008229E+04  0.20298008229E+04  0.50400001928E-02 0. -1.
       -1   -1    0    0    0  501  0.00000000000E+00  0.00000000000E+00 -0.34579563412E+03  0.34579563415E+03  0.50400001928E-02 0.  1.
    10030    2    1    2    0    0  0.00000000000E+00  0.00000000000E+00  0.16840051888E+04  0.23755964571E+04  0.16755849877E+04 0.  0.
        3    1    3    3  502    0 -0.83201022244E+03 -0.81623215577E+01  0.70317230313E+03  0.10893846574E+04  0.10100000352E+00 0.  1.
       -3    1    3    3    0  502  0.83201022244E+03  0.81623215577E+01  0.98083288565E+03  0.12862117996E+04  0.10100000352E+00 0. -1.
</event>
<event>
 5   0  0.6929121E-04  0.1070730E+04  0.7818609E-02  0.9234200E-01
        2   -1    0    0  501    0  0.00000000000E+00  0.00000000000E+00  0.10507046732E+04  0.10507046732E+04  0.25500000920E-02 0.  1.
       -2   -1    0    0    0  501  0.00000000000E+00  0.00000000000E+00 -0.27278408689E+03  0.27278408691E+03  0.25500000920E-02 0. -1.
    10030    2    1    2    0    0  0.00000000000E+00  0.00000000000E+00  0.77792058631E+03  0.13234887601E+04  0.10707296856E+04 0.  0.
        3    1    3    3  502    0  0.41211313370E+03  0.33872950123E+03  0.33312371542E+03  0.62892474109E+03  0.10100000352E+00 0.  1.
       -3    1    3    3    0  502 -0.41211313370E+03 -0.33872950123E+03  0.44479687089E+03  0.69456401903E+03  0.10100000352E+00 0. -1.
</event>
<event>
 5   0  0.6853162E-04  0.1677060E+04  0.7818609E-02  0.8774557E-01
        2   -1    0    0  501    0  0.00000000000E+00  0.00000000000E+00  0.21013904562E+04  0.21013904562E+04  0.25500000920E-02 0. -1.
       -2   -1    0    0    0  501  0.00000000000E+00  0.00000000000E+00 -0.33460365913E+03  0.33460365914E+03  0.25500000920E-02 0.  1.
    10030    2    1    2    0    0  0.00000000000E+00  0.00000000000E+00  0.17667867971E+04  0.24359941154E+04  0.16770604472E+04 0.  0.
        2    1    3    3  502    0 -0.80507952064E+03 -0.21531213461E+03  0.10182573606E+04  0.13158116895E+04  0.25500000920E-02 0. -1.
       -2    1    3    3    0  502  0.80507952064E+03  0.21531213461E+03  0.74852943648E+03  0.11201824258E+04  0.25500000920E-02 0.  1.
</event>
<event>
 5   0  0.3377273E-04  0.1879550E+04  0.7818609E-02  0.8665103E-01
       -1   -1    0    0    0  501  0.00000000000E+00  0.00000000000E+00  0.46961942491E+03  0.46961942493E+03  0.50400001928E-02 0.  1.
        1   -1    0    0  501    0  0.00000000000E+00  0.00000000000E+00 -0.18806225767E+04  0.18806225767E+04  0.50400001928E-02 0. -1.
    10030    2    1    2    0    0  0.00000000000E+00  0.00000000000E+00 -0.14110031518E+04  0.23502420016E+04  0.18795498322E+04 0.  0.
        2    1    3    3  502    0 -0.16044184943E+03 -0.66069607207E+03 -0.15167548439E+04  0.16621691079E+04  0.25500000920E-02 0. -1.
       -2    1    3    3    0  502  0.16044184943E+03  0.66069607207E+03  0.10575169212E+03  0.68807289374E+03  0.25500000920E-02 0.  1.
</event>
<event>
 5   0  0.3377273E-04  0.1795559E+04  0.7818609E-02  0.8708665E-01
        1   -1    0    0  501    0  0.00000000000E+00  0.00000000000E+00  0.15796151927E+04  0.15796151927E+04  0.50400001928E-02 0. -1.
       -1   -1    0    0    0  501  0.00000000000E+00  0.00000000000E+00 -0.51025597120E+03  0.51025597122E+03  0.50400001928E-02 0.  1.
    10030    2    1    2    0    0  0.00000000000E+00  0.00000000000E+00  0.10693592215E+04  0.20898711639E+04  0.17955590598E+04 0.  0.
        2    1    3    3  502    0  0.25402956678E+03 -0.69214339242E+03  0.11309095858E+04  0.13500185139E+04  0.25500000920E-02 0. -1.
       -2    1    3    3    0  502 -0.25402956678E+03  0.69214339242E+03 -0.61550364318E+02  0.73985265007E+03  0.25500000920E-02 0.  1.
</event>
<event>
 5   0  0.6771967E-04  0.1822089E+04  0.7818609E-02  0.8694640E-01
        2   -1    0    0  501    0  0.00000000000E+00  0.00000000000E+00  0.61961796439E+03  0.61961796440E+03  0.25500000920E-02 0.  1.
       -2   -1    0    0    0  501  0.00000000000E+00  0.00000000000E+00 -0.13395391694E+04  0.13395391694E+04  0.25500000920E-02 0. -1.
    10030    2    1    2    0    0  0.00000000000E+00  0.00000000000E+00 -0.71992120498E+03  0.19591571338E+04  0.18220894965E+04 0.  0.
        1    1    3    3  502    0  0.50522623351E+03  0.36782182549E+03 -0.10727435635E+04  0.12415011862E+04  0.50400001928E-02 0. -1.
       -1    1    3    3    0  502 -0.50522623351E+03 -0.36782182549E+03  0.35282235853E+03  0.71765594754E+03  0.50400001928E-02 0.  1.
</event>
<event>
 5   0  0.3308275E-04  0.1637892E+04  0.7818609E-02  0.8797602E-01
       -1   -1    0    0    0  501  0.00000000000E+00  0.00000000000E+00  0.11123956443E+04  0.11123956443E+04  0.50400001928E-02 0. -1.
        1   -1    0    0  501    0  0.00000000000E+00  0.00000000000E+00 -0.60290809128E+03  0.60290809130E+03  0.50400001928E-02 0.  1.
    10030    2    1    2    0    0  0.00000000000E+00  0.00000000000E+00  0.50948755304E+03  0.17153037356E+04  0.16378917360E+04 0.  0.
        3    1    3    3  502    0 -0.68535995102E+03  0.43226087949E+03  0.13036790471E+03  0.82070916358E+03  0.10100000352E+00 0. -1.
       -3    1    3    3    0  502  0.68535995102E+03 -0.43226087949E+03  0.37911964833E+03  0.89459457205E+03  0.10100000352E+00 0.  1.
</event>
<event>
 5   0  0.6771967E-04  0.1181974E+04  0.7818609E-02  0.9128783E-01
        2   -1    0    0  501    0  0.00000000000E+00  0.00000000000E+00  0.16203590895E+04  0.16203590895E+04  0.25500000920E-02 0.  1.
       -2   -1    0    0    0  501  0.00000000000E+00  0.00000000000E+00 -0.21554814478E+03  0.21554814479E+03  0.25500000920E-02 0. -1.
    10030    2    1    2    0    0  0.00000000000E+00  0.00000000000E+00  0.14048109447E+04  0.18359072343E+04  0.11819735964E+04 0.  0.
        1    1    3    3  502    0  0.29641518953E+02 -0.45595183146E+03  0.12846064546E+04  0.13634457949E+04  0.50400001928E-02 0.  1.
       -1    1    3    3    0  502 -0.29641518953E+02  0.45595183146E+03  0.12020449006E+03  0.47246143939E+03  0.50400001928E-02 0. -1.
</event>
<event>
 5   0  0.3377273E-04  0.1819990E+04  0.7818609E-02  0.8695741E-01
        1   -1    0    0  501    0  0.00000000000E+00  0.00000000000E+00  0.14731393731E+04  0.14731393731E+04  0.50400001928E-02 0.  1.
       -1   -1    0    0    0  501  0.00000000000E+00  0.00000000000E+00 -0.56212664553E+03  0.56212664556E+03  0.50400001928E-02 0. -1.
    10030    2    1    2    0    0  0.00000000000E+00  0.00000000000E+00  0.91101272754E+03  0.20352660186E+04  0.18199899936E+04 0.  0.
        2    1    3    3  502    0 -0.31320894929E+03 -0.57028411763E+03  0.11669733781E+04  0.13360953132E+04  0.25500000920E-02 0.  1.
       -2    1    3    3    0  502  0.31320894929E+03  0.57028411763E+03 -0.25596065054E+03  0.69917070546E+03  0.25500000920E-02 0. -1.
</event>
<event>
 5   0  0.3470962E-04  0.1814424E+04  0.7818609E-02  0.8698667E-01
       -1   -1    0    0    0  501  0.00000000000E+00  0.00000000000E+00  0.99881372250E+03  0.99881372251E+03  0.50400001928E-02 0.  1.
        1   -1    0    0  501    0  0.00000000000E+00  0.00000000000E+00 -0.82401079993E+03  0.82401079994E+03  0.50400001928E-02 0. -1.
    10030    2    1    2    0    0  0.00000000000E+00  0.00000000000E+00  0.17480292257E+03  0.18228245225E+04  0.18144236490E+04 0.  0.
        4    1    3    3  502    0 -0.22197812997E+03  0.78042464876E+03 -0.32030355437E+03  0.87231468085E+03  0.12699999809E+01 0. -1.
       -4    1    3    3    0  502  0.22197812997E+03 -0.78042464876E+03  0.49510647693E+03  0.95050984160E+03  0.12699999809E+01 0.  1.
</event>
<event>
 5   0  0.6774451E-04  0.1661085E+04  0.7818609E-02  0.8783876E-01
        2   -1    0    0  501    0  0.00000000000E+00  0.00000000000E+00  0.63409243822E+03  0.63409243822E+03  0.25500000920E-02 0.  1.
       -2   -1    0    0    0  501  0.00000000000E+00  0.00000000000E+00 -0.10878548310E+04  0.10878548310E+04  0.25500000920E-02 0. -1.
    10030    2    1    2    0    0  0.00000000000E+00  0.00000000000E+00 -0.45376239274E+03  0.17219472692E+04  0.16610846122E+04 0.  0.
        4    1    3    3  502    0 -0.10784808085E+03 -0.41567932105E+03 -0.96382849666E+03  0.10551717824E+04  0.12699999809E+01 0. -1.
       -4    1    3    3    0  502  0.10784808085E+03  0.41567932105E+03  0.51006610393E+03  0.66677548678E+03  0.12699999809E+01 0.  1.
</event>
<event>
 5   0  0.6853162E-04  0.1807996E+04  0.7818609E-02  0.8702059E-01
        2   -1    0    0  501    0  0.00000000000E+00  0.00000000000E+00  0.13239087722E+04  0.13239087722E+04  0.25500000920E-02 0.  1.
       -2   -1    0    0    0  501  0.00000000000E+00  0.00000000000E+00 -0.61727236985E+03  0.61727236985E+03  0.25500000920E-02 0. -1.
    10030    2    1    2    0    0  0.00000000000E+00  0.00000000000E+00  0.70663640232E+03  0.19411811420E+04  0.18079959129E+04 0.  0.
        2    1    3    3  502    0  0.63391482315E+03  0.52642793104E+03 -0.45874175614E+02  0.82527499028E+03  0.25500000920E-02 0. -1.
       -2    1    3    3    0  502 -0.63391482315E+03 -0.52642793104E+03  0.75251057793E+03  0.11159061517E+04  0.25500000920E-02 0.  1.
</event>
<event>
 5   0  0.3413839E-04  0.1308369E+04  0.7818609E-02  0.9022955E-01
       -1   -1    0    0    0  501  0.00000000000E+00  0.00000000000E+00  0.77710682467E+03  0.77710682469E+03  0.50400001928E-02 0. -1.
        1   -1    0    0  501    0  0.00000000000E+00  0.00000000000E+00 -0.55070571646E+03  0.55070571648E+03  0.50400001928E-02 0.  1.
    10030    2    1    2    0    0  0.00000000000E+00  0.00000000000E+00  0.22640110821E+03  0.13278125412E+04  0.13083687105E+04 0.  0.
        5    1    3    3  502    0  0.25775882270E+03 -0.56429749292E+02 -0.49428615439E+03  0.56032563720E+03  0.46999998093E+01 0.  1.
       -5    1    3    3    0  502 -0.25775882270E+03  0.56429749292E+02  0.72068726260E+03  0.76748690397E+03  0.46999998093E+01 0. -1.
</event>
<event>
 5   0  0.6547153E-04  0.1813633E+04  0.7818609E-02  0.8699083E-01
       -2   -1    0    0    0  501  0.00000000000E+00  0.00000000000E+00  0.84592062064E+03  0.84592062064E+03  0.25500000920E-02 0. -1.
        2   -1    0    0  501    0  0.00000000000E+00  0.00000000000E+00 -0.97209661607E+03  0.97209661608E+03  0.25500000920E-02 0.  1.
    10030    2    1    2    0    0  0.00000000000E+00  0.00000000000E+00 -0.12617599543E+03  0.18180172367E+04  0.18136334501E+04 0.  0.
        5    1    3    3  502    0 -0.24640233559E+03 -0.20999759719E+03 -0.91217813634E+03  0.96793808904E+03  0.46999998093E+01 0.  1.
       -5    1    3    3    0  502  0.24640233559E+03  0.20999759719E+03  0.78600214090E+03  0.85007914768E+03  0.46999998093E+01 0. -1.
</event>
<event>
 5   0  0.6853162E-04  0.1819048E+04  0.7818609E-02  0.8696235E-01
       -2   -1    0    0    0  501  0.00000000000E+00  0.00000000000E+00  0.45349630396E+03  0.45349630397E+03  0.25500000920E-02 0. -1.
        2   -1    0    0  501    0  0.00000000000E+00  0.00000000000E+00 -0.18241250501E+04  0.18241250501E+04  0.25500000920E-02 0.  1.
    10030    2    1    2    0    0  0.00000000000E+00  0.00000000000E+00 -0.13706287462E+04  0.22776213541E+04  0.18190480678E+04 0.  0.
        2    1    3    3  502    0  0.75539219547E+03 -0.21700421056E+03 -0.11218050195E+03  0.79390973127E+03  0.25500000920E-02 0. -1.
       -2    1    3    3    0  502 -0.75539219547E+03  0.21700421056E+03 -0.12584482442E+04  0.14837116228E+04  0.25500000920E-02 0.  1.
</event>
<event>
 5   0  0.2467375E-04  0.1700500E+04  0.7818609E-02  0.8761079E-01
        4   -1    0    0  501    0  0.00000000000E+00  0.00000000000E+00  0.52799994139E+03  0.52800146876E+03  0.12699999809E+01 0. -1.
       -4   -1    0    0    0  501  0.00000000000E+00  0.00000000000E+00 -0.13691720956E+04  0.13691726847E+04  0.12699999809E+01 0.  1.
    10030    2    1    2    0    0  0.00000000000E+00  0.00000000000E+00 -0.84117215426E+03  0.18971741534E+04  0.17004996840E+04 0.  0.
        4    1    3    3  502    0  0.22138088026E+03 -0.54955583713E+03  0.25978358612E+03  0.64692367153E+03  0.12699999809E+01 0. -1.
       -4    1    3    3    0  502 -0.22138088026E+03  0.54955583713E+03 -0.11009557404E+04  0.12502504819E+04  0.12699999809E+01 0.  1.
</event>
<event>
 5   0  0.3308275E-04  0.1775635E+04  0.7818609E-02  0.8719365E-01
        1   -1    0    0  501    0  0.00000000000E+00  0.00000000000E+00  0.10050032238E+04  0.10050032238E+04  0.50400001928E-02 0.  1.
       -1   -1    0    0    0  501  0.00000000000E+00  0.00000000000E+00 -0.78429599015E+03  0.78429599016E+03  0.50400001928E-02 0. -1.
    10030    2    1    2    0    0  0.00000000000E+00  0.00000000000E+00  0.22070723366E+03  0.17892992140E+04  0.17756350960E+04 0.  0.
        3    1    3    3  502    0 -0.54701644203E+02  0.79870505849E+03  0.49710119173E+03  0.94235430988E+03  0.10100000352E+00 0.  1.
       -3    1    3    3    0  502  0.54701644203E+02 -0.79870505849E+03 -0.27639395806E+03  0.84694490411E+03  0.10100000352E+00 0. -1.
</event>
<event>
 5   0  0.6771967E-04  0.1473841E+04  0.7818609E-02  0.8902037E-01
        2   -1    0    0  501    0  0.00000000000E+00  0.00000000000E+00  0.97023012614E+03  0.97023012615E+03  0.25500000920E-02 0.  1.
       -2   -1    0    0    0  501  0.00000000000E+00  0.00000000000E+00 -0.55971434207E+03  0.55971434208E+03  0.25500000920E-02 0. -1.
    10030    2    1    2    0    0  0.00000000000E+00  0.00000000000E+00  0.41051578407E+03  0.15299444682E+04  0.14738408553E+04 0.  0.
        1    1    3    3  502    0 -0.46519142964E+03  0.53735964756E+03  0.40732985462E+03  0.81919232633E+03  0.50400001928E-02 0. -1.
       -1    1    3    3    0  502  0.46519142964E+03 -0.53735964756E+03  0.31859294482E+01  0.71075214189E+03  0.50400001928E-02 0.  1.
</event>
<event>
 5   0  0.3308275E-04  0.1870779E+04  0.7818609E-02  0.8669540E-01
        1   -1    0    0  501    0  0.00000000000E+00  0.00000000000E+00  0.15159481122E+04  0.15159481122E+04  0.50400001928E-02 0. -1.
       -1   -1    0    0    0  501  0.00000000000E+00  0.00000000000E+00 -0.57716573502E+03  0.57716573504E+03  0.50400001928E-02 0.  1.
    10030    2    1    2    0    0  0.00000000000E+00  0.00000000000E+00  0.93878237720E+03  0.20931138473E+04  0.18707787752E+04 0.  0.
        3    1    3    3  502    0  0.61008071201E+03  0.69653489017E+03  0.32098489662E+03  0.97999522573E+03  0.10100000352E+00 0.  1.
       -3    1    3    3    0  502 -0.61008071201E+03 -0.69653489017E+03  0.61779748058E+03  0.11131186215E+04  0.10100000352E+00 0. -1.
</event>
<event>
 5   0  0.6853162E-04  0.1803767E+04  0.7818609E-02  0.8704299E-01
        2   -1    0    0  501    0  0.00000000000E+00  0.00000000000E+00  0.18501239110E+04  0.18501239110E+04  0.25500000920E-02 0.  1.
       -2   -1    0    0    0  501  0.00000000000E+00  0.00000000000E+00 -0.43964314686E+03  0.43964314687E+03  0.25500000920E-02 0. -1.
    10030    2    1    2    0    0  0.00000000000E+00  0.00000000000E+00  0.14104807641E+04  0.22897670579E+04  0.18037674998E+04 0.  0.
        2    1    3    3  502    0 -0.71683405794E+02 -0.84175375810E+03  0.30439926856E+03  0.89796815904E+03  0.25500000920E-02 0. -1.
       -2    1    3    3    0  502  0.71683405794E+02  0.84175375810E+03  0.11060814956E+04  0.13917988988E+04  0.25500000920E-02 0.  1.
</event>
<event>
 5   0  0.6929121E-04  0.1854203E+04  0.7818609E-02  0.8677994E-01
        2   -1    0    0  501    0  0.00000000000E+00  0.00000000000E+00  0.13092947017E+04  0.13092947017E+04  0.25500000920E-02 0. -1.
       -2   -1    0    0    0  501  0.00000000000E+00  0.00000000000E+00 -0.65647356249E+03  0.65647356250E+03  0.25500000920E-02 0.  1.
    10030    2    1    2    0    0  0.00000000000E+00  0.00000000000E+00  0.65282113922E+03  0.19657682642E+04  0.18542031789E+04 0.  0.
        3    1    3    3  502    0 -0.55417726449E+03  0.39859088922E+03 -0.33865434382E+03  0.76201962720E+03  0.10100000352E+00 0.  1.
       -3    1    3    3    0  502  0.55417726449E+03 -0.39859088922E+03  0.99147548304E+03  0.12037486370E+04  0.10100000352E+00 0. -1.
</event>
<event>
 5   0  0.6771967E-04  0.1767289E+04  0.7818609E-02  0.8723891E-01
       -2   -1    0    0    0  501  0.00000000000E+00  0.00000000000E+00  0.67826928280E+03  0.67826928281E+03  0.25500000920E-02 0.  1.
        2   -1    0    0  501    0  0.00000000000E+00  0.00000000000E+00 -0.11512058474E+04  0.11512058474E+04  0.25500000920E-02 0. -1.
    10030    2    1    2    0    0  0.00000000000E+00  0.00000000000E+00 -0.47293656464E+03  0.18294751303E+04  0.17672889571E+04 0.  0.
        1    1    3    3  502    0 -0.55795154238E+03 -0.83883855459E+01  0.47280297038E+03  0.73138426116E+03  0.50400001928E-02 0.  1.
       -1    1    3    3    0  502  0.55795154238E+03  0.83883855459E+01 -0.94573953503E+03  0.10980908691E+04  0.50400001928E-02 0. -1.
</event>
<event>
 5   0  0.6547153E-04  0.1809270E+04  0.7818609E-02  0.8701385E-01
       -2   -1    0    0    0  501  0.00000000000E+00  0.00000000000E+00  0.56558259963E+03  0.56558259963E+03  0.25500000920E-02 0. -1.
        2   -1    0    0  501    0  0.00000000000E+00  0.00000000000E+00 -0.14469405684E+04  0.14469405684E+04  0.25500000920E-02 0.  1.
    10030    2    1    2    0    0  0.00000000000E+00  0.00000000000E+00 -0.88135796873E+03  0.20125231680E+04  0.18092699170E+04 0.  0.
        5    1    3    3  502    0  0.17183317653E+03  0.15046774201E+03  0.53296806837E+03  0.57986570329E+03  0.46999998093E+01 0. -1.
       -5    1    3    3    0  502 -0.17183317653E+03 -0.15046774201E+03 -0.14143260371E+04  0.14326574647E+04  0.46999998093E+01 0.  1.
</event>
<event>
 5   0  0.3470962E-04  0.1595023E+04  0.7818609E-02  0.8823611E-01
        1   -1    0    0  501    0  0.00000000000E+00  0.00000000000E+00  0.18763355354E+04  0.18763355354E+04  0.50400001928E-02 0. -1.
       -1   -1    0    0    0  501  0.00000000000E+00  0.00000000000E+00 -0.33897173746E+03  0.33897173750E+03  0.50400001928E-02 0.  1.
    10030    2    1    2    0    0  0.00000000000E+00  0.00000000000E+00  0.15373637980E+04  0.22153072729E+04  0.15950231554E+04 0.  0.
        4    1    3    3  502    0  0.34726204842E+03 -0.39095151072E+03 -0.67641691167E+02  0.52726750828E+03  0.12699999809E+01 0.  1.
       -4    1    3    3    0  502 -0.34726204842E+03  0.39095151072E+03  0.16050054891E+04  0.16880397646E+04  0.12699999809E+01 0. -1.
</event>
<event>
 5   0  0.3413839E-04  0.1810313E+04  0.7818609E-02  0.8700834E-01
        1   -1    0    0  501    0  0.00000000000E+00  0.00000000000E+00  0.18161120773E+04  0.18161120773E+04  0.50400001928E-02 0.  1.
       -1   -1    0    0    0  501  0.00000000000E+00  0.00000000000E+00 -0.45113319505E+03  0.45113319508E+03  0.50400001928E-02 0. -1.
    10030    2    1    2    0    0  0.00000000000E+00  0.00000000000E+00  0.13649788822E+04  0.22672452724E+04  0.18103131707E+04 0.  0.
        5    1    3    3  502    0  0.51446519613E+03  0.44686354989E+03  0.14286168917E+04  0.15828233583E+04  0.46999998093E+01 0.  1.
       -5    1    3    3    0  502 -0.51446519613E+03 -0.44686354989E+03 -0.63638009467E+02  0.68442191410E+03  0.46999998093E+01 0. -1.
</event>
<event>
 5   0  0.6774451E-04  0.1790981E+04  0.7818609E-02  0.8711110E-01
        2   -1    0    0  501    0  0.00000000000E+00  0.00000000000E+00  0.95204546492E+03  0.95204546493E+03  0.25500000920E-02 0. -1.
       -2   -1    0    0    0  501  0.00000000000E+00  0.00000000000E+00 -0.84229508780E+03  0.84229508780E+03  0.25500000920E-02 0.  1.
    10030    2    1    2    0    0  0.00000000000E+00  0.00000000000E+00  0.10975037712E+03  0.17943405527E+04  0.17909809809E+04 0.  0.
        4    1    3    3  502    0 -0.30307679618E+03 -0.17424001950E+02 -0.78916727007E+03  0.84554463707E+03  0.12699999809E+01 0.  1.
       -4    1    3    3    0  502  0.30307679618E+03  0.17424001950E+02  0.89891764720E+03  0.94879591566E+03  0.12699999809E+01 0. -1.
</event>
<event>
 5   0  0.3470962E-04  0.1640043E+04  0.7818609E-02  0.8796319E-01
       -1   -1    0    0    0  501  0.00000000000E+00  0.00000000000E+00  0.58031730339E+03  0.58031730342E+03  0.50400001928E-02 0.  1.
        1   -1    0    0  501    0  0.00000000000E+00  0.00000000000E+00 -0.11587371927E+04  0.11587371927E+04  0.50400001928E-02 0. -1.
    10030    2    1    2    0    0  0.00000000000E+00  0.00000000000E+00 -0.57841988930E+03  0.17390544961E+04  0.16400429788E+04 0.  0.
        4    1    3    3  502    0 -0.51979041483E+03  0.19911176185E+03 -0.92773139566E+03  0.10819032879E+04  0.12699999809E+01 0. -1.
       -4    1    3    3    0  502  0.51979041483E+03 -0.19911176185E+03  0.34931150635E+03  0.65715120819E+03  0.12699999809E+01 0.  1.
</event>
<event>
 5   0  0.3404261E-04  0.1818830E+04  0.7818609E-02  0.8696350E-01
       -1   -1    0    0    0  501  0.00000000000E+00  0.00000000000E+00  0.13789824866E+04  0.13789824866E+04  0.50400001928E-02 0.  1.
        1   -1    0    0  501    0  0.00000000000E+00  0.00000000000E+00 -0.59974317307E+03  0.59974317309E+03  0.50400001928E-02 0. -1.
    10030    2    1    2    0    0  0.00000000000E+00  0.00000000000E+00  0.77923931350E+03  0.19787256597E+04  0.18188296590E+04 0.  0.
        1    1    3    3  502    0 -0.39564079128E+03  0.79884871968E+03  0.58527568727E+03  0.10664138703E+04  0.50400001928E-02 0. -1.
       -1    1    3    3    0  502  0.39564079128E+03 -0.79884871968E+03  0.19396362623E+03  0.91231178935E+03  0.50400001928E-02 0.  1.
</event>
<event>
 5   0  0.6771967E-04  0.1703112E+04  0.7818609E-02  0.8759591E-01
        2   -1    0    0  501    0  0.00000000000E+00  0.00000000000E+00  0.10551797293E+04  0.10551797293E+04  0.25500000920E-02 0.  1.
       -2   -1    0    0    0  501  0.00000000000E+00  0.00000000000E+00 -0.68722695856E+03  0.68722695856E+03  0.25500000920E-02 0. -1.
    10030    2    1    2    0    0  0.00000000000E+00  0.00000000000E+00  0.36795277070E+03  0.17424066878E+04  0.17031123933E+04 0.  0.
        1    1    3    3  502    0  0.21151914855E+03  0.52250959988E+03  0.83697477150E+03  0.10091002925E+04  0.50400001928E-02 0.  1.
       -1    1    3    3    0  502 -0.21151914855E+03 -0.52250959988E+03 -0.46902200080E+03  0.73330639532E+03  0.50400001928E-02 0. -1.
</event>
<event>
 5   0  0.3413839E-04  0.1671186E+04  0.7818609E-02  0.8777971E-01
        1   -1    0    0  501    0  0.00000000000E+00  0.00000000000E+00  0.15152179670E+04  0.15152179670E+04  0.50400001928E-02 0. -1.
       -1   -1    0    0    0  501  0.00000000000E+00  0.00000000000E+00 -0.46080192294E+03  0.46080192297E+03  0.50400001928E-02 0.  1.
    10030    2    1    2    0    0  0.00000000000E+00  0.00000000000E+00  0.10544160441E+04  0.19760198900E+04  0.16711856305E+04 0.  0.
        5    1    3    3  502    0 -0.39908599390E+02  0.49481960025E+02 -0.45792287587E+03  0.46233819972E+03  0.46999998093E+01 0.  1.
       -5    1    3    3    0  502  0.39908599390E+02 -0.49481960025E+02  0.15123389200E+04  0.15136816903E+04  0.46999998093E+01 0. -1.
</event>
<event>
 5   0  0.6774451E-04  0.1797736E+04  0.7818609E-02  0.8707504E-01
       -2   -1    0    0    0  501  0.00000000000E+00  0.00000000000E+00  0.10611032674E+04  0.10611032674E+04  0.25500000920E-02 0. -1.
        2   -1    0    0  501    0  0.00000000000E+00  0.00000000000E+00 -0.76143732293E+03  0.76143732294E+03  0.25500000920E-02 0.  1.
    10030    2    1    2    0    0  0.00000000000E+00  0.00000000000E+00  0.29966594449E+03  0.18225405904E+04  0.17977359442E+04 0.  0.
        4    1    3    3  502    0 -0.70033801033E+03 -0.11103460847E+03  0.70986790123E+03  0.10033524122E+04  0.12699999809E+01 0. -1.
       -4    1    3    3    0  502  0.70033801033E+03  0.11103460847E+03 -0.41020195675E+03  0.81918817815E+03  0.12699999809E+01 0.  1.
</event>
<event>
 5   0  0.6771967E-04  0.1335573E+04  0.7818609E-02  0.9001821E-01
        2   -1    0    0  501    0  0.00000000000E+00  0.00000000000E+00  0.90051612653E+03  0.90051612653E+03  0.25500000920E-02 0. -1.
       -2   -1    0    0    0  501  0.00000000000E+00  0.00000000000E+00 -0.49520394746E+03  0.49520394746E+03  0.25500000920E-02 0.  1.
    10030    2    1    2    0    0  0.00000000000E+00  0.00000000000E+00  0.40531217907E+03  0.13957200740E+04  0.13355734957E+04 0.  0.
        1    1    3    3  502    0  0.51973404879E+03  0.37710333380E+03  0.39423893287E+03  0.75349501793E+03  0.50400001928E-02 0. -1.
       -1    1    3    3    0  502 -0.51973404879E+03 -0.37710333380E+03  0.11073246201E+02  0.64222505606E+03  0.50400001928E-02 0.  1.
</event>
<event>
 5   0  0.6929121E-04  0.1801708E+04  0.7818609E-02  0.8705392E-01
        2   -1    0    0  501    0  0.00000000000E+00  0.00000000000E+00  0.20400304525E+04  0.20400304525E+04  0.25500000920E-02 0. -1.
       -2   -1    0    0    0  501  0.00000000000E+00  0.00000000000E+00 -0.39780663374E+03  0.39780663375E+03  0.25500000920E-02 0.  1.
    10030    2    1    2    0    0  0.00000000000E+00  0.00000000000E+00  0.16422238187E+04  0.24378370862E+04  0.18017076867E+04 0.  0.
        3    1    3    3  502    0 -0.23615624983E+03  0.27958020482E+03  0.19349137597E+04  0.19692196762E+04  0.10100000352E+00 0. -1.
       -3    1    3    3    0  502  0.23615624983E+03 -0.27958020482E+03 -0.29268994098E+03  0.46861741006E+03  0.10100000352E+00 0.  1.
</event>
<event>
 5   0  0.6853162E-04  0.1792613E+04  0.7818609E-02  0.8710238E-01
        2   -1    0    0  501    0  0.00000000000E+00  0.00000000000E+00  0.91166074903E+03  0.91166074904E+03  0.25500000920E-02 0.  1.
       -2   -1    0    0    0  501  0.00000000000E+00  0.00000000000E+00 -0.88121108301E+03  0.88121108302E+03  0.25500000920E-02 0. -1.
    10030    2    1    2    0    0  0.00000000000E+00  0.00000000000E+00  0.30449666022E+02  0.17928718321E+04  0.17926132388E+04 0.  0.
        2    1    3    3  502    0  0.10324358435E+03 -0.19266943476E+03 -0.85414437310E+03  0.88167077693E+03  0.25500000920E-02 0. -1.
       -2    1    3    3    0  502 -0.10324358435E+03  0.19266943476E+03  0.88459403912E+03  0.91120105512E+03  0.25500000920E-02 0.  1.
</event>
<event>
 5   0  0.6771967E-04  0.1793159E+04  0.7818609E-02  0.8709946E-01
        2   -1    0    0  501    0  0.00000000000E+00  0.00000000000E+00  0.14822794179E+04  0.14822794179E+04  0.25500000920E-02 0.  1.
       -2   -1    0    0    0  501  0.00000000000E+00  0.00000000000E+00 -0.54230960202E+03  0.54230960203E+03  0.25500000920E-02 0. -1.
    10030    2    1    2    0    0  0.00000000000E+00  0.00000000000E+00  0.93996981593E+03  0.20245890200E+04  0.17931585108E+04 0.  0.
        1    1    3    3  502    0  0.41829333123E+03  0.57641635253E+03  0.10849141900E+04  0.12977919410E+04  0.50400001928E-02 0.  1.
       -1    1    3    3    0  502 -0.41829333123E+03 -0.57641635253E+03 -0.14494437408E+03  0.72679707898E+03  0.50400001928E-02 0. -1.
</event>
<event>
 5   0  0.6547153E-04  0.1791703E+04  0.7818609E-02  0.8710724E-01
        2   -1    0    0  501    0  0.00000000000E+00  0.00000000000E+00  0.15579634869E+04  0.15579634869E+04  0.25500000920E-02 0. -1.
       -2   -1    0    0    0  501  0.00000000000E+00  0.00000000000E+00 -0.51512769790E+03  0.51512769791E+03  0.25500000920E-02 0.  1.
    10030    2    1    2    0    0  0.00000000000E+00  0.00000000000E+00  0.10428357890E+04  0.20730911848E+04  0.17917032616E+04 0.  0.
        5    1    3    3  502    0  0.43063713692E+03 -0.76328506480E+03  0.73625454218E+03  0.11446157760E+04  0.46999998093E+01 0.  1.
       -5    1    3    3    0  502 -0.43063713692E+03  0.76328506480E+03  0.30658124683E+03  0.92847540880E+03  0.46999998093E+01 0. -1.
</event>
<event>
 5   0  0.6853162E-04  0.1745118E+04  0.7818609E-02  0.8736042E-01
        2   -1    0    0  501    0  0.00000000000E+00  0.00000000000E+00  0.12166483064E+04  0.12166483064E+04  0.25500000920E-02 0. -1.
       -2   -1    0    0    0  501  0.00000000000E+00  0.00000000000E+00 -0.62578401693E+03  0.62578401694E+03  0.25500000920E-02 0.  1.
    10030    2    1    2    0    0  0.00000000000E+00  0.00000000000E+00  0.59086428945E+03  0.18424323233E+04  0.17451178348E+04 0.  0.
        2    1    3    3  502    0  0.33265125843E+03  0.22950693806E+03  0.11118788222E+04  0.11830489464E+04  0.25500000920E-02 0. -1.
       -2    1    3    3    0  502 -0.33265125843E+03 -0.22950693806E+03 -0.52101453277E+03  0.65938337689E+03  0.25500000920E-02 0.  1.
</event>
<event>
 5   0  0.3308275E-04  0.1678135E+04  0.7818609E-02  0.8773934E-01
       -1   -1    0    0    0  501  0.00000000000E+00  0.00000000000E+00  0.62305202402E+03  0.62305202404E+03  0.50400001928E-02 0.  1.
        1   -1    0    0  501    0  0.00000000000E+00  0.00000000000E+00 -0.11299762080E+04  0.11299762081E+04  0.50400001928E-02 0. -1.
    10030    2    1    2    0    0  0.00000000000E+00  0.00000000000E+00 -0.50692418403E+03  0.17530282321E+04  0.16781346353E+04 0.  0.
        3    1    3    3  502    0  0.30420411375E+03  0.35269150878E+03 -0.98253723751E+03  0.10873411960E+04  0.10100000352E+00 0. -1.
       -3    1    3    3    0  502 -0.30420411375E+03 -0.35269150878E+03  0.47561305349E+03  0.66568703611E+03  0.10100000352E+00 0.  1.
</event>
<event>
 5   0  0.3404261E-04  0.1903090E+04  0.7818609E-02  0.8653320E-01
       -1   -1    0    0    0  501  0.00000000000E+00  0.00000000000E+00  0.54794114493E+03  0.54794114495E+03  0.50400001928E-02 0. -1.
        1   -1    0    0  501    0  0.00000000000E+00  0.00000000000E+00 -0.16524370697E+04  0.16524370698E+04  0.50400001928E-02 0.  1.
    10030    2    1    2    0    0  0.00000000000E+00  0.00000000000E+00 -0.11044959248E+04  0.22003782147E+04  0.19030903919E+04 0.  0.
        1    1    3    3  502    0  0.26505476262E+03  0.78152704179E+03 -0.45399793383E+01  0.82526308270E+03  0.50400001928E-02 0. -1.
       -1    1    3    3    0  502 -0.26505476262E+03 -0.78152704179E+03 -0.10999559455E+04  0.13751151320E+04  0.50400001928E-02 0.  1.
</event>
<event>
 5   0  0.6853162E-04  0.1813713E+04  0.7818609E-02  0.8699041E-01
       -2   -1    0    0    0  501  0.00000000000E+00  0.00000000000E+00  0.51621385888E+03  0.51621385888E+03  0.25500000920E-02 0. -1.
        2   -1    0    0  501    0  0.00000000000E+00  0.00000000000E+00 -0.15931162025E+04  0.15931162025E+04  0.25500000920E-02 0.  1.
    10030    2    1    2    0    0  0.00000000000E+00  0.00000000000E+00 -0.10769023436E+04  0.21093300614E+04  0.18137129459E+04 0.  0.
        2    1    3    3  502    0  0.34820340937E+03  0.13684796199E+03 -0.14991792618E+04  0.15451574153E+04  0.25500000920E-02 0.  1.
       -2    1    3    3    0  502 -0.34820340937E+03 -0.13684796199E+03  0.42227691816E+03  0.56417264611E+03  0.25500000920E-02 0. -1.
</event>
<event>
 5   0  0.6547153E-04  0.1776848E+04  0.7818609E-02  0.8718709E-01
        2   -1    0    0  501    0  0.00000000000E+00  0.00000000000E+00  0.10188024931E+04  0.10188024931E+04  0.25500000920E-02 0. -1.
       -2   -1    0    0    0  501  0.00000000000E+00  0.00000000000E+00 -0.77473063322E+03  0.77473063322E+03  0.25500000920E-02 0.  1.
    10030    2    1    2    0    0  0.00000000000E+00  0.00000000000E+00  0.24407185988E+03  0.17935331263E+04  0.17768483341E+04 0.  0.
        5    1    3    3  502    0 -0.17575462244E+03  0.71200490659E+03  0.62817711914E+03  0.96564447771E+03  0.46999998093E+01 0. -1.
       -5    1    3    3    0  502  0.17575462244E+03 -0.71200490659E+03 -0.38410525926E+03  0.82788864862E+03  0.46999998093E+01 0.  1.
</event>
<event>
 5   0  0.6547153E-04  0.1827914E+04  0.7818609E-02  0.8691595E-01
       -2   -1    0    0    0  501  0.00000000000E+00  0.00000000000E+00  0.86579292901E+03  0.86579292901E+03  0.25500000920E-02 0.  1.
        2   -1    0    0  501    0  0.00000000000E+00  0.00000000000E+00 -0.96480013796E+03  0.96480013797E+03  0.25500000920E-02 0. -1.
    10030    2    1    2    0    0  0.00000000000E+00  0.00000000000E+00 -0.99007208952E+02  0.18305930670E+04  0.18279137150E+04 0.  0.
        5    1    3    3  502    0 -0.21106845775E+03 -0.51965004296E+03  0.67315579895E+03  0.87621166430E+03  0.46999998093E+01 0.  1.
       -5    1    3    3    0  502  0.21106845775E+03  0.51965004296E+03 -0.77216300790E+03  0.95438140268E+03  0.46999998093E+01 0. -1.
</event>
<event>
 5   0  0.3470962E-04  0.1779242E+04  0.7818609E-02  0.8717417E-01
        1   -1    0    0  501    0  0.00000000000E+00  0.00000000000E+00  0.13406753717E+04  0.13406753717E+04  0.50400001928E-02 0. -1.
       -1   -1    0    0    0  501  0.00000000000E+00  0.00000000000E+00 -0.59031840361E+03  0.59031840363E+03  0.50400001928E-02 0.  1.
    10030    2    1    2    0    0  0.00000000000E+00  0.00000000000E+00  0.75035696812E+03  0.19309937754E+04  0.17792417995E+04 0.  0.
        4    1    3    3  502    0  0.67400145693E+03 -0.12962679549E+03  0.98943997743E+03  0.12041902474E+04  0.12699999809E+01 0. -1.
       -4    1    3    3    0  502 -0.67400145693E+03  0.12962679549E+03 -0.23908300932E+03  0.72680352799E+03  0.12699999809E+01 0.  1.
</event>
<event>
 5   0  0.3413839E-04  0.1926808E+04  0.7818609E-02  0.8641626E-01
        1   -1    0    0  501    0  0.00000000000E+00  0.00000000000E+00  0.16014990996E+04  0.16014990997E+04  0.50400001928E-02 0. -1.
       -1   -1    0    0    0  501  0.00000000000E+00  0.00000000000E+00 -0.57954888252E+03  0.57954888254E+03  0.50400001928E-02 0.  1.
    10030    2    1    2    0    0  0.00000000000E+00  0.00000000000E+00  0.10219502171E+04  0.21810479822E+04  0.19268077367E+04 0.  0.
        5    1    3    3  502    0 -0.83243045830E+03 -0.33110902739E+03  0.10988921343E+03  0.90259148298E+03  0.46999998093E+01 0.  1.
       -5    1    3    3    0  502  0.83243045830E+03  0.33110902739E+03  0.91206100369E+03  0.12784564992E+04  0.46999998093E+01 0. -1.
</event>
<event>
 5   0  0.6771967E-04  0.1840626E+04  0.7818609E-02  0.8684989E-01
        2   -1    0    0  501    0  0.00000000000E+00  0.00000000000E+00  0.13175170498E+04  0.13175170498E+04  0.25500000920E-02 0.  1.
       -2   -1    0    0    0  501  0.00000000000E+00  0.00000000000E+00 -0.64285739265E+03  0.64285739266E+03  0.25500000920E-02 0. -1.
    10030    2    1    2    0    0  0.00000000000E+00  0.00000000000E+00  0.67465965714E+03  0.19603744425E+04  0.18406255191E+04 0.  0.
        1    1    3    3  502    0  0.46658210130E+03  0.10566283723E+03 -0.50002052814E+03  0.69201446590E+03  0.50400001928E-02 0. -1.
       -1    1    3    3    0  502 -0.46658210130E+03 -0.10566283723E+03  0.11746801853E+04  0.12683599766E+04  0.50400001928E-02 0.  1.
</event>
<event>
 5   0  0.6774451E-04  0.1237603E+04  0.7818609E-02  0.9080564E-01
       -2   -1    0    0    0  501  0.00000000000E+00  0.00000000000E+00  0.43197612480E+03  0.43197612481E+03  0.25500000920E-02 0.  1.
        2   -1    0    0  501    0  0.00000000000E+00  0.00000000000E+00 -0.88642767030E+03  0.88642767030E+03  0.25500000920E-02 0. -1.
    10030    2    1    2    0    0  0.00000000000E+00  0.00000000000E+00 -0.45445154550E+03  0.13184037951E+04  0.12376034744E+04 0.  0.
        4    1    3    3  502    0  0.60082572134E+03 -0.13770932083E+03 -0.16928183069E+03  0.63922871929E+03  0.12699999809E+01 0. -1.
       -4    1    3    3    0  502 -0.60082572134E+03  0.13770932083E+03 -0.28516971481E+03  0.67917507582E+03  0.12699999809E+01 0.  1.
</event>
<event>
 5   0  0.6853162E-04  0.1750881E+04  0.7818609E-02  0.8732866E-01
       -2   -1    0    0    0  501  0.00000000000E+00  0.00000000000E+00  0.83470866174E+03  0.83470866174E+03  0.25500000920E-02 0. -1.
        2   -1    0    0  501    0  0.00000000000E+00  0.00000000000E+00 -0.91815969337E+03  0.91815969338E+03  0.25500000920E-02 0.  1.
    10030    2    1    2    0    0  0.00000000000E+00  0.00000000000E+00 -0.83451031634E+02  0.17528683551E+04  0.17508807486E+04 0.  0.
        2    1    3    3  502    0  0.12240658268E+03  0.46171349891E+03 -0.77620208085E+03  0.91140133689E+03  0.25500000920E-02 0.  1.
       -2    1    3    3    0  502 -0.12240658268E+03 -0.46171349891E+03  0.69275104922E+03  0.84146701823E+03  0.25500000920E-02 0. -1.
</event>
<event>
 5   0  0.6853162E-04  0.1807306E+04  0.7818609E-02  0.8702424E-01
        2   -1    0    0  501    0  0.00000000000E+00  0.00000000000E+00  0.11577202826E+04  0.11577202826E+04  0.25500000920E-02 0.  1.
       -2   -1    0    0    0  501  0.00000000000E+00  0.00000000000E+00 -0.70534230142E+03  0.70534230142E+03  0.25500000920E-02 0. -1.
    10030    2    1    2    0    0  0.00000000000E+00  0.00000000000E+00  0.45237798120E+03  0.18630625840E+04  0.18073063808E+04 0.  0.
        2    1    3    3  502    0  0.69316515150E+03  0.57973619916E+03  0.23045186276E+03  0.93256637776E+03  0.25500000920E-02 0. -1.
       -2    1    3    3    0  502 -0.69316515150E+03 -0.57973619916E+03  0.22192611844E+03  0.93049620629E+03  0.25500000920E-02 0.  1.
</event>
<event>
 5   0  0.3377273E-04  0.1811999E+04  0.7818609E-02  0.8699945E-01
        1   -1    0    0  501    0  0.00000000000E+00  0.00000000000E+00  0.14655842197E+04  0.14655842197E+04  0.50400001928E-02 0. -1.
       -1   -1    0    0    0  501  0.00000000000E+00  0.00000000000E+00 -0.56007342817E+03  0.56007342819E+03  0.50400001928E-02 0.  1.
    10030    2    1    2    0    0  0.00000000000E+00  0.00000000000E+00  0.90551079154E+03  0.20256576479E+04  0.18119986515E+04 0.  0.
        2    1    3    3  502    0  0.71909901870E+03 -0.47465239702E+03  0.76584397801E+03  0.11527858844E+04  0.25500000920E-02 0. -1.
       -2    1    3    3    0  502 -0.71909901870E+03  0.47465239702E+03  0.13966681354E+03  0.87287176349E+03  0.25500000920E-02 0.  1.
</event>
<event>
 5   0  0.3308275E-04  0.1796931E+04  0.7818609E-02  0.8707933E-01
       -1   -1    0    0    0  501  0.00000000000E+00  0.00000000000E+00  0.32746229011E+03  0.32746229015E+03  0.50400001928E-02 0. -1.
        1   -1    0    0  501    0  0.00000000000E+00  0.00000000000E+00 -0.24651400380E+04  0.24651400380E+04  0.50400001928E-02 0.  1.
    10030    2    1    2    0    0  0.00000000000E+00  0.00000000000E+00 -0.21376777478E+04  0.27926023281E+04  0.17969311643E+04 0.  0.
        3    1    3    3  502    0  0.85878290763E+03  0.14009836510E+03 -0.14167090032E+04  0.16625883568E+04  0.10100000352E+00 0.  1.
       -3    1    3    3    0  502 -0.85878290763E+03 -0.14009836510E+03 -0.72096874469E+03  0.11300139713E+04  0.10100000352E+00 0. -1.
</event>
<event>
 5   0  0.6547153E-04  0.1763618E+04  0.7818609E-02  0.8725890E-01
        2   -1    0    0  501    0  0.00000000000E+00  0.00000000000E+00  0.12968525361E+04  0.12968525361E+04  0.25500000920E-02 0. -1.
       -2   -1    0    0    0  501  0.00000000000E+00  0.00000000000E+00 -0.59959551796E+03  0.59959551797E+03  0.25500000920E-02 0.  1.
    10030    2    1    2    0    0  0.00000000000E+00  0.00000000000E+00  0.69725701815E+03  0.18964480541E+04  0.17636178363E+04 0.  0.
        5    1    3    3  502    0 -0.80273316165E+03  0.34902185377E+03  0.23397685776E+03  0.90607066125E+03  0.46999998093E+01 0.  1.
       -5    1    3    3    0  502  0.80273316165E+03 -0.34902185377E+03  0.46328016039E+03  0.99037739283E+03  0.46999998093E+01 0. -1.
</event>
<event>
 5   0  0.6771967E-04  0.1774556E+04  0.7818609E-02  0.8719949E-01
       -2   -1    0    0    0  501  0.00000000000E+00  0.00000000000E+00  0.73163745330E+03  0.73163745330E+03  0.25500000920E-02 0.  1.
        2   -1    0    0  501    0  0.00000000000E+00  0.00000000000E+00 -0.10760277824E+04  0.10760277824E+04  0.25500000920E-02 0. -1.
    10030    2    1    2    0    0  0.00000000000E+00  0.00000000000E+00 -0.34439032914E+03  0.18076652357E+04  0.17745559742E+04 0.  0.
        1    1    3    3  502    0  0.60527656889E+03 -0.11187987113E+03 -0.82316880735E+03  0.10278539370E+04  0.50400001928E-02 0. -1.
       -1    1    3    3    0  502 -0.60527656889E+03  0.11187987113E+03  0.47877847821E+03  0.77981129873E+03  0.50400001928E-02 0.  1.
</event>
<event>
 5   0  0.3470962E-04  0.1817591E+04  0.7818609E-02  0.8697000E-01
       -1   -1    0    0    0  501  0.00000000000E+00  0.00000000000E+00  0.40970579250E+03  0.40970579253E+03  0.50400001928E-02 0. -1.
        1   -1    0    0  501    0  0.00000000000E+00  0.00000000000E+00 -0.20158599766E+04  0.20158599766E+04  0.50400001928E-02 0.  1.
    10030    2    1    2    0    0  0.00000000000E+00  0.00000000000E+00 -0.16061541841E+04  0.24255657691E+04  0.18175912734E+04 0.  0.
        4    1    3    3  502    0  0.62813810390E+03 -0.41625809014E+03 -0.14810208750E+04  0.16617017543E+04  0.12699999809E+01 0.  1.
       -4    1    3    3    0  502 -0.62813810390E+03  0.41625809014E+03 -0.12513330909E+03  0.76386401481E+03  0.12699999809E+01 0. -1.
</event>
<event>
 5   0  0.3308275E-04  0.1586009E+04  0.7818609E-02  0.8829190E-01
       -1   -1    0    0    0  501  0.00000000000E+00  0.00000000000E+00  0.28745223501E+03  0.28745223505E+03  0.50400001928E-02 0. -1.
        1   -1    0    0  501    0  0.00000000000E+00  0.00000000000E+00 -0.21876893540E+04  0.21876893540E+04  0.50400001928E-02 0.  1.
    10030    2    1    2    0    0  0.00000000000E+00  0.00000000000E+00 -0.19002371190E+04  0.24751415891E+04  0.15860090723E+04 0.  0.
        3    1    3    3  502    0  0.56410343539E+03 -0.65851607266E+02 -0.86398737276E+02  0.57446833856E+03  0.10100000352E+00 0. -1.
       -3    1    3    3    0  502 -0.56410343539E+03  0.65851607266E+02 -0.18138383817E+04  0.19006732505E+04  0.10100000352E+00 0.  1.
</event>
<event>
 5   0  0.6547153E-04  0.1851978E+04  0.7818609E-02  0.8679136E-01
        2   -1    0    0  501    0  0.00000000000E+00  0.00000000000E+00  0.93701948321E+03  0.93701948321E+03  0.25500000920E-02 0. -1.
       -2   -1    0    0    0  501  0.00000000000E+00  0.00000000000E+00 -0.91508806021E+03  0.91508806022E+03  0.25500000920E-02 0.  1.
    10030    2    1    2    0    0  0.00000000000E+00  0.00000000000E+00  0.21931422998E+02  0.18521075434E+04  0.18519776902E+04 0.  0.
        5    1    3    3  502    0  0.57490773102E+03 -0.32477604821E+03  0.66019138204E+03  0.93374146936E+03  0.46999998093E+01 0. -1.
       -5    1    3    3    0  502 -0.57490773102E+03  0.32477604821E+03 -0.63825995905E+03  0.91836607407E+03  0.46999998093E+01 0.  1.
</event>
<event>
 5   0  0.6547153E-04  0.1891834E+04  0.7818609E-02  0.8658932E-01
        2   -1    0    0  501    0  0.00000000000E+00  0.00000000000E+00  0.20254496461E+04  0.20254496461E+04  0.25500000920E-02 0.  1.
       -2   -1    0    0    0  501  0.00000000000E+00  0.00000000000E+00 -0.44175806492E+03  0.44175806493E+03  0.25500000920E-02 0. -1.
    10030    2    1    2    0    0  0.00000000000E+00  0.00000000000E+00  0.15836915812E+04  0.24672077110E+04  0.18918337308E+04 0.  0.
        5    1    3    3  502    0 -0.83116611746E+03  0.25237637338E+02  0.13798107693E+04  0.16110164190E+04  0.46999998093E+01 0.  1.
       -5    1    3    3    0  502  0.83116611746E+03 -0.25237637338E+02  0.20388081191E+03  0.85619129207E+03  0.46999998093E+01 0. -1.
</event>
<event>
 5   0  0.6853162E-04  0.1627970E+04  0.7818609E-02  0.8803547E-01
       -2   -1    0    0    0  501  0.00000000000E+00  0.00000000000E+00  0.70286761446E+03  0.70286761447E+03  0.25500000920E-02 0. -1.
        2   -1    0    0  501    0  0.00000000000E+00  0.00000000000E+00 -0.94266931515E+03  0.94266931515E+03  0.25500000920E-02 0.  1.
    10030    2    1    2    0    0  0.00000000000E+00  0.00000000000E+00 -0.23980170068E+03  0.16455369296E+04  0.16279701874E+04 0.  0.
        2    1    3    3  502    0 -0.39823672187E+03 -0.29376291620E+03 -0.77315830608E+03  0.91796672263E+03  0.25500000920E-02 0.  1.
       -2    1    3    3    0  502  0.39823672187E+03  0.29376291620E+03  0.53335660540E+03  0.72757020699E+03  0.25500000920E-02 0. -1.
</event>
<event>
 5   0  0.6774451E-04  0.1804790E+04  0.7818609E-02  0.8703756E-01
       -2   -1    0    0    0  501  0.00000000000E+00  0.00000000000E+00  0.35377414192E+03  0.35377414193E+03  0.25500000920E-02 0.  1.
        2   -1    0    0  501    0  0.00000000000E+00  0.00000000000E+00 -0.23017984964E+04  0.23017984964E+04  0.25500000920E-02 0. -1.
    10030    2    1    2    0    0  0.00000000000E+00  0.00000000000E+00 -0.19480243544E+04  0.26555726383E+04  0.18047900575E+04 0.  0.
        4    1    3    3  502    0 -0.39796102714E+03 -0.60088829581E+03 -0.17730195838E+04  0.19139069415E+04  0.12699999809E+01 0. -1.
       -4    1    3    3    0  502  0.39796102714E+03  0.60088829581E+03 -0.17500477060E+03  0.74166569679E+03  0.12699999809E+01 0.  1.
</event>
<event>
 5   0  0.3404261E-04  0.1754531E+04  0.7818609E-02  0.8730860E-01
        1   -1    0    0  501    0  0.00000000000E+00  0.00000000000E+00  0.13082236510E+04  0.13082236510E+04  0.50400001928E-02 0. -1.
       -1   -1    0    0    0  501  0.00000000000E+00  0.00000000000E+00 -0.58827469361E+03  0.58827469363E+03  0.50400001928E-02 0.  1.
    10030    2    1    2    0    0  0.00000000000E+00  0.00000000000E+00  0.71994895743E+03  0.18964983447E+04  0.17545311254E+04 0.  0.
        1    1    3    3  502    0 -0.86285258700E+03 -0.10389898954E+03  0.48916652531E+03  0.99729307449E+03  0.50400001928E-02 0.  1.
       -1    1    3    3    0  502  0.86285258700E+03  0.10389898954E+03  0.23078243212E+03  0.89920527018E+03  0.50400001928E-02 0. -1.
</event>
<event>
 5   0  0.3404261E-04  0.1859220E+04  0.7818609E-02  0.8675426E-01
        1   -1    0    0  501    0  0.00000000000E+00  0.00000000000E+00  0.13304154973E+04  0.13304154973E+04  0.50400001928E-02 0.  1.
       -1   -1    0    0    0  501  0.00000000000E+00  0.00000000000E+00 -0.64955264680E+03  0.64955264682E+03  0.50400001928E-02 0. -1.
    10030    2    1    2    0    0  0.00000000000E+00  0.00000000000E+00  0.68086285053E+03  0.19799681442E+04  0.18592201674E+04 0.  0.
        1    1    3    3  502    0  0.86226776654E+03  0.59390669737E+02  0.70491974429E+03  0.11153227330E+04  0.50400001928E-02 0.  1.
       -1    1    3    3    0  502 -0.86226776654E+03 -0.59390669737E+02 -0.24056893760E+02  0.86464541115E+03  0.50400001928E-02 0. -1.
</event>
<event>
 5   0  0.3308275E-04  0.1743358E+04  0.7818609E-02  0.8737015E-01
       -1   -1    0    0    0  501  0.00000000000E+00  0.00000000000E+00  0.52505548519E+03  0.52505548521E+03  0.50400001928E-02 0.  1.
        1   -1    0    0  501    0  0.00000000000E+00  0.00000000000E+00 -0.14471309392E+04  0.14471309393E+04  0.50400001928E-02 0. -1.
    10030    2    1    2    0    0  0.00000000000E+00  0.00000000000E+00 -0.92207545406E+03  0.19721864245E+04  0.17433577229E+04 0.  0.
        3    1    3    3  502    0 -0.69699258011E+03 -0.24468133996E+03  0.62474701398E+02  0.74133036722E+03  0.10100000352E+00 0. -1.
       -3    1    3    3    0  502  0.69699258011E+03  0.24468133996E+03 -0.98455015546E+03  0.12308560572E+04  0.10100000352E+00 0.  1.
</event>
<event>
 5   0  0.6771967E-04  0.1715475E+04  0.7818609E-02  0.8752587E-01
       -2   -1    0    0    0  501  0.00000000000E+00  0.00000000000E+00  0.35550060554E+03  0.35550060555E+03  0.25500000920E-02 0. -1.
        2   -1    0    0  501    0  0.00000000000E+00  0.00000000000E+00 -0.20695147669E+04  0.20695147669E+04  0.25500000920E-02 0.  1.
    10030    2    1    2    0    0  0.00000000000E+00  0.00000000000E+00 -0.17140141614E+04  0.24250153725E+04  0.17154751561E+04 0.  0.
        1    1    3    3  502    0  0.67832007550E+03  0.52485952648E+03 -0.87236969033E+03  0.12233660630E+04  0.50400001928E-02 0. -1.
       -1    1    3    3    0  502 -0.67832007550E+03 -0.52485952648E+03 -0.84164447103E+03  0.12016493095E+04  0.50400001928E-02 0.  1.
</event>
<event>
 5   0  0.2467375E-04  0.1819431E+04  0.7818609E-02  0.8696034E-01
        3   -1    0    0  501    0  0.00000000000E+00  0.00000000000E+00  0.59311368341E+03  0.59311369201E+03  0.10100000352E+00 0. -1.
       -3   -1    0    0    0  501  0.00000000000E+00  0.00000000000E+00 -0.13953175629E+04  0.13953175665E+04  0.10100000352E+00 0.  1.
    10030    2    1    2    0    0  0.00000000000E+00  0.00000000000E+00 -0.80220387945E+03  0.19884312585E+04  0.18194306268E+04 0.  0.
        3    1    3    3  502    0  0.56067701230E+03 -0.40510537839E+03  0.24463852972E+03  0.73370096098E+03  0.10100000352E+00 0. -1.
       -3    1    3    3    0  502 -0.56067701230E+03  0.40510537839E+03 -0.10468424092E+04  0.12547302975E+04  0.10100000352E+00 0.  1.
</event>
<event>
 5   0  0.6774451E-04  0.1951204E+04  0.7818609E-02  0.8629780E-01
        2   -1    0    0  501    0  0.00000000000E+00  0.00000000000E+00  0.10946090802E+04  0.10946090802E+04  0.25500000920E-02 0. -1.
       -2   -1    0    0    0  501  0.00000000000E+00  0.00000000000E+00 -0.86953363197E+03  0.86953363197E+03  0.25500000920E-02 0.  1.
    10030    2    1    2    0    0  0.00000000000E+00  0.00000000000E+00  0.22507544820E+03  0.19641427121E+04  0.19512041503E+04 0.  0.
        4    1    3    3  502    0 -0.54102398658E+03  0.42885553246E+03  0.80643720152E+03  0.10615868286E+04  0.12699999809E+01 0. -1.
       -4    1    3    3    0  502  0.54102398658E+03 -0.42885553246E+03 -0.58136175332E+03  0.90255588354E+03  0.12699999809E+01 0.  1.
</event>
<event>
 5   0  0.3470962E-04  0.1815064E+04  0.7818609E-02  0.8698330E-01
       -1   -1    0    0    0  501  0.00000000000E+00  0.00000000000E+00  0.98368276495E+03  0.98368276497E+03  0.50400001928E-02 0. -1.
        1   -1    0    0  501    0  0.00000000000E+00  0.00000000000E+00 -0.83727607853E+03  0.83727607854E+03  0.50400001928E-02 0.  1.
    10030    2    1    2    0    0  0.00000000000E+00  0.00000000000E+00  0.14640668643E+03  0.18209588435E+04  0.18150636881E+04 0.  0.
        4    1    3    3  502    0  0.50997235058E+02  0.35615446504E+03 -0.76266877986E+03  0.84327457072E+03  0.12699999809E+01 0.  1.
       -4    1    3    3    0  502 -0.50997235058E+02 -0.35615446504E+03  0.90907546629E+03  0.97768427279E+03  0.12699999809E+01 0. -1.
</event>
<event>
 5   0  0.3413839E-04  0.1762302E+04  0.7818609E-02  0.8726608E-01
       -1   -1    0    0    0  501  0.00000000000E+00  0.00000000000E+00  0.34474603874E+03  0.34474603878E+03  0.50400001928E-02 0. -1.
        1   -1    0    0  501    0  0.00000000000E+00  0.00000000000E+00 -0.22521705737E+04  0.22521705737E+04  0.50400001928E-02 0.  1.
    10030    2    1    2    0    0  0.00000000000E+00  0.00000000000E+00 -0.19074245350E+04  0.25969166125E+04  0.17623017720E+04 0.  0.
        5    1    3    3  502    0 -0.32744268117E+03  0.11045797771E+03 -0.21481279397E+04  0.21757516884E+04  0.46999998093E+01 0.  1.
       -5    1    3    3    0  502  0.32744268117E+03 -0.11045797771E+03  0.24070340469E+03  0.42116492413E+03  0.46999998093E+01 0. -1.
</event>
<event>
 5   0  0.6771967E-04  0.1921618E+04  0.7818609E-02  0.8644170E-01
       -2   -1    0    0    0  501  0.00000000000E+00  0.00000000000E+00  0.18579500856E+04  0.18579500856E+04  0.25500000920E-02 0. -1.
        2   -1    0    0  501    0  0.00000000000E+00  0.00000000000E+00 -0.49686708590E+03  0.49686708590E+03  0.25500000920E-02 0.  1.
    10030    2    1    2    0    0  0.00000000000E+00  0.00000000000E+00  0.13610829997E+04  0.23548171715E+04  0.19216183229E+04 0.  0.
        1    1    3    3  502    0 -0.18388084976E+03  0.89900467971E+03  0.10295917312E+04  0.13791594230E+04  0.50400001928E-02 0. -1.
       -1    1    3    3    0  502  0.18388084976E+03 -0.89900467971E+03  0.33149126843E+03  0.97565774845E+03  0.50400001928E-02 0.  1.
</event>
<event>
 5   0  0.3308275E-04  0.9052967E+03  0.7818609E-02  0.9418984E-01
        1   -1    0    0  501    0  0.00000000000E+00  0.00000000000E+00  0.32167801982E+03  0.32167801986E+03  0.50400001928E-02 0.  1.
       -1   -1    0    0    0  501  0.00000000000E+00  0.00000000000E+00 -0.63694283985E+03  0.63694283987E+03  0.50400001928E-02 0. -1.
    10030    2    1    2    0    0  0.00000000000E+00  0.00000000000E+00 -0.31526482003E+03  0.95862085973E+03  0.90529666185E+03 0.  0.
        3    1    3    3  502    0  0.41869933968E+03 -0.54123517706E+02 -0.33050292760E+03  0.53616293006E+03  0.10100000352E+00 0.  1.
       -3    1    3    3    0  502 -0.41869933968E+03  0.54123517706E+02  0.15238107572E+02  0.42245792967E+03  0.10100000352E+00 0. -1.
</event>
<event>
 5   0  0.6853162E-04  0.1782028E+04  0.7818609E-02  0.8715915E-01
        2   -1    0    0  501    0  0.00000000000E+00  0.00000000000E+00  0.10361668525E+04  0.10361668525E+04  0.25500000920E-02 0. -1.
       -2   -1    0    0    0  501  0.00000000000E+00  0.00000000000E+00 -0.76619541767E+03  0.76619541767E+03  0.25500000920E-02 0.  1.
    10030    2    1    2    0    0  0.00000000000E+00  0.00000000000E+00  0.26997143479E+03  0.18023622701E+04  0.17820283884E+04 0.  0.
        2    1    3    3  502    0 -0.24801527808E+03  0.72156970382E+02  0.99746932028E+03  0.10303704438E+04  0.25500000920E-02 0. -1.
       -2    1    3    3    0  502  0.24801527808E+03 -0.72156970382E+02 -0.72749788549E+03  0.77199182634E+03  0.25500000920E-02 0.  1.
</event>
<event>
 5   0  0.6853162E-04  0.1821972E+04  0.7818609E-02  0.8694701E-01
        2   -1    0    0  501    0  0.00000000000E+00  0.00000000000E+00  0.52793148855E+03  0.52793148855E+03  0.25500000920E-02 0. -1.
       -2   -1    0    0    0  501  0.00000000000E+00  0.00000000000E+00 -0.15719761225E+04  0.15719761225E+04  0.25500000920E-02 0.  1.
    10030    2    1    2    0    0  0.00000000000E+00  0.00000000000E+00 -0.10440446340E+04  0.20999076111E+04  0.18219722219E+04 0.  0.
        2    1    3    3  502    0 -0.86861819339E+02  0.89283680121E+03 -0.70495857975E+03  0.11409071515E+04  0.25500000920E-02 0.  1.
       -2    1    3    3    0  502  0.86861819339E+02 -0.89283680121E+03 -0.33908605423E+03  0.95900045956E+03  0.25500000920E-02 0. -1.
</event>
<event>
 5   0  0.6774451E-04  0.1735119E+04  0.7818609E-02  0.8741585E-01
        2   -1    0    0  501    0  0.00000000000E+00  0.00000000000E+00  0.96193053097E+03  0.96193053097E+03  0.25500000920E-02 0.  1.
       -2   -1    0    0    0  501  0.00000000000E+00  0.00000000000E+00 -0.78244646041E+03  0.78244646041E+03  0.25500000920E-02 0. -1.
    10030    2    1    2    0    0  0.00000000000E+00  0.00000000000E+00  0.17948407056E+03  0.17443769914E+04  0.17351186001E+04 0.  0.
        4    1    3    3  502    0 -0.55400369411E+03 -0.55683490063E+03 -0.28056061518E+03  0.83408696869E+03  0.12699999809E+01 0. -1.
       -4    1    3    3    0  502  0.55400369411E+03  0.55683490063E+03  0.46004468574E+03  0.91029002270E+03  0.12699999809E+01 0.  1.
</event>
<event>
 5   0  0.6547153E-04  0.1738933E+04  0.7818609E-02  0.8739466E-01
        2   -1    0    0  501    0  0.00000000000E+00  0.00000000000E+00  0.12721823711E+04  0.12721823711E+04  0.25500000920E-02 0.  1.
       -2   -1    0    0    0  501  0.00000000000E+00  0.00000000000E+00 -0.59423242108E+03  0.59423242108E+03  0.25500000920E-02 0. -1.
    10030    2    1    2    0    0  0.00000000000E+00  0.00000000000E+00  0.67794994998E+03  0.18664147921E+04  0.17389330182E+04 0.  0.
        5    1    3    3  502    0  0.50090256829E+03  0.20217353430E+03  0.10702234451E+04  0.11988235206E+04  0.46999998093E+01 0.  1.
       -5    1    3    3    0  502 -0.50090256829E+03 -0.20217353430E+03 -0.39227349517E+03  0.66759127159E+03  0.46999998093E+01 0. -1.
</event>
<event>
 5   0  0.6771967E-04  0.1812444E+04  0.7818609E-02  0.8699710E-01
        2   -1    0    0  501    0  0.00000000000E+00  0.00000000000E+00  0.17184521747E+04  0.17184521747E+04  0.25500000920E-02 0.  1.
       -2   -1    0    0    0  501  0.00000000000E+00  0.00000000000E+00 -0.47789396479E+03  0.47789396480E+03  0.25500000920E-02 0. -1.
    10030    2    1    2    0    0  0.00000000000E+00  0.00000000000E+00  0.12405582100E+04  0.21963461395E+04  0.18124435694E+04 0.  0.
        1    1    3    3  502    0 -0.50083476389E+03 -0.17722171152E+03  0.15099484579E+04  0.16006833982E+04  0.50400001928E-02 0.  1.
       -1    1    3    3    0  502  0.50083476389E+03  0.17722171152E+03 -0.26939024791E+03  0.59566274137E+03  0.50400001928E-02 0. -1.
</event>
<event>
 5   0  0.6547153E-04  0.1770970E+04  0.7818609E-02  0.8721891E-01
        2   -1    0    0  501    0  0.00000000000E+00  0.00000000000E+00  0.45017494465E+03  0.45017494466E+03  0.25500000920E-02 0.  1.
       -2   -1    0    0    0  501  0.00000000000E+00  0.00000000000E+00 -0.17417313916E+04  0.17417313917E+04  0.25500000920E-02 0. -1.
    10030    2    1    2    0    0  0.00000000000E+00  0.00000000000E+00 -0.12915564470E+04  0.21919063363E+04  0.17709701667E+04 0.  0.
        5    1    3    3  502    0  0.48725661023E+03 -0.63021436107E+03 -0.16726765073E+03  0.81399613150E+03  0.46999998093E+01 0.  1.
       -5    1    3    3    0  502 -0.48725661023E+03  0.63021436107E+03 -0.11242887963E+04  0.13779102048E+04  0.46999998093E+01 0. -1.
</event>
<event>
 5   0  0.3470962E-04  0.1728649E+04  0.7818609E-02  0.8745192E-01
       -1   -1    0    0    0  501  0.00000000000E+00  0.00000000000E+00  0.73023035515E+03  0.73023035517E+03  0.50400001928E-02 0. -1.
        1   -1    0    0  501    0  0.00000000000E+00  0.00000000000E+00 -0.10230421362E+04  0.10230421362E+04  0.50400001928E-02 0.  1.
    10030    2    1    2    0    0  0.00000000000E+00  0.00000000000E+00 -0.29281178103E+03  0.17532724914E+04  0.17286485154E+04 0.  0.
        4    1    3    3  502    0  0.23231390037E+03 -0.58190393829E+03  0.45745127034E+03  0.77578683885E+03  0.12699999809E+01 0. -1.
       -4    1    3    3    0  502 -0.23231390037E+03  0.58190393829E+03 -0.75026305137E+03  0.97748565250E+03  0.12699999809E+01 0.  1.
</event>
<event>
 5   0  0.3413839E-04  0.1765703E+04  0.7818609E-02  0.8724754E-01
       -1   -1    0    0    0  501  0.00000000000E+00  0.00000000000E+00  0.69488116724E+03  0.69488116726E+03  0.50400001928E-02 0.  1.
        1   -1    0    0  501    0  0.00000000000E+00  0.00000000000E+00 -0.11216697493E+04  0.11216697493E+04  0.50400001928E-02 0. -1.
    10030    2    1    2    0    0  0.00000000000E+00  0.00000000000E+00 -0.42678858203E+03  0.18165509165E+04  0.17657034685E+04 0.  0.
        5    1    3    3  502    0  0.47481111696E+02 -0.13335777908E+03  0.68311640805E+03  0.69764523230E+03  0.46999998093E+01 0.  1.
       -5    1    3    3    0  502 -0.47481111696E+02  0.13335777908E+03 -0.11099049901E+04  0.11189056842E+04  0.46999998093E+01 0. -1.
</event>
<event>
 5   0  0.6774451E-04  0.1763810E+04  0.7818609E-02  0.8725785E-01
        2   -1    0    0  501    0  0.00000000000E+00  0.00000000000E+00  0.71247428073E+03  0.71247428073E+03  0.25500000920E-02 0. -1.
       -2   -1    0    0    0  501  0.00000000000E+00  0.00000000000E+00 -0.10916272208E+04  0.10916272208E+04  0.25500000920E-02 0.  1.
    10030    2    1    2    0    0  0.00000000000E+00  0.00000000000E+00 -0.37915294003E+03  0.18041015015E+04  0.17638098752E+04 0.  0.
        4    1    3    3  502    0 -0.13514156192E+03  0.77896138549E+03 -0.58928537541E+03  0.98605423199E+03  0.12699999809E+01 0.  1.
       -4    1    3    3    0  502  0.13514156192E+03 -0.77896138549E+03  0.21013243538E+03  0.81804726951E+03  0.12699999809E+01 0. -1.
</event>
<event>
 5   0  0.6853162E-04  0.1782223E+04  0.7818609E-02  0.8715810E-01
       -2   -1    0    0    0  501  0.00000000000E+00  0.00000000000E+00  0.88889080256E+03  0.88889080257E+03  0.25500000920E-02 0. -1.
        2   -1    0    0  501    0  0.00000000000E+00  0.00000000000E+00 -0.89333792357E+03  0.89333792358E+03  0.25500000920E-02 0.  1.
    10030    2    1    2    0    0  0.00000000000E+00  0.00000000000E+00 -0.44471210081E+01  0.17822287261E+04  0.17822231778E+04 0.  0.
        2    1    3    3  502    0  0.25400340897E+03  0.48809809213E+03  0.69872254561E+03  0.88936532149E+03  0.25500000920E-02 0. -1.
       -2    1    3    3    0  502 -0.25400340897E+03 -0.48809809213E+03 -0.70316966662E+03  0.89286340466E+03  0.25500000920E-02 0.  1.
</event>
<event>
 5   0  0.3413839E-04  0.1730151E+04  0.7818609E-02  0.8744353E-01
        1   -1    0    0  501    0  0.00000000000E+00  0.00000000000E+00  0.10980068318E+04  0.10980068318E+04  0.50400001928E-02 0.  1.
       -1   -1    0    0    0  501  0.00000000000E+00  0.00000000000E+00 -0.68155787684E+03  0.68155787686E+03  0.50400001928E-02 0. -1.
    10030    2    1    2    0    0  0.00000000000E+00  0.00000000000E+00  0.41644895495E+03  0.17795647087E+04  0.17301505195E+04 0.  0.
        5    1    3    3  502    0 -0.71253854680E+03  0.47873312676E+03  0.31822050233E+03  0.91552332872E+03  0.46999998093E+01 0.  1.
       -5    1    3    3    0  502  0.71253854680E+03 -0.47873312676E+03  0.98228452620E+02  0.86404137993E+03  0.46999998093E+01 0. -1.
</event>
<event>
 5   0  0.3377273E-04  0.1768914E+04  0.7818609E-02  0.8723008E-01
        1   -1    0    0  501    0  0.00000000000E+00  0.00000000000E+00  0.11503591451E+04  0.11503591451E+04  0.50400001928E-02 0. -1.
       -1   -1    0    0    0  501  0.00000000000E+00  0.00000000000E+00 -0.68001708004E+03  0.68001708006E+03  0.50400001928E-02 0.  1.
    10030    2    1    2    0    0  0.00000000000E+00  0.00000000000E+00  0.47034206502E+03  0.18303762251E+04  0.17689136405E+04 0.  0.
        2    1    3    3  502    0  0.64365195405E+03  0.90582138764E+02 -0.38547896006E+03  0.75570297768E+03  0.25500000920E-02 0.  1.
       -2    1    3    3    0  502 -0.64365195405E+03 -0.90582138764E+02  0.85582102508E+03  0.10746732475E+04  0.25500000920E-02 0. -1.
</event>
<event>
 5   0  0.6547153E-04  0.1916005E+04  0.7818609E-02  0.8646930E-01
       -2   -1    0    0    0  501  0.00000000000E+00  0.00000000000E+00  0.11486553075E+04  0.11486553075E+04  0.25500000920E-02 0.  1.
        2   -1    0    0  501    0  0.00000000000E+00  0.00000000000E+00 -0.79899418395E+03  0.79899418396E+03  0.25500000920E-02 0. -1.
    10030    2    1    2    0    0  0.00000000000E+00  0.00000000000E+00  0.34966112356E+03  0.19476494915E+04  0.19160051253E+04 0.  0.
        5    1    3    3  502    0  0.82648420282E+03  0.30877833073E+03  0.55426014950E+03  0.10419436637E+04  0.46999998093E+01 0.  1.
       -5    1    3    3    0  502 -0.82648420282E+03 -0.30877833073E+03 -0.20459902594E+03  0.90570582776E+03  0.46999998093E+01 0. -1.
</event>
<event>
 5   0  0.3377273E-04  0.1876387E+04  0.7818609E-02  0.8666700E-01
       -1   -1    0    0    0  501  0.00000000000E+00  0.00000000000E+00  0.19875885304E+04  0.19875885304E+04  0.50400001928E-02 0.  1.
        1   -1    0    0  501    0  0.00000000000E+00  0.00000000000E+00 -0.44285187091E+03  0.44285187094E+03  0.50400001928E-02 0. -1.
    10030    2    1    2    0    0  0.00000000000E+00  0.00000000000E+00  0.15447366595E+04  0.24304404014E+04  0.18763872728E+04 0.  0.
        2    1    3    3  502    0 -0.51436389863E+03  0.78460593115E+03  0.76520181667E+03  0.12106653161E+04  0.25500000920E-02 0.  1.
       -2    1    3    3    0  502  0.51436389863E+03 -0.78460593115E+03  0.77953484284E+03  0.12197750853E+04  0.25500000920E-02 0. -1.
</event>
<event>
 5   0  0.3308275E-04  0.1794753E+04  0.7818609E-02  0.8709095E-01
       -1   -1    0    0    0  501  0.00000000000E+00  0.00000000000E+00  0.39222278232E+03  0.39222278235E+03  0.50400001928E-02 0.  1.
        1   -1    0    0  501    0  0.00000000000E+00  0.00000000000E+00 -0.20531295299E+04  0.20531295299E+04  0.50400001928E-02 0. -1.
    10030    2    1    2    0    0  0.00000000000E+00  0.00000000000E+00 -0.16609067475E+04  0.24453523122E+04  0.17947525475E+04 0.  0.
        3    1    3    3  502    0  0.21334677129E+03  0.34724573222E+03  0.25885557798E+03  0.48280706687E+03  0.10100000352E+00 0.  1.
       -3    1    3    3    0  502 -0.21334677129E+03 -0.34724573222E+03 -0.19197623255E+04  0.19625452453E+04  0.10100000352E+00 0. -1.
</event>
<event>
 5   0  0.3404261E-04  0.1761316E+04  0.7818609E-02  0.8727146E-01
       -1   -1    0    0    0  501  0.00000000000E+00  0.00000000000E+00  0.14695535380E+04  0.14695535380E+04  0.50400001928E-02 0.  1.
        1   -1    0    0  501    0  0.00000000000E+00  0.00000000000E+00 -0.52775100985E+03  0.52775100987E+03  0.50400001928E-02 0. -1.
    10030    2    1    2    0    0  0.00000000000E+00  0.00000000000E+00  0.94180252814E+03  0.19973045479E+04  0.17613158306E+04 0.  0.
        1    1    3    3  502    0  0.74780681611E+03 -0.12322570038E+03 -0.37698931991E+02  0.75882858207E+03  0.50400001928E-02 0. -1.
       -1    1    3    3    0  502 -0.74780681611E+03  0.12322570038E+03  0.97950146014E+03  0.12384759658E+04  0.50400001928E-02 0.  1.
</event>
<event>
 5   0  0.6771967E-04  0.1843324E+04  0.7818609E-02  0.8683594E-01
       -2   -1    0    0    0  501  0.00000000000E+00  0.00000000000E+00  0.93653948121E+03  0.93653948121E+03  0.25500000920E-02 0. -1.
        2   -1    0    0  501    0  0.00000000000E+00  0.00000000000E+00 -0.90702038777E+03  0.90702038778E+03  0.25500000920E-02 0.  1.
    10030    2    1    2    0    0  0.00000000000E+00  0.00000000000E+00  0.29519093432E+02  0.18435598690E+04  0.18433235239E+04 0.  0.
        1    1    3    3  502    0  0.29999662142E+03 -0.86516776470E+03  0.11940168380E+03  0.92345546512E+03  0.50400001928E-02 0. -1.
       -1    1    3    3    0  502 -0.29999662142E+03  0.86516776470E+03 -0.89882590369E+02  0.92010440387E+03  0.50400001928E-02 0.  1.
</event>
<event>
 5   0  0.2467375E-04  0.1733053E+04  0.7818609E-02  0.8742734E-01
       -3   -1    0    0    0  501  0.00000000000E+00  0.00000000000E+00  0.53285335130E+03  0.53285336087E+03  0.10100000352E+00 0.  1.
        3   -1    0    0  501    0  0.00000000000E+00  0.00000000000E+00 -0.14091458423E+04  0.14091458459E+04  0.10100000352E+00 0. -1.
    10030    2    1    2    0    0  0.00000000000E+00  0.00000000000E+00 -0.87629249099E+03  0.19419992068E+04  0.17330529102E+04 0.  0.
        5    1    3    3  502    0 -0.68251828052E+03 -0.14729409878E+03  0.13686790597E+03  0.71153472752E+03  0.46999998093E+01 0.  1.
       -5    1    3    3    0  502  0.68251828052E+03  0.14729409878E+03 -0.10131603970E+04  0.12304644793E+04  0.46999998093E+01 0. -1.
</event>
<event>
 5   0  0.6929121E-04  0.2019894E+04  0.7818609E-02  0.8597376E-01
       -2   -1    0    0    0  501  0.00000000000E+00  0.00000000000E+00  0.79170476359E+03  0.79170476359E+03  0.25500000920E-02 0.  1.
        2   -1    0    0  501    0  0.00000000000E+00  0.00000000000E+00 -0.12883499665E+04  0.12883499665E+04  0.25500000920E-02 0. -1.
    10030    2    1    2    0    0  0.00000000000E+00  0.00000000000E+00 -0.49664520292E+03  0.20800547301E+04  0.20198938642E+04 0.  0.
        3    1    3    3  502    0  0.48782267059E+03  0.55713435034E+03 -0.95552507508E+03  0.12088828817E+04  0.10100000352E+00 0. -1.
       -3    1    3    3    0  502 -0.48782267059E+03 -0.55713435034E+03  0.45887987216E+03  0.87117184845E+03  0.10100000352E+00 0.  1.
</event>
<event>
 5   0  0.6547153E-04  0.1853142E+04  0.7818609E-02  0.8678539E-01
       -2   -1    0    0    0  501  0.00000000000E+00  0.00000000000E+00  0.13066861621E+04  0.13066861621E+04  0.25500000920E-02 0.  1.
        2   -1    0    0  501    0  0.00000000000E+00  0.00000000000E+00 -0.65703142550E+03  0.65703142551E+03  0.25500000920E-02 0. -1.
    10030    2    1    2    0    0  0.00000000000E+00  0.00000000000E+00  0.64965473663E+03  0.19637175876E+04  0.18531420580E+04 0.  0.
        5    1    3    3  502    0 -0.54150009587E+03  0.48540708806E+03 -0.28360124124E+03  0.78057296200E+03  0.46999998093E+01 0. -1.
       -5    1    3    3    0  502  0.54150009587E+03 -0.48540708806E+03  0.93325597787E+03  0.11831446256E+04  0.46999998093E+01 0.  1.
</event>
<event>
 5   0  0.6774451E-04  0.1783760E+04  0.7818609E-02  0.8714984E-01
        2   -1    0    0  501    0  0.00000000000E+00  0.00000000000E+00  0.19907736484E+04  0.19907736484E+04  0.25500000920E-02 0.  1.
       -2   -1    0    0    0  501  0.00000000000E+00  0.00000000000E+00 -0.39956809193E+03  0.39956809194E+03  0.25500000920E-02 0. -1.
    10030    2    1    2    0    0  0.00000000000E+00  0.00000000000E+00  0.15912055565E+04  0.23903417404E+04  0.17837596567E+04 0.  0.
        4    1    3    3  502    0 -0.57652322746E+03  0.61683107545E+03  0.11807113674E+04  0.14515304177E+04  0.12699999809E+01 0. -1.
       -4    1    3    3    0  502  0.57652322746E+03 -0.61683107545E+03  0.41049418910E+03  0.93881132270E+03  0.12699999809E+01 0.  1.
</event>
<event>
 5   0  0.6771967E-04  0.1702523E+04  0.7818609E-02  0.8759927E-01
       -2   -1    0    0    0  501  0.00000000000E+00  0.00000000000E+00  0.11852628314E+04  0.11852628314E+04  0.25500000920E-02 0.  1.
        2   -1    0    0  501    0  0.00000000000E+00  0.00000000000E+00 -0.61138004743E+03  0.61138004743E+03  0.25500000920E-02 0. -1.
    10030    2    1    2    0    0  0.00000000000E+00  0.00000000000E+00  0.57388278400E+03  0.17966428789E+04  0.17025228881E+04 0.  0.
        1    1    3    3  502    0 -0.13785964282E+03  0.83545755975E+03  0.37924955938E+03  0.92780646882E+03  0.50400001928E-02 0.  1.
       -1    1    3    3    0  502  0.13785964282E+03 -0.83545755975E+03  0.19463322462E+03  0.86883641004E+03  0.50400001928E-02 0. -1.
</event>
<event>
 5   0  0.3377273E-04  0.1807880E+04  0.7818609E-02  0.8702120E-01
       -1   -1    0    0    0  501  0.00000000000E+00  0.00000000000E+00  0.72643842640E+03  0.72643842642E+03  0.50400001928E-02 0.  1.
        1   -1    0    0  501    0  0.00000000000E+00  0.00000000000E+00 -0.11248132015E+04  0.11248132015E+04  0.50400001928E-02 0. -1.
    10030    2    1    2    0    0  0.00000000000E+00  0.00000000000E+00 -0.39837477513E+03  0.18512516280E+04  0.18078800095E+04 0.  0.
        2    1    3    3  502    0  0.69820425010E+03  0.18228008639E+03  0.35829266118E+03  0.80566049662E+03  0.25500000920E-02 0.  1.
       -2    1    3    3    0  502 -0.69820425010E+03 -0.18228008639E+03 -0.75666743631E+03  0.10455911313E+04  0.25500000920E-02 0. -1.
</event>
<event>
 5   0  0.3308275E-04  0.1821403E+04  0.7818609E-02  0.8695000E-01
       -1   -1    0    0    0  501  0.00000000000E+00  0.00000000000E+00  0.74377187083E+03  0.74377187085E+03  0.50400001928E-02 0.  1.
        1   -1    0    0  501    0  0.00000000000E+00  0.00000000000E+00 -0.11150959361E+04  0.11150959361E+04  0.50400001928E-02 0. -1.
    10030    2    1    2    0    0  0.00000000000E+00  0.00000000000E+00 -0.37132406529E+03  0.18588678070E+04  0.18214027458E+04 0.  0.
        3    1    3    3  502    0  0.18437422746E+03 -0.89128639158E+03 -0.15352312557E+03  0.92301389364E+03  0.10100000352E+00 0. -1.
       -3    1    3    3    0  502 -0.18437422746E+03  0.89128639158E+03 -0.21780093972E+03  0.93585391334E+03  0.10100000352E+00 0.  1.
</event>
<event>
 5   0  0.6929121E-04  0.2081806E+04  0.7818609E-02  0.8569300E-01
       -2   -1    0    0    0  501  0.00000000000E+00  0.00000000000E+00  0.13052776148E+04  0.13052776148E+04  0.25500000920E-02 0.  1.
        2   -1    0    0  501    0  0.00000000000E+00  0.00000000000E+00 -0.83007575115E+03  0.83007575116E+03  0.25500000920E-02 0. -1.
    10030    2    1    2    0    0  0.00000000000E+00  0.00000000000E+00  0.47520186361E+03  0.21353533659E+04  0.20818062317E+04 0.  0.
        3    1    3    3  502    0  0.74579996204E+03 -0.28901497311E+03  0.92086699100E+03  0.12197308159E+04  0.10100000352E+00 0.  1.
       -3    1    3    3    0  502 -0.74579996204E+03  0.28901497311E+03 -0.44566512739E+03  0.91562254998E+03  0.10100000352E+00 0. -1.
</event>
<event>
 5   0  0.6929121E-04  0.1766634E+04  0.7818609E-02  0.8724247E-01
       -2   -1    0    0    0  501  0.00000000000E+00  0.00000000000E+00  0.10310442319E+04  0.10310442319E+04  0.25500000920E-02 0.  1.
        2   -1    0    0  501    0  0.00000000000E+00  0.00000000000E+00 -0.75675604116E+03  0.75675604117E+03  0.25500000920E-02 0. -1.
    10030    2    1    2    0    0  0.00000000000E+00  0.00000000000E+00  0.27428819078E+03  0.17878002731E+04  0.17666340325E+04 0.  0.
        3    1    3    3  502    0 -0.52045993066E+03 -0.15906282633E+03 -0.56694274987E+03  0.78587760751E+03  0.10100000352E+00 0. -1.
       -3    1    3    3    0  502  0.52045993066E+03  0.15906282633E+03  0.84123094066E+03  0.10019226656E+04  0.10100000352E+00 0.  1.
</event>
<event>
 5   0  0.3377273E-04  0.1698233E+04  0.7818609E-02  0.8762373E-01
       -1   -1    0    0    0  501  0.00000000000E+00  0.00000000000E+00  0.53862483746E+03  0.53862483748E+03  0.50400001928E-02 0.  1.
        1   -1    0    0  501    0  0.00000000000E+00  0.00000000000E+00 -0.13385926394E+04  0.13385926394E+04  0.50400001928E-02 0. -1.
    10030    2    1    2    0    0  0.00000000000E+00  0.00000000000E+00 -0.79996780191E+03  0.18772174769E+04  0.16982334855E+04 0.  0.
        2    1    3    3  502    0  0.25610953372E+03  0.35210036110E+03  0.40584202893E+03  0.59520963534E+03  0.25500000920E-02 0.  1.
       -2    1    3    3    0  502 -0.25610953372E+03 -0.35210036110E+03 -0.12058098308E+04  0.12820078415E+04  0.25500000920E-02 0. -1.
</event>
<event>
 5   0  0.3404261E-04  0.1807684E+04  0.7818609E-02  0.8702224E-01
       -1   -1    0    0    0  501  0.00000000000E+00  0.00000000000E+00  0.47960208672E+03  0.47960208674E+03  0.50400001928E-02 0. -1.
        1   -1    0    0  501    0  0.00000000000E+00  0.00000000000E+00 -0.17033493665E+04  0.17033493666E+04  0.50400001928E-02 0.  1.
    10030    2    1    2    0    0  0.00000000000E+00  0.00000000000E+00 -0.12237472798E+04  0.21829514533E+04  0.18076835018E+04 0.  0.
        1    1    3    3  502    0  0.99066433975E+02  0.29119913921E+03  0.41445428719E+03  0.51612348640E+03  0.50400001928E-02 0. -1.
       -1    1    3    3    0  502 -0.99066433975E+02 -0.29119913921E+03 -0.16382015670E+04  0.16668279669E+04  0.50400001928E-02 0.  1.
</event>
<event>
 5   0  0.6547153E-04  0.1626327E+04  0.7818609E-02  0.8804535E-01
        2   -1    0    0  501    0  0.00000000000E+00  0.00000000000E+00  0.53721158761E+03  0.53721158762E+03  0.25500000920E-02 0. -1.
       -2   -1    0    0    0  501  0.00000000000E+00  0.00000000000E+00 -0.12308654913E+04  0.12308654913E+04  0.25500000920E-02 0.  1.
    10030    2    1    2    0    0  0.00000000000E+00  0.00000000000E+00 -0.69365390365E+03  0.17680770789E+04  0.16263274021E+04 0.  0.
        5    1    3    3  502    0  0.79569998474E+03 -0.16425958446E+03 -0.38277623840E+03  0.89814220226E+03  0.46999998093E+01 0.  1.
       -5    1    3    3    0  502 -0.79569998474E+03  0.16425958446E+03 -0.31087766525E+03  0.86993487662E+03  0.46999998093E+01 0. -1.
</event>
<event>
 5   0  0.3470962E-04  0.1791935E+04  0.7818609E-02  0.8710600E-01
       -1   -1    0    0    0  501  0.00000000000E+00  0.00000000000E+00  0.56160092536E+03  0.56160092538E+03  0.50400001928E-02 0.  1.
        1   -1    0    0  501    0  0.00000000000E+00  0.00000000000E+00 -0.14294091777E+04  0.14294091777E+04  0.50400001928E-02 0. -1.
    10030    2    1    2    0    0  0.00000000000E+00  0.00000000000E+00 -0.86780825234E+03  0.19910101031E+04  0.17919347275E+04 0.  0.
        4    1    3    3  502    0  0.28038194816E+03  0.56254779801E+03 -0.11433380667E+04  0.13047212766E+04  0.12699999809E+01 0.  1.
       -4    1    3    3    0  502 -0.28038194816E+03 -0.56254779801E+03  0.27552981435E+03  0.68628882651E+03  0.12699999809E+01 0. -1.
</event>
<event>
 5   0  0.3404261E-04  0.1442288E+04  0.7818609E-02  0.8923765E-01
       -1   -1    0    0    0  501  0.00000000000E+00  0.00000000000E+00  0.17288362936E+04  0.17288362936E+04  0.50400001928E-02 0.  1.
        1   -1    0    0  501    0  0.00000000000E+00  0.00000000000E+00 -0.30080850952E+03  0.30080850956E+03  0.50400001928E-02 0. -1.
    10030    2    1    2    0    0  0.00000000000E+00  0.00000000000E+00  0.14280277841E+04  0.20296448032E+04  0.14422880000E+04 0.  0.
        1    1    3    3  502    0  0.90941438552E+02 -0.53790737617E+03  0.50318785631E+02  0.54785643265E+03  0.50400001928E-02 0. -1.
       -1    1    3    3    0  502 -0.90941438552E+02  0.53790737617E+03  0.13777089984E+04  0.14817883705E+04  0.50400001928E-02 0.  1.
</event>
<event>
 5   0  0.6774451E-04  0.1781682E+04  0.7818609E-02  0.8716102E-01
       -2   -1    0    0    0  501  0.00000000000E+00  0.00000000000E+00  0.70036652027E+03  0.70036652028E+03  0.25500000920E-02 0. -1.
        2   -1    0    0  501    0  0.00000000000E+00  0.00000000000E+00 -0.11331180215E+04  0.11331180215E+04  0.25500000920E-02 0.  1.
    10030    2    1    2    0    0  0.00000000000E+00  0.00000000000E+00 -0.43275150120E+03  0.18334845418E+04  0.17816822677E+04 0.  0.
        4    1    3    3  502    0  0.80242708773E+03 -0.23629691186E+03  0.98915829493E+02  0.84232500610E+03  0.12699999809E+01 0. -1.
       -4    1    3    3    0  502 -0.80242708773E+03  0.23629691186E+03 -0.53166733070E+03  0.99115953565E+03  0.12699999809E+01 0.  1.
</event>
<event>
 5   0  0.3308275E-04  0.1849224E+04  0.7818609E-02  0.8680552E-01
       -1   -1    0    0    0  501  0.00000000000E+00  0.00000000000E+00  0.67012594021E+03  0.67012594023E+03  0.50400001928E-02 0.  1.
        1   -1    0    0  501    0  0.00000000000E+00  0.00000000000E+00 -0.12757406435E+04  0.12757406435E+04  0.50400001928E-02 0. -1.
    10030    2    1    2    0    0  0.00000000000E+00  0.00000000000E+00 -0.60561470333E+03  0.19458665838E+04  0.18492235108E+04 0.  0.
        3    1    3    3  502    0  0.22647890787E+03  0.83550310904E+03  0.39054149166E+02  0.86653527204E+03  0.10100000352E+00 0.  1.
       -3    1    3    3    0  502 -0.22647890787E+03 -0.83550310904E+03 -0.64466885250E+03  0.10793313117E+04  0.10100000352E+00 0. -1.
</event>
<event>
 5   0  0.3404261E-04  0.1824384E+04  0.7818609E-02  0.8693439E-01
       -1   -1    0    0    0  501  0.00000000000E+00  0.00000000000E+00  0.54699005930E+03  0.54699005933E+03  0.50400001928E-02 0.  1.
        1   -1    0    0  501    0  0.00000000000E+00  0.00000000000E+00 -0.15212235254E+04  0.15212235254E+04  0.50400001928E-02 0. -1.
    10030    2    1    2    0    0  0.00000000000E+00  0.00000000000E+00 -0.97423346612E+03  0.20682135848E+04  0.18243838921E+04 0.  0.
        1    1    3    3  502    0  0.61512986113E+03 -0.97197913783E+02 -0.12427285207E+04  0.13900382572E+04  0.50400001928E-02 0. -1.
       -1    1    3    3    0  502 -0.61512986113E+03  0.97197913783E+02  0.26849505455E+03  0.67817532751E+03  0.50400001928E-02 0.  1.
</event>
<event>
 5   0  0.3404261E-04  0.1712910E+04  0.7818609E-02  0.8754035E-01
        1   -1    0    0  501    0  0.00000000000E+00  0.00000000000E+00  0.13943191408E+04  0.13943191408E+04  0.50400001928E-02 0. -1.
       -1   -1    0    0    0  501  0.00000000000E+00  0.00000000000E+00 -0.52607430853E+03  0.52607430855E+03  0.50400001928E-02 0.  1.
    10030    2    1    2    0    0  0.00000000000E+00  0.00000000000E+00  0.86824483225E+03  0.19203934493E+04  0.17129103630E+04 0.  0.
        1    1    3    3  502    0  0.95205170178E+02  0.84822349954E+03  0.35509794577E+03  0.92446832327E+03  0.50400001928E-02 0. -1.
       -1    1    3    3    0  502 -0.95205170178E+02 -0.84822349954E+03  0.51314688649E+03  0.99592512607E+03  0.50400001928E-02 0.  1.
</event>
<event>
 5   0  0.3413839E-04  0.1848799E+04  0.7818609E-02  0.8680771E-01
        1   -1    0    0  501    0  0.00000000000E+00  0.00000000000E+00  0.81235381918E+03  0.81235381920E+03  0.50400001928E-02 0.  1.
       -1   -1    0    0    0  501  0.00000000000E+00  0.00000000000E+00 -0.10518988223E+04  0.10518988223E+04  0.50400001928E-02 0. -1.
    10030    2    1    2    0    0  0.00000000000E+00  0.00000000000E+00 -0.23954500314E+03  0.18642526415E+04  0.18487985566E+04 0.  0.
        5    1    3    3  502    0 -0.13999127999E+03  0.59662056004E+03  0.57806603852E+03  0.84245835863E+03  0.46999998093E+01 0.  1.
       -5    1    3    3    0  502  0.13999127999E+03 -0.59662056004E+03 -0.81761104167E+03  0.10217942829E+04  0.46999998093E+01 0. -1.
</event>
<event>
 5   0  0.3413839E-04  0.1802238E+04  0.7818609E-02  0.8705110E-01
       -1   -1    0    0    0  501  0.00000000000E+00  0.00000000000E+00  0.88080805290E+03  0.88080805292E+03  0.50400001928E-02 0. -1.
        1   -1    0    0  501    0  0.00000000000E+00  0.00000000000E+00 -0.92189857890E+03  0.92189857891E+03  0.50400001928E-02 0.  1.
    10030    2    1    2    0    0  0.00000000000E+00  0.00000000000E+00 -0.41090525994E+02  0.18027066318E+04  0.18022382665E+04 0.  0.
        5    1    3    3  502    0 -0.49807058847E+02 -0.63717907603E+03  0.61484866415E+03  0.88687027679E+03  0.46999998093E+01 0. -1.
       -5    1    3    3    0  502  0.49807058847E+02  0.63717907603E+03 -0.65593919014E+03  0.91583635504E+03  0.46999998093E+01 0.  1.
</event>
<event>
 5   0  0.3377273E-04  0.1739895E+04  0.7818609E-02  0.8738933E-01
        1   -1    0    0  501    0  0.00000000000E+00  0.00000000000E+00  0.56574971414E+03  0.56574971416E+03  0.50400001928E-02 0. -1.
       -1   -1    0    0    0  501  0.00000000000E+00  0.00000000000E+00 -0.13377086494E+04  0.13377086494E+04  0.50400001928E-02 0.  1.
    10030    2    1    2    0    0  0.00000000000E+00  0.00000000000E+00 -0.77195893530E+03  0.19034583636E+04  0.17398945785E+04 0.  0.
        2    1    3    3  502    0 -0.17195750465E+03 -0.51958841263E+03  0.35380511167E+03  0.65170511660E+03  0.25500000920E-02 0.  1.
       -2    1    3    3    0  502  0.17195750465E+03  0.51958841263E+03 -0.11257640470E+04  0.12517532470E+04  0.25500000920E-02 0. -1.
</event>
<event>
 5   0  0.3377273E-04  0.1809010E+04  0.7818609E-02  0.8701523E-01
       -1   -1    0    0    0  501  0.00000000000E+00  0.00000000000E+00  0.12529886946E+04  0.12529886946E+04  0.50400001928E-02 0. -1.
        1   -1    0    0  501    0  0.00000000000E+00  0.00000000000E+00 -0.65294233308E+03  0.65294233310E+03  0.50400001928E-02 0.  1.
    10030    2    1    2    0    0  0.00000000000E+00  0.00000000000E+00  0.60004636150E+03  0.19059310277E+04  0.18090100736E+04 0.  0.
        2    1    3    3  502    0  0.66079289240E+03 -0.21821968070E+03 -0.30874210081E+03  0.76130727076E+03  0.25500000920E-02 0.  1.
       -2    1    3    3    0  502 -0.66079289240E+03  0.21821968070E+03  0.90878846231E+03  0.11446237569E+04  0.25500000920E-02 0. -1.
</event>
<event>
 5   0  0.3377273E-04  0.1303850E+04  0.7818609E-02  0.9026518E-01
        1   -1    0    0  501    0  0.00000000000E+00  0.00000000000E+00  0.13351300873E+04  0.13351300873E+04  0.50400001928E-02 0.  1.
       -1   -1    0    0    0  501  0.00000000000E+00  0.00000000000E+00 -0.31832574343E+03  0.31832574347E+03  0.50400001928E-02 0. -1.
    10030    2    1    2    0    0  0.00000000000E+00  0.00000000000E+00  0.10168043439E+04  0.16534558308E+04  0.13038501105E+04 0.  0.
        2    1    3    3  502    0  0.10265031020E+03 -0.20210746494E+03 -0.26673937114E+03  0.35004914754E+03  0.25500000920E-02 0. -1.
       -2    1    3    3    0  502 -0.10265031020E+03  0.20210746494E+03  0.12835437150E+04  0.13034066833E+04  0.25500000920E-02 0.  1.
</event>
<event>
 5   0  0.6547153E-04  0.1768380E+04  0.7818609E-02  0.8723298E-01
       -2   -1    0    0    0  501  0.00000000000E+00  0.00000000000E+00  0.43401796934E+03  0.43401796934E+03  0.25500000920E-02 0. -1.
        2   -1    0    0  501    0  0.00000000000E+00  0.00000000000E+00 -0.18012899125E+04  0.18012899125E+04  0.25500000920E-02 0.  1.
    10030    2    1    2    0    0  0.00000000000E+00  0.00000000000E+00 -0.13672719432E+04  0.22353078819E+04  0.17683802646E+04 0.  0.
        5    1    3    3  502    0  0.12669959884E+03  0.55213910946E+01 -0.17897178509E+04  0.17942116235E+04  0.46999998093E+01 0.  1.
       -5    1    3    3    0  502 -0.12669959884E+03 -0.55213910946E+01  0.42244590777E+03  0.44109625831E+03  0.46999998093E+01 0. -1.
</event>
<event>
 5   0  0.3404261E-04  0.1805964E+04  0.7818609E-02  0.8703135E-01
       -1   -1    0    0    0  501  0.00000000000E+00  0.00000000000E+00  0.43490105190E+03  0.43490105193E+03  0.50400001928E-02 0.  1.
        1   -1    0    0  501    0  0.00000000000E+00  0.00000000000E+00 -0.18748541809E+04  0.18748541809E+04  0.50400001928E-02 0. -1.
    10030    2    1    2    0    0  0.00000000000E+00  0.00000000000E+00 -0.14399531290E+04  0.23097552328E+04  0.18059635162E+04 0.  0.
        1    1    3    3  502    0  0.24985388516E+03 -0.11068233431E+03  0.38074562972E+03  0.46866275469E+03  0.50400001928E-02 0.  1.
       -1    1    3    3    0  502 -0.24985388516E+03  0.11068233431E+03 -0.18206987587E+04  0.18410924782E+04  0.50400001928E-02 0. -1.
</event>
<event>
 5   0  0.2467375E-04  0.1793670E+04  0.7818609E-02  0.8709673E-01
       -3   -1    0    0    0  501  0.00000000000E+00  0.00000000000E+00  0.55956940321E+03  0.55956941233E+03  0.10100000352E+00 0. -1.
        3   -1    0    0  501    0  0.00000000000E+00  0.00000000000E+00 -0.14373789582E+04  0.14373789617E+04  0.10100000352E+00 0.  1.
    10030    2    1    2    0    0  0.00000000000E+00  0.00000000000E+00 -0.87780955495E+03  0.19969483740E+04  0.17936703136E+04 0.  0.
        4    1    3    3  502    0 -0.32702114975E+03 -0.17319456573E+03 -0.13484166428E+04  0.13982733086E+04  0.12699999809E+01 0.  1.
       -4    1    3    3    0  502  0.32702114975E+03  0.17319456573E+03  0.47060708785E+03  0.59867506547E+03  0.12699999809E+01 0. -1.
</event>
<event>
 5   0  0.6547153E-04  0.1824718E+04  0.7818609E-02  0.8693264E-01
        2   -1    0    0  501    0  0.00000000000E+00  0.00000000000E+00  0.10273431034E+04  0.10273431034E+04  0.25500000920E-02 0.  1.
       -2   -1    0    0    0  501  0.00000000000E+00  0.00000000000E+00 -0.81024410438E+03  0.81024410438E+03  0.25500000920E-02 0. -1.
    10030    2    1    2    0    0  0.00000000000E+00  0.00000000000E+00  0.21709899899E+03  0.18375872077E+04  0.18247177236E+04 0.  0.
        5    1    3    3  502    0  0.11183641917E+03 -0.90124744185E+03  0.19647084698E+03  0.92918094029E+03  0.46999998093E+01 0. -1.
       -5    1    3    3    0  502 -0.11183641917E+03  0.90124744185E+03  0.20628152007E+02  0.90840626745E+03  0.46999998093E+01 0.  1.
</event>
<event>
 5   0  0.3470962E-04  0.1781103E+04  0.7818609E-02  0.8716414E-01
       -1   -1    0    0    0  501  0.00000000000E+00  0.00000000000E+00  0.13785551038E+04  0.13785551038E+04  0.50400001928E-02 0. -1.
        1   -1    0    0  501    0  0.00000000000E+00  0.00000000000E+00 -0.57529918246E+03  0.57529918248E+03  0.50400001928E-02 0.  1.
    10030    2    1    2    0    0  0.00000000000E+00  0.00000000000E+00  0.80325592131E+03  0.19538542863E+04  0.17811026070E+04 0.  0.
        4    1    3    3  502    0  0.57707085615E+02 -0.69776005095E+03 -0.20209697675E+03  0.72872765649E+03  0.12699999809E+01 0.  1.
       -4    1    3    3    0  502 -0.57707085615E+02  0.69776005095E+03  0.10053528981E+04  0.12251266298E+04  0.12699999809E+01 0. -1.
</event>
<event>
 5   0  0.6774451E-04  0.1689186E+04  0.7818609E-02  0.8767556E-01
        2   -1    0    0  501    0  0.00000000000E+00  0.00000000000E+00  0.13526009242E+04  0.13526009242E+04  0.25500000920E-02 0. -1.
       -2   -1    0    0    0  501  0.00000000000E+00  0.00000000000E+00 -0.52738214501E+03  0.52738214501E+03  0.25500000920E-02 0.  1.
    10030    2    1    2    0    0  0.00000000000E+00  0.00000000000E+00  0.82521877915E+03  0.18799830692E+04  0.16891862854E+04 0.  0.
        4    1    3    3  502    0 -0.11494957092E+03 -0.73458904321E+03  0.85848727812E+03  0.11357096838E+04  0.12699999809E+01 0. -1.
       -4    1    3    3    0  502  0.11494957092E+03  0.73458904321E+03 -0.33268498977E+02  0.74427338538E+03  0.12699999809E+01 0.  1.
</event>
<event>
 5   0  0.6771967E-04  0.1809215E+04  0.7818609E-02  0.8701414E-01
        2   -1    0    0  501    0  0.00000000000E+00  0.00000000000E+00  0.86706741083E+03  0.86706741083E+03  0.25500000920E-02 0. -1.
       -2   -1    0    0    0  501  0.00000000000E+00  0.00000000000E+00 -0.94377334105E+03  0.94377334106E+03  0.25500000920E-02 0.  1.
    10030    2    1    2    0    0  0.00000000000E+00  0.00000000000E+00 -0.76705930226E+02  0.18108407519E+04  0.18092154181E+04 0.  0.
        1    1    3    3  502    0  0.73693685009E+03 -0.32453283594E+03 -0.45093393588E+03  0.92289701331E+03  0.50400001928E-02 0. -1.
       -1    1    3    3    0  502 -0.73693685009E+03  0.32453283594E+03  0.37422800566E+03  0.88794373857E+03  0.50400001928E-02 0.  1.
</event>
<event>
 5   0  0.3308275E-04  0.1950734E+04  0.7818609E-02  0.8630007E-01
       -1   -1    0    0    0  501  0.00000000000E+00  0.00000000000E+00  0.98503812680E+03  0.98503812681E+03  0.50400001928E-02 0.  1.
        1   -1    0    0  501    0  0.00000000000E+00  0.00000000000E+00 -0.96579127942E+03  0.96579127943E+03  0.50400001928E-02 0. -1.
    10030    2    1    2    0    0  0.00000000000E+00  0.00000000000E+00  0.19246847379E+02  0.19508294062E+04  0.19507344594E+04 0.  0.
        3    1    3    3  502    0  0.26478558708E+03  0.79193356809E+03  0.51370255662E+03  0.98038793867E+03  0.10100000352E+00 0.  1.
       -3    1    3    3    0  502 -0.26478558708E+03 -0.79193356809E+03 -0.49445570924E+03  0.97044146758E+03  0.10100000352E+00 0. -1.
</event>
<event>
 5   0  0.6929121E-04  0.1946854E+04  0.7818609E-02  0.8631879E-01
        2   -1    0    0  501    0  0.00000000000E+00  0.00000000000E+00  0.16231073348E+04  0.16231073348E+04  0.25500000920E-02 0. -1.
       -2   -1    0    0    0  501  0.00000000000E+00  0.00000000000E+00 -0.58379405800E+03  0.58379405801E+03  0.25500000920E-02 0.  1.
    10030    2    1    2    0    0  0.00000000000E+00  0.00000000000E+00  0.10393132768E+04  0.22069013928E+04  0.19468543012E+04 0.  0.
        3    1    3    3  502    0 -0.75736460459E+03  0.57831632247E+03  0.29433639435E+03  0.99733887739E+03  0.10100000352E+00 0.  1.
       -3    1    3    3    0  502  0.75736460459E+03 -0.57831632247E+03  0.74497688246E+03  0.12095625154E+04  0.10100000352E+00 0. -1.
</event>
<event>
 5   0  0.3470962E-04  0.1824886E+04  0.7818609E-02  0.8693176E-01
        1   -1    0    0  501    0  0.00000000000E+00  0.00000000000E+00  0.14886634253E+04  0.14886634253E+04  0.50400001928E-02 0.  1.
       -1   -1    0    0    0  501  0.00000000000E+00  0.00000000000E+00 -0.55926174205E+03  0.55926174207E+03  0.50400001928E-02 0. -1.
    10030    2    1    2    0    0  0.00000000000E+00  0.00000000000E+00  0.92940168328E+03  0.20479251674E+04  0.18248862985E+04 0.  0.
        4    1    3    3  502    0 -0.12309333258E+03 -0.52624180490E+03  0.12897189083E+04  0.13983772313E+04  0.12699999809E+01 0.  1.
       -4    1    3    3    0  502  0.12309333258E+03  0.52624180490E+03 -0.36031722501E+03  0.64954793610E+03  0.12699999809E+01 0. -1.
</event>
<event>
 5   0  0.6853162E-04  0.1838882E+04  0.7818609E-02  0.8685891E-01
       -2   -1    0    0    0  501  0.00000000000E+00  0.00000000000E+00  0.35870346700E+03  0.35870346701E+03  0.25500000920E-02 0. -1.
        2   -1    0    0  501    0  0.00000000000E+00  0.00000000000E+00 -0.23567429279E+04  0.23567429279E+04  0.25500000920E-02 0.  1.
    10030    2    1    2    0    0  0.00000000000E+00  0.00000000000E+00 -0.19980394609E+04  0.27154463949E+04  0.18388821159E+04 0.  0.
        2    1    3    3  502    0  0.26120076729E+03 -0.21817600995E+03  0.26226593784E+03  0.42966269830E+03  0.25500000920E-02 0. -1.
       -2    1    3    3    0  502 -0.26120076729E+03  0.21817600995E+03 -0.22603053987E+04  0.22857836966E+04  0.25500000920E-02 0.  1.
</event>
<event>
 5   0  0.3470962E-04  0.1775312E+04  0.7818609E-02  0.8719540E-01
        1   -1    0    0  501    0  0.00000000000E+00  0.00000000000E+00  0.12996345486E+04  0.12996345486E+04  0.50400001928E-02 0.  1.
       -1   -1    0    0    0  501  0.00000000000E+00  0.00000000000E+00 -0.60627259290E+03  0.60627259292E+03  0.50400001928E-02 0. -1.
    10030    2    1    2    0    0  0.00000000000E+00  0.00000000000E+00  0.69336195572E+03  0.19059071415E+04  0.17753115869E+04 0.  0.
        4    1    3    3  502    0  0.69573496254E+03  0.20002694769E+03  0.89815474051E+03  0.11535776821E+04  0.12699999809E+01 0. -1.
       -4    1    3    3    0  502 -0.69573496254E+03 -0.20002694769E+03 -0.20479278479E+03  0.75232945942E+03  0.12699999809E+01 0.  1.
</event>
<event>
 5   0  0.3470962E-04  0.1877821E+04  0.7818609E-02  0.8665976E-01
        1   -1    0    0  501    0  0.00000000000E+00  0.00000000000E+00  0.70881696942E+03  0.70881696944E+03  0.50400001928E-02 0.  1.
       -1   -1    0    0    0  501  0.00000000000E+00  0.00000000000E+00 -0.12436958721E+04  0.12436958721E+04  0.50400001928E-02 0. -1.
    10030    2    1    2    0    0  0.00000000000E+00  0.00000000000E+00 -0.53487890265E+03  0.19525128415E+04  0.18778207997E+04 0.  0.
        4    1    3    3  502    0 -0.43394577589E+03  0.10472923336E+03  0.59141418195E+03  0.74097874210E+03  0.12699999809E+01 0.  1.
       -4    1    3    3    0  502  0.43394577589E+03 -0.10472923336E+03 -0.11262930846E+04  0.12115340994E+04  0.12699999809E+01 0. -1.
</event>
<event>
 5   0  0.3377273E-04  0.1484822E+04  0.7818609E-02  0.8894609E-01
        1   -1    0    0  501    0  0.00000000000E+00  0.00000000000E+00  0.16357104127E+04  0.16357104127E+04  0.50400001928E-02 0.  1.
       -1   -1    0    0    0  501  0.00000000000E+00  0.00000000000E+00 -0.33696326171E+03  0.33696326174E+03  0.50400001928E-02 0. -1.
    10030    2    1    2    0    0  0.00000000000E+00  0.00000000000E+00  0.12987471510E+04  0.19726736744E+04  0.14848223004E+04 0.  0.
        2    1    3    3  502    0  0.47020237757E+03 -0.19840185330E+03 -0.66965725077E+02  0.51472126400E+03  0.25500000920E-02 0. -1.
       -2    1    3    3    0  502 -0.47020237757E+03  0.19840185330E+03  0.13657128760E+04  0.14579524104E+04  0.25500000920E-02 0.  1.
</event>
<event>
 5   0  0.6853162E-04  0.1803706E+04  0.7818609E-02  0.8704331E-01
       -2   -1    0    0    0  501  0.00000000000E+00  0.00000000000E+00  0.65390760253E+03  0.65390760254E+03  0.25500000920E-02 0. -1.
        2   -1    0    0  501    0  0.00000000000E+00  0.00000000000E+00 -0.12438124534E+04  0.12438124534E+04  0.25500000920E-02 0.  1.
    10030    2    1    2    0    0  0.00000000000E+00  0.00000000000E+00 -0.58990485089E+03  0.18977200560E+04  0.18037055407E+04 0.  0.
        2    1    3    3  502    0  0.70500092083E+03 -0.39263276252E+03  0.12871704886E+03  0.81716269081E+03  0.25500000920E-02 0. -1.
       -2    1    3    3    0  502 -0.70500092083E+03  0.39263276252E+03 -0.71862189975E+03  0.10805573651E+04  0.25500000920E-02 0.  1.
</event>
<event>
 5   0  0.6771967E-04  0.1777296E+04  0.7818609E-02  0.8718467E-01
        2   -1    0    0  501    0  0.00000000000E+00  0.00000000000E+00  0.79882994128E+03  0.79882994128E+03  0.25500000920E-02 0.  1.
       -2   -1    0    0    0  501  0.00000000000E+00  0.00000000000E+00 -0.98856480435E+03  0.98856480435E+03  0.25500000920E-02 0. -1.
    10030    2    1    2    0    0  0.00000000000E+00  0.00000000000E+00 -0.18973486307E+03  0.17873947456E+04  0.17772958838E+04 0.  0.
        1    1    3    3  502    0  0.57570878969E+03  0.11725773153E+03 -0.76536800600E+03  0.96487210072E+03  0.50400001928E-02 0. -1.
       -1    1    3    3    0  502 -0.57570878969E+03 -0.11725773153E+03  0.57563314293E+03  0.82252264491E+03  0.50400001928E-02 0.  1.
</event>
<event>
 5   0  0.2467375E-04  0.1888422E+04  0.7818609E-02  0.8660641E-01
       -4   -1    0    0    0  501  0.00000000000E+00  0.00000000000E+00  0.13230488749E+04  0.13230494844E+04  0.12699999809E+01 0.  1.
        4   -1    0    0  501    0  0.00000000000E+00  0.00000000000E+00 -0.67384710123E+03  0.67384829802E+03  0.12699999809E+01 0. -1.
    10030    2    1    2    0    0  0.00000000000E+00  0.00000000000E+00  0.64920177364E+03  0.19968977824E+04  0.18884220425E+04 0.  0.
        2    1    3    3  502    0  0.88187464381E+02  0.84634493517E+03  0.75732321145E+03  0.11391291519E+04  0.25500000920E-02 0.  1.
       -2    1    3    3    0  502 -0.88187464381E+02 -0.84634493517E+03 -0.10812143781E+03  0.85776863051E+03  0.25500000920E-02 0. -1.
</event>
<event>
 5   0  0.6771967E-04  0.1746927E+04  0.7818609E-02  0.8735043E-01
        2   -1    0    0  501    0  0.00000000000E+00  0.00000000000E+00  0.25776203007E+04  0.25776203008E+04  0.25500000920E-02 0. -1.
       -2   -1    0    0    0  501  0.00000000000E+00  0.00000000000E+00 -0.29598571462E+03  0.29598571463E+03  0.25500000920E-02 0.  1.
    10030    2    1    2    0    0  0.00000000000E+00  0.00000000000E+00  0.22816345861E+04  0.28736060154E+04  0.17469273445E+04 0.  0.
        1    1    3    3  502    0 -0.39862162027E+03  0.49983792327E+03  0.16182862291E+03  0.65948893008E+03  0.50400001928E-02 0.  1.
       -1    1    3    3    0  502  0.39862162027E+03 -0.49983792327E+03  0.21198059632E+04  0.22141170853E+04  0.50400001928E-02 0. -1.
</event>
<event>
 5   0  0.3404261E-04  0.1845355E+04  0.7818609E-02  0.8682545E-01
       -1   -1    0    0    0  501  0.00000000000E+00  0.00000000000E+00  0.96020768423E+03  0.96020768424E+03  0.50400001928E-02 0. -1.
        1   -1    0    0  501    0  0.00000000000E+00  0.00000000000E+00 -0.88661436394E+03  0.88661436396E+03  0.50400001928E-02 0.  1.
    10030    2    1    2    0    0  0.00000000000E+00  0.00000000000E+00  0.73593320284E+02  0.18468220482E+04  0.18453551693E+04 0.  0.
        1    1    3    3  502    0 -0.40202221928E+03 -0.17480645383E+03  0.84932549605E+03  0.95578918144E+03  0.50400001928E-02 0. -1.
       -1    1    3    3    0  502  0.40202221928E+03  0.17480645383E+03 -0.77573217576E+03  0.89103286675E+03  0.50400001928E-02 0.  1.
</event>
<event>
 5   0  0.6547153E-04  0.1803081E+04  0.7818609E-02  0.8704662E-01
        2   -1    0    0  501    0  0.00000000000E+00  0.00000000000E+00  0.95101439392E+03  0.95101439392E+03  0.25500000920E-02 0. -1.
       -2   -1    0    0    0  501  0.00000000000E+00  0.00000000000E+00 -0.85464080396E+03  0.85464080396E+03  0.25500000920E-02 0.  1.
    10030    2    1    2    0    0  0.00000000000E+00  0.00000000000E+00  0.96373589962E+02  0.18056551979E+04  0.18030814804E+04 0.  0.
        5    1    3    3  502    0 -0.12275377690E+02 -0.85856047693E+03  0.32330942899E+03  0.91751177339E+03  0.46999998093E+01 0. -1.
       -5    1    3    3    0  502  0.12275377690E+02  0.85856047693E+03 -0.22693583903E+03  0.88814342450E+03  0.46999998093E+01 0.  1.
</event>
<event>
 5   0  0.2467375E-04  0.1776210E+04  0.7818609E-02  0.8719054E-01
        3   -1    0    0  501    0  0.00000000000E+00  0.00000000000E+00  0.74907404108E+03  0.74907404789E+03  0.10100000352E+00 0.  1.
       -3   -1    0    0    0  501  0.00000000000E+00  0.00000000000E+00 -0.10529402553E+04  0.10529402601E+04  0.10100000352E+00 0. -1.
    10030    2    1    2    0    0  0.00000000000E+00  0.00000000000E+00 -0.30386621420E+03  0.18020143080E+04  0.17762096977E+04 0.  0.
        3    1    3    3  502    0  0.59845342471E+03  0.43065539258E+03  0.35035518627E+03  0.81630835807E+03  0.10100000352E+00 0.  1.
       -3    1    3    3    0  502 -0.59845342471E+03 -0.43065539258E+03 -0.65422140047E+03  0.98570594994E+03  0.10100000352E+00 0. -1.
</event>
<event>
 5   0  0.6774451E-04  0.1732361E+04  0.7818609E-02  0.8743120E-01
        2   -1    0    0  501    0  0.00000000000E+00  0.00000000000E+00  0.91261102320E+03  0.91261102320E+03  0.25500000920E-02 0. -1.
       -2   -1    0    0    0  501  0.00000000000E+00  0.00000000000E+00 -0.82211191951E+03  0.82211191952E+03  0.25500000920E-02 0.  1.
    10030    2    1    2    0    0  0.00000000000E+00  0.00000000000E+00  0.90499103683E+02  0.17347229427E+04  0.17323607015E+04 0.  0.
        4    1    3    3  502    0  0.76996499092E+03 -0.39584590781E+03  0.18255099909E+02  0.86595319247E+03  0.12699999809E+01 0. -1.
       -4    1    3    3    0  502 -0.76996499092E+03  0.39584590781E+03  0.72244003774E+02  0.86876975025E+03  0.12699999809E+01 0.  1.
</event>
<event>
 5   0  0.6774451E-04  0.1731725E+04  0.7818609E-02  0.8743474E-01
       -2   -1    0    0    0  501  0.00000000000E+00  0.00000000000E+00  0.11132742406E+04  0.11132742406E+04  0.25500000920E-02 0.  1.
        2   -1    0    0  501    0  0.00000000000E+00  0.00000000000E+00 -0.67343506661E+03  0.67343506661E+03  0.25500000920E-02 0. -1.
    10030    2    1    2    0    0  0.00000000000E+00  0.00000000000E+00  0.43983917401E+03  0.17867093072E+04  0.17317250502E+04 0.  0.
        4    1    3    3  502    0  0.16791244665E+03 -0.61551181335E+03 -0.38404440819E+03  0.74467516574E+03  0.12699999809E+01 0. -1.
       -4    1    3    3    0  502 -0.16791244665E+03  0.61551181335E+03  0.82388358220E+03  0.10420341415E+04  0.12699999809E+01 0.  1.
</event>
<event>
 5   0  0.3377273E-04  0.1804311E+04  0.7818609E-02  0.8704010E-01
       -1   -1    0    0    0  501  0.00000000000E+00  0.00000000000E+00  0.44841318736E+03  0.44841318739E+03  0.50400001928E-02 0.  1.
        1   -1    0    0  501    0  0.00000000000E+00  0.00000000000E+00 -0.18150322853E+04  0.18150322853E+04  0.50400001928E-02 0. -1.
    10030    2    1    2    0    0  0.00000000000E+00  0.00000000000E+00 -0.13666190979E+04  0.22634454726E+04  0.18043108515E+04 0.  0.
        2    1    3    3  502    0 -0.89833448559E+03 -0.82899679408E+02 -0.68667735665E+03  0.11337561453E+04  0.25500000920E-02 0. -1.
       -2    1    3    3    0  502  0.89833448559E+03  0.82899679408E+02 -0.67994174125E+03  0.11296893274E+04  0.25500000920E-02 0.  1.
</event>
<event>
 5   0  0.3308275E-04  0.1828676E+04  0.7818609E-02  0.8691197E-01
        1   -1    0    0  501    0  0.00000000000E+00  0.00000000000E+00  0.86427829627E+03  0.86427829629E+03  0.50400001928E-02 0. -1.
       -1   -1    0    0    0  501  0.00000000000E+00  0.00000000000E+00 -0.96729691217E+03  0.96729691218E+03  0.50400001928E-02 0.  1.
    10030    2    1    2    0    0  0.00000000000E+00  0.00000000000E+00 -0.10301861590E+03  0.18315752085E+04  0.18286757255E+04 0.  0.
        3    1    3    3  502    0 -0.91162149687E+03  0.70425886476E+02 -0.51111156784E+02  0.91576520986E+03  0.10100000352E+00 0. -1.
       -3    1    3    3    0  502  0.91162149687E+03 -0.70425886476E+02 -0.51907459113E+02  0.91580999861E+03  0.10100000352E+00 0.  1.
</event>
<event>
 5   0  0.3413839E-04  0.1803162E+04  0.7818609E-02  0.8704620E-01
        1   -1    0    0  501    0  0.00000000000E+00  0.00000000000E+00  0.12254739913E+04  0.12254739913E+04  0.50400001928E-02 0. -1.
       -1   -1    0    0    0  501  0.00000000000E+00  0.00000000000E+00 -0.66329318988E+03  0.66329318989E+03  0.50400001928E-02 0.  1.
    10030    2    1    2    0    0  0.00000000000E+00  0.00000000000E+00  0.56218080146E+03  0.18887671812E+04  0.18031622809E+04 0.  0.
        5    1    3    3  502    0  0.55740414560E+03 -0.52136189454E+03 -0.22159807973E+03  0.79476122549E+03  0.46999998093E+01 0.  1.
       -5    1    3    3    0  502 -0.55740414560E+03  0.52136189454E+03  0.78377888120E+03  0.10940059558E+04  0.46999998093E+01 0. -1.
</event>
<event>
 5   0  0.6774451E-04  0.1816642E+04  0.7818609E-02  0.8697499E-01
        2   -1    0    0  501    0  0.00000000000E+00  0.00000000000E+00  0.18003107635E+04  0.18003107635E+04  0.25500000920E-02 0.  1.
       -2   -1    0    0    0  501  0.00000000000E+00  0.00000000000E+00 -0.45828011104E+03  0.45828011105E+03  0.25500000920E-02 0. -1.
    10030    2    1    2    0    0  0.00000000000E+00  0.00000000000E+00  0.13420306525E+04  0.22585908746E+04  0.18166415349E+04 0.  0.
        4    1    3    3  502    0  0.33598075343E+03 -0.37315683229E+03 -0.27003700124E+03  0.57013216283E+03  0.12699999809E+01 0. -1.
       -4    1    3    3    0  502 -0.33598075343E+03  0.37315683229E+03  0.16120676537E+04  0.16884587117E+04  0.12699999809E+01 0.  1.
</event>
<event>
 5   0  0.6547153E-04  0.1774284E+04  0.7818609E-02  0.8720096E-01
        2   -1    0    0  501    0  0.00000000000E+00  0.00000000000E+00  0.92751030327E+03  0.92751030327E+03  0.25500000920E-02 0. -1.
       -2   -1    0    0    0  501  0.00000000000E+00  0.00000000000E+00 -0.84853073097E+03  0.84853073097E+03  0.25500000920E-02 0.  1.
    10030    2    1    2    0    0  0.00000000000E+00  0.00000000000E+00  0.78979572302E+02  0.17760410342E+04  0.17742840760E+04 0.  0.
        5    1    3    3  502    0 -0.77258625895E+02  0.47913687403E+03  0.78282722823E+03  0.92107632615E+03  0.46999998093E+01 0. -1.
       -5    1    3    3    0  502  0.77258625895E+02 -0.47913687403E+03 -0.70384765593E+03  0.85496470810E+03  0.46999998093E+01 0.  1.
</event>
<event>
 5   0  0.6771967E-04  0.1826730E+04  0.7818609E-02  0.8692212E-01
       -2   -1    0    0    0  501  0.00000000000E+00  0.00000000000E+00  0.40756548338E+03  0.40756548338E+03  0.25500000920E-02 0. -1.
        2   -1    0    0  501    0  0.00000000000E+00  0.00000000000E+00 -0.20468752492E+04  0.20468752492E+04  0.25500000920E-02 0.  1.
    10030    2    1    2    0    0  0.00000000000E+00  0.00000000000E+00 -0.16393097658E+04  0.24544407326E+04  0.18267300845E+04 0.  0.
        1    1    3    3  502    0 -0.82939409265E+03 -0.26632129488E+02 -0.30690404336E+03  0.88475642021E+03  0.50400001928E-02 0. -1.
       -1    1    3    3    0  502  0.82939409265E+03  0.26632129488E+02 -0.13324057225E+04  0.15696843124E+04  0.50400001928E-02 0.  1.
</event>
<event>
 5   0  0.6771967E-04  0.1791640E+04  0.7818609E-02  0.8710758E-01
        2   -1    0    0  501    0  0.00000000000E+00  0.00000000000E+00  0.89973705123E+03  0.89973705123E+03  0.25500000920E-02 0. -1.
       -2   -1    0    0    0  501  0.00000000000E+00  0.00000000000E+00 -0.89192032416E+03  0.89192032416E+03  0.25500000920E-02 0.  1.
    10030    2    1    2    0    0  0.00000000000E+00  0.00000000000E+00  0.78167270682E+01  0.17916573754E+04  0.17916403237E+04 0.  0.
        1    1    3    3  502    0 -0.64898875197E+03  0.10424751686E+03 -0.60473510243E+03  0.89317326936E+03  0.50400001928E-02 0.  1.
       -1    1    3    3    0  502  0.64898875197E+03 -0.10424751686E+03  0.61255182950E+03  0.89848410604E+03  0.50400001928E-02 0. -1.
</event>
<event>
 5   0  0.3413839E-04  0.1839689E+04  0.7818609E-02  0.8685474E-01
        1   -1    0    0  501    0  0.00000000000E+00  0.00000000000E+00  0.10643286717E+04  0.10643286717E+04  0.50400001928E-02 0.  1.
       -1   -1    0    0    0  501  0.00000000000E+00  0.00000000000E+00 -0.79497384436E+03  0.79497384437E+03  0.50400001928E-02 0. -1.
    10030    2    1    2    0    0  0.00000000000E+00  0.00000000000E+00  0.26935482737E+03  0.18593025161E+04  0.18396885126E+04 0.  0.
        5    1    3    3  502    0  0.83506570512E+03 -0.25840288650E+03  0.42405964065E+03  0.97157369892E+03  0.46999998093E+01 0.  1.
       -5    1    3    3    0  502 -0.83506570512E+03  0.25840288650E+03 -0.15470481328E+03  0.88772881719E+03  0.46999998093E+01 0. -1.
</event>
<event>
 5   0  0.3413839E-04  0.1783514E+04  0.7818609E-02  0.8715116E-01
       -1   -1    0    0    0  501  0.00000000000E+00  0.00000000000E+00  0.29495328281E+03  0.29495328285E+03  0.50400001928E-02 0.  1.
        1   -1    0    0  501    0  0.00000000000E+00  0.00000000000E+00 -0.26961242433E+04  0.26961242433E+04  0.50400001928E-02 0. -1.
    10030    2    1    2    0    0  0.00000000000E+00  0.00000000000E+00 -0.24011709605E+04  0.29910775262E+04  0.17835141676E+04 0.  0.
        5    1    3    3  502    0 -0.11855725475E+03 -0.48475873505E+03 -0.24399862111E+04  0.24905022895E+04  0.46999998093E+01 0. -1.
       -5    1    3    3    0  502  0.11855725475E+03  0.48475873505E+03  0.38815250577E+02  0.50057523664E+03  0.46999998093E+01 0.  1.
</event>
<event>
 5   0  0.6774451E-04  0.1791858E+04  0.7818609E-02  0.8710641E-01
       -2   -1    0    0    0  501  0.00000000000E+00  0.00000000000E+00  0.34898194560E+03  0.34898194561E+03  0.25500000920E-02 0.  1.
        2   -1    0    0  501    0  0.00000000000E+00  0.00000000000E+00 -0.23000867639E+04  0.23000867639E+04  0.25500000920E-02 0. -1.
    10030    2    1    2    0    0  0.00000000000E+00  0.00000000000E+00 -0.19511048183E+04  0.26490687095E+04  0.17918579787E+04 0.  0.
        4    1    3    3  502    0 -0.73451390536E+03 -0.50882487707E+03 -0.10722002324E+04  0.13957178741E+04  0.12699999809E+01 0.  1.
       -4    1    3    3    0  502  0.73451390536E+03  0.50882487707E+03 -0.87890458581E+03  0.12533508354E+04  0.12699999809E+01 0. -1.
</event>
<event>
 5   0  0.3470962E-04  0.1367467E+04  0.7818609E-02  0.8977710E-01
       -1   -1    0    0    0  501  0.00000000000E+00  0.00000000000E+00  0.54443216840E+03  0.54443216843E+03  0.50400001928E-02 0.  1.
        1   -1    0    0  501    0  0.00000000000E+00  0.00000000000E+00 -0.85867727271E+03  0.85867727272E+03  0.50400001928E-02 0. -1.
    10030    2    1    2    0    0  0.00000000000E+00  0.00000000000E+00 -0.31424510430E+03  0.14031094411E+04  0.13674670447E+04 0.  0.
        4    1    3    3  502    0  0.65018351581E+03  0.49522618010E+02  0.53904833271E+02  0.65429231837E+03  0.12699999809E+01 0.  1.
       -4    1    3    3    0  502 -0.65018351581E+03 -0.49522618010E+02 -0.36814993757E+03  0.74881712278E+03  0.12699999809E+01 0. -1.
</event>
<event>
 5   0  0.6774451E-04  0.1764799E+04  0.7818609E-02  0.8725246E-01
        2   -1    0    0  501    0  0.00000000000E+00  0.00000000000E+00  0.97503341667E+03  0.97503341668E+03  0.25500000920E-02 0.  1.
       -2   -1    0    0    0  501  0.00000000000E+00  0.00000000000E+00 -0.79856667031E+03  0.79856667032E+03  0.25500000920E-02 0. -1.
    10030    2    1    2    0    0  0.00000000000E+00  0.00000000000E+00  0.17646674636E+03  0.17736000870E+04  0.17647993529E+04 0.  0.
        4    1    3    3  502    0 -0.76948408472E+03  0.43077429970E+03  0.11929579390E+03  0.88989064118E+03  0.12699999809E+01 0. -1.
       -4    1    3    3    0  502  0.76948408472E+03 -0.43077429970E+03  0.57170952461E+02  0.88370944582E+03  0.12699999809E+01 0.  1.
</event>
<event>
 5   0  0.3308275E-04  0.1703979E+04  0.7818609E-02  0.8759098E-01
        1   -1    0    0  501    0  0.00000000000E+00  0.00000000000E+00  0.12591477319E+04  0.12591477319E+04  0.50400001928E-02 0.  1.
       -1   -1    0    0    0  501  0.00000000000E+00  0.00000000000E+00 -0.57649020479E+03  0.57649020481E+03  0.50400001928E-02 0. -1.
    10030    2    1    2    0    0  0.00000000000E+00  0.00000000000E+00  0.68265752707E+03  0.18356379367E+04  0.17039792649E+04 0.  0.
        3    1    3    3  502    0  0.66460852469E+03  0.34215738932E+03  0.78170526598E+03  0.10815910980E+04  0.10100000352E+00 0.  1.
       -3    1    3    3    0  502 -0.66460852469E+03 -0.34215738932E+03 -0.99047738915E+02  0.75404683870E+03  0.10100000352E+00 0. -1.
</event>
<event>
 5   0  0.3470962E-04  0.1662288E+04  0.7818609E-02  0.8783170E-01
       -1   -1    0    0    0  501  0.00000000000E+00  0.00000000000E+00  0.33134060045E+03  0.33134060048E+03  0.50400001928E-02 0. -1.
        1   -1    0    0  501    0  0.00000000000E+00  0.00000000000E+00 -0.20848637402E+04  0.20848637402E+04  0.50400001928E-02 0.  1.
    10030    2    1    2    0    0  0.00000000000E+00  0.00000000000E+00 -0.17535231398E+04  0.24162043407E+04  0.16622875847E+04 0.  0.
        4    1    3    3  502    0  0.33901281236E+03  0.43246021948E+03 -0.17831551032E+04  0.18659033371E+04  0.12699999809E+01 0.  1.
       -4    1    3    3    0  502 -0.33901281236E+03 -0.43246021948E+03  0.29631963482E+02  0.55030100357E+03  0.12699999809E+01 0. -1.
</event>
<event>
 5   0  0.3377273E-04  0.1764758E+04  0.7818609E-02  0.8725269E-01
        1   -1    0    0  501    0  0.00000000000E+00  0.00000000000E+00  0.65944039464E+03  0.65944039466E+03  0.50400001928E-02 0.  1.
       -1   -1    0    0    0  501  0.00000000000E+00  0.00000000000E+00 -0.11806867222E+04  0.11806867222E+04  0.50400001928E-02 0. -1.
    10030    2    1    2    0    0  0.00000000000E+00  0.00000000000E+00 -0.52124632759E+03  0.18401271169E+04  0.17647577942E+04 0.  0.
        2    1    3    3  502    0 -0.51343598815E+03 -0.44070134104E+03 -0.85116638678E+03  0.10873446574E+04  0.25500000920E-02 0. -1.
       -2    1    3    3    0  502  0.51343598815E+03  0.44070134104E+03  0.32992005919E+03  0.75278245953E+03  0.25500000920E-02 0.  1.
</event>
<event>
 5   0  0.6771967E-04  0.1887947E+04  0.7818609E-02  0.8660879E-01
       -2   -1    0    0    0  501  0.00000000000E+00  0.00000000000E+00  0.48079422127E+03  0.48079422128E+03  0.25500000920E-02 0. -1.
        2   -1    0    0  501    0  0.00000000000E+00  0.00000000000E+00 -0.18533616417E+04  0.18533616417E+04  0.25500000920E-02 0.  1.
    10030    2    1    2    0    0  0.00000000000E+00  0.00000000000E+00 -0.13725674204E+04  0.23341558629E+04  0.18879465747E+04 0.  0.
        1    1    3    3  502    0 -0.50232899231E+03 -0.76335407344E+03 -0.39360182843E+03  0.99497048063E+03  0.50400001928E-02 0. -1.
       -1    1    3    3    0  502  0.50232899231E+03  0.76335407344E+03 -0.97896559195E+03  0.13391853823E+04  0.50400001928E-02 0.  1.
</event>
<event>
 5   0  0.3404261E-04  0.1584377E+04  0.7818609E-02  0.8830204E-01
       -1   -1    0    0    0  501  0.00000000000E+00  0.00000000000E+00  0.27745434169E+03  0.27745434173E+03  0.50400001928E-02 0.  1.
        1   -1    0    0  501    0  0.00000000000E+00  0.00000000000E+00 -0.22618591292E+04  0.22618591292E+04  0.50400001928E-02 0. -1.
    10030    2    1    2    0    0  0.00000000000E+00  0.00000000000E+00 -0.19844047875E+04  0.25393134710E+04  0.15843770205E+04 0.  0.
        1    1    3    3  502    0 -0.53273175652E+03  0.51823845607E+03 -0.55272833598E+03  0.92621964737E+03  0.50400001928E-02 0.  1.
       -1    1    3    3    0  502  0.53273175652E+03 -0.51823845607E+03 -0.14316764516E+04  0.16130938236E+04  0.50400001928E-02 0. -1.
</event>
<event>
 5   0  0.6771967E-04  0.1625863E+04  0.7818609E-02  0.8804815E-01
       -2   -1    0    0    0  501  0.00000000000E+00  0.00000000000E+00  0.13563148912E+04  0.13563148912E+04  0.25500000920E-02 0.  1.
        2   -1    0    0  501    0  0.00000000000E+00  0.00000000000E+00 -0.48724482215E+03  0.48724482215E+03  0.25500000920E-02 0. -1.
    10030    2    1    2    0    0  0.00000000000E+00  0.00000000000E+00  0.86907006904E+03  0.18435597133E+04  0.16258627346E+04 0.  0.
        1    1    3    3  502    0 -0.65112711525E+03  0.11662532761E+02  0.98626020232E+03  0.11818678952E+04  0.50400001928E-02 0.  1.
       -1    1    3    3    0  502  0.65112711525E+03 -0.11662532761E+02 -0.11719013329E+03  0.66169181818E+03  0.50400001928E-02 0. -1.
</event>
<event>
 5   0  0.6853162E-04  0.1919568E+04  0.7818609E-02  0.8645177E-01
       -2   -1    0    0    0  501  0.00000000000E+00  0.00000000000E+00  0.12043057931E+04  0.12043057931E+04  0.25500000920E-02 0.  1.
        2   -1    0    0  501    0  0.00000000000E+00  0.00000000000E+00 -0.76490968029E+03  0.76490968029E+03  0.25500000920E-02 0. -1.
    10030    2    1    2    0    0  0.00000000000E+00  0.00000000000E+00  0.43939611282E+03  0.19692154734E+04  0.19195678255E+04 0.  0.
        2    1    3    3  502    0  0.17923883081E+03  0.54935365264E+03 -0.56645729843E+03  0.80919087062E+03  0.25500000920E-02 0. -1.
       -2    1    3    3    0  502 -0.17923883081E+03 -0.54935365264E+03  0.10058534112E+04  0.11600246028E+04  0.25500000920E-02 0.  1.
</event>
<event>
 5   0  0.6774451E-04  0.1058622E+04  0.7818609E-02  0.9246488E-01
       -2   -1    0    0    0  501  0.00000000000E+00  0.00000000000E+00  0.17378505177E+03  0.17378505179E+03  0.25500000920E-02 0. -1.
        2   -1    0    0  501    0  0.00000000000E+00  0.00000000000E+00 -0.16121643214E+04  0.16121643214E+04  0.25500000920E-02 0.  1.
    10030    2    1    2    0    0  0.00000000000E+00  0.00000000000E+00 -0.14383792696E+04  0.17859493731E+04  0.10586218590E+04 0.  0.
        4    1    3    3  502    0 -0.12335807918E+02 -0.52530067987E+03 -0.61148926958E+03  0.80623428117E+03  0.12699999809E+01 0.  1.
       -4    1    3    3    0  502  0.12335807918E+02  0.52530067987E+03 -0.82689000000E+03  0.97971509197E+03  0.12699999809E+01 0. -1.
</event>
<event>
 5   0  0.3470962E-04  0.1258408E+04  0.7818609E-02  0.9063214E-01
        1   -1    0    0  501    0  0.00000000000E+00  0.00000000000E+00  0.20304036725E+04  0.20304036725E+04  0.50400001928E-02 0. -1.
       -1   -1    0    0    0  501  0.00000000000E+00  0.00000000000E+00 -0.19498469314E+03  0.19498469321E+03  0.50400001928E-02 0.  1.
    10030    2    1    2    0    0  0.00000000000E+00  0.00000000000E+00  0.18354189793E+04  0.22253883657E+04  0.12584079420E+04 0.  0.
        4    1    3    3  502    0  0.47578109922E+02  0.57584177797E+03  0.47724050068E+03  0.74941146121E+03  0.12699999809E+01 0.  1.
       -4    1    3    3    0  502 -0.47578109922E+02 -0.57584177797E+03  0.13581784787E+04  0.14759769045E+04  0.12699999809E+01 0. -1.
</event>
<event>
 5   0  0.3404261E-04  0.1485902E+04  0.7818609E-02  0.8893883E-01
       -1   -1    0    0    0  501  0.00000000000E+00  0.00000000000E+00  0.36046951708E+03  0.36046951711E+03  0.50400001928E-02 0.  1.
        1   -1    0    0  501    0  0.00000000000E+00  0.00000000000E+00 -0.15312690808E+04  0.15312690808E+04  0.50400001928E-02 0. -1.
    10030    2    1    2    0    0  0.00000000000E+00  0.00000000000E+00 -0.11707995638E+04  0.18917385980E+04  0.14859015124E+04 0.  0.
        1    1    3    3  502    0 -0.61340108358E+03 -0.35637458747E+03 -0.30441067573E+03  0.77196476309E+03  0.50400001928E-02 0. -1.
       -1    1    3    3    0  502  0.61340108358E+03  0.35637458747E+03 -0.86638888802E+03  0.11197738349E+04  0.50400001928E-02 0.  1.
</event>
<event>
 5   0  0.6774451E-04  0.1852142E+04  0.7818609E-02  0.8679052E-01
        2   -1    0    0  501    0  0.00000000000E+00  0.00000000000E+00  0.26440893164E+04  0.26440893164E+04  0.25500000920E-02 0. -1.
       -2   -1    0    0    0  501  0.00000000000E+00  0.00000000000E+00 -0.32434882764E+03  0.32434882765E+03  0.25500000920E-02 0.  1.
    10030    2    1    2    0    0  0.00000000000E+00  0.00000000000E+00  0.23197404887E+04  0.29684381440E+04  0.18521417548E+04 0.  0.
        4    1    3    3  502    0 -0.16938670843E+03  0.85579311088E+01 -0.29924393950E+03  0.34396750341E+03  0.12699999809E+01 0.  1.
       -4    1    3    3    0  502  0.16938670843E+03 -0.85579311088E+01  0.26189844282E+04  0.26244706406E+04  0.12699999809E+01 0. -1.
</event>
<event>
 5   0  0.6547153E-04  0.1820237E+04  0.7818609E-02  0.8695611E-01
       -2   -1    0    0    0  501  0.00000000000E+00  0.00000000000E+00  0.51485139616E+03  0.51485139616E+03  0.25500000920E-02 0.  1.
        2   -1    0    0  501    0  0.00000000000E+00  0.00000000000E+00 -0.16088439632E+04  0.16088439632E+04  0.25500000920E-02 0. -1.
    10030    2    1    2    0    0  0.00000000000E+00  0.00000000000E+00 -0.10939925670E+04  0.21236953593E+04  0.18202368644E+04 0.  0.
        5    1    3    3  502    0  0.39283586301E+03  0.81634568847E+03 -0.44559837248E+03  0.10096139351E+04  0.46999998093E+01 0.  1.
       -5    1    3    3    0  502 -0.39283586301E+03 -0.81634568847E+03 -0.64839419453E+03  0.11140814242E+04  0.46999998093E+01 0. -1.
</event>
<event>
 5   0  0.3377273E-04  0.1754980E+04  0.7818609E-02  0.8730614E-01
       -1   -1    0    0    0  501  0.00000000000E+00  0.00000000000E+00  0.55872520635E+03  0.55872520637E+03  0.50400001928E-02 0.  1.
        1   -1    0    0  501    0  0.00000000000E+00  0.00000000000E+00 -0.13781166956E+04  0.13781166956E+04  0.50400001928E-02 0. -1.
    10030    2    1    2    0    0  0.00000000000E+00  0.00000000000E+00 -0.81939148928E+03  0.19368419020E+04  0.17549798120E+04 0.  0.
        2    1    3    3  502    0  0.54111009176E+03 -0.68822594832E+03 -0.47529839539E+03  0.99617450881E+03  0.25500000920E-02 0.  1.
       -2    1    3    3    0  502 -0.54111009176E+03  0.68822594832E+03 -0.34409309389E+03  0.94066739319E+03  0.25500000920E-02 0. -1.
</event>
<event>
 5   0  0.3308275E-04  0.1778246E+04  0.7818609E-02  0.8717954E-01
       -1   -1    0    0    0  501  0.00000000000E+00  0.00000000000E+00  0.10327598890E+04  0.10327598890E+04  0.50400001928E-02 0.  1.
        1   -1    0    0  501    0  0.00000000000E+00  0.00000000000E+00 -0.76546357936E+03  0.76546357938E+03  0.50400001928E-02 0. -1.
    10030    2    1    2    0    0  0.00000000000E+00  0.00000000000E+00  0.26729630966E+03  0.17982234684E+04  0.17782464186E+04 0.  0.
        3    1    3    3  502    0 -0.87369801772E+02  0.54544831704E+03 -0.57087999265E+03  0.79438738977E+03  0.10100000352E+00 0. -1.
       -3    1    3    3    0  502  0.87369801772E+02 -0.54544831704E+03  0.83817630231E+03  0.10038360786E+04  0.10100000352E+00 0.  1.
</event>
<event>
 5   0  0.6853162E-04  0.1774391E+04  0.7818609E-02  0.8720038E-01
       -2   -1    0    0    0  501  0.00000000000E+00  0.00000000000E+00  0.24540369981E+03  0.24540369983E+03  0.25500000920E-02 0.  1.
        2   -1    0    0  501    0  0.00000000000E+00  0.00000000000E+00 -0.32074317766E+04  0.32074317766E+04  0.25500000920E-02 0. -1.
    10030    2    1    2    0    0  0.00000000000E+00  0.00000000000E+00 -0.29620280768E+04  0.34528354764E+04  0.17743907404E+04 0.  0.
        2    1    3    3  502    0  0.92588217409E+02 -0.78387052505E+03 -0.69275720877E+03  0.10502086118E+04  0.25500000920E-02 0.  1.
       -2    1    3    3    0  502 -0.92588217409E+02  0.78387052505E+03 -0.22692708680E+04  0.24026268646E+04  0.25500000920E-02 0. -1.
</event>
<event>
 5   0  0.6774451E-04  0.1793649E+04  0.7818609E-02  0.8709684E-01
        2   -1    0    0  501    0  0.00000000000E+00  0.00000000000E+00  0.20006788826E+04  0.20006788826E+04  0.25500000920E-02 0. -1.
       -2   -1    0    0    0  501  0.00000000000E+00  0.00000000000E+00 -0.40201058700E+03  0.40201058700E+03  0.25500000920E-02 0.  1.
    10030    2    1    2    0    0  0.00000000000E+00  0.00000000000E+00  0.15986682956E+04  0.24026894696E+04  0.17936488976E+04 0.  0.
        4    1    3    3  502    0  0.29991227648E+01 -0.39232490125E+03 -0.28095167310E+03  0.48255909316E+03  0.12699999809E+01 0.  1.
       -4    1    3    3    0  502 -0.29991227648E+01  0.39232490125E+03  0.18796199687E+04  0.19201303764E+04  0.12699999809E+01 0. -1.
</event>
<event>
 5   0  0.3404261E-04  0.9451309E+03  0.7818609E-02  0.9370860E-01
       -1   -1    0    0    0  501  0.00000000000E+00  0.00000000000E+00  0.89556597019E+02  0.89556597161E+02  0.50400001928E-02 0.  1.
        1   -1    0    0  501    0  0.00000000000E+00  0.00000000000E+00 -0.24935975795E+04  0.24935975795E+04  0.50400001928E-02 0. -1.
    10030    2    1    2    0    0  0.00000000000E+00  0.00000000000E+00 -0.24040409825E+04  0.25831541767E+04  0.94513091950E+03 0.  0.
        1    1    3    3  502    0 -0.22162587335E+03 -0.69957849893E+02 -0.77429726948E+02  0.24496426503E+03  0.50400001928E-02 0.  1.
       -1    1    3    3    0  502  0.22162587335E+03  0.69957849893E+02 -0.23266112556E+04  0.23381899117E+04  0.50400001928E-02 0. -1.
</event>
<event>
 5   0  0.3404261E-04  0.1761676E+04  0.7818609E-02  0.8726949E-01
        1   -1    0    0  501    0  0.00000000000E+00  0.00000000000E+00  0.14914117441E+04  0.14914117441E+04  0.50400001928E-02 0. -1.
       -1   -1    0    0    0  501  0.00000000000E+00  0.00000000000E+00 -0.52022909317E+03  0.52022909319E+03  0.50400001928E-02 0.  1.
    10030    2    1    2    0    0  0.00000000000E+00  0.00000000000E+00  0.97118265093E+03  0.20116408373E+04  0.17616762236E+04 0.  0.
        1    1    3    3  502    0  0.30903635016E+03  0.29221259734E+03 -0.39520812435E+03  0.58058688354E+03  0.50400001928E-02 0.  1.
       -1    1    3    3    0  502 -0.30903635016E+03 -0.29221259734E+03  0.13663907753E+04  0.14310539538E+04  0.50400001928E-02 0. -1.
</event>
<event>
 5   0  0.6929121E-04  0.1859068E+04  0.7818609E-02  0.8675504E-01
        2   -1    0    0  501    0  0.00000000000E+00  0.00000000000E+00  0.14993603586E+04  0.14993603586E+04  0.25500000920E-02 0.  1.
       -2   -1    0    0    0  501  0.00000000000E+00  0.00000000000E+00 -0.57626774571E+03  0.57626774572E+03  0.25500000920E-02 0. -1.
    10030    2    1    2    0    0  0.00000000000E+00  0.00000000000E+00  0.92309261290E+03  0.20756281043E+04  0.18590675231E+04 0.  0.
        3    1    3    3  502    0 -0.75173168717E+03 -0.29412866533E+03  0.97612630447E+03  0.12666628493E+04  0.10100000352E+00 0.  1.
       -3    1    3    3    0  502  0.75173168717E+03  0.29412866533E+03 -0.53033691564E+02  0.80896525506E+03  0.10100000352E+00 0. -1.
</event>
<event>
 5   0  0.3470962E-04  0.1814560E+04  0.7818609E-02  0.8698595E-01
       -1   -1    0    0    0  501  0.00000000000E+00  0.00000000000E+00  0.80659058951E+03  0.80659058952E+03  0.50400001928E-02 0. -1.
        1   -1    0    0  501    0  0.00000000000E+00  0.00000000000E+00 -0.10205382954E+04  0.10205382955E+04  0.50400001928E-02 0.  1.
    10030    2    1    2    0    0  0.00000000000E+00  0.00000000000E+00 -0.21394770594E+03  0.18271288850E+04  0.18145595448E+04 0.  0.
        4    1    3    3  502    0 -0.62293297758E+03  0.24199635557E+03  0.51091120734E+03  0.84121317473E+03  0.12699999809E+01 0. -1.
       -4    1    3    3    0  502  0.62293297758E+03 -0.24199635557E+03 -0.72485891327E+03  0.98591571025E+03  0.12699999809E+01 0.  1.
</event>
<event>
 5   0  0.3404261E-04  0.1784222E+04  0.7818609E-02  0.8714735E-01
       -1   -1    0    0    0  501  0.00000000000E+00  0.00000000000E+00  0.34786572481E+03  0.34786572484E+03  0.50400001928E-02 0.  1.
        1   -1    0    0  501    0  0.00000000000E+00  0.00000000000E+00 -0.22878434423E+04  0.22878434423E+04  0.50400001928E-02 0. -1.
    10030    2    1    2    0    0  0.00000000000E+00  0.00000000000E+00 -0.19399777175E+04  0.26357091671E+04  0.17842223150E+04 0.  0.
        1    1    3    3  502    0 -0.19593670551E+03 -0.35967855976E+03 -0.21407377819E+04  0.21795683310E+04  0.50400001928E-02 0. -1.
       -1    1    3    3    0  502  0.19593670551E+03  0.35967855976E+03  0.20076006436E+03  0.45614083613E+03  0.50400001928E-02 0.  1.
</event>
<event>
 5   0  0.3404261E-04  0.1783506E+04  0.7818609E-02  0.8715120E-01
       -1   -1    0    0    0  501  0.00000000000E+00  0.00000000000E+00  0.12306885317E+04  0.12306885318E+04  0.50400001928E-02 0.  1.
        1   -1    0    0  501    0  0.00000000000E+00  0.00000000000E+00 -0.64616110360E+03  0.64616110362E+03  0.50400001928E-02 0. -1.
    10030    2    1    2    0    0  0.00000000000E+00  0.00000000000E+00  0.58452742815E+03  0.18768496354E+04  0.17835056040E+04 0.  0.
        1    1    3    3  502    0 -0.72292574126E+03 -0.51074374524E+03  0.17823063977E+03  0.90291027332E+03  0.50400001928E-02 0.  1.
       -1    1    3    3    0  502  0.72292574126E+03  0.51074374524E+03  0.40629678838E+03  0.97393936206E+03  0.50400001928E-02 0. -1.
</event>
<event>
 5   0  0.3308275E-04  0.1822022E+04  0.7818609E-02  0.8694675E-01
       -1   -1    0    0    0  501  0.00000000000E+00  0.00000000000E+00  0.81920387807E+03  0.81920387808E+03  0.50400001928E-02 0. -1.
        1   -1    0    0  501    0  0.00000000000E+00  0.00000000000E+00 -0.10131070159E+04  0.10131070159E+04  0.50400001928E-02 0.  1.
    10030    2    1    2    0    0  0.00000000000E+00  0.00000000000E+00 -0.19390313784E+03  0.18323108940E+04  0.18220221693E+04 0.  0.
        3    1    3    3  502    0 -0.25765868301E+03  0.13433482501E+03  0.77135176758E+03  0.82426779731E+03  0.10100000352E+00 0. -1.
       -3    1    3    3    0  502  0.25765868301E+03 -0.13433482501E+03 -0.96525490542E+03  0.10080430967E+04  0.10100000352E+00 0.  1.
</event>
<event>
 5   0  0.6547153E-04  0.1401943E+04  0.7818609E-02  0.8952413E-01
       -2   -1    0    0    0  501  0.00000000000E+00  0.00000000000E+00  0.25257216692E+03  0.25257216693E+03  0.25500000920E-02 0. -1.
        2   -1    0    0  501    0  0.00000000000E+00  0.00000000000E+00 -0.19454293979E+04  0.19454293979E+04  0.25500000920E-02 0.  1.
    10030    2    1    2    0    0  0.00000000000E+00  0.00000000000E+00 -0.16928572310E+04  0.21980015648E+04  0.14019433920E+04 0.  0.
        5    1    3    3  502    0  0.69759797982E+03  0.36300332385E+02 -0.93755920427E+03  0.11691877553E+04  0.46999998093E+01 0.  1.
       -5    1    3    3    0  502 -0.69759797982E+03 -0.36300332385E+02 -0.75529802671E+03  0.10288138096E+04  0.46999998093E+01 0. -1.
</event>
<event>
 5   0  0.3470962E-04  0.1816794E+04  0.7818609E-02  0.8697419E-01
        1   -1    0    0  501    0  0.00000000000E+00  0.00000000000E+00  0.65743818179E+03  0.65743818181E+03  0.50400001928E-02 0. -1.
       -1   -1    0    0    0  501  0.00000000000E+00  0.00000000000E+00 -0.12551518660E+04  0.12551518660E+04  0.50400001928E-02 0.  1.
    10030    2    1    2    0    0  0.00000000000E+00  0.00000000000E+00 -0.59771368423E+03  0.19125900478E+04  0.18167936159E+04 0.  0.
        4    1    3    3  502    0 -0.66962335669E+03  0.10148997919E+03 -0.93615971323E+03  0.11554619324E+04  0.12699999809E+01 0.  1.
       -4    1    3    3    0  502  0.66962335669E+03 -0.10148997919E+03  0.33844602900E+03  0.75712811541E+03  0.12699999809E+01 0. -1.
</event>
<event>
 5   0  0.3404261E-04  0.1777129E+04  0.7818609E-02  0.8718557E-01
        1   -1    0    0  501    0  0.00000000000E+00  0.00000000000E+00  0.10982830846E+04  0.10982830846E+04  0.50400001928E-02 0. -1.
       -1   -1    0    0    0  501  0.00000000000E+00  0.00000000000E+00 -0.71889219551E+03  0.71889219552E+03  0.50400001928E-02 0.  1.
    10030    2    1    2    0    0  0.00000000000E+00  0.00000000000E+00  0.37939088906E+03  0.18171752801E+04  0.17771293008E+04 0.  0.
        1    1    3    3  502    0 -0.67672383902E+02 -0.21811418382E+03 -0.68837130261E+03  0.72526436491E+03  0.50400001928E-02 0.  1.
       -1    1    3    3    0  502  0.67672383902E+02  0.21811418382E+03  0.10677621917E+04  0.10919109152E+04  0.50400001928E-02 0. -1.
</event>
<event>
 5   0  0.3404261E-04  0.1812835E+04  0.7818609E-02  0.8699504E-01
       -1   -1    0    0    0  501  0.00000000000E+00  0.00000000000E+00  0.64033747084E+03  0.64033747086E+03  0.50400001928E-02 0. -1.
        1   -1    0    0  501    0  0.00000000000E+00  0.00000000000E+00 -0.12830622676E+04  0.12830622677E+04  0.50400001928E-02 0.  1.
    10030    2    1    2    0    0  0.00000000000E+00  0.00000000000E+00 -0.64272479681E+03  0.19233997385E+04  0.18128351800E+04 0.  0.
        1    1    3    3  502    0  0.33572137897E+03 -0.26955067661E+03 -0.11676482638E+04  0.12444954317E+04  0.50400001928E-02 0.  1.
       -1    1    3    3    0  502 -0.33572137897E+03  0.26955067661E+03  0.52492346700E+03  0.67890430680E+03  0.50400001928E-02 0. -1.
</event>
<event>
 5   0  0.6547153E-04  0.1733525E+04  0.7818609E-02  0.8742472E-01
        2   -1    0    0  501    0  0.00000000000E+00  0.00000000000E+00  0.93683368039E+03  0.93683368039E+03  0.25500000920E-02 0. -1.
       -2   -1    0    0    0  501  0.00000000000E+00  0.00000000000E+00 -0.80193207656E+03  0.80193207656E+03  0.25500000920E-02 0.  1.
    10030    2    1    2    0    0  0.00000000000E+00  0.00000000000E+00  0.13490160383E+03  0.17387657570E+04  0.17335247085E+04 0.  0.
        5    1    3    3  502    0 -0.19813264790E+03 -0.36389323870E+03  0.83105403365E+03  0.92862679920E+03  0.46999998093E+01 0. -1.
       -5    1    3    3    0  502  0.19813264790E+03  0.36389323870E+03 -0.69615242982E+03  0.81013895776E+03  0.46999998093E+01 0.  1.
</event>
<event>
 5   0  0.6774451E-04  0.1773791E+04  0.7818609E-02  0.8720363E-01
       -2   -1    0    0    0  501  0.00000000000E+00  0.00000000000E+00  0.68823004003E+03  0.68823004003E+03  0.25500000920E-02 0. -1.
        2   -1    0    0  501    0  0.00000000000E+00  0.00000000000E+00 -0.11429075073E+04  0.11429075074E+04  0.25500000920E-02 0.  1.
    10030    2    1    2    0    0  0.00000000000E+00  0.00000000000E+00 -0.45467746732E+03  0.18311375474E+04  0.17737906072E+04 0.  0.
        4    1    3    3  502    0  0.53486402123E+02 -0.41911438972E+03  0.57765641490E+03  0.71568583433E+03  0.12699999809E+01 0. -1.
       -4    1    3    3    0  502 -0.53486402123E+02  0.41911438972E+03 -0.10323338822E+04  0.11154517131E+04  0.12699999809E+01 0.  1.
</event>
<event>
 5   0  0.3413839E-04  0.1828770E+04  0.7818609E-02  0.8691148E-01
       -1   -1    0    0    0  501  0.00000000000E+00  0.00000000000E+00  0.14526268013E+04  0.14526268013E+04  0.50400001928E-02 0.  1.
        1   -1    0    0  501    0  0.00000000000E+00  0.00000000000E+00 -0.57557800491E+03  0.57557800493E+03  0.50400001928E-02 0. -1.
    10030    2    1    2    0    0  0.00000000000E+00  0.00000000000E+00  0.87704879636E+03  0.20282048062E+04  0.18287701181E+04 0.  0.
        5    1    3    3  502    0 -0.33415219185E+03 -0.74401381821E+03 -0.19910415310E+02  0.81586320155E+03  0.46999998093E+01 0.  1.
       -5    1    3    3    0  502  0.33415219185E+03  0.74401381821E+03  0.89695921167E+03  0.12123416047E+04  0.46999998093E+01 0. -1.
</event>
<event>
 5   0  0.6774451E-04  0.1762086E+04  0.7818609E-02  0.8726726E-01
       -2   -1    0    0    0  501  0.00000000000E+00  0.00000000000E+00  0.54246642895E+03  0.54246642896E+03  0.25500000920E-02 0.  1.
        2   -1    0    0  501    0  0.00000000000E+00  0.00000000000E+00 -0.14309392411E+04  0.14309392411E+04  0.25500000920E-02 0. -1.
    10030    2    1    2    0    0  0.00000000000E+00  0.00000000000E+00 -0.88847281210E+03  0.19734056700E+04  0.17620856962E+04 0.  0.
        4    1    3    3  502    0  0.24717052108E+03  0.11441183659E+03  0.49413301730E+03  0.56422724724E+03  0.12699999809E+01 0.  1.
       -4    1    3    3    0  502 -0.24717052108E+03 -0.11441183659E+03 -0.13826058294E+04  0.14091784228E+04  0.12699999809E+01 0. -1.
</event>
<event>
 5   0  0.3308275E-04  0.1793564E+04  0.7818609E-02  0.8709729E-01
       -1   -1    0    0    0  501  0.00000000000E+00  0.00000000000E+00  0.51613154220E+03  0.51613154222E+03  0.50400001928E-02 0. -1.
        1   -1    0    0  501    0  0.00000000000E+00  0.00000000000E+00 -0.15581650691E+04  0.15581650691E+04  0.50400001928E-02 0.  1.
    10030    2    1    2    0    0  0.00000000000E+00  0.00000000000E+00 -0.10420335269E+04  0.20742966113E+04  0.17935642058E+04 0.  0.
        3    1    3    3  502    0  0.49698881518E+03 -0.35268329250E+02  0.34133033286E+03  0.60394382503E+03  0.10100000352E+00 0. -1.
       -3    1    3    3    0  502 -0.49698881518E+03  0.35268329250E+02 -0.13833638597E+04  0.14703527863E+04  0.10100000352E+00 0.  1.
</event>
<event>
 5   0  0.6853162E-04  0.1792436E+04  0.7818609E-02  0.8710332E-01
        2   -1    0    0  501    0  0.00000000000E+00  0.00000000000E+00  0.12908234307E+04  0.12908234307E+04  0.25500000920E-02 0.  1.
       -2   -1    0    0    0  501  0.00000000000E+00  0.00000000000E+00 -0.62224365473E+03  0.62224365473E+03  0.25500000920E-02 0. -1.
    10030    2    1    2    0    0  0.00000000000E+00  0.00000000000E+00  0.66857977593E+03  0.19130670854E+04  0.17924359839E+04 0.  0.
        2    1    3    3  502    0  0.70644877735E+03  0.50057867671E+03  0.58129043799E+03  0.10428554358E+04  0.25500000920E-02 0.  1.
       -2    1    3    3    0  502 -0.70644877735E+03 -0.50057867671E+03  0.87289337937E+02  0.87021164962E+03  0.25500000920E-02 0. -1.
</event>
<event>
 5   0  0.6771967E-04  0.1799613E+04  0.7818609E-02  0.8706505E-01
        2   -1    0    0  501    0  0.00000000000E+00  0.00000000000E+00  0.12710727047E+04  0.12710727047E+04  0.25500000920E-02 0. -1.
       -2   -1    0    0    0  501  0.00000000000E+00  0.00000000000E+00 -0.63698293225E+03  0.63698293225E+03  0.25500000920E-02 0.  1.
    10030    2    1    2    0    0  0.00000000000E+00  0.00000000000E+00  0.63408977249E+03  0.19080556370E+04  0.17996128679E+04 0.  0.
        1    1    3    3  502    0 -0.66756930739E+03 -0.57924014114E+03  0.13810377711E+03  0.89456166616E+03  0.50400001928E-02 0.  1.
       -1    1    3    3    0  502  0.66756930739E+03  0.57924014114E+03  0.49598599538E+03  0.10134939708E+04  0.50400001928E-02 0. -1.
</event>
<event>
 5   0  0.3470962E-04  0.9298613E+03  0.7818609E-02  0.9389004E-01
        1   -1    0    0  501    0  0.00000000000E+00  0.00000000000E+00  0.50582662151E+03  0.50582662154E+03  0.50400001928E-02 0.  1.
       -1   -1    0    0    0  501  0.00000000000E+00  0.00000000000E+00 -0.42734112429E+03  0.42734112432E+03  0.50400001928E-02 0. -1.
    10030    2    1    2    0    0  0.00000000000E+00  0.00000000000E+00  0.78485497225E+02  0.93316774586E+03  0.92986131688E+03 0.  0.
        4    1    3    3  502    0  0.10446902483E+03 -0.40975916040E+03  0.23317211031E+03  0.48289459782E+03  0.12699999809E+01 0.  1.
       -4    1    3    3    0  502 -0.10446902483E+03  0.40975916040E+03 -0.15468661308E+03  0.45027314804E+03  0.12699999809E+01 0. -1.
</event>
<event>
 5   0  0.6771967E-04  0.1216785E+04  0.7818609E-02  0.9098290E-01
        2   -1    0    0  501    0  0.00000000000E+00  0.00000000000E+00  0.96681996737E+03  0.96681996737E+03  0.25500000920E-02 0. -1.
       -2   -1    0    0    0  501  0.00000000000E+00  0.00000000000E+00 -0.38284417160E+03  0.38284417161E+03  0.25500000920E-02 0.  1.
    10030    2    1    2    0    0  0.00000000000E+00  0.00000000000E+00  0.58397579576E+03  0.13496641390E+04  0.12167849268E+04 0.  0.
        1    1    3    3  502    0  0.27420104984E+03  0.22839368793E+03  0.83853629384E+03  0.91131389133E+03  0.50400001928E-02 0. -1.
       -1    1    3    3    0  502 -0.27420104984E+03 -0.22839368793E+03 -0.25456049807E+03  0.43835024766E+03  0.50400001928E-02 0.  1.
</event>
<event>
 5   0  0.3377273E-04  0.2065364E+04  0.7818609E-02  0.8576656E-01
        1   -1    0    0  501    0  0.00000000000E+00  0.00000000000E+00  0.15225173097E+04  0.15225173097E+04  0.50400001928E-02 0.  1.
       -1   -1    0    0    0  501  0.00000000000E+00  0.00000000000E+00 -0.70043993493E+03  0.70043993495E+03  0.50400001928E-02 0. -1.
    10030    2    1    2    0    0  0.00000000000E+00  0.00000000000E+00  0.82207737481E+03  0.22229572447E+04  0.20653638182E+04 0.  0.
        2    1    3    3  502    0 -0.31840438550E+03 -0.36424627228E+03  0.13929994127E+04  0.14746199725E+04  0.25500000920E-02 0.  1.
       -2    1    3    3    0  502  0.31840438550E+03  0.36424627228E+03 -0.57092203789E+03  0.74833727218E+03  0.25500000920E-02 0. -1.
</event>
<event>
 5   0  0.6774451E-04  0.1148560E+04  0.7818609E-02  0.9159113E-01
       -2   -1    0    0    0  501  0.00000000000E+00  0.00000000000E+00  0.36919496012E+03  0.36919496013E+03  0.25500000920E-02 0. -1.
        2   -1    0    0  501    0  0.00000000000E+00  0.00000000000E+00 -0.89328891240E+03  0.89328891240E+03  0.25500000920E-02 0.  1.
    10030    2    1    2    0    0  0.00000000000E+00  0.00000000000E+00 -0.52409395228E+03  0.12624838725E+04  0.11485604284E+04 0.  0.
        4    1    3    3  502    0  0.52935150752E+02  0.55670522980E+03 -0.11842171460E+03  0.57161889267E+03  0.12699999809E+01 0. -1.
       -4    1    3    3    0  502 -0.52935150752E+02 -0.55670522980E+03 -0.40567223768E+03  0.69086497986E+03  0.12699999809E+01 0.  1.
</event>
<event>
 5   0  0.6929121E-04  0.1766314E+04  0.7818609E-02  0.8724421E-01
        2   -1    0    0  501    0  0.00000000000E+00  0.00000000000E+00  0.20950934828E+04  0.20950934828E+04  0.25500000920E-02 0. -1.
       -2   -1    0    0    0  501  0.00000000000E+00  0.00000000000E+00 -0.37228216930E+03  0.37228216931E+03  0.25500000920E-02 0.  1.
    10030    2    1    2    0    0  0.00000000000E+00  0.00000000000E+00  0.17228113135E+04  0.24673756521E+04  0.17663136150E+04 0.  0.
        3    1    3    3  502    0  0.66769984679E+03 -0.45941869707E+03  0.37133752804E+03  0.89150445571E+03  0.10100000352E+00 0.  1.
       -3    1    3    3    0  502 -0.66769984679E+03  0.45941869707E+03  0.13514737855E+04  0.15758711964E+04  0.10100000352E+00 0. -1.
</event>
<event>
 5   0  0.3377273E-04  0.1756852E+04  0.7818609E-02  0.8729588E-01
       -1   -1    0    0    0  501  0.00000000000E+00  0.00000000000E+00  0.54477598409E+03  0.54477598412E+03  0.50400001928E-02 0.  1.
        1   -1    0    0  501    0  0.00000000000E+00  0.00000000000E+00 -0.14164205348E+04  0.14164205348E+04  0.50400001928E-02 0. -1.
    10030    2    1    2    0    0  0.00000000000E+00  0.00000000000E+00 -0.87164455070E+03  0.19611965189E+04  0.17568516053E+04 0.  0.
        2    1    3    3  502    0 -0.68855378145E+02  0.46387717149E+03  0.39334277571E+03  0.61207975995E+03  0.25500000920E-02 0.  1.
       -2    1    3    3    0  502  0.68855378145E+02 -0.46387717149E+03 -0.12649873264E+04  0.13491167590E+04  0.25500000920E-02 0. -1.
</event>
<event>
 5   0  0.3470962E-04  0.1805481E+04  0.7818609E-02  0.8703390E-01
        1   -1    0    0  501    0  0.00000000000E+00  0.00000000000E+00  0.10842607711E+04  0.10842607711E+04  0.50400001928E-02 0. -1.
       -1   -1    0    0    0  501  0.00000000000E+00  0.00000000000E+00 -0.75160936622E+03  0.75160936624E+03  0.50400001928E-02 0.  1.
    10030    2    1    2    0    0  0.00000000000E+00  0.00000000000E+00  0.33265140485E+03  0.18358701373E+04  0.18054811558E+04 0.  0.
        4    1    3    3  502    0  0.30801265818E+03 -0.10740631190E+03  0.10222363585E+04  0.10730222267E+04  0.12699999809E+01 0. -1.
       -4    1    3    3    0  502 -0.30801265818E+03  0.10740631190E+03 -0.68958495369E+03  0.76284791059E+03  0.12699999809E+01 0.  1.
</event>
<event>
 5   0  0.3308275E-04  0.1773628E+04  0.7818609E-02  0.8720451E-01
       -1   -1    0    0    0  501  0.00000000000E+00  0.00000000000E+00  0.80135937205E+03  0.80135937206E+03  0.50400001928E-02 0.  1.
        1   -1    0    0  501    0  0.00000000000E+00  0.00000000000E+00 -0.98138079221E+03  0.98138079223E+03  0.50400001928E-02 0. -1.
    10030    2    1    2    0    0  0.00000000000E+00  0.00000000000E+00 -0.18002142017E+03  0.17827401643E+04  0.17736275769E+04 0.  0.
        3    1    3    3  502    0 -0.73330972012E+02 -0.65799053718E+03 -0.68305029484E+03  0.95125532532E+03  0.10100000352E+00 0. -1.
       -3    1    3    3    0  502  0.73330972012E+02  0.65799053718E+03  0.50302887467E+03  0.83148483897E+03  0.10100000352E+00 0.  1.
</event>
<event>
 5   0  0.3308275E-04  0.1671066E+04  0.7818609E-02  0.8778041E-01
       -1   -1    0    0    0  501  0.00000000000E+00  0.00000000000E+00  0.14458724258E+04  0.14458724258E+04  0.50400001928E-02 0.  1.
        1   -1    0    0  501    0  0.00000000000E+00  0.00000000000E+00 -0.48283336718E+03  0.48283336720E+03  0.50400001928E-02 0. -1.
    10030    2    1    2    0    0  0.00000000000E+00  0.00000000000E+00  0.96303905866E+03  0.19287057930E+04  0.16710660692E+04 0.  0.
        3    1    3    3  502    0  0.84483701707E+02 -0.68291671216E+03 -0.65471066859E+02  0.69123020941E+03  0.10100000352E+00 0. -1.
       -3    1    3    3    0  502 -0.84483701707E+02  0.68291671216E+03  0.10285101255E+04  0.12374755836E+04  0.10100000352E+00 0.  1.
</event>
<event>
 5   0  0.6771967E-04  0.1790692E+04  0.7818609E-02  0.8711265E-01
       -2   -1    0    0    0  501  0.00000000000E+00  0.00000000000E+00  0.74532755610E+03  0.74532755611E+03  0.25500000920E-02 0.  1.
        2   -1    0    0  501    0  0.00000000000E+00  0.00000000000E+00 -0.10755602721E+04  0.10755602721E+04  0.25500000920E-02 0. -1.
    10030    2    1    2    0    0  0.00000000000E+00  0.00000000000E+00 -0.33023271598E+03  0.18208878282E+04  0.17906922785E+04 0.  0.
        1    1    3    3  502    0 -0.19109719290E+03 -0.83508417831E+03  0.99582515849E+02  0.86243863521E+03  0.50400001928E-02 0.  1.
       -1    1    3    3    0  502  0.19109719290E+03  0.83508417831E+03 -0.42981523183E+03  0.95844919299E+03  0.50400001928E-02 0. -1.
</event>
<event>
 5   0  0.6547153E-04  0.1802135E+04  0.7818609E-02  0.8705165E-01
        2   -1    0    0  501    0  0.00000000000E+00  0.00000000000E+00  0.13731989557E+04  0.13731989557E+04  0.25500000920E-02 0.  1.
       -2   -1    0    0    0  501  0.00000000000E+00  0.00000000000E+00 -0.59126386294E+03  0.59126386295E+03  0.25500000920E-02 0. -1.
    10030    2    1    2    0    0  0.00000000000E+00  0.00000000000E+00  0.78193509273E+03  0.19644628186E+04  0.18021353103E+04 0.  0.
        5    1    3    3  502    0 -0.85174581337E+03  0.25409883414E+03  0.55215010981E+03  0.10463885425E+04  0.46999998093E+01 0. -1.
       -5    1    3    3    0  502  0.85174581337E+03 -0.25409883414E+03  0.22978498292E+03  0.91807427612E+03  0.46999998093E+01 0.  1.
</event>
<event>
 5   0  0.6853162E-04  0.1804232E+04  0.7818609E-02  0.8704052E-01
        2   -1    0    0  501    0  0.00000000000E+00  0.00000000000E+00  0.20312839019E+04  0.20312839019E+04  0.25500000920E-02 0. -1.
       -2   -1    0    0    0  501  0.00000000000E+00  0.00000000000E+00 -0.40063971404E+03  0.40063971405E+03  0.25500000920E-02 0.  1.
    10030    2    1    2    0    0  0.00000000000E+00  0.00000000000E+00  0.16306441879E+04  0.24319236160E+04  0.18042316942E+04 0.  0.
        2    1    3    3  502    0 -0.47023935668E+02  0.66298937047E+02  0.20263380560E+04  0.20279676321E+04  0.25500000920E-02 0. -1.
       -2    1    3    3    0  502  0.47023935668E+02 -0.66298937047E+02 -0.39569386816E+03  0.40395598385E+03  0.25500000920E-02 0.  1.
</event>
<event>
 5   0  0.3404261E-04  0.1591468E+04  0.7818609E-02  0.8825807E-01
        1   -1    0    0  501    0  0.00000000000E+00  0.00000000000E+00  0.11351984120E+04  0.11351984120E+04  0.50400001928E-02 0. -1.
       -1   -1    0    0    0  501  0.00000000000E+00  0.00000000000E+00 -0.55778138195E+03  0.55778138197E+03  0.50400001928E-02 0.  1.
    10030    2    1    2    0    0  0.00000000000E+00  0.00000000000E+00  0.57741703008E+03  0.16929797940E+04  0.15914679250E+04 0.  0.
        1    1    3    3  502    0  0.42338829593E+03 -0.14279385982E+03 -0.41173138471E+03  0.60759399990E+03  0.50400001928E-02 0.  1.
       -1    1    3    3    0  502 -0.42338829593E+03  0.14279385982E+03  0.98914841479E+03  0.10853857941E+04  0.50400001928E-02 0. -1.
</event>
<event>
 5   0  0.6853162E-04  0.1771110E+04  0.7818609E-02  0.8721816E-01
       -2   -1    0    0    0  501  0.00000000000E+00  0.00000000000E+00  0.71129378607E+03  0.71129378607E+03  0.25500000920E-02 0. -1.
        2   -1    0    0  501    0  0.00000000000E+00  0.00000000000E+00 -0.11025084707E+04  0.11025084707E+04  0.25500000920E-02 0.  1.
    10030    2    1    2    0    0  0.00000000000E+00  0.00000000000E+00 -0.39121468466E+03  0.18138022568E+04  0.17711097361E+04 0.  0.
        2    1    3    3  502    0 -0.16472818970E+03 -0.23572371395E+03  0.66214177457E+03  0.72189526626E+03  0.25500000920E-02 0. -1.
       -2    1    3    3    0  502  0.16472818970E+03  0.23572371395E+03 -0.10533564592E+04  0.10919069906E+04  0.25500000920E-02 0.  1.
</event>
<event>
 5   0  0.3404261E-04  0.1819847E+04  0.7818609E-02  0.8695816E-01
        1   -1    0    0  501    0  0.00000000000E+00  0.00000000000E+00  0.11820480063E+04  0.11820480063E+04  0.50400001928E-02 0. -1.
       -1   -1    0    0    0  501  0.00000000000E+00  0.00000000000E+00 -0.70044587966E+03  0.70044587968E+03  0.50400001928E-02 0.  1.
    10030    2    1    2    0    0  0.00000000000E+00  0.00000000000E+00  0.48160212662E+03  0.18824938860E+04  0.18198468678E+04 0.  0.
        1    1    3    3  502    0  0.67396933435E+03 -0.46025116650E+03  0.65701369188E+03  0.10477274413E+04  0.50400001928E-02 0. -1.
       -1    1    3    3    0  502 -0.67396933435E+03  0.46025116650E+03 -0.17541156526E+03  0.83476644467E+03  0.50400001928E-02 0.  1.
</event>
<event>
 5   0  0.3413839E-04  0.1800667E+04  0.7818609E-02  0.8705945E-01
        1   -1    0    0  501    0  0.00000000000E+00  0.00000000000E+00  0.10576851574E+04  0.10576851574E+04  0.50400001928E-02 0.  1.
       -1   -1    0    0    0  501  0.00000000000E+00  0.00000000000E+00 -0.76639143199E+03  0.76639143200E+03  0.50400001928E-02 0. -1.
    10030    2    1    2    0    0  0.00000000000E+00  0.00000000000E+00  0.29129372545E+03  0.18240765895E+04  0.18006674789E+04 0.  0.
        5    1    3    3  502    0  0.29688444207E+03 -0.17591876895E+03  0.98801669329E+03  0.10465595355E+04  0.46999998093E+01 0.  1.
       -5    1    3    3    0  502 -0.29688444207E+03  0.17591876895E+03 -0.69672296784E+03  0.77751705391E+03  0.46999998093E+01 0. -1.
</event>
<event>
 5   0  0.6774451E-04  0.1700823E+04  0.7818609E-02  0.8760895E-01
       -2   -1    0    0    0  501  0.00000000000E+00  0.00000000000E+00  0.56792878556E+03  0.56792878557E+03  0.25500000920E-02 0.  1.
        2   -1    0    0  501    0  0.00000000000E+00  0.00000000000E+00 -0.12733988448E+04  0.12733988448E+04  0.25500000920E-02 0. -1.
    10030    2    1    2    0    0  0.00000000000E+00  0.00000000000E+00 -0.70547005922E+03  0.18413276304E+04  0.17008231648E+04 0.  0.
        4    1    3    3  502    0 -0.10830430186E+03  0.58533337404E+03  0.30476946283E+03  0.66875333191E+03  0.12699999809E+01 0.  1.
       -4    1    3    3    0  502  0.10830430186E+03 -0.58533337404E+03 -0.10102395221E+04  0.11725742984E+04  0.12699999809E+01 0. -1.
</event>
<event>
 5   0  0.3308275E-04  0.1782279E+04  0.7818609E-02  0.8715781E-01
       -1   -1    0    0    0  501  0.00000000000E+00  0.00000000000E+00  0.60898800573E+03  0.60898800575E+03  0.50400001928E-02 0. -1.
        1   -1    0    0  501    0  0.00000000000E+00  0.00000000000E+00 -0.13040147163E+04  0.13040147164E+04  0.50400001928E-02 0.  1.
    10030    2    1    2    0    0  0.00000000000E+00  0.00000000000E+00 -0.69502671061E+03  0.19130027221E+04  0.17822786781E+04 0.  0.
        3    1    3    3  502    0 -0.49547249683E+03 -0.17960887456E+03  0.42378678122E+03  0.67627478814E+03  0.10100000352E+00 0. -1.
       -3    1    3    3    0  502  0.49547249683E+03  0.17960887456E+03 -0.11188134918E+04  0.12367279340E+04  0.10100000352E+00 0.  1.
</event>
<event>
 5   0  0.2467375E-04  0.1760650E+04  0.7818609E-02  0.8727510E-01
        3   -1    0    0  501    0  0.00000000000E+00  0.00000000000E+00  0.14306954175E+04  0.14306954211E+04  0.10100000352E+00 0.  1.
       -3   -1    0    0    0  501  0.00000000000E+00  0.00000000000E+00 -0.54167494637E+03  0.54167495578E+03  0.10100000352E+00 0. -1.
    10030    2    1    2    0    0  0.00000000000E+00  0.00000000000E+00  0.88902047115E+03  0.19723703769E+04  0.17606497396E+04 0.  0.
        4    1    3    3  502    0  0.63818629948E+03  0.16918319232E+03 -0.20780473072E+03  0.69216264304E+03  0.12699999809E+01 0. -1.
       -4    1    3    3    0  502 -0.63818629948E+03 -0.16918319232E+03  0.10968252019E+04  0.12802077338E+04  0.12699999809E+01 0.  1.
</event>
<event>
 5   0  0.3404261E-04  0.1505888E+04  0.7818609E-02  0.8880547E-01
        1   -1    0    0  501    0  0.00000000000E+00  0.00000000000E+00  0.12410151184E+04  0.12410151184E+04  0.50400001928E-02 0. -1.
       -1   -1    0    0    0  501  0.00000000000E+00  0.00000000000E+00 -0.45682326313E+03  0.45682326316E+03  0.50400001928E-02 0.  1.
    10030    2    1    2    0    0  0.00000000000E+00  0.00000000000E+00  0.78419185528E+03  0.16978383816E+04  0.15058878790E+04 0.  0.
        1    1    3    3  502    0 -0.60386995604E+03 -0.11100689421E+03 -0.99281831017E+02  0.62196329181E+03  0.50400001928E-02 0.  1.
       -1    1    3    3    0  502  0.60386995604E+03  0.11100689421E+03  0.88347368630E+03  0.10758750898E+04  0.50400001928E-02 0. -1.
</event>
<event>
 5   0  0.3377273E-04  0.1758519E+04  0.7818609E-02  0.8728675E-01
        1   -1    0    0  501    0  0.00000000000E+00  0.00000000000E+00  0.30870428689E+04  0.30870428689E+04  0.50400001928E-02 0. -1.
       -1   -1    0    0    0  501  0.00000000000E+00  0.00000000000E+00 -0.25043306840E+03  0.25043306845E+03  0.50400001928E-02 0.  1.
    10030    2    1    2    0    0  0.00000000000E+00  0.00000000000E+00  0.28366098005E+04  0.33374759374E+04  0.17585193977E+04 0.  0.
        2    1    3    3  502    0  0.12281602431E+03  0.33408950994E+03 -0.10757726135E+03  0.37185002844E+03  0.25500000920E-02 0.  1.
       -2    1    3    3    0  502 -0.12281602431E+03 -0.33408950994E+03  0.29441870618E+04  0.29656259089E+04  0.25500000920E-02 0. -1.
</event>
<event>
 5   0  0.3470962E-04  0.2006614E+04  0.7818609E-02  0.8603535E-01
        1   -1    0    0  501    0  0.00000000000E+00  0.00000000000E+00  0.24344145027E+04  0.24344145027E+04  0.50400001928E-02 0. -1.
       -1   -1    0    0    0  501  0.00000000000E+00  0.00000000000E+00 -0.41349774726E+03  0.41349774729E+03  0.50400001928E-02 0.  1.
    10030    2    1    2    0    0  0.00000000000E+00  0.00000000000E+00  0.20209167555E+04  0.28479122500E+04  0.20066139767E+04 0.  0.
        4    1    3    3  502    0  0.17450714771E+03  0.77078578823E+03  0.18877186381E+04  0.20464717798E+04  0.12699999809E+01 0. -1.
       -4    1    3    3    0  502 -0.17450714771E+03 -0.77078578823E+03  0.13319811736E+03  0.80144047022E+03  0.12699999809E+01 0.  1.
</event>
<event>
 5   0  0.3413839E-04  0.1805879E+04  0.7818609E-02  0.8703179E-01
       -1   -1    0    0    0  501  0.00000000000E+00  0.00000000000E+00  0.80047344118E+03  0.80047344120E+03  0.50400001928E-02 0.  1.
        1   -1    0    0  501    0  0.00000000000E+00  0.00000000000E+00 -0.10185219314E+04  0.10185219314E+04  0.50400001928E-02 0. -1.
    10030    2    1    2    0    0  0.00000000000E+00  0.00000000000E+00 -0.21804849018E+03  0.18189953726E+04  0.18058790163E+04 0.  0.
        5    1    3    3  502    0 -0.63072268638E+03 -0.64457813615E+03 -0.64140700990E+02  0.90411735977E+03  0.46999998093E+01 0. -1.
       -5    1    3    3    0  502  0.63072268638E+03  0.64457813615E+03 -0.15390778919E+03  0.91487801279E+03  0.46999998093E+01 0.  1.
</event>
<event>
 5   0  0.6771967E-04  0.1810548E+04  0.7818609E-02  0.8700710E-01
       -2   -1    0    0    0  501  0.00000000000E+00  0.00000000000E+00  0.40194925433E+03  0.40194925434E+03  0.25500000920E-02 0. -1.
        2   -1    0    0  501    0  0.00000000000E+00  0.00000000000E+00 -0.20388676079E+04  0.20388676079E+04  0.25500000920E-02 0.  1.
    10030    2    1    2    0    0  0.00000000000E+00  0.00000000000E+00 -0.16369183536E+04  0.24408168623E+04  0.18105483310E+04 0.  0.
        1    1    3    3  502    0 -0.67612503616E+03 -0.10341621982E+03 -0.16179246871E+04  0.17565649069E+04  0.50400001928E-02 0.  1.
       -1    1    3    3    0  502  0.67612503616E+03  0.10341621982E+03 -0.18993666519E+02  0.68425195537E+03  0.50400001928E-02 0. -1.
</event>
<event>
 5   0  0.3377273E-04  0.1846143E+04  0.7818609E-02  0.8682139E-01
        1   -1    0    0  501    0  0.00000000000E+00  0.00000000000E+00  0.20260612223E+04  0.20260612223E+04  0.50400001928E-02 0.  1.
       -1   -1    0    0    0  501  0.00000000000E+00  0.00000000000E+00 -0.42055065299E+03  0.42055065302E+03  0.50400001928E-02 0. -1.
    10030    2    1    2    0    0  0.00000000000E+00  0.00000000000E+00  0.16055105694E+04  0.24466118754E+04  0.18461434073E+04 0.  0.
        2    1    3    3  502    0 -0.62577094315E+03 -0.57820791152E+02  0.16987778820E+04  0.18112920277E+04  0.25500000920E-02 0.  1.
       -2    1    3    3    0  502  0.62577094315E+03  0.57820791152E+02 -0.93267312690E+02  0.63531984764E+03  0.25500000920E-02 0. -1.
</event>
<event>
 5   0  0.6929121E-04  0.1790479E+04  0.7818609E-02  0.8711379E-01
        2   -1    0    0  501    0  0.00000000000E+00  0.00000000000E+00  0.22789888362E+04  0.22789888362E+04  0.25500000920E-02 0.  1.
       -2   -1    0    0    0  501  0.00000000000E+00  0.00000000000E+00 -0.35167094547E+03  0.35167094548E+03  0.25500000920E-02 0. -1.
    10030    2    1    2    0    0  0.00000000000E+00  0.00000000000E+00  0.19273178907E+04  0.26306597816E+04  0.17904794428E+04 0.  0.
        3    1    3    3  502    0  0.21172187204E+03  0.42395858678E+03  0.20795987410E+04  0.21329083357E+04  0.10100000352E+00 0.  1.
       -3    1    3    3    0  502 -0.21172187204E+03 -0.42395858678E+03 -0.15228085034E+03  0.49775144599E+03  0.10100000352E+00 0. -1.
</event>
<event>
 5   0  0.3470962E-04  0.1232082E+04  0.7818609E-02  0.9085229E-01
        1   -1    0    0  501    0  0.00000000000E+00  0.00000000000E+00  0.16179895541E+04  0.16179895541E+04  0.50400001928E-02 0. -1.
       -1   -1    0    0    0  501  0.00000000000E+00  0.00000000000E+00 -0.23455451151E+03  0.23455451157E+03  0.50400001928E-02 0.  1.
    10030    2    1    2    0    0  0.00000000000E+00  0.00000000000E+00  0.13834350426E+04  0.18525440656E+04  0.12320823829E+04 0.  0.
        4    1    3    3  502    0 -0.41532300835E+03 -0.32882796377E+03  0.21890165224E+03  0.57318459267E+03  0.12699999809E+01 0.  1.
       -4    1    3    3    0  502  0.41532300835E+03  0.32882796377E+03  0.11645333903E+04  0.12793594730E+04  0.12699999809E+01 0. -1.
</event>
<event>
 5   0  0.6771967E-04  0.1789813E+04  0.7818609E-02  0.8711735E-01
        2   -1    0    0  501    0  0.00000000000E+00  0.00000000000E+00  0.87520520986E+03  0.87520520986E+03  0.25500000920E-02 0.  1.
       -2   -1    0    0    0  501  0.00000000000E+00  0.00000000000E+00 -0.91505152282E+03  0.91505152283E+03  0.25500000920E-02 0. -1.
    10030    2    1    2    0    0  0.00000000000E+00  0.00000000000E+00 -0.39846312967E+02  0.17902567327E+04  0.17898132417E+04 0.  0.
        1    1    3    3  502    0 -0.53890834028E+03  0.45110793796E+03  0.53423333550E+03  0.88279432921E+03  0.50400001928E-02 0.  1.
       -1    1    3    3    0  502  0.53890834028E+03 -0.45110793796E+03 -0.57407964847E+03  0.90746240347E+03  0.50400001928E-02 0. -1.
</event>
<event>
 5   0  0.3308275E-04  0.1789789E+04  0.7818609E-02  0.8711748E-01
        1   -1    0    0  501    0  0.00000000000E+00  0.00000000000E+00  0.19644040011E+04  0.19644040011E+04  0.50400001928E-02 0.  1.
       -1   -1    0    0    0  501  0.00000000000E+00  0.00000000000E+00 -0.40767384251E+03  0.40767384254E+03  0.50400001928E-02 0. -1.
    10030    2    1    2    0    0  0.00000000000E+00  0.00000000000E+00  0.15567301586E+04  0.23720778436E+04  0.17897889567E+04 0.  0.
        3    1    3    3  502    0  0.56799193986E+03  0.22879708484E+03 -0.86537618605E+02  0.61842681007E+03  0.10100000352E+00 0. -1.
       -3    1    3    3    0  502 -0.56799193986E+03 -0.22879708484E+03  0.16432677772E+04  0.17536510336E+04  0.10100000352E+00 0.  1.
</event>
<event>
 5   0  0.6774451E-04  0.1868057E+04  0.7818609E-02  0.8670922E-01
       -2   -1    0    0    0  501  0.00000000000E+00  0.00000000000E+00  0.48520265852E+03  0.48520265852E+03  0.25500000920E-02 0.  1.
        2   -1    0    0  501    0  0.00000000000E+00  0.00000000000E+00 -0.17980305847E+04  0.17980305847E+04  0.25500000920E-02 0. -1.
    10030    2    1    2    0    0  0.00000000000E+00  0.00000000000E+00 -0.13128279262E+04  0.22832332432E+04  0.18680569796E+04 0.  0.
        4    1    3    3  502    0  0.57798027287E+03  0.40440813576E+03 -0.14046872200E+04  0.15718635230E+04  0.12699999809E+01 0. -1.
       -4    1    3    3    0  502 -0.57798027287E+03 -0.40440813576E+03  0.91859293789E+02  0.71136972022E+03  0.12699999809E+01 0.  1.
</event>
<event>
 5   0  0.2467375E-04  0.1748507E+04  0.7818609E-02  0.8734173E-01
       -3   -1    0    0    0  501  0.00000000000E+00  0.00000000000E+00  0.11965369111E+04  0.11965369154E+04  0.10100000352E+00 0. -1.
        3   -1    0    0  501    0  0.00000000000E+00  0.00000000000E+00 -0.63877613912E+03  0.63877614710E+03  0.10100000352E+00 0.  1.
    10030    2    1    2    0    0  0.00000000000E+00  0.00000000000E+00  0.55776077201E+03  0.18353130625E+04  0.17485070656E+04 0.  0.
        5    1    3    3  502    0 -0.32178170259E+03  0.23782782389E+03  0.10947675671E+04  0.11656087054E+04  0.46999998093E+01 0. -1.
       -5    1    3    3    0  502  0.32178170259E+03 -0.23782782389E+03 -0.53700679514E+03  0.66970435713E+03  0.46999998093E+01 0.  1.
</event>
<event>
 5   0  0.6774451E-04  0.1808362E+04  0.7818609E-02  0.8701865E-01
        2   -1    0    0  501    0  0.00000000000E+00  0.00000000000E+00  0.12121253387E+04  0.12121253387E+04  0.25500000920E-02 0. -1.
       -2   -1    0    0    0  501  0.00000000000E+00  0.00000000000E+00 -0.67447125256E+03  0.67447125256E+03  0.25500000920E-02 0.  1.
    10030    2    1    2    0    0  0.00000000000E+00  0.00000000000E+00  0.53765408613E+03  0.18865965912E+04  0.18083624586E+04 0.  0.
        4    1    3    3  502    0  0.61278057355E+03  0.31556004471E+03 -0.34169446440E+03  0.76930806121E+03  0.12699999809E+01 0.  1.
       -4    1    3    3    0  502 -0.61278057355E+03 -0.31556004471E+03  0.87934855053E+03  0.11172885300E+04  0.12699999809E+01 0. -1.
</event>
<event>
 5   0  0.6547153E-04  0.1805061E+04  0.7818609E-02  0.8703613E-01
       -2   -1    0    0    0  501  0.00000000000E+00  0.00000000000E+00  0.40806400970E+03  0.40806400971E+03  0.25500000920E-02 0. -1.
        2   -1    0    0  501    0  0.00000000000E+00  0.00000000000E+00 -0.19961595312E+04  0.19961595312E+04  0.25500000920E-02 0.  1.
    10030    2    1    2    0    0  0.00000000000E+00  0.00000000000E+00 -0.15880955215E+04  0.24042235409E+04  0.18050605112E+04 0.  0.
        5    1    3    3  502    0  0.19400289872E+03  0.72455650197E+03 -0.12552839492E+03  0.76052529030E+03  0.46999998093E+01 0. -1.
       -5    1    3    3    0  502 -0.19400289872E+03 -0.72455650197E+03 -0.14625671265E+04  0.16436982506E+04  0.46999998093E+01 0.  1.
</event>
<event>
 5   0  0.6853162E-04  0.1812237E+04  0.7818609E-02  0.8699819E-01
        2   -1    0    0  501    0  0.00000000000E+00  0.00000000000E+00  0.21200347657E+04  0.21200347657E+04  0.25500000920E-02 0. -1.
       -2   -1    0    0    0  501  0.00000000000E+00  0.00000000000E+00 -0.38728189452E+03  0.38728189453E+03  0.25500000920E-02 0.  1.
    10030    2    1    2    0    0  0.00000000000E+00  0.00000000000E+00  0.17327528712E+04  0.25073166603E+04  0.18122373802E+04 0.  0.
        2    1    3    3  502    0  0.40313876099E+03  0.39621224372E+03 -0.11345083259E+03  0.57652067969E+03  0.25500000920E-02 0.  1.
       -2    1    3    3    0  502 -0.40313876099E+03 -0.39621224372E+03  0.18462037038E+04  0.19307959806E+04  0.25500000920E-02 0. -1.
</event>
<event>
 5   0  0.6929121E-04  0.1790193E+04  0.7818609E-02  0.8711532E-01
       -2   -1    0    0    0  501  0.00000000000E+00  0.00000000000E+00  0.54514027195E+03  0.54514027195E+03  0.25500000920E-02 0.  1.
        2   -1    0    0  501    0  0.00000000000E+00  0.00000000000E+00 -0.14697091173E+04  0.14697091173E+04  0.25500000920E-02 0. -1.
    10030    2    1    2    0    0  0.00000000000E+00  0.00000000000E+00 -0.92456884537E+03  0.20148493893E+04  0.17901928700E+04 0.  0.
        3    1    3    3  502    0 -0.61015238342E+03 -0.65119737768E+03 -0.38387332563E+03  0.97144361443E+03  0.10100000352E+00 0.  1.
       -3    1    3    3    0  502  0.61015238342E+03  0.65119737768E+03 -0.54069551974E+03  0.10434057748E+04  0.10100000352E+00 0. -1.
</event>
<event>
 5   0  0.6929121E-04  0.1383302E+04  0.7818609E-02  0.8965995E-01
        2   -1    0    0  501    0  0.00000000000E+00  0.00000000000E+00  0.76436478370E+03  0.76436478371E+03  0.25500000920E-02 0. -1.
       -2   -1    0    0    0  501  0.00000000000E+00  0.00000000000E+00 -0.62585432753E+03  0.62585432753E+03  0.25500000920E-02 0.  1.
    10030    2    1    2    0    0  0.00000000000E+00  0.00000000000E+00  0.13851045618E+03  0.13902191112E+04  0.13833018582E+04 0.  0.
        3    1    3    3  502    0 -0.51709987211E+03 -0.37515317599E+03 -0.19711506791E+03  0.66857052238E+03  0.10100000352E+00 0.  1.
       -3    1    3    3    0  502  0.51709987211E+03  0.37515317599E+03  0.33562552408E+03  0.72164858887E+03  0.10100000352E+00 0. -1.
</event>
<event>
 5   0  0.6853162E-04  0.1868470E+04  0.7818609E-02  0.8670712E-01
       -2   -1    0    0    0  501  0.00000000000E+00  0.00000000000E+00  0.36830007891E+03  0.36830007892E+03  0.25500000920E-02 0.  1.
        2   -1    0    0  501    0  0.00000000000E+00  0.00000000000E+00 -0.23697939509E+04  0.23697939509E+04  0.25500000920E-02 0. -1.
    10030    2    1    2    0    0  0.00000000000E+00  0.00000000000E+00 -0.20014938720E+04  0.27380940298E+04  0.18684702825E+04 0.  0.
        2    1    3    3  502    0  0.27901072333E+03 -0.49994243076E+03  0.81092373556E+02  0.57824336647E+03  0.25500000920E-02 0.  1.
       -2    1    3    3    0  502 -0.27901072333E+03  0.49994243076E+03 -0.20825862456E+04  0.21598506634E+04  0.25500000920E-02 0. -1.
</event>
<event>
 5   0  0.2467375E-04  0.1810708E+04  0.7818609E-02  0.8700626E-01
       -3   -1    0    0    0  501  0.00000000000E+00  0.00000000000E+00  0.54774718048E+03  0.54774718979E+03  0.10100000352E+00 0.  1.
        3   -1    0    0  501    0  0.00000000000E+00  0.00000000000E+00 -0.14964305163E+04  0.14964305197E+04  0.10100000352E+00 0. -1.
    10030    2    1    2    0    0  0.00000000000E+00  0.00000000000E+00 -0.94868333584E+03  0.20441777095E+04  0.18107077170E+04 0.  0.
        1    1    3    3  502    0  0.40893548013E+03  0.27089117633E+03 -0.13334151948E+04  0.14207766672E+04  0.50400001928E-02 0. -1.
       -1    1    3    3    0  502 -0.40893548013E+03 -0.27089117633E+03  0.38473185892E+03  0.62340104236E+03  0.50400001928E-02 0.  1.
</event>
<event>
 5   0  0.2467375E-04  0.1799064E+04  0.7818609E-02  0.8706797E-01
        4   -1    0    0  501    0  0.00000000000E+00  0.00000000000E+00  0.77075148151E+03  0.77075252782E+03  0.12699999809E+01 0. -1.
       -4   -1    0    0    0  501  0.00000000000E+00  0.00000000000E+00 -0.10498277027E+04  0.10498284709E+04  0.12699999809E+01 0.  1.
    10030    2    1    2    0    0  0.00000000000E+00  0.00000000000E+00 -0.27907622118E+03  0.18205809987E+04  0.17990640999E+04 0.  0.
        2    1    3    3  502    0  0.67631126806E+03 -0.53994348541E+03 -0.38787486003E+03  0.94835795235E+03  0.25500000920E-02 0.  1.
       -2    1    3    3    0  502 -0.67631126806E+03  0.53994348541E+03  0.10879863884E+03  0.87222304634E+03  0.25500000920E-02 0. -1.
</event>
<event>
 5   0  0.6929121E-04  0.9830499E+03  0.7818609E-02  0.9327333E-01
        2   -1    0    0  501    0  0.00000000000E+00  0.00000000000E+00  0.65503044938E+03  0.65503044938E+03  0.25500000920E-02 0. -1.
       -2   -1    0    0    0  501  0.00000000000E+00  0.00000000000E+00 -0.36883289072E+03  0.36883289073E+03  0.25500000920E-02 0.  1.
    10030    2    1    2    0    0  0.00000000000E+00  0.00000000000E+00  0.28619755866E+03  0.10238633401E+04  0.98304989529E+03 0.  0.
        3    1    3    3  502    0 -0.25220879106E+03 -0.26763052742E+03  0.48276975212E+03  0.60687891482E+03  0.10100000352E+00 0. -1.
       -3    1    3    3    0  502  0.25220879106E+03  0.26763052742E+03 -0.19657219346E+03  0.41698442529E+03  0.10100000352E+00 0.  1.
</event>
<event>
 5   0  0.3470962E-04  0.1822585E+04  0.7818609E-02  0.8694380E-01
        1   -1    0    0  501    0  0.00000000000E+00  0.00000000000E+00  0.68876878461E+03  0.68876878463E+03  0.50400001928E-02 0.  1.
       -1   -1    0    0    0  501  0.00000000000E+00  0.00000000000E+00 -0.12057078139E+04  0.12057078139E+04  0.50400001928E-02 0. -1.
    10030    2    1    2    0    0  0.00000000000E+00  0.00000000000E+00 -0.51693902930E+03  0.18944765986E+04  0.18225848739E+04 0.  0.
        4    1    3    3  502    0 -0.11628513500E+03  0.87985308293E+03 -0.47348294384E+03  0.10059082419E+04  0.12699999809E+01 0. -1.
       -4    1    3    3    0  502  0.11628513500E+03 -0.87985308293E+03 -0.43456085468E+02  0.88856835664E+03  0.12699999809E+01 0.  1.
</event>
<event>
 5   0  0.6771967E-04  0.1686399E+04  0.7818609E-02  0.8769160E-01
       -2   -1    0    0    0  501  0.00000000000E+00  0.00000000000E+00  0.43703370333E+03  0.43703370333E+03  0.25500000920E-02 0.  1.
        2   -1    0    0  501    0  0.00000000000E+00  0.00000000000E+00 -0.16268432440E+04  0.16268432440E+04  0.25500000920E-02 0. -1.
    10030    2    1    2    0    0  0.00000000000E+00  0.00000000000E+00 -0.11898095407E+04  0.20638769473E+04  0.16863989180E+04 0.  0.
        1    1    3    3  502    0 -0.76191380807E+03  0.32140507731E+03 -0.39317039087E+03  0.91564012086E+03  0.50400001928E-02 0.  1.
       -1    1    3    3    0  502  0.76191380807E+03 -0.32140507731E+03 -0.79663914981E+03  0.11482368265E+04  0.50400001928E-02 0. -1.
</event>
<event>
 5   0  0.6853162E-04  0.1819100E+04  0.7818609E-02  0.8696208E-01
        2   -1    0    0  501    0  0.00000000000E+00  0.00000000000E+00  0.17981310794E+04  0.17981310794E+04  0.25500000920E-02 0.  1.
       -2   -1    0    0    0  501  0.00000000000E+00  0.00000000000E+00 -0.46007856075E+03  0.46007856075E+03  0.25500000920E-02 0. -1.
    10030    2    1    2    0    0  0.00000000000E+00  0.00000000000E+00  0.13380525187E+04  0.22582096402E+04  0.18191003920E+04 0.  0.
        2    1    3    3  502    0  0.30993513082E+03 -0.69257766787E+03  0.46401178570E+02  0.76018200500E+03  0.25500000920E-02 0.  1.
       -2    1    3    3    0  502 -0.30993513082E+03  0.69257766787E+03  0.12916513401E+04  0.14980276352E+04  0.25500000920E-02 0. -1.
</event>
<event>
 5   0  0.3377273E-04  0.1897077E+04  0.7818609E-02  0.8656313E-01
       -1   -1    0    0    0  501  0.00000000000E+00  0.00000000000E+00  0.71872014940E+03  0.71872014942E+03  0.50400001928E-02 0. -1.
        1   -1    0    0  501    0  0.00000000000E+00  0.00000000000E+00 -0.12518440052E+04  0.12518440052E+04  0.50400001928E-02 0.  1.
    10030    2    1    2    0    0  0.00000000000E+00  0.00000000000E+00 -0.53312385578E+03  0.19705641546E+04  0.18970772366E+04 0.  0.
        2    1    3    3  502    0  0.17813831096E+03  0.93165044385E+03 -0.26195116579E+03  0.98403466434E+03  0.25500000920E-02 0.  1.
       -2    1    3    3    0  502 -0.17813831096E+03 -0.93165044385E+03 -0.27117268999E+03  0.98652949026E+03  0.25500000920E-02 0. -1.
</event>
<event>
 5   0  0.6547153E-04  0.1801436E+04  0.7818609E-02  0.8705536E-01
        2   -1    0    0  501    0  0.00000000000E+00  0.00000000000E+00  0.70955043954E+03  0.70955043954E+03  0.25500000920E-02 0. -1.
       -2   -1    0    0    0  501  0.00000000000E+00  0.00000000000E+00 -0.11433903922E+04  0.11433903922E+04  0.25500000920E-02 0.  1.
    10030    2    1    2    0    0  0.00000000000E+00  0.00000000000E+00 -0.43383995262E+03  0.18529408317E+04  0.18014362662E+04 0.  0.
        5    1    3    3  502    0 -0.17535324814E+03  0.68508791270E+03 -0.79070114922E+03  0.10608131820E+04  0.46999998093E+01 0.  1.
       -5    1    3    3    0  502  0.17535324814E+03 -0.68508791270E+03  0.35686119660E+03  0.79212764969E+03  0.46999998093E+01 0. -1.
</event>
<event>
 5   0  0.3308275E-04  0.1751081E+04  0.7818609E-02  0.8732755E-01
        1   -1    0    0  501    0  0.00000000000E+00  0.00000000000E+00  0.14218211669E+04  0.14218211669E+04  0.50400001928E-02 0.  1.
       -1   -1    0    0    0  501  0.00000000000E+00  0.00000000000E+00 -0.53914738511E+03  0.53914738514E+03  0.50400001928E-02 0. -1.
    10030    2    1    2    0    0  0.00000000000E+00  0.00000000000E+00  0.88267378178E+03  0.19609685520E+04  0.17510809967E+04 0.  0.
        3    1    3    3  502    0 -0.16969910610E+03  0.16545736875E+03  0.13852130631E+04  0.14053430784E+04  0.10100000352E+00 0.  1.
       -3    1    3    3    0  502  0.16969910610E+03 -0.16545736875E+03 -0.50253928135E+03  0.55562547366E+03  0.10100000352E+00 0. -1.
</event>
<event>
 5   0  0.3308275E-04  0.1825545E+04  0.7818609E-02  0.8692832E-01
        1   -1    0    0  501    0  0.00000000000E+00  0.00000000000E+00  0.10057389759E+04  0.10057389760E+04  0.50400001928E-02 0.  1.
       -1   -1    0    0    0  501  0.00000000000E+00  0.00000000000E+00 -0.82839936627E+03  0.82839936628E+03  0.50400001928E-02 0. -1.
    10030    2    1    2    0    0  0.00000000000E+00  0.00000000000E+00  0.17733960968E+03  0.18341383422E+04  0.18255448834E+04 0.  0.
        3    1    3    3  502    0  0.31397644013E+03  0.84336230846E+03  0.24207230329E+03  0.93190138883E+03  0.10100000352E+00 0. -1.
       -3    1    3    3    0  502 -0.31397644013E+03 -0.84336230846E+03 -0.64732693604E+02  0.90223695341E+03  0.10100000352E+00 0.  1.
</event>
<event>
 5   0  0.3470962E-04  0.1831866E+04  0.7818609E-02  0.8689535E-01
       -1   -1    0    0    0  501  0.00000000000E+00  0.00000000000E+00  0.13342889638E+04  0.13342889639E+04  0.50400001928E-02 0.  1.
        1   -1    0    0  501    0  0.00000000000E+00  0.00000000000E+00 -0.62874944408E+03  0.62874944410E+03  0.50400001928E-02 0. -1.
    10030    2    1    2    0    0  0.00000000000E+00  0.00000000000E+00  0.70553951976E+03  0.19630384080E+04  0.18318662007E+04 0.  0.
        4    1    3    3  502    0  0.44536795750E+03 -0.79756707439E+03  0.42438298356E+03  0.10072578544E+04  0.12699999809E+01 0.  1.
       -4    1    3    3    0  502 -0.44536795750E+03  0.79756707439E+03  0.28115653620E+03  0.95578055351E+03  0.12699999809E+01 0. -1.
</event>
<event>
 5   0  0.6774451E-04  0.1864746E+04  0.7818609E-02  0.8672606E-01
        2   -1    0    0  501    0  0.00000000000E+00  0.00000000000E+00  0.12229272069E+04  0.12229272069E+04  0.25500000920E-02 0. -1.
       -2   -1    0    0    0  501  0.00000000000E+00  0.00000000000E+00 -0.71085143472E+03  0.71085143473E+03  0.25500000920E-02 0.  1.
    10030    2    1    2    0    0  0.00000000000E+00  0.00000000000E+00  0.51207577218E+03  0.19337786416E+04  0.18647461592E+04 0.  0.
        4    1    3    3  502    0 -0.26746124674E+03  0.43766374470E+03 -0.55139564281E+03  0.75307625095E+03  0.12699999809E+01 0.  1.
       -4    1    3    3    0  502  0.26746124674E+03 -0.43766374470E+03  0.10634714150E+04  0.11807023907E+04  0.12699999809E+01 0. -1.
</event>
<event>
 5   0  0.6853162E-04  0.1861676E+04  0.7818609E-02  0.8674172E-01
        2   -1    0    0  501    0  0.00000000000E+00  0.00000000000E+00  0.21634472379E+04  0.21634472379E+04  0.25500000920E-02 0. -1.
       -2   -1    0    0    0  501  0.00000000000E+00  0.00000000000E+00 -0.40049924290E+03  0.40049924291E+03  0.25500000920E-02 0.  1.
    10030    2    1    2    0    0  0.00000000000E+00  0.00000000000E+00  0.17629479950E+04  0.25639464808E+04  0.18616755688E+04 0.  0.
        2    1    3    3  502    0  0.28442954891E+03  0.84201465025E+02 -0.33366398709E+03  0.44645460161E+03  0.25500000920E-02 0.  1.
       -2    1    3    3    0  502 -0.28442954891E+03 -0.84201465025E+02  0.20966119821E+04  0.21174918792E+04  0.25500000920E-02 0. -1.
</event>
<event>
 5   0  0.6774451E-04  0.1778585E+04  0.7818609E-02  0.8717771E-01
        2   -1    0    0  501    0  0.00000000000E+00  0.00000000000E+00  0.59234471572E+03  0.59234471572E+03  0.25500000920E-02 0.  1.
       -2   -1    0    0    0  501  0.00000000000E+00  0.00000000000E+00 -0.13351024878E+04  0.13351024878E+04  0.25500000920E-02 0. -1.
    10030    2    1    2    0    0  0.00000000000E+00  0.00000000000E+00 -0.74275777207E+03  0.19274472035E+04  0.17785847223E+04 0.  0.
        4    1    3    3  502    0  0.17969424998E+03  0.76942966171E+03  0.70853562162E+02  0.79330565860E+03  0.12699999809E+01 0. -1.
       -4    1    3    3    0  502 -0.17969424998E+03 -0.76942966171E+03 -0.81361133423E+03  0.11341415449E+04  0.12699999809E+01 0.  1.
</event>
<event>
 5   0  0.6771967E-04  0.1683926E+04  0.7818609E-02  0.8770585E-01
        2   -1    0    0  501    0  0.00000000000E+00  0.00000000000E+00  0.21800217597E+04  0.21800217597E+04  0.25500000920E-02 0. -1.
       -2   -1    0    0    0  501  0.00000000000E+00  0.00000000000E+00 -0.32518102199E+03  0.32518102200E+03  0.25500000920E-02 0.  1.
    10030    2    1    2    0    0  0.00000000000E+00  0.00000000000E+00  0.18548407377E+04  0.25052027817E+04  0.16839260124E+04 0.  0.
        1    1    3    3  502    0  0.38397130041E+03 -0.50722131888E+03  0.10688860138E+03  0.64508340468E+03  0.50400001928E-02 0.  1.
       -1    1    3    3    0  502 -0.38397130041E+03  0.50722131888E+03  0.17479521363E+04  0.18601193770E+04  0.50400001928E-02 0. -1.
</event>
<event>
 5   0  0.6929121E-04  0.1801943E+04  0.7818609E-02  0.8705267E-01
        2   -1    0    0  501    0  0.00000000000E+00  0.00000000000E+00  0.52623444023E+03  0.52623444024E+03  0.25500000920E-02 0. -1.
       -2   -1    0    0    0  501  0.00000000000E+00  0.00000000000E+00 -0.15425629304E+04  0.15425629304E+04  0.25500000920E-02 0.  1.
    10030    2    1    2    0    0  0.00000000000E+00  0.00000000000E+00 -0.10163284901E+04  0.20687973706E+04  0.18019431070E+04 0.  0.
        3    1    3    3  502    0  0.34466133866E+03 -0.24379296647E+03 -0.14219790089E+04  0.14833242265E+04  0.10100000352E+00 0.  1.
       -3    1    3    3    0  502 -0.34466133866E+03  0.24379296647E+03  0.40565051880E+03  0.58547314411E+03  0.10100000352E+00 0. -1.
</event>
<event>
 5   0  0.3404261E-04  0.1749951E+04  0.7818609E-02  0.8733377E-01
       -1   -1    0    0    0  501  0.00000000000E+00  0.00000000000E+00  0.41872180998E+03  0.41872181001E+03  0.50400001928E-02 0.  1.
        1   -1    0    0  501    0  0.00000000000E+00  0.00000000000E+00 -0.18283791985E+04  0.18283791985E+04  0.50400001928E-02 0. -1.
    10030    2    1    2    0    0  0.00000000000E+00  0.00000000000E+00 -0.14096573885E+04  0.22471010085E+04  0.17499511392E+04 0.  0.
        1    1    3    3  502    0  0.87370678421E+03 -0.38033334664E+02 -0.74051097250E+03  0.11459348061E+04  0.50400001928E-02 0. -1.
       -1    1    3    3    0  502 -0.87370678421E+03  0.38033334664E+02 -0.66914641603E+03  0.11011662025E+04  0.50400001928E-02 0.  1.
</event>
<event>
 5   0  0.6853162E-04  0.1808427E+04  0.7818609E-02  0.8701831E-01
        2   -1    0    0  501    0  0.00000000000E+00  0.00000000000E+00  0.13488496708E+04  0.13488496708E+04  0.25500000920E-02 0. -1.
       -2   -1    0    0    0  501  0.00000000000E+00  0.00000000000E+00 -0.60614771354E+03  0.60614771355E+03  0.25500000920E-02 0.  1.
    10030    2    1    2    0    0  0.00000000000E+00  0.00000000000E+00  0.74270195722E+03  0.19549973843E+04  0.18084270998E+04 0.  0.
        2    1    3    3  502    0 -0.86627929915E+02  0.76840618333E+03 -0.13530184187E+03  0.78502168711E+03  0.25500000920E-02 0.  1.
       -2    1    3    3    0  502  0.86627929915E+02 -0.76840618333E+03  0.87800379909E+03  0.11699756972E+04  0.25500000920E-02 0. -1.
</event>
<event>
 5   0  0.3377273E-04  0.1817861E+04  0.7818609E-02  0.8696859E-01
        1   -1    0    0  501    0  0.00000000000E+00  0.00000000000E+00  0.72324602867E+03  0.72324602869E+03  0.50400001928E-02 0. -1.
       -1   -1    0    0    0  501  0.00000000000E+00  0.00000000000E+00 -0.11422868661E+04  0.11422868661E+04  0.50400001928E-02 0.  1.
    10030    2    1    2    0    0  0.00000000000E+00  0.00000000000E+00 -0.41904083746E+03  0.18655328948E+04  0.18178607643E+04 0.  0.
        2    1    3    3  502    0  0.21641608961E+03 -0.69298743812E+03  0.35170975210E+03  0.80670147079E+03  0.25500000920E-02 0. -1.
       -2    1    3    3    0  502 -0.21641608961E+03  0.69298743812E+03 -0.77075058956E+03  0.10588314240E+04  0.25500000920E-02 0.  1.
</event>
<event>
 5   0  0.6774451E-04  0.1841775E+04  0.7818609E-02  0.8684394E-01
        2   -1    0    0  501    0  0.00000000000E+00  0.00000000000E+00  0.17491018490E+04  0.17491018490E+04  0.25500000920E-02 0.  1.
       -2   -1    0    0    0  501  0.00000000000E+00  0.00000000000E+00 -0.48483982900E+03  0.48483982900E+03  0.25500000920E-02 0. -1.
    10030    2    1    2    0    0  0.00000000000E+00  0.00000000000E+00  0.12642620200E+04  0.22339416780E+04  0.18417754927E+04 0.  0.
        4    1    3    3  502    0  0.52417398869E+03  0.29986163519E+03 -0.21114406313E+03  0.63973338116E+03  0.12699999809E+01 0. -1.
       -4    1    3    3    0  502 -0.52417398869E+03 -0.29986163519E+03  0.14754060831E+04  0.15942082968E+04  0.12699999809E+01 0.  1.
</event>
<event>
 5   0  0.6774451E-04  0.1807826E+04  0.7818609E-02  0.8702149E-01
        2   -1    0    0  501    0  0.00000000000E+00  0.00000000000E+00  0.52795449248E+03  0.52795449248E+03  0.25500000920E-02 0. -1.
       -2   -1    0    0    0  501  0.00000000000E+00  0.00000000000E+00 -0.15475924056E+04  0.15475924056E+04  0.25500000920E-02 0.  1.
    10030    2    1    2    0    0  0.00000000000E+00  0.00000000000E+00 -0.10196379131E+04  0.20755468981E+04  0.18078256145E+04 0.  0.
        4    1    3    3  502    0  0.75114096986E+03  0.27711047533E+02 -0.10862426762E+04  0.13209486831E+04  0.12699999809E+01 0.  1.
       -4    1    3    3    0  502 -0.75114096986E+03 -0.27711047533E+02  0.66604763085E+02  0.75459821503E+03  0.12699999809E+01 0. -1.
</event>
<event>
 5   0  0.3404261E-04  0.1820276E+04  0.7818609E-02  0.8695591E-01
       -1   -1    0    0    0  501  0.00000000000E+00  0.00000000000E+00  0.10411415939E+04  0.10411415939E+04  0.50400001928E-02 0. -1.
        1   -1    0    0  501    0  0.00000000000E+00  0.00000000000E+00 -0.79561810619E+03  0.79561810621E+03  0.50400001928E-02 0.  1.
    10030    2    1    2    0    0  0.00000000000E+00  0.00000000000E+00  0.24552348767E+03  0.18367597001E+04  0.18202759167E+04 0.  0.
        1    1    3    3  502    0  0.28554491348E+03  0.86326491348E+03  0.82539834743E+02  0.91300330383E+03  0.50400001928E-02 0.  1.
       -1    1    3    3    0  502 -0.28554491348E+03 -0.86326491348E+03  0.16298365293E+03  0.92375639625E+03  0.50400001928E-02 0. -1.
</event>
<event>
 5   0  0.3308275E-04  0.1876751E+04  0.7818609E-02  0.8666516E-01
       -1   -1    0    0    0  501  0.00000000000E+00  0.00000000000E+00  0.12257415877E+04  0.12257415877E+04  0.50400001928E-02 0. -1.
        1   -1    0    0  501    0  0.00000000000E+00  0.00000000000E+00 -0.71838042544E+03  0.71838042546E+03  0.50400001928E-02 0.  1.
    10030    2    1    2    0    0  0.00000000000E+00  0.00000000000E+00  0.50736116229E+03  0.19441220132E+04  0.18767511964E+04 0.  0.
        3    1    3    3  502    0 -0.18275480346E+03  0.11862746783E+03  0.11991758888E+04  0.12188086875E+04  0.10100000352E+00 0. -1.
       -3    1    3    3    0  502  0.18275480346E+03 -0.11862746783E+03 -0.69181472653E+03  0.72531332565E+03  0.10100000352E+00 0.  1.
</event>
<event>
 5   0  0.6929121E-04  0.1400824E+04  0.7818609E-02  0.8953222E-01
       -2   -1    0    0    0  501  0.00000000000E+00  0.00000000000E+00  0.73845301320E+03  0.73845301321E+03  0.25500000920E-02 0.  1.
        2   -1    0    0  501    0  0.00000000000E+00  0.00000000000E+00 -0.66433108986E+03  0.66433108986E+03  0.25500000920E-02 0. -1.
    10030    2    1    2    0    0  0.00000000000E+00  0.00000000000E+00  0.74121923346E+02  0.14027841031E+04  0.14008244645E+04 0.  0.
        3    1    3    3  502    0 -0.20938922367E+03 -0.65390869964E+03 -0.10146856460E+03  0.69407226875E+03  0.10100000352E+00 0.  1.
       -3    1    3    3    0  502  0.20938922367E+03  0.65390869964E+03  0.17559048795E+03  0.70871183432E+03  0.10100000352E+00 0. -1.
</event>
<event>
 5   0  0.3413839E-04  0.1779452E+04  0.7818609E-02  0.8717304E-01
        1   -1    0    0  501    0  0.00000000000E+00  0.00000000000E+00  0.19210907197E+04  0.19210907197E+04  0.50400001928E-02 0. -1.
       -1   -1    0    0    0  501  0.00000000000E+00  0.00000000000E+00 -0.41206393905E+03  0.41206393908E+03  0.50400001928E-02 0.  1.
    10030    2    1    2    0    0  0.00000000000E+00  0.00000000000E+00  0.15090267807E+04  0.23331546588E+04  0.17794518361E+04 0.  0.
        5    1    3    3  502    0 -0.44803347302E+03 -0.53696711263E+03  0.33345980748E+02  0.70014406905E+03  0.46999998093E+01 0.  1.
       -5    1    3    3    0  502  0.44803347302E+03  0.53696711263E+03  0.14756807999E+04  0.16330105897E+04  0.46999998093E+01 0. -1.
</event>
<event>
 5   0  0.3470962E-04  0.1765184E+04  0.7818609E-02  0.8725036E-01
       -1   -1    0    0    0  501  0.00000000000E+00  0.00000000000E+00  0.10207797199E+04  0.10207797199E+04  0.50400001928E-02 0. -1.
        1   -1    0    0  501    0  0.00000000000E+00  0.00000000000E+00 -0.76311160169E+03  0.76311160171E+03  0.50400001928E-02 0.  1.
    10030    2    1    2    0    0  0.00000000000E+00  0.00000000000E+00  0.25766811824E+03  0.17838913217E+04  0.17651842364E+04 0.  0.
        4    1    3    3  502    0 -0.56833650573E+03 -0.59024570841E+03  0.46028988804E+03  0.93982167137E+03  0.12699999809E+01 0. -1.
       -4    1    3    3    0  502  0.56833650573E+03  0.59024570841E+03 -0.20262176979E+03  0.84406965029E+03  0.12699999809E+01 0.  1.
</event>
<event>
 5   0  0.6774451E-04  0.1722983E+04  0.7818609E-02  0.8748364E-01
        2   -1    0    0  501    0  0.00000000000E+00  0.00000000000E+00  0.94098354681E+03  0.94098354681E+03  0.25500000920E-02 0. -1.
       -2   -1    0    0    0  501  0.00000000000E+00  0.00000000000E+00 -0.78871500369E+03  0.78871500370E+03  0.25500000920E-02 0.  1.
    10030    2    1    2    0    0  0.00000000000E+00  0.00000000000E+00  0.15226854312E+03  0.17296985505E+04  0.17229832751E+04 0.  0.
        4    1    3    3  502    0 -0.23898481888E+03 -0.35553790964E+03 -0.67420456664E+03  0.79879556798E+03  0.12699999809E+01 0.  1.
       -4    1    3    3    0  502  0.23898481888E+03  0.35553790964E+03  0.82647310975E+03  0.93090298254E+03  0.12699999809E+01 0. -1.
</event>
<event>
 5   0  0.6771967E-04  0.1823925E+04  0.7818609E-02  0.8693679E-01
        2   -1    0    0  501    0  0.00000000000E+00  0.00000000000E+00  0.65930604615E+03  0.65930604615E+03  0.25500000920E-02 0.  1.
       -2   -1    0    0    0  501  0.00000000000E+00  0.00000000000E+00 -0.12614404827E+04  0.12614404827E+04  0.25500000920E-02 0. -1.
    10030    2    1    2    0    0  0.00000000000E+00  0.00000000000E+00 -0.60213443653E+03  0.19207465288E+04  0.18239247102E+04 0.  0.
        1    1    3    3  502    0 -0.45082110595E+03 -0.49377774063E+03  0.35203120586E+03  0.75563357299E+03  0.50400001928E-02 0.  1.
       -1    1    3    3    0  502  0.45082110595E+03  0.49377774063E+03 -0.95416564239E+03  0.11651129558E+04  0.50400001928E-02 0. -1.
</event>
<event>
 5   0  0.3377273E-04  0.1757304E+04  0.7818609E-02  0.8729340E-01
        1   -1    0    0  501    0  0.00000000000E+00  0.00000000000E+00  0.84097230841E+03  0.84097230842E+03  0.50400001928E-02 0.  1.
       -1   -1    0    0    0  501  0.00000000000E+00  0.00000000000E+00 -0.91801957127E+03  0.91801957128E+03  0.50400001928E-02 0. -1.
    10030    2    1    2    0    0  0.00000000000E+00  0.00000000000E+00 -0.77047262862E+02  0.17589918797E+04  0.17573036596E+04 0.  0.
        2    1    3    3  502    0 -0.76294298920E+03  0.42571423982E+03 -0.13196436660E+03  0.88358882565E+03  0.25500000920E-02 0. -1.
       -2    1    3    3    0  502  0.76294298920E+03 -0.42571423982E+03  0.54917103737E+02  0.87540305406E+03  0.25500000920E-02 0.  1.
</event>
<event>
 5   0  0.6853162E-04  0.1794982E+04  0.7818609E-02  0.8708972E-01
        2   -1    0    0  501    0  0.00000000000E+00  0.00000000000E+00  0.11480987989E+04  0.11480987989E+04  0.25500000920E-02 0.  1.
       -2   -1    0    0    0  501  0.00000000000E+00  0.00000000000E+00 -0.70158633825E+03  0.70158633826E+03  0.25500000920E-02 0. -1.
    10030    2    1    2    0    0  0.00000000000E+00  0.00000000000E+00  0.44651246062E+03  0.18496851371E+04  0.17949823757E+04 0.  0.
        2    1    3    3  502    0  0.27962619292E+03  0.31705157785E+03  0.10390764465E+04  0.11217808933E+04  0.25500000920E-02 0.  1.
       -2    1    3    3    0  502 -0.27962619292E+03 -0.31705157785E+03 -0.59256398592E+03  0.72790424384E+03  0.25500000920E-02 0. -1.
</event>
<event>
 5   0  0.6771967E-04  0.1866027E+04  0.7818609E-02  0.8671954E-01
        2   -1    0    0  501    0  0.00000000000E+00  0.00000000000E+00  0.25541136537E+04  0.25541136537E+04  0.25500000920E-02 0.  1.
       -2   -1    0    0    0  501  0.00000000000E+00  0.00000000000E+00 -0.34082833411E+03  0.34082833412E+03  0.25500000920E-02 0. -1.
    10030    2    1    2    0    0  0.00000000000E+00  0.00000000000E+00  0.22132853196E+04  0.28949419878E+04  0.18660271185E+04 0.  0.
        1    1    3    3  502    0 -0.28090794252E+03  0.87223566689E+03  0.13789551481E+04  0.16556635018E+04  0.50400001928E-02 0. -1.
       -1    1    3    3    0  502  0.28090794252E+03 -0.87223566689E+03  0.83433017151E+03  0.12392784860E+04  0.50400001928E-02 0.  1.
</event>
<event>
 5   0  0.6929121E-04  0.1127021E+04  0.7818609E-02  0.9179248E-01
        2   -1    0    0  501    0  0.00000000000E+00  0.00000000000E+00  0.19923822414E+04  0.19923822414E+04  0.25500000920E-02 0.  1.
       -2   -1    0    0    0  501  0.00000000000E+00  0.00000000000E+00 -0.15937906184E+03  0.15937906186E+03  0.25500000920E-02 0. -1.
    10030    2    1    2    0    0  0.00000000000E+00  0.00000000000E+00  0.18330031796E+04  0.21517613033E+04  0.11270208738E+04 0.  0.
        3    1    3    3  502    0  0.17525331900E+01 -0.38510593353E+02 -0.15685847837E+03  0.16152625053E+03  0.10100000352E+00 0. -1.
       -3    1    3    3    0  502 -0.17525331900E+01  0.38510593353E+02  0.19898616579E+04  0.19902350527E+04  0.10100000352E+00 0.  1.
</event>
<event>
 5   0  0.6853162E-04  0.1853646E+04  0.7818609E-02  0.8678280E-01
        2   -1    0    0  501    0  0.00000000000E+00  0.00000000000E+00  0.82227340259E+03  0.82227340259E+03  0.25500000920E-02 0.  1.
       -2   -1    0    0    0  501  0.00000000000E+00  0.00000000000E+00 -0.10446662696E+04  0.10446662696E+04  0.25500000920E-02 0. -1.
    10030    2    1    2    0    0  0.00000000000E+00  0.00000000000E+00 -0.22239286697E+03  0.18669396721E+04  0.18536464475E+04 0.  0.
        2    1    3    3  502    0  0.86758954938E+03 -0.23318439617E+03 -0.34067839446E+03  0.96080609765E+03  0.25500000920E-02 0. -1.
       -2    1    3    3    0  502 -0.86758954938E+03  0.23318439617E+03  0.11828552749E+03  0.90613357450E+03  0.25500000920E-02 0.  1.
</event>
<event>
 5   0  0.3413839E-04  0.1687208E+04  0.7818609E-02  0.8768694E-01
        1   -1    0    0  501    0  0.00000000000E+00  0.00000000000E+00  0.17758410566E+04  0.17758410566E+04  0.50400001928E-02 0. -1.
       -1   -1    0    0    0  501  0.00000000000E+00  0.00000000000E+00 -0.40074979762E+03  0.40074979765E+03  0.50400001928E-02 0.  1.
    10030    2    1    2    0    0  0.00000000000E+00  0.00000000000E+00  0.13750912590E+04  0.21765908543E+04  0.16872082789E+04 0.  0.
        5    1    3    3  502    0  0.64898860899E+03 -0.53751033497E+03  0.73820847938E+03  0.11203023805E+04  0.46999998093E+01 0. -1.
       -5    1    3    3    0  502 -0.64898860899E+03  0.53751033497E+03  0.63688277963E+03  0.10562884738E+04  0.46999998093E+01 0.  1.
</event>
<event>
 5   0  0.6774451E-04  0.1746963E+04  0.7818609E-02  0.8735024E-01
        2   -1    0    0  501    0  0.00000000000E+00  0.00000000000E+00  0.11287715075E+04  0.11287715075E+04  0.25500000920E-02 0. -1.
       -2   -1    0    0    0  501  0.00000000000E+00  0.00000000000E+00 -0.67592966808E+03  0.67592966809E+03  0.25500000920E-02 0.  1.
    10030    2    1    2    0    0  0.00000000000E+00  0.00000000000E+00  0.45284183944E+03  0.18047011756E+04  0.17469632514E+04 0.  0.
        4    1    3    3  502    0  0.85876810745E+03 -0.32638006336E+01  0.61536155740E+02  0.86097713450E+03  0.12699999809E+01 0.  1.
       -4    1    3    3    0  502 -0.85876810745E+03  0.32638006336E+01  0.39130568370E+03  0.94372404111E+03  0.12699999809E+01 0. -1.
</event>
<event>
 5   0  0.3308275E-04  0.1782149E+04  0.7818609E-02  0.8715850E-01
       -1   -1    0    0    0  501  0.00000000000E+00  0.00000000000E+00  0.75130562776E+03  0.75130562778E+03  0.50400001928E-02 0.  1.
        1   -1    0    0  501    0  0.00000000000E+00  0.00000000000E+00 -0.10568457430E+04  0.10568457430E+04  0.50400001928E-02 0. -1.
    10030    2    1    2    0    0  0.00000000000E+00  0.00000000000E+00 -0.30554011526E+03  0.18081513708E+04  0.17821494375E+04 0.  0.
        3    1    3    3  502    0 -0.50569715103E+03 -0.45746685125E+03 -0.73473162186E+03  0.10024151310E+04  0.10100000352E+00 0. -1.
       -3    1    3    3    0  502  0.50569715103E+03  0.45746685125E+03  0.42919150660E+03  0.80573623978E+03  0.10100000352E+00 0.  1.
</event>
<event>
 5   0  0.3404261E-04  0.1700595E+04  0.7818609E-02  0.8761025E-01
       -1   -1    0    0    0  501  0.00000000000E+00  0.00000000000E+00  0.11452968293E+04  0.11452968293E+04  0.50400001928E-02 0. -1.
        1   -1    0    0  501    0  0.00000000000E+00  0.00000000000E+00 -0.63128242783E+03  0.63128242785E+03  0.50400001928E-02 0.  1.
    10030    2    1    2    0    0  0.00000000000E+00  0.00000000000E+00  0.51401440145E+03  0.17765792571E+04  0.17005949112E+04 0.  0.
        1    1    3    3  502    0 -0.74058574689E+03 -0.11090204359E+03 -0.16377918353E+03  0.76654427971E+03  0.50400001928E-02 0. -1.
       -1    1    3    3    0  502  0.74058574689E+03  0.11090204359E+03  0.67779358498E+03  0.10100349774E+04  0.50400001928E-02 0.  1.
</event>
<event>
 5   0  0.6929121E-04  0.1482449E+04  0.7818609E-02  0.8896209E-01
        2   -1    0    0  501    0  0.00000000000E+00  0.00000000000E+00  0.14662105874E+04  0.14662105874E+04  0.25500000920E-02 0.  1.
       -2   -1    0    0    0  501  0.00000000000E+00  0.00000000000E+00 -0.37471678766E+03  0.37471678767E+03  0.25500000920E-02 0. -1.
    10030    2    1    2    0    0  0.00000000000E+00  0.00000000000E+00  0.10914937998E+04  0.18409273751E+04  0.14824489487E+04 0.  0.
        3    1    3    3  502    0 -0.17269216675E+03  0.39349455157E+03  0.12957385766E+04  0.13651369952E+04  0.10100000352E+00 0.  1.
       -3    1    3    3    0  502  0.17269216675E+03 -0.39349455157E+03 -0.20424477680E+03  0.47579037992E+03  0.10100000352E+00 0. -1.
</event>
<event>
 5   0  0.2467375E-04  0.1790357E+04  0.7818609E-02  0.8711444E-01
        3   -1    0    0  501    0  0.00000000000E+00  0.00000000000E+00  0.79960461127E+03  0.79960461765E+03  0.10100000352E+00 0. -1.
       -3   -1    0    0    0  501  0.00000000000E+00  0.00000000000E+00 -0.10021757800E+04  0.10021757850E+04  0.10100000352E+00 0.  1.
    10030    2    1    2    0    0  0.00000000000E+00  0.00000000000E+00 -0.20257116869E+03  0.18017804027E+04  0.17903568195E+04 0.  0.
        4    1    3    3  502    0 -0.70457251301E+03 -0.54430831270E+03 -0.76932310117E+01  0.89036776900E+03  0.12699999809E+01 0. -1.
       -4    1    3    3    0  502  0.70457251301E+03  0.54430831270E+03 -0.19487793768E+03  0.91141263370E+03  0.12699999809E+01 0.  1.
</event>
<event>
 5   0  0.3308275E-04  0.1789570E+04  0.7818609E-02  0.8711866E-01
       -1   -1    0    0    0  501  0.00000000000E+00  0.00000000000E+00  0.15165851966E+04  0.15165851966E+04  0.50400001928E-02 0. -1.
        1   -1    0    0  501    0  0.00000000000E+00  0.00000000000E+00 -0.52792291410E+03  0.52792291413E+03  0.50400001928E-02 0.  1.
    10030    2    1    2    0    0  0.00000000000E+00  0.00000000000E+00  0.98866228254E+03  0.20445081108E+04  0.17895698662E+04 0.  0.
        3    1    3    3  502    0  0.64807059764E+02 -0.84739207314E+03  0.17451071588E+03  0.86759857122E+03  0.10100000352E+00 0.  1.
       -3    1    3    3    0  502 -0.64807059764E+02  0.84739207314E+03  0.81415156665E+03  0.11769095396E+04  0.10100000352E+00 0. -1.
</event>
<event>
 5   0  0.3470962E-04  0.1695503E+04  0.7818609E-02  0.8763933E-01
       -1   -1    0    0    0  501  0.00000000000E+00  0.00000000000E+00  0.79877502910E+03  0.79877502911E+03  0.50400001928E-02 0.  1.
        1   -1    0    0  501    0  0.00000000000E+00  0.00000000000E+00 -0.89973084967E+03  0.89973084969E+03  0.50400001928E-02 0. -1.
    10030    2    1    2    0    0  0.00000000000E+00  0.00000000000E+00 -0.10095582057E+03  0.16985058788E+04  0.16955029173E+04 0.  0.
        4    1    3    3  502    0  0.31169837542E+03 -0.69185286125E+03 -0.42912177561E+03  0.87175877974E+03  0.12699999809E+01 0. -1.
       -4    1    3    3    0  502 -0.31169837542E+03  0.69185286125E+03  0.32816595504E+03  0.82674709906E+03  0.12699999809E+01 0.  1.
</event>
<event>
 5   0  0.3413839E-04  0.1770620E+04  0.7818609E-02  0.8722082E-01
       -1   -1    0    0    0  501  0.00000000000E+00  0.00000000000E+00  0.15493030062E+04  0.15493030062E+04  0.50400001928E-02 0.  1.
        1   -1    0    0  501    0  0.00000000000E+00  0.00000000000E+00 -0.50588773298E+03  0.50588773301E+03  0.50400001928E-02 0. -1.
    10030    2    1    2    0    0  0.00000000000E+00  0.00000000000E+00  0.10434152733E+04  0.20551907392E+04  0.17706195363E+04 0.  0.
        5    1    3    3  502    0  0.13945688697E+03 -0.34541839405E+03 -0.41047949989E+03  0.55432625781E+03  0.46999998093E+01 0. -1.
       -5    1    3    3    0  502 -0.13945688697E+03  0.34541839405E+03  0.14538947731E+04  0.15008644814E+04  0.46999998093E+01 0.  1.
</event>
<event>
 5   0  0.3470962E-04  0.1942406E+04  0.7818609E-02  0.8634032E-01
       -1   -1    0    0    0  501  0.00000000000E+00  0.00000000000E+00  0.87241076122E+03  0.87241076123E+03  0.50400001928E-02 0.  1.
        1   -1    0    0  501    0  0.00000000000E+00  0.00000000000E+00 -0.10811822331E+04  0.10811822332E+04  0.50400001928E-02 0. -1.
    10030    2    1    2    0    0  0.00000000000E+00  0.00000000000E+00 -0.20877147193E+03  0.19535929944E+04  0.19424057404E+04 0.  0.
        4    1    3    3  502    0 -0.57488440803E+03  0.77821845547E+03 -0.19535421888E+02  0.96772893552E+03  0.12699999809E+01 0.  1.
       -4    1    3    3    0  502  0.57488440803E+03 -0.77821845547E+03 -0.18923605004E+03  0.98586405887E+03  0.12699999809E+01 0. -1.
</event>
<event>
 5   0  0.6929121E-04  0.9132606E+03  0.7818609E-02  0.9409155E-01
        2   -1    0    0  501    0  0.00000000000E+00  0.00000000000E+00  0.48345335932E+03  0.48345335933E+03  0.25500000920E-02 0.  1.
       -2   -1    0    0    0  501  0.00000000000E+00  0.00000000000E+00 -0.43129542994E+03  0.43129542995E+03  0.25500000920E-02 0. -1.
    10030    2    1    2    0    0  0.00000000000E+00  0.00000000000E+00  0.52157929382E+02  0.91474878928E+03  0.91326058597E+03 0.  0.
        3    1    3    3  502    0 -0.21291282519E+03 -0.24475567955E+03 -0.29580743591E+03  0.43902080035E+03  0.10100000352E+00 0. -1.
       -3    1    3    3    0  502  0.21291282519E+03  0.24475567955E+03  0.34796536529E+03  0.47572798892E+03  0.10100000352E+00 0.  1.
</event>
<event>
 5   0  0.3404261E-04  0.1744051E+04  0.7818609E-02  0.8736632E-01
        1   -1    0    0  501    0  0.00000000000E+00  0.00000000000E+00  0.11102663107E+04  0.11102663107E+04  0.50400001928E-02 0.  1.
       -1   -1    0    0    0  501  0.00000000000E+00  0.00000000000E+00 -0.68490610448E+03  0.68490610450E+03  0.50400001928E-02 0. -1.
    10030    2    1    2    0    0  0.00000000000E+00  0.00000000000E+00  0.42536020622E+03  0.17951724152E+04  0.17440506573E+04 0.  0.
        1    1    3    3  502    0  0.27432176490E+03  0.71839802661E+03 -0.21056623987E+03  0.79729937710E+03  0.50400001928E-02 0. -1.
       -1    1    3    3    0  502 -0.27432176490E+03 -0.71839802661E+03  0.63592644610E+03  0.99787303812E+03  0.50400001928E-02 0.  1.
</event>
<event>
 5   0  0.6929121E-04  0.1790624E+04  0.7818609E-02  0.8711302E-01
       -2   -1    0    0    0  501  0.00000000000E+00  0.00000000000E+00  0.56157793978E+03  0.56157793978E+03  0.25500000920E-02 0. -1.
        2   -1    0    0  501    0  0.00000000000E+00  0.00000000000E+00 -0.14273764826E+04  0.14273764826E+04  0.25500000920E-02 0.  1.
    10030    2    1    2    0    0  0.00000000000E+00  0.00000000000E+00 -0.86579854278E+03  0.19889544223E+04  0.17906235164E+04 0.  0.
        3    1    3    3  502    0 -0.21702645372E+03  0.57672023881E+03 -0.11543607918E+04  0.13085318351E+04  0.10100000352E+00 0.  1.
       -3    1    3    3    0  502  0.21702645372E+03 -0.57672023881E+03  0.28856224907E+03  0.68042258726E+03  0.10100000352E+00 0. -1.
</event>
<event>
 5   0  0.6774451E-04  0.1713462E+04  0.7818609E-02  0.8753723E-01
        2   -1    0    0  501    0  0.00000000000E+00  0.00000000000E+00  0.12983949776E+04  0.12983949776E+04  0.25500000920E-02 0. -1.
       -2   -1    0    0    0  501  0.00000000000E+00  0.00000000000E+00 -0.56530425373E+03  0.56530425373E+03  0.25500000920E-02 0.  1.
    10030    2    1    2    0    0  0.00000000000E+00  0.00000000000E+00  0.73309072388E+03  0.18636992313E+04  0.17134622305E+04 0.  0.
        4    1    3    3  502    0 -0.71818941848E+02 -0.76472321279E+03  0.77932978994E+03  0.10942193962E+04  0.12699999809E+01 0.  1.
       -4    1    3    3    0  502  0.71818941848E+02  0.76472321279E+03 -0.46239066067E+02  0.76947983516E+03  0.12699999809E+01 0. -1.
</event>
<event>
 5   0  0.3470962E-04  0.1581047E+04  0.7818609E-02  0.8832277E-01
       -1   -1    0    0    0  501  0.00000000000E+00  0.00000000000E+00  0.11880405717E+04  0.11880405717E+04  0.50400001928E-02 0.  1.
        1   -1    0    0  501    0  0.00000000000E+00  0.00000000000E+00 -0.52601498501E+03  0.52601498503E+03  0.50400001928E-02 0. -1.
    10030    2    1    2    0    0  0.00000000000E+00  0.00000000000E+00  0.66202558671E+03  0.17140555568E+04  0.15810466705E+04 0.  0.
        4    1    3    3  502    0  0.13965761401E+03 -0.32411561537E+03 -0.43586469232E+03  0.56083404336E+03  0.12699999809E+01 0. -1.
       -4    1    3    3    0  502 -0.13965761401E+03  0.32411561537E+03  0.10978902790E+04  0.11532215134E+04  0.12699999809E+01 0.  1.
</event>
<event>
 5   0  0.3404261E-04  0.1112086E+04  0.7818609E-02  0.9193491E-01
       -1   -1    0    0    0  501  0.00000000000E+00  0.00000000000E+00  0.25912249378E+03  0.25912249383E+03  0.50400001928E-02 0. -1.
        1   -1    0    0  501    0  0.00000000000E+00  0.00000000000E+00 -0.11931966342E+04  0.11931966342E+04  0.50400001928E-02 0.  1.
    10030    2    1    2    0    0  0.00000000000E+00  0.00000000000E+00 -0.93407414044E+03  0.14523191281E+04  0.11120864849E+04 0.  0.
        1    1    3    3  502    0 -0.41209413741E+03 -0.50163724555E+02  0.16065917085E+02  0.41544685709E+03  0.50400001928E-02 0. -1.
       -1    1    3    3    0  502  0.41209413741E+03  0.50163724555E+02 -0.95014005753E+03  0.10368722710E+04  0.50400001928E-02 0.  1.
</event>
<event>
 5   0  0.6853162E-04  0.1724296E+04  0.7818609E-02  0.8747628E-01
        2   -1    0    0  501    0  0.00000000000E+00  0.00000000000E+00  0.88729305053E+03  0.88729305053E+03  0.25500000920E-02 0. -1.
       -2   -1    0    0    0  501  0.00000000000E+00  0.00000000000E+00 -0.83771514745E+03  0.83771514745E+03  0.25500000920E-02 0.  1.
    10030    2    1    2    0    0  0.00000000000E+00  0.00000000000E+00  0.49577903076E+02  0.17250081980E+04  0.17242955996E+04 0.  0.
        2    1    3    3  502    0  0.37914744317E+03  0.55370866532E+03 -0.51668583618E+03  0.84694174713E+03  0.25500000920E-02 0.  1.
       -2    1    3    3    0  502 -0.37914744317E+03 -0.55370866532E+03  0.56626373926E+03  0.87806645085E+03  0.25500000920E-02 0. -1.
</event>
<event>
 5   0  0.6929121E-04  0.1375891E+04  0.7818609E-02  0.8971457E-01
        2   -1    0    0  501    0  0.00000000000E+00  0.00000000000E+00  0.13226444980E+04  0.13226444980E+04  0.25500000920E-02 0.  1.
       -2   -1    0    0    0  501  0.00000000000E+00  0.00000000000E+00 -0.35782033332E+03  0.35782033333E+03  0.25500000920E-02 0. -1.
    10030    2    1    2    0    0  0.00000000000E+00  0.00000000000E+00  0.96482416463E+03  0.16804648313E+04  0.13758911223E+04 0.  0.
        3    1    3    3  502    0 -0.52198187614E+03  0.25005980350E+03  0.93657929743E+03  0.11009885444E+04  0.10100000352E+00 0.  1.
       -3    1    3    3    0  502  0.52198187614E+03 -0.25005980350E+03  0.28244867203E+02  0.57947628689E+03  0.10100000352E+00 0. -1.
</event>
<event>
 5   0  0.3470962E-04  0.1827647E+04  0.7818609E-02  0.8691734E-01
       -1   -1    0    0    0  501  0.00000000000E+00  0.00000000000E+00  0.43032609712E+03  0.43032609715E+03  0.50400001928E-02 0.  1.
        1   -1    0    0  501    0  0.00000000000E+00  0.00000000000E+00 -0.19405587923E+04  0.19405587923E+04  0.50400001928E-02 0. -1.
    10030    2    1    2    0    0  0.00000000000E+00  0.00000000000E+00 -0.15102326951E+04  0.23708848894E+04  0.18276466741E+04 0.  0.
        4    1    3    3  502    0 -0.23148398696E+03 -0.18042077719E+03  0.36752307163E+03  0.47033106865E+03  0.12699999809E+01 0.  1.
       -4    1    3    3    0  502  0.23148398696E+03  0.18042077719E+03 -0.18777557668E+04  0.19005538208E+04  0.12699999809E+01 0. -1.
</event>
<event>
 5   0  0.3377273E-04  0.1859325E+04  0.7818609E-02  0.8675372E-01
       -1   -1    0    0    0  501  0.00000000000E+00  0.00000000000E+00  0.81157478926E+03  0.81157478927E+03  0.50400001928E-02 0. -1.
        1   -1    0    0  501    0  0.00000000000E+00  0.00000000000E+00 -0.10649328619E+04  0.10649328619E+04  0.50400001928E-02 0.  1.
    10030    2    1    2    0    0  0.00000000000E+00  0.00000000000E+00 -0.25335807267E+03  0.18765076512E+04  0.18593253217E+04 0.  0.
        2    1    3    3  502    0 -0.27712712803E+03  0.74144441460E+03  0.36540588179E+03  0.87181461532E+03  0.25500000920E-02 0. -1.
       -2    1    3    3    0  502  0.27712712803E+03 -0.74144441460E+03 -0.61876395446E+03  0.10046930359E+04  0.25500000920E-02 0.  1.
</event>
<event>
 5   0  0.3404261E-04  0.1624851E+04  0.7818609E-02  0.8805425E-01
        1   -1    0    0  501    0  0.00000000000E+00  0.00000000000E+00  0.19121306987E+04  0.19121306987E+04  0.50400001928E-02 0. -1.
       -1   -1    0    0    0  501  0.00000000000E+00  0.00000000000E+00 -0.34518291217E+03  0.34518291220E+03  0.50400001928E-02 0.  1.
    10030    2    1    2    0    0  0.00000000000E+00  0.00000000000E+00  0.15669477865E+04  0.22573136109E+04  0.16248505692E+04 0.  0.
        1    1    3    3  502    0  0.77667331927E+03  0.23827227612E+03  0.77471828252E+03  0.11225789682E+04  0.50400001928E-02 0.  1.
       -1    1    3    3    0  502 -0.77667331927E+03 -0.23827227612E+03  0.79222950401E+03  0.11347346428E+04  0.50400001928E-02 0. -1.
</event>
<event>
 5   0  0.6853162E-04  0.1678066E+04  0.7818609E-02  0.8773974E-01
        2   -1    0    0  501    0  0.00000000000E+00  0.00000000000E+00  0.12525819589E+04  0.12525819589E+04  0.25500000920E-02 0. -1.
       -2   -1    0    0    0  501  0.00000000000E+00  0.00000000000E+00 -0.56202025539E+03  0.56202025540E+03  0.25500000920E-02 0.  1.
    10030    2    1    2    0    0  0.00000000000E+00  0.00000000000E+00  0.69056170347E+03  0.18146022143E+04  0.16780660683E+04 0.  0.
        2    1    3    3  502    0  0.31591523099E+03  0.72188563871E+03  0.33639129402E+02  0.78870330263E+03  0.25500000920E-02 0.  1.
       -2    1    3    3    0  502 -0.31591523099E+03 -0.72188563871E+03  0.65692257406E+03  0.10258989116E+04  0.25500000920E-02 0. -1.
</event>
<event>
 5   0  0.3413839E-04  0.1817179E+04  0.7818609E-02  0.8697217E-01
        1   -1    0    0  501    0  0.00000000000E+00  0.00000000000E+00  0.14297983386E+04  0.14297983386E+04  0.50400001928E-02 0. -1.
       -1   -1    0    0    0  501  0.00000000000E+00  0.00000000000E+00 -0.57737873502E+03  0.57737873504E+03  0.50400001928E-02 0.  1.
    10030    2    1    2    0    0  0.00000000000E+00  0.00000000000E+00  0.85241960353E+03  0.20071770736E+04  0.18171793044E+04 0.  0.
        5    1    3    3  502    0  0.52309666661E+03 -0.42881123957E+03 -0.24385081880E+03  0.71902330534E+03  0.46999998093E+01 0.  1.
       -5    1    3    3    0  502 -0.52309666661E+03  0.42881123957E+03  0.10962704223E+04  0.12881537683E+04  0.46999998093E+01 0. -1.
</event>
<event>
 5   0  0.3308275E-04  0.1574177E+04  0.7818609E-02  0.8836571E-01
        1   -1    0    0  501    0  0.00000000000E+00  0.00000000000E+00  0.91977704488E+03  0.91977704489E+03  0.50400001928E-02 0. -1.
       -1   -1    0    0    0  501  0.00000000000E+00  0.00000000000E+00 -0.67354157308E+03  0.67354157310E+03  0.50400001928E-02 0.  1.
    10030    2    1    2    0    0  0.00000000000E+00  0.00000000000E+00  0.24623547180E+03  0.15933186180E+04  0.15741767089E+04 0.  0.
        3    1    3    3  502    0 -0.76507326407E+03 -0.17983029011E+03  0.16644048596E+03  0.80335451589E+03  0.10100000352E+00 0.  1.
       -3    1    3    3    0  502  0.76507326407E+03  0.17983029011E+03  0.79794985839E+02  0.78996410210E+03  0.10100000352E+00 0. -1.
</event>
<event>
 5   0  0.6929121E-04  0.1742692E+04  0.7818609E-02  0.8737384E-01
        2   -1    0    0  501    0  0.00000000000E+00  0.00000000000E+00  0.10148543204E+04  0.10148543204E+04  0.25500000920E-02 0.  1.
       -2   -1    0    0    0  501  0.00000000000E+00  0.00000000000E+00 -0.74813045330E+03  0.74813045330E+03  0.25500000920E-02 0. -1.
    10030    2    1    2    0    0  0.00000000000E+00  0.00000000000E+00  0.26672386709E+03  0.17629847737E+04  0.17426915077E+04 0.  0.
        3    1    3    3  502    0 -0.58814295542E+03  0.17470294995E+03 -0.49255942599E+03  0.78679606955E+03  0.10100000352E+00 0.  1.
       -3    1    3    3    0  502  0.58814295542E+03 -0.17470294995E+03  0.75928329308E+03  0.97618870414E+03  0.10100000352E+00 0. -1.
</event>
<event>
 5   0  0.6929121E-04  0.1780961E+04  0.7818609E-02  0.8716490E-01
        2   -1    0    0  501    0  0.00000000000E+00  0.00000000000E+00  0.17835563854E+04  0.17835563854E+04  0.25500000920E-02 0. -1.
       -2   -1    0    0    0  501  0.00000000000E+00  0.00000000000E+00 -0.44459222742E+03  0.44459222743E+03  0.25500000920E-02 0.  1.
    10030    2    1    2    0    0  0.00000000000E+00  0.00000000000E+00  0.13389641580E+04  0.22281486128E+04  0.17809607588E+04 0.  0.
        3    1    3    3  502    0  0.71236991541E+02  0.63009469366E+03 -0.11268785791E+03  0.64404393908E+03  0.10100000352E+00 0.  1.
       -3    1    3    3    0  502 -0.71236991541E+02 -0.63009469366E+03  0.14516520159E+04  0.15841046738E+04  0.10100000352E+00 0. -1.
</event>
<event>
 5   0  0.3404261E-04  0.1854904E+04  0.7818609E-02  0.8677635E-01
        1   -1    0    0  501    0  0.00000000000E+00  0.00000000000E+00  0.60151499005E+03  0.60151499007E+03  0.50400001928E-02 0. -1.
       -1   -1    0    0    0  501  0.00000000000E+00  0.00000000000E+00 -0.14300007632E+04  0.14300007633E+04  0.50400001928E-02 0.  1.
    10030    2    1    2    0    0  0.00000000000E+00  0.00000000000E+00 -0.82848577319E+03  0.20315157533E+04  0.18549036578E+04 0.  0.
        1    1    3    3  502    0  0.15759543509E+03 -0.52184948535E+03 -0.12360207850E+04  0.13508925151E+04  0.50400001928E-02 0.  1.
       -1    1    3    3    0  502 -0.15759543509E+03  0.52184948535E+03  0.40753501178E+03  0.68062323819E+03  0.50400001928E-02 0. -1.
</event>
<event>
 5   0  0.6771967E-04  0.1675928E+04  0.7818609E-02  0.8775214E-01
       -2   -1    0    0    0  501  0.00000000000E+00  0.00000000000E+00  0.10897914315E+04  0.10897914315E+04  0.25500000920E-02 0. -1.
        2   -1    0    0  501    0  0.00000000000E+00  0.00000000000E+00 -0.64432821156E+03  0.64432821156E+03  0.25500000920E-02 0.  1.
    10030    2    1    2    0    0  0.00000000000E+00  0.00000000000E+00  0.44546321999E+03  0.17341196431E+04  0.16759276405E+04 0.  0.
        1    1    3    3  502    0  0.18183460685E+03  0.18953211017E+03 -0.60063501524E+03  0.65555218449E+03  0.50400001928E-02 0.  1.
       -1    1    3    3    0  502 -0.18183460685E+03 -0.18953211017E+03  0.10460982352E+04  0.10785674586E+04  0.50400001928E-02 0. -1.
</event>
<event>
 5   0  0.3377273E-04  0.1776010E+04  0.7818609E-02  0.8719162E-01
        1   -1    0    0  501    0  0.00000000000E+00  0.00000000000E+00  0.46350607567E+03  0.46350607570E+03  0.50400001928E-02 0. -1.
       -1   -1    0    0    0  501  0.00000000000E+00  0.00000000000E+00 -0.17012777402E+04  0.17012777402E+04  0.50400001928E-02 0.  1.
    10030    2    1    2    0    0  0.00000000000E+00  0.00000000000E+00 -0.12377716645E+04  0.21647838159E+04  0.17760096498E+04 0.  0.
        2    1    3    3  502    0 -0.20967409354E+03 -0.85956491196E+03 -0.52655839656E+03  0.10296012861E+04  0.25500000920E-02 0. -1.
       -2    1    3    3    0  502  0.20967409354E+03  0.85956491196E+03 -0.71121326792E+03  0.11351825297E+04  0.25500000920E-02 0.  1.
</event>
<event>
 5   0  0.3404261E-04  0.1158192E+04  0.7818609E-02  0.9150259E-01
        1   -1    0    0  501    0  0.00000000000E+00  0.00000000000E+00  0.10353839750E+04  0.10353839750E+04  0.50400001928E-02 0. -1.
       -1   -1    0    0    0  501  0.00000000000E+00  0.00000000000E+00 -0.32389150980E+03  0.32389150984E+03  0.50400001928E-02 0.  1.
    10030    2    1    2    0    0  0.00000000000E+00  0.00000000000E+00  0.71149246524E+03  0.13592754849E+04  0.11581918303E+04 0.  0.
        1    1    3    3  502    0 -0.45124538950E+03 -0.23307245017E+03  0.29220920185E+02  0.50872294107E+03  0.50400001928E-02 0.  1.
       -1    1    3    3    0  502  0.45124538950E+03  0.23307245017E+03  0.68227154505E+03  0.85055254381E+03  0.50400001928E-02 0. -1.
</event>
<event>
 5   0  0.2467375E-04  0.1914245E+04  0.7818609E-02  0.8647798E-01
       -4   -1    0    0    0  501  0.00000000000E+00  0.00000000000E+00  0.74389586113E+03  0.74389694522E+03  0.12699999809E+01 0.  1.
        4   -1    0    0  501    0  0.00000000000E+00  0.00000000000E+00 -0.12314654920E+04  0.12314661468E+04  0.12699999809E+01 0. -1.
    10030    2    1    2    0    0  0.00000000000E+00  0.00000000000E+00 -0.48756963083E+03  0.19753630920E+04  0.19142453345E+04 0.  0.
        4    1    3    3  502    0  0.47645510753E+03 -0.78580900028E+03  0.32295778135E+02  0.91953786468E+03  0.12699999809E+01 0. -1.
       -4    1    3    3    0  502 -0.47645510753E+03  0.78580900028E+03 -0.51986540896E+03  0.10558252274E+04  0.12699999809E+01 0.  1.
</event>
<event>
 5   0  0.6771967E-04  0.1778642E+04  0.7818609E-02  0.8717740E-01
        2   -1    0    0  501    0  0.00000000000E+00  0.00000000000E+00  0.17747708855E+04  0.17747708856E+04  0.25500000920E-02 0.  1.
       -2   -1    0    0    0  501  0.00000000000E+00  0.00000000000E+00 -0.44563058230E+03  0.44563058231E+03  0.25500000920E-02 0. -1.
    10030    2    1    2    0    0  0.00000000000E+00  0.00000000000E+00  0.13291403032E+04  0.22204014679E+04  0.17786423847E+04 0.  0.
        1    1    3    3  502    0  0.48610374938E+03  0.31119955242E+03 -0.18004160828E+03  0.60461309722E+03  0.50400001928E-02 0. -1.
       -1    1    3    3    0  502 -0.48610374938E+03 -0.31119955242E+03  0.15091819115E+04  0.16157883706E+04  0.50400001928E-02 0.  1.
</event>
<event>
 5   0  0.3377273E-04  0.1780597E+04  0.7818609E-02  0.8716686E-01
        1   -1    0    0  501    0  0.00000000000E+00  0.00000000000E+00  0.44409380277E+03  0.44409380280E+03  0.50400001928E-02 0.  1.
       -1   -1    0    0    0  501  0.00000000000E+00  0.00000000000E+00 -0.17848288866E+04  0.17848288866E+04  0.50400001928E-02 0. -1.
    10030    2    1    2    0    0  0.00000000000E+00  0.00000000000E+00 -0.13407350839E+04  0.22289226894E+04  0.17805970320E+04 0.  0.
        2    1    3    3  502    0  0.32467414954E+03  0.61779523274E+03 -0.13623076584E+04  0.15306751481E+04  0.25500000920E-02 0. -1.
       -2    1    3    3    0  502 -0.32467414954E+03 -0.61779523274E+03  0.21572574520E+02  0.69824754132E+03  0.25500000920E-02 0.  1.
</event>
<event>
 5   0  0.3377273E-04  0.1959319E+04  0.7818609E-02  0.8625880E-01
        1   -1    0    0  501    0  0.00000000000E+00  0.00000000000E+00  0.12854234726E+04  0.12854234726E+04  0.50400001928E-02 0.  1.
       -1   -1    0    0    0  501  0.00000000000E+00  0.00000000000E+00 -0.74662771288E+03  0.74662771290E+03  0.50400001928E-02 0. -1.
    10030    2    1    2    0    0  0.00000000000E+00  0.00000000000E+00  0.53879575975E+03  0.20320511855E+04  0.19593190526E+04 0.  0.
        2    1    3    3  502    0 -0.90147648336E+03  0.29037270527E+03  0.95858315540E+01  0.94713676213E+03  0.25500000920E-02 0. -1.
       -2    1    3    3    0  502  0.90147648336E+03 -0.29037270527E+03  0.52920992820E+03  0.10849144234E+04  0.25500000920E-02 0.  1.
</event>
<event>
 5   0  0.6853162E-04  0.1758465E+04  0.7818609E-02  0.8728704E-01
        2   -1    0    0  501    0  0.00000000000E+00  0.00000000000E+00  0.10635072158E+04  0.10635072158E+04  0.25500000920E-02 0. -1.
       -2   -1    0    0    0  501  0.00000000000E+00  0.00000000000E+00 -0.72688742046E+03  0.72688742046E+03  0.25500000920E-02 0.  1.
    10030    2    1    2    0    0  0.00000000000E+00  0.00000000000E+00  0.33661979535E+03  0.17903946363E+04  0.17584652590E+04 0.  0.
        2    1    3    3  502    0  0.26044048260E+03  0.32201643571E+03  0.95797372573E+03  0.10436654105E+04  0.25500000920E-02 0. -1.
       -2    1    3    3    0  502 -0.26044048260E+03 -0.32201643571E+03 -0.62135393038E+03  0.74672922579E+03  0.25500000920E-02 0.  1.
</event>
<event>
 5   0  0.3308275E-04  0.1807666E+04  0.7818609E-02  0.8702233E-01
       -1   -1    0    0    0  501  0.00000000000E+00  0.00000000000E+00  0.50758436590E+03  0.50758436593E+03  0.50400001928E-02 0.  1.
        1   -1    0    0  501    0  0.00000000000E+00  0.00000000000E+00 -0.16094160274E+04  0.16094160274E+04  0.50400001928E-02 0. -1.
    10030    2    1    2    0    0  0.00000000000E+00  0.00000000000E+00 -0.11018316615E+04  0.21170003934E+04  0.18076663562E+04 0.  0.
        3    1    3    3  502    0  0.34733824267E+03 -0.56947554538E+03 -0.12651745359E+04  0.14302492329E+04  0.10100000352E+00 0. -1.
       -3    1    3    3    0  502 -0.34733824267E+03  0.56947554538E+03  0.16334287440E+03  0.68675116048E+03  0.10100000352E+00 0.  1.
</event>
<event>
 5   0  0.6547153E-04  0.1790453E+04  0.7818609E-02  0.8711393E-01
        2   -1    0    0  501    0  0.00000000000E+00  0.00000000000E+00  0.67095393736E+03  0.67095393737E+03  0.25500000920E-02 0. -1.
       -2   -1    0    0    0  501  0.00000000000E+00  0.00000000000E+00 -0.11944641909E+04  0.11944641909E+04  0.25500000920E-02 0.  1.
    10030    2    1    2    0    0  0.00000000000E+00  0.00000000000E+00 -0.52351025357E+03  0.18654181283E+04  0.17904529616E+04 0.  0.
        5    1    3    3  502    0  0.28578460207E+03 -0.81990311844E+03 -0.34698345085E+02  0.86898793291E+03  0.46999998093E+01 0.  1.
       -5    1    3    3    0  502 -0.28578460207E+03  0.81990311844E+03 -0.48881190849E+03  0.99643019539E+03  0.46999998093E+01 0. -1.
</event>
<event>
 5   0  0.3308275E-04  0.1743909E+04  0.7818609E-02  0.8736710E-01
       -1   -1    0    0    0  501  0.00000000000E+00  0.00000000000E+00  0.26528096642E+03  0.26528096646E+03  0.50400001928E-02 0.  1.
        1   -1    0    0  501    0  0.00000000000E+00  0.00000000000E+00 -0.28660345802E+04  0.28660345802E+04  0.50400001928E-02 0. -1.
    10030    2    1    2    0    0  0.00000000000E+00  0.00000000000E+00 -0.26007536138E+04  0.31313155467E+04  0.17439087399E+04 0.  0.
        3    1    3    3  502    0 -0.83365692212E+03 -0.24741213383E+03 -0.11852949263E+04  0.14700750662E+04  0.10100000352E+00 0. -1.
       -3    1    3    3    0  502  0.83365692212E+03  0.24741213383E+03 -0.14154586875E+04  0.16612404805E+04  0.10100000352E+00 0.  1.
</event>
<event>
 5   0  0.6853162E-04  0.1606703E+04  0.7818609E-02  0.8816441E-01
        2   -1    0    0  501    0  0.00000000000E+00  0.00000000000E+00  0.88419169534E+03  0.88419169534E+03  0.25500000920E-02 0. -1.
       -2   -1    0    0    0  501  0.00000000000E+00  0.00000000000E+00 -0.72990260669E+03  0.72990260669E+03  0.25500000920E-02 0.  1.
    10030    2    1    2    0    0  0.00000000000E+00  0.00000000000E+00  0.15428908865E+03  0.16140943020E+04  0.16067032374E+04 0.  0.
        2    1    3    3  502    0 -0.16006880709E+03 -0.45219002754E+03 -0.57023897786E+03  0.74516463677E+03  0.25500000920E-02 0.  1.
       -2    1    3    3    0  502  0.16006880709E+03  0.45219002754E+03  0.72452806651E+03  0.86892966527E+03  0.25500000920E-02 0. -1.
</event>
<event>
 5   0  0.6853162E-04  0.1821322E+04  0.7818609E-02  0.8695042E-01
       -2   -1    0    0    0  501  0.00000000000E+00  0.00000000000E+00  0.14547166649E+04  0.14547166649E+04  0.25500000920E-02 0.  1.
        2   -1    0    0  501    0  0.00000000000E+00  0.00000000000E+00 -0.57007926879E+03  0.57007926880E+03  0.25500000920E-02 0. -1.
    10030    2    1    2    0    0  0.00000000000E+00  0.00000000000E+00  0.88463739611E+03  0.20247959337E+04  0.18213223906E+04 0.  0.
        2    1    3    3  502    0 -0.70958980184E+03  0.19535502584E+03 -0.15390041157E+03  0.75190864451E+03  0.25500000920E-02 0. -1.
       -2    1    3    3    0  502  0.70958980184E+03 -0.19535502584E+03  0.10385378077E+04  0.12728872892E+04  0.25500000920E-02 0.  1.
</event>
<event>
 5   0  0.3404261E-04  0.1766688E+04  0.7818609E-02  0.8724218E-01
        1   -1    0    0  501    0  0.00000000000E+00  0.00000000000E+00  0.10910618744E+04  0.10910618744E+04  0.50400001928E-02 0.  1.
       -1   -1    0    0    0  501  0.00000000000E+00  0.00000000000E+00 -0.71517150444E+03  0.71517150446E+03  0.50400001928E-02 0. -1.
    10030    2    1    2    0    0  0.00000000000E+00  0.00000000000E+00  0.37589036992E+03  0.18062333788E+04  0.17666877055E+04 0.  0.
        1    1    3    3  502    0 -0.63482508038E+03 -0.78008038748E+01 -0.43999561350E+03  0.77243761894E+03  0.50400001928E-02 0. -1.
       -1    1    3    3    0  502  0.63482508038E+03  0.78008038748E+01  0.81588598342E+03  0.10337957599E+04  0.50400001928E-02 0.  1.
</event>
<event>
 5   0  0.6929121E-04  0.1831232E+04  0.7818609E-02  0.8689865E-01
       -2   -1    0    0    0  501  0.00000000000E+00  0.00000000000E+00  0.51160655552E+03  0.51160655553E+03  0.25500000920E-02 0. -1.
        2   -1    0    0  501    0  0.00000000000E+00  0.00000000000E+00 -0.16386663699E+04  0.16386663699E+04  0.25500000920E-02 0.  1.
    10030    2    1    2    0    0  0.00000000000E+00  0.00000000000E+00 -0.11270598143E+04  0.21502729254E+04  0.18312317791E+04 0.  0.
        3    1    3    3  502    0  0.43270291984E+03 -0.65778838553E+03 -0.11123265592E+04  0.13627867630E+04  0.10100000352E+00 0.  1.
       -3    1    3    3    0  502 -0.43270291984E+03  0.65778838553E+03 -0.14733255188E+02  0.78748616241E+03  0.10100000352E+00 0. -1.
</event>
<event>
 5   0  0.6853162E-04  0.1783402E+04  0.7818609E-02  0.8715176E-01
       -2   -1    0    0    0  501  0.00000000000E+00  0.00000000000E+00  0.49116485942E+03  0.49116485943E+03  0.25500000920E-02 0.  1.
        2   -1    0    0  501    0  0.00000000000E+00  0.00000000000E+00 -0.16188665353E+04  0.16188665353E+04  0.25500000920E-02 0. -1.
    10030    2    1    2    0    0  0.00000000000E+00  0.00000000000E+00 -0.11277016759E+04  0.21100313947E+04  0.17834016421E+04 0.  0.
        2    1    3    3  502    0  0.50762864202E+03 -0.49283257543E+03  0.78284133135E+02  0.71182806289E+03  0.25500000920E-02 0.  1.
       -2    1    3    3    0  502 -0.50762864202E+03  0.49283257543E+03 -0.12059858090E+04  0.13982033318E+04  0.25500000920E-02 0. -1.
</event>
<event>
 5   0  0.3308275E-04  0.1796061E+04  0.7818609E-02  0.8708397E-01
        1   -1    0    0  501    0  0.00000000000E+00  0.00000000000E+00  0.77429094629E+03  0.77429094630E+03  0.50400001928E-02 0.  1.
       -1   -1    0    0    0  501  0.00000000000E+00  0.00000000000E+00 -0.10415444885E+04  0.10415444885E+04  0.50400001928E-02 0. -1.
    10030    2    1    2    0    0  0.00000000000E+00  0.00000000000E+00 -0.26725354224E+03  0.18158354348E+04  0.17960606534E+04 0.  0.
        3    1    3    3  502    0 -0.74328756177E+03  0.50098732786E+03 -0.78309131886E+02  0.89977610131E+03  0.10100000352E+00 0.  1.
       -3    1    3    3    0  502  0.74328756177E+03 -0.50098732786E+03 -0.18894441036E+03  0.91605933354E+03  0.10100000352E+00 0. -1.
</event>
<event>
 5   0  0.3308275E-04  0.1799466E+04  0.7818609E-02  0.8706583E-01
        1   -1    0    0  501    0  0.00000000000E+00  0.00000000000E+00  0.58089203474E+03  0.58089203476E+03  0.50400001928E-02 0. -1.
       -1   -1    0    0    0  501  0.00000000000E+00  0.00000000000E+00 -0.13935799328E+04  0.13935799328E+04  0.50400001928E-02 0.  1.
    10030    2    1    2    0    0  0.00000000000E+00  0.00000000000E+00 -0.81268789806E+03  0.19744719676E+04  0.17994660128E+04 0.  0.
        3    1    3    3  502    0  0.45563303127E+03  0.70583140433E+03 -0.52966634578E+02  0.84178673375E+03  0.10100000352E+00 0. -1.
       -3    1    3    3    0  502 -0.45563303127E+03 -0.70583140433E+03 -0.75972126348E+03  0.11326852338E+04  0.10100000352E+00 0.  1.
</event>
<event>
 5   0  0.3470962E-04  0.1805429E+04  0.7818609E-02  0.8703418E-01
       -1   -1    0    0    0  501  0.00000000000E+00  0.00000000000E+00  0.44719203424E+03  0.44719203427E+03  0.50400001928E-02 0.  1.
        1   -1    0    0  501    0  0.00000000000E+00  0.00000000000E+00 -0.18222450177E+04  0.18222450177E+04  0.50400001928E-02 0. -1.
    10030    2    1    2    0    0  0.00000000000E+00  0.00000000000E+00 -0.13750529834E+04  0.22694370519E+04  0.18054289866E+04 0.  0.
        4    1    3    3  502    0  0.50686336796E+02  0.84473331553E+03 -0.29252140744E+03  0.89538475854E+03  0.12699999809E+01 0.  1.
       -4    1    3    3    0  502 -0.50686336796E+02 -0.84473331553E+03 -0.10825315760E+04  0.13740522934E+04  0.12699999809E+01 0. -1.
</event>
<event>
 5   0  0.6929121E-04  0.1773272E+04  0.7818609E-02  0.8720644E-01
        2   -1    0    0  501    0  0.00000000000E+00  0.00000000000E+00  0.95441360754E+03  0.95441360754E+03  0.25500000920E-02 0. -1.
       -2   -1    0    0    0  501  0.00000000000E+00  0.00000000000E+00 -0.82367184150E+03  0.82367184150E+03  0.25500000920E-02 0.  1.
    10030    2    1    2    0    0  0.00000000000E+00  0.00000000000E+00  0.13074176604E+03  0.17780854490E+04  0.17732722450E+04 0.  0.
        3    1    3    3  502    0  0.82649905741E+03 -0.19417935605E+03 -0.19089529256E+03  0.87019959615E+03  0.10100000352E+00 0.  1.
       -3    1    3    3    0  502 -0.82649905741E+03  0.19417935605E+03  0.32163705860E+03  0.90788585289E+03  0.10100000352E+00 0. -1.
</event>
<event>
 5   0  0.6853162E-04  0.1181981E+04  0.7818609E-02  0.9128776E-01
        2   -1    0    0  501    0  0.00000000000E+00  0.00000000000E+00  0.14628699738E+04  0.14628699738E+04  0.25500000920E-02 0. -1.
       -2   -1    0    0    0  501  0.00000000000E+00  0.00000000000E+00 -0.23875661143E+03  0.23875661145E+03  0.25500000920E-02 0.  1.
    10030    2    1    2    0    0  0.00000000000E+00  0.00000000000E+00  0.12241133623E+04  0.17016265852E+04  0.11819811808E+04 0.  0.
        2    1    3    3  502    0  0.59018585802E+03 -0.27692676966E+02  0.59254722888E+03  0.83677861459E+03  0.25500000920E-02 0.  1.
       -2    1    3    3    0  502 -0.59018585802E+03  0.27692676966E+02  0.63156613343E+03  0.86484797061E+03  0.25500000920E-02 0. -1.
</event>
<event>
 5   0  0.6774451E-04  0.1782458E+04  0.7818609E-02  0.8715684E-01
       -2   -1    0    0    0  501  0.00000000000E+00  0.00000000000E+00  0.30374987683E+03  0.30374987684E+03  0.25500000920E-02 0. -1.
        2   -1    0    0  501    0  0.00000000000E+00  0.00000000000E+00 -0.26149442927E+04  0.26149442927E+04  0.25500000920E-02 0.  1.
    10030    2    1    2    0    0  0.00000000000E+00  0.00000000000E+00 -0.23111944159E+04  0.29186941696E+04  0.17824578613E+04 0.  0.
        4    1    3    3  502    0  0.44187325368E+03  0.66706681334E+03 -0.51289403586E+03  0.95041675632E+03  0.12699999809E+01 0. -1.
       -4    1    3    3    0  502 -0.44187325368E+03 -0.66706681334E+03 -0.17983003800E+04  0.19682774132E+04  0.12699999809E+01 0.  1.
</event>
<event>
 5   0  0.3377273E-04  0.1480855E+04  0.7818609E-02  0.8897285E-01
        1   -1    0    0  501    0  0.00000000000E+00  0.00000000000E+00  0.15832421144E+04  0.15832421144E+04  0.50400001928E-02 0. -1.
       -1   -1    0    0    0  501  0.00000000000E+00  0.00000000000E+00 -0.34627241751E+03  0.34627241754E+03  0.50400001928E-02 0.  1.
    10030    2    1    2    0    0  0.00000000000E+00  0.00000000000E+00  0.12369696969E+04  0.19295145320E+04  0.14808552590E+04 0.  0.
        2    1    3    3  502    0  0.60126825011E+03  0.30096443150E+03  0.21450020130E+03  0.70577151684E+03  0.25500000920E-02 0.  1.
       -2    1    3    3    0  502 -0.60126825011E+03 -0.30096443150E+03  0.10224694956E+04  0.12237430151E+04  0.25500000920E-02 0. -1.
</event>
<event>
 5   0  0.2467375E-04  0.1820432E+04  0.7818609E-02  0.8695509E-01
       -3   -1    0    0    0  501  0.00000000000E+00  0.00000000000E+00  0.78621545830E+03  0.78621546479E+03  0.10100000352E+00 0.  1.
        3   -1    0    0  501    0  0.00000000000E+00  0.00000000000E+00 -0.10537735207E+04  0.10537735256E+04  0.10100000352E+00 0. -1.
    10030    2    1    2    0    0  0.00000000000E+00  0.00000000000E+00 -0.26755806243E+03  0.18399889904E+04  0.18204318630E+04 0.  0.
        1    1    3    3  502    0  0.32888012061E+03  0.72254204926E+03 -0.58383094546E+03  0.98543783141E+03  0.50400001928E-02 0. -1.
       -1    1    3    3    0  502 -0.32888012061E+03 -0.72254204926E+03  0.31627288303E+03  0.85455115894E+03  0.50400001928E-02 0.  1.
</event>
<event>
 5   0  0.6929121E-04  0.1830995E+04  0.7818609E-02  0.8689988E-01
        2   -1    0    0  501    0  0.00000000000E+00  0.00000000000E+00  0.11737810958E+04  0.11737810958E+04  0.25500000920E-02 0.  1.
       -2   -1    0    0    0  501  0.00000000000E+00  0.00000000000E+00 -0.71404779924E+03  0.71404779924E+03  0.25500000920E-02 0. -1.
    10030    2    1    2    0    0  0.00000000000E+00  0.00000000000E+00  0.45973329652E+03  0.18878288950E+04  0.18309951482E+04 0.  0.
        3    1    3    3  502    0 -0.42337523893E+03 -0.66839692326E+03  0.70474388494E+03  0.10595588674E+04  0.10100000352E+00 0.  1.
       -3    1    3    3    0  502  0.42337523893E+03  0.66839692326E+03 -0.24501058841E+03  0.82827002759E+03  0.10100000352E+00 0. -1.
</event>
<event>
 5   0  0.6853162E-04  0.1463794E+04  0.7818609E-02  0.8908893E-01
        2   -1    0    0  501    0  0.00000000000E+00  0.00000000000E+00  0.20630510324E+04  0.20630510324E+04  0.25500000920E-02 0. -1.
       -2   -1    0    0    0  501  0.00000000000E+00  0.00000000000E+00 -0.25965087574E+03  0.25965087575E+03  0.25500000920E-02 0.  1.
    10030    2    1    2    0    0  0.00000000000E+00  0.00000000000E+00  0.18034001567E+04  0.23227019081E+04  0.14637937112E+04 0.  0.
        2    1    3    3  502    0 -0.44903917120E+03 -0.51223454005E+03  0.47695378774E+03  0.83156798696E+03  0.25500000920E-02 0.  1.
       -2    1    3    3    0  502  0.44903917120E+03  0.51223454005E+03  0.13264463689E+04  0.14911339212E+04  0.25500000920E-02 0. -1.
</event>
<event>
 5   0  0.3404261E-04  0.1799580E+04  0.7818609E-02  0.8706523E-01
        1   -1    0    0  501    0  0.00000000000E+00  0.00000000000E+00  0.91618812300E+03  0.91618812301E+03  0.50400001928E-02 0.  1.
       -1   -1    0    0    0  501  0.00000000000E+00  0.00000000000E+00 -0.88368538526E+03  0.88368538527E+03  0.50400001928E-02 0. -1.
    10030    2    1    2    0    0  0.00000000000E+00  0.00000000000E+00  0.32502737741E+02  0.17998735083E+04  0.17995800115E+04 0.  0.
        1    1    3    3  502    0  0.36166326652E+03  0.71977812204E+03 -0.38473943717E+03  0.89269552361E+03  0.50400001928E-02 0.  1.
       -1    1    3    3    0  502 -0.36166326652E+03 -0.71977812204E+03  0.41724217491E+03  0.90717798467E+03  0.50400001928E-02 0. -1.
</event>
<event>
 5   0  0.3308275E-04  0.1783491E+04  0.7818609E-02  0.8715128E-01
        1   -1    0    0  501    0  0.00000000000E+00  0.00000000000E+00  0.98597163810E+03  0.98597163811E+03  0.50400001928E-02 0. -1.
       -1   -1    0    0    0  501  0.00000000000E+00  0.00000000000E+00 -0.80652422019E+03  0.80652422020E+03  0.50400001928E-02 0.  1.
    10030    2    1    2    0    0  0.00000000000E+00  0.00000000000E+00  0.17944741791E+03  0.17924958583E+04  0.17834909661E+04 0.  0.
        3    1    3    3  502    0  0.73180342260E+03 -0.16645738678E+03  0.57378362299E+03  0.94470734472E+03  0.10100000352E+00 0. -1.
       -3    1    3    3    0  502 -0.73180342260E+03  0.16645738678E+03 -0.39433620508E+03  0.84778851360E+03  0.10100000352E+00 0.  1.
</event>
<event>
 5   0  0.3470962E-04  0.1821126E+04  0.7818609E-02  0.8695145E-01
       -1   -1    0    0    0  501  0.00000000000E+00  0.00000000000E+00  0.81130137458E+03  0.81130137460E+03  0.50400001928E-02 0. -1.
        1   -1    0    0  501    0  0.00000000000E+00  0.00000000000E+00 -0.10219688823E+04  0.10219688823E+04  0.50400001928E-02 0.  1.
    10030    2    1    2    0    0  0.00000000000E+00  0.00000000000E+00 -0.21066750774E+03  0.18332702569E+04  0.18211257607E+04 0.  0.
        4    1    3    3  502    0 -0.40749719723E+03  0.64046647780E+03 -0.61155085898E+03  0.97480630945E+03  0.12699999809E+01 0.  1.
       -4    1    3    3    0  502  0.40749719723E+03 -0.64046647780E+03  0.40088335123E+03  0.85846394748E+03  0.12699999809E+01 0. -1.
</event>
<event>
 5   0  0.3404261E-04  0.1788341E+04  0.7818609E-02  0.8712524E-01
        1   -1    0    0  501    0  0.00000000000E+00  0.00000000000E+00  0.65070692930E+03  0.65070692932E+03  0.50400001928E-02 0.  1.
       -1   -1    0    0    0  501  0.00000000000E+00  0.00000000000E+00 -0.12287267171E+04  0.12287267171E+04  0.50400001928E-02 0. -1.
    10030    2    1    2    0    0  0.00000000000E+00  0.00000000000E+00 -0.57801978778E+03  0.18794336464E+04  0.17883411185E+04 0.  0.
        1    1    3    3  502    0 -0.64564893706E+02 -0.79037789444E+03  0.14516207274E+03  0.80618724184E+03  0.50400001928E-02 0.  1.
       -1    1    3    3    0  502  0.64564893706E+02  0.79037789444E+03 -0.72318186052E+03  0.10732464046E+04  0.50400001928E-02 0. -1.
</event>
<event>
 5   0  0.6929121E-04  0.1898090E+04  0.7818609E-02  0.8655808E-01
       -2   -1    0    0    0  501  0.00000000000E+00  0.00000000000E+00  0.35644388280E+03  0.35644388281E+03  0.25500000920E-02 0.  1.
        2   -1    0    0  501    0  0.00000000000E+00  0.00000000000E+00 -0.25268661059E+04  0.25268661059E+04  0.25500000920E-02 0. -1.
    10030    2    1    2    0    0  0.00000000000E+00  0.00000000000E+00 -0.21704222231E+04  0.28833099887E+04  0.18980895301E+04 0.  0.
        3    1    3    3  502    0 -0.36894436557E+03 -0.85830328844E+03 -0.13388597433E+04  0.16325899370E+04  0.10100000352E+00 0. -1.
       -3    1    3    3    0  502  0.36894436557E+03  0.85830328844E+03 -0.83156247977E+03  0.12507200517E+04  0.10100000352E+00 0.  1.
</event>
<event>
 5   0  0.3377273E-04  0.1775300E+04  0.7818609E-02  0.8719546E-01
        1   -1    0    0  501    0  0.00000000000E+00  0.00000000000E+00  0.11635840230E+04  0.11635840230E+04  0.50400001928E-02 0. -1.
       -1   -1    0    0    0  501  0.00000000000E+00  0.00000000000E+00 -0.67715122840E+03  0.67715122842E+03  0.50400001928E-02 0.  1.
    10030    2    1    2    0    0  0.00000000000E+00  0.00000000000E+00  0.48643279457E+03  0.18407352514E+04  0.17752998063E+04 0.  0.
        2    1    3    3  502    0  0.19839750734E+03  0.74456321339E+03 -0.21369188445E+03  0.79962501908E+03  0.25500000920E-02 0.  1.
       -2    1    3    3    0  502 -0.19839750734E+03 -0.74456321339E+03  0.70012467902E+03  0.10411102323E+04  0.25500000920E-02 0. -1.
</event>
<event>
 5   0  0.6771967E-04  0.1792007E+04  0.7818609E-02  0.8710562E-01
       -2   -1    0    0    0  501  0.00000000000E+00  0.00000000000E+00  0.55843629061E+03  0.55843629061E+03  0.25500000920E-02 0. -1.
        2   -1    0    0  501    0  0.00000000000E+00  0.00000000000E+00 -0.14376257873E+04  0.14376257873E+04  0.25500000920E-02 0.  1.
    10030    2    1    2    0    0  0.00000000000E+00  0.00000000000E+00 -0.87918949667E+03  0.19960620779E+04  0.17920071562E+04 0.  0.
        1    1    3    3  502    0 -0.63399385009E+03  0.33525852541E+03  0.15866405240E+03  0.73452077054E+03  0.50400001928E-02 0. -1.
       -1    1    3    3    0  502  0.63399385009E+03 -0.33525852541E+03 -0.10378535491E+04  0.12615413074E+04  0.50400001928E-02 0.  1.
</event>
<event>
 5   0  0.3377273E-04  0.1792869E+04  0.7818609E-02  0.8710101E-01
       -1   -1    0    0    0  501  0.00000000000E+00  0.00000000000E+00  0.43195757563E+03  0.43195757566E+03  0.50400001928E-02 0.  1.
        1   -1    0    0  501    0  0.00000000000E+00  0.00000000000E+00 -0.18603552164E+04  0.18603552164E+04  0.50400001928E-02 0. -1.
    10030    2    1    2    0    0  0.00000000000E+00  0.00000000000E+00 -0.14283976407E+04  0.22923127920E+04  0.17928686835E+04 0.  0.
        2    1    3    3  502    0  0.13325292688E+03 -0.65588285599E+03 -0.14766997623E+04  0.16212898727E+04  0.25500000920E-02 0. -1.
       -2    1    3    3    0  502 -0.13325292688E+03  0.65588285599E+03  0.48302121579E+02  0.67102291933E+03  0.25500000920E-02 0.  1.
</event>
<event>
 5   0  0.3308275E-04  0.1808396E+04  0.7818609E-02  0.8701847E-01
        1   -1    0    0  501    0  0.00000000000E+00  0.00000000000E+00  0.16946430594E+04  0.16946430594E+04  0.50400001928E-02 0.  1.
       -1   -1    0    0    0  501  0.00000000000E+00  0.00000000000E+00 -0.48244620982E+03  0.48244620984E+03  0.50400001928E-02 0. -1.
    10030    2    1    2    0    0  0.00000000000E+00  0.00000000000E+00  0.12121968495E+04  0.21770892692E+04  0.18083961082E+04 0.  0.
        3    1    3    3  502    0 -0.84171260058E+03  0.65180553192E+02  0.99591255709E+03  0.13055919876E+04  0.10100000352E+00 0.  1.
       -3    1    3    3    0  502  0.84171260058E+03 -0.65180553192E+02  0.21628429245E+03  0.87149728161E+03  0.10100000352E+00 0. -1.
</event>
<event>
 5   0  0.6771967E-04  0.1754340E+04  0.7818609E-02  0.8730965E-01
       -2   -1    0    0    0  501  0.00000000000E+00  0.00000000000E+00  0.10761222800E+04  0.10761222800E+04  0.25500000920E-02 0.  1.
        2   -1    0    0  501    0  0.00000000000E+00  0.00000000000E+00 -0.71500012344E+03  0.71500012344E+03  0.25500000920E-02 0. -1.
    10030    2    1    2    0    0  0.00000000000E+00  0.00000000000E+00  0.36112215661E+03  0.17911224035E+04  0.17543404038E+04 0.  0.
        1    1    3    3  502    0  0.14076882330E+03  0.26214264695E+02  0.10641096386E+04  0.10737003177E+04  0.50400001928E-02 0.  1.
       -1    1    3    3    0  502 -0.14076882330E+03 -0.26214264695E+02 -0.70298748199E+03  0.71742208577E+03  0.50400001928E-02 0. -1.
</event>
<event>
 5   0  0.3470962E-04  0.1819245E+04  0.7818609E-02  0.8696132E-01
       -1   -1    0    0    0  501  0.00000000000E+00  0.00000000000E+00  0.14309162228E+04  0.14309162228E+04  0.50400001928E-02 0. -1.
        1   -1    0    0  501    0  0.00000000000E+00  0.00000000000E+00 -0.57824008849E+03  0.57824008851E+03  0.50400001928E-02 0.  1.
    10030    2    1    2    0    0  0.00000000000E+00  0.00000000000E+00  0.85267613426E+03  0.20091563113E+04  0.18192450338E+04 0.  0.
        4    1    3    3  502    0  0.36647060413E+03 -0.77763984517E+03  0.98003266946E+02  0.86523446864E+03  0.12699999809E+01 0.  1.
       -4    1    3    3    0  502 -0.36647060413E+03  0.77763984517E+03  0.75467286732E+03  0.11439218426E+04  0.12699999809E+01 0. -1.
</event>
<event>
 5   0  0.6853162E-04  0.1822415E+04  0.7818609E-02  0.8694469E-01
        2   -1    0    0  501    0  0.00000000000E+00  0.00000000000E+00  0.12208304625E+04  0.12208304625E+04  0.25500000920E-02 0. -1.
       -2   -1    0    0    0  501  0.00000000000E+00  0.00000000000E+00 -0.68011014020E+03  0.68011014020E+03  0.25500000920E-02 0.  1.
    10030    2    1    2    0    0  0.00000000000E+00  0.00000000000E+00  0.54072032227E+03  0.19009406027E+04  0.18224150757E+04 0.  0.
        2    1    3    3  502    0 -0.79280010942E+02 -0.90768530843E+03  0.28184540241E+03  0.95373726473E+03  0.25500000920E-02 0.  1.
       -2    1    3    3    0  502  0.79280010942E+02  0.90768530843E+03  0.25887491986E+03  0.94720333794E+03  0.25500000920E-02 0. -1.
</event>
<event>
 5   0  0.3413839E-04  0.1817236E+04  0.7818609E-02  0.8697187E-01
        1   -1    0    0  501    0  0.00000000000E+00  0.00000000000E+00  0.15595825356E+04  0.15595825356E+04  0.50400001928E-02 0.  1.
       -1   -1    0    0    0  501  0.00000000000E+00  0.00000000000E+00 -0.52936384220E+03  0.52936384222E+03  0.50400001928E-02 0. -1.
    10030    2    1    2    0    0  0.00000000000E+00  0.00000000000E+00  0.10302186934E+04  0.20889463778E+04  0.18172359267E+04 0.  0.
        5    1    3    3  502    0 -0.39120280313E+03 -0.41231706876E+03 -0.29976837340E+03  0.64259486930E+03  0.46999998093E+01 0. -1.
       -5    1    3    3    0  502  0.39120280313E+03  0.41231706876E+03  0.13299870668E+04  0.14463515085E+04  0.46999998093E+01 0.  1.
</event>
<event>
 5   0  0.6929121E-04  0.1312605E+04  0.7818609E-02  0.9019628E-01
       -2   -1    0    0    0  501  0.00000000000E+00  0.00000000000E+00  0.30239514210E+03  0.30239514211E+03  0.25500000920E-02 0. -1.
        2   -1    0    0  501    0  0.00000000000E+00  0.00000000000E+00 -0.14244050214E+04  0.14244050214E+04  0.25500000920E-02 0.  1.
    10030    2    1    2    0    0  0.00000000000E+00  0.00000000000E+00 -0.11220098793E+04  0.17268001635E+04  0.13126052855E+04 0.  0.
        3    1    3    3  502    0 -0.22947842621E+03  0.40379005781E+03 -0.11710386210E+04  0.12597770521E+04  0.10100000352E+00 0.  1.
       -3    1    3    3    0  502  0.22947842621E+03 -0.40379005781E+03  0.49028741714E+02  0.46702311142E+03  0.10100000352E+00 0. -1.
</event>
<event>
 5   0  0.3377273E-04  0.1799685E+04  0.7818609E-02  0.8706467E-01
       -1   -1    0    0    0  501  0.00000000000E+00  0.00000000000E+00  0.83493734529E+03  0.83493734530E+03  0.50400001928E-02 0. -1.
        1   -1    0    0  501    0  0.00000000000E+00  0.00000000000E+00 -0.96979353949E+03  0.96979353950E+03  0.50400001928E-02 0.  1.
    10030    2    1    2    0    0  0.00000000000E+00  0.00000000000E+00 -0.13485619420E+03  0.18047308848E+04  0.17996853540E+04 0.  0.
        2    1    3    3  502    0 -0.29350621885E+03  0.77816669913E+03  0.27708642231E+03  0.87662203804E+03  0.25500000920E-02 0. -1.
       -2    1    3    3    0  502  0.29350621885E+03 -0.77816669913E+03 -0.41194261651E+03  0.92810884677E+03  0.25500000920E-02 0.  1.
</event>
<event>
 5   0  0.6853162E-04  0.1627852E+04  0.7818609E-02  0.8803618E-01
       -2   -1    0    0    0  501  0.00000000000E+00  0.00000000000E+00  0.31681365297E+03  0.31681365298E+03  0.25500000920E-02 0.  1.
        2   -1    0    0  501    0  0.00000000000E+00  0.00000000000E+00 -0.20910576702E+04  0.20910576702E+04  0.25500000920E-02 0. -1.
    10030    2    1    2    0    0  0.00000000000E+00  0.00000000000E+00 -0.17742440172E+04  0.24078713232E+04  0.16278521052E+04 0.  0.
        2    1    3    3  502    0 -0.48130348155E+02  0.26920279522E+03  0.24682324926E+03  0.36838619918E+03  0.25500000920E-02 0.  1.
       -2    1    3    3    0  502  0.48130348155E+02 -0.26920279522E+03 -0.20210672665E+04  0.20394851240E+04  0.25500000920E-02 0. -1.
</event>
<event>
 5   0  0.6771967E-04  0.1690943E+04  0.7818609E-02  0.8766547E-01
        2   -1    0    0  501    0  0.00000000000E+00  0.00000000000E+00  0.11110126871E+04  0.11110126871E+04  0.25500000920E-02 0. -1.
       -2   -1    0    0    0  501  0.00000000000E+00  0.00000000000E+00 -0.64339683391E+03  0.64339683391E+03  0.25500000920E-02 0.  1.
    10030    2    1    2    0    0  0.00000000000E+00  0.00000000000E+00  0.46761585316E+03  0.17544095210E+04  0.16909429858E+04 0.  0.
        1    1    3    3  502    0  0.28359948615E+03  0.33839379473E+03  0.98189960885E+03  0.10765992155E+04  0.50400001928E-02 0. -1.
       -1    1    3    3    0  502 -0.28359948615E+03 -0.33839379473E+03 -0.51428375570E+03  0.67781030551E+03  0.50400001928E-02 0.  1.
</event>
<event>
 5   0  0.3308275E-04  0.1843824E+04  0.7818609E-02  0.8683335E-01
        1   -1    0    0  501    0  0.00000000000E+00  0.00000000000E+00  0.59992990206E+03  0.59992990209E+03  0.50400001928E-02 0. -1.
       -1   -1    0    0    0  501  0.00000000000E+00  0.00000000000E+00 -0.14167019992E+04  0.14167019992E+04  0.50400001928E-02 0.  1.
    10030    2    1    2    0    0  0.00000000000E+00  0.00000000000E+00 -0.81677209717E+03  0.20166319013E+04  0.18438241692E+04 0.  0.
        3    1    3    3  502    0  0.33905100889E+02 -0.76843169374E+03  0.14746287709E+03  0.78318716418E+03  0.10100000352E+00 0. -1.
       -3    1    3    3    0  502 -0.33905100889E+02  0.76843169374E+03 -0.96423497427E+03  0.12334447372E+04  0.10100000352E+00 0.  1.
</event>
<event>
 5   0  0.3470962E-04  0.1829572E+04  0.7818609E-02  0.8690730E-01
       -1   -1    0    0    0  501  0.00000000000E+00  0.00000000000E+00  0.16181453851E+04  0.16181453851E+04  0.50400001928E-02 0.  1.
        1   -1    0    0  501    0  0.00000000000E+00  0.00000000000E+00 -0.51715566729E+03  0.51715566732E+03  0.50400001928E-02 0. -1.
    10030    2    1    2    0    0  0.00000000000E+00  0.00000000000E+00  0.11009897178E+04  0.21353010524E+04  0.18295715962E+04 0.  0.
        4    1    3    3  502    0  0.86832175155E+02  0.87905296953E+03  0.27293619868E+03  0.92453757702E+03  0.12699999809E+01 0. -1.
       -4    1    3    3    0  502 -0.86832175155E+02 -0.87905296953E+03  0.82805351909E+03  0.12107634754E+04  0.12699999809E+01 0.  1.
</event>
<event>
 5   0  0.6853162E-04  0.1800481E+04  0.7818609E-02  0.8706044E-01
       -2   -1    0    0    0  501  0.00000000000E+00  0.00000000000E+00  0.46425335634E+03  0.46425335635E+03  0.25500000920E-02 0. -1.
        2   -1    0    0  501    0  0.00000000000E+00  0.00000000000E+00 -0.17456689182E+04  0.17456689182E+04  0.25500000920E-02 0.  1.
    10030    2    1    2    0    0  0.00000000000E+00  0.00000000000E+00 -0.12814155618E+04  0.22099222745E+04  0.18004806629E+04 0.  0.
        2    1    3    3  502    0  0.29205390927E+02 -0.14734692030E+03 -0.17301781671E+04  0.17366866613E+04  0.25500000920E-02 0.  1.
       -2    1    3    3    0  502 -0.29205390927E+02  0.14734692030E+03  0.44876260521E+03  0.47323561323E+03  0.25500000920E-02 0. -1.
</event>
<event>
 5   0  0.6774451E-04  0.1800496E+04  0.7818609E-02  0.8706036E-01
        2   -1    0    0  501    0  0.00000000000E+00  0.00000000000E+00  0.16013420800E+04  0.16013420800E+04  0.25500000920E-02 0.  1.
       -2   -1    0    0    0  501  0.00000000000E+00  0.00000000000E+00 -0.50610424612E+03  0.50610424612E+03  0.25500000920E-02 0. -1.
    10030    2    1    2    0    0  0.00000000000E+00  0.00000000000E+00  0.10952378339E+04  0.21074463261E+04  0.18004955164E+04 0.  0.
        4    1    3    3  502    0  0.44858287355E+03  0.71706695343E+03  0.18679007197E+03  0.86620075850E+03  0.12699999809E+01 0.  1.
       -4    1    3    3    0  502 -0.44858287355E+03 -0.71706695343E+03  0.90844776191E+03  0.12412455676E+04  0.12699999809E+01 0. -1.
</event>
<event>
 5   0  0.6929121E-04  0.1767793E+04  0.7818609E-02  0.8723617E-01
       -2   -1    0    0    0  501  0.00000000000E+00  0.00000000000E+00  0.49938634226E+03  0.49938634227E+03  0.25500000920E-02 0.  1.
        2   -1    0    0  501    0  0.00000000000E+00  0.00000000000E+00 -0.15644654330E+04  0.15644654330E+04  0.25500000920E-02 0. -1.
    10030    2    1    2    0    0  0.00000000000E+00  0.00000000000E+00 -0.10650790907E+04  0.20638517753E+04  0.17677926012E+04 0.  0.
        3    1    3    3  502    0 -0.45408185356E+03  0.21799804043E+03 -0.13805140318E+04  0.14695347827E+04  0.10100000352E+00 0. -1.
       -3    1    3    3    0  502  0.45408185356E+03 -0.21799804043E+03  0.31543494109E+03  0.59431699255E+03  0.10100000352E+00 0.  1.
</event>
<event>
 5   0  0.6547153E-04  0.1822202E+04  0.7818609E-02  0.8694581E-01
        2   -1    0    0  501    0  0.00000000000E+00  0.00000000000E+00  0.16726272973E+04  0.16726272973E+04  0.25500000920E-02 0.  1.
       -2   -1    0    0    0  501  0.00000000000E+00  0.00000000000E+00 -0.49628811145E+03  0.49628811146E+03  0.25500000920E-02 0. -1.
    10030    2    1    2    0    0  0.00000000000E+00  0.00000000000E+00  0.11763391858E+04  0.21689154088E+04  0.18222020114E+04 0.  0.
        5    1    3    3  502    0 -0.23506618226E+03  0.32182435784E+03  0.15633616574E+04  0.16133656713E+04  0.46999998093E+01 0.  1.
       -5    1    3    3    0  502  0.23506618226E+03 -0.32182435784E+03 -0.38702247156E+03  0.55554973750E+03  0.46999998093E+01 0. -1.
</event>
<event>
 5   0  0.3470962E-04  0.1837937E+04  0.7818609E-02  0.8686381E-01
       -1   -1    0    0    0  501  0.00000000000E+00  0.00000000000E+00  0.48844088963E+03  0.48844088965E+03  0.50400001928E-02 0. -1.
        1   -1    0    0  501    0  0.00000000000E+00  0.00000000000E+00 -0.17289767650E+04  0.17289767650E+04  0.50400001928E-02 0.  1.
    10030    2    1    2    0    0  0.00000000000E+00  0.00000000000E+00 -0.12405358754E+04  0.22174176547E+04  0.18379368316E+04 0.  0.
        4    1    3    3  502    0 -0.85466011484E+02  0.87701966005E+03 -0.30558148292E+03  0.93265726762E+03  0.12699999809E+01 0. -1.
       -4    1    3    3    0  502  0.85466011484E+02 -0.87701966005E+03 -0.93495439245E+03  0.12847603870E+04  0.12699999809E+01 0.  1.
</event>
<event>
 5   0  0.3413839E-04  0.1790900E+04  0.7818609E-02  0.8711154E-01
       -1   -1    0    0    0  501  0.00000000000E+00  0.00000000000E+00  0.98700525594E+03  0.98700525596E+03  0.50400001928E-02 0.  1.
        1   -1    0    0  501    0  0.00000000000E+00  0.00000000000E+00 -0.81238762576E+03  0.81238762578E+03  0.50400001928E-02 0. -1.
    10030    2    1    2    0    0  0.00000000000E+00  0.00000000000E+00  0.17461763018E+03  0.17993928817E+04  0.17909001720E+04 0.  0.
        5    1    3    3  502    0 -0.79290775851E+03  0.40525648287E+03 -0.73357410253E+01  0.89051189409E+03  0.46999998093E+01 0. -1.
       -5    1    3    3    0  502  0.79290775851E+03 -0.40525648287E+03  0.18195337121E+03  0.90888098765E+03  0.46999998093E+01 0.  1.
</event>
<event>
 5   0  0.3404261E-04  0.1777764E+04  0.7818609E-02  0.8718214E-01
       -1   -1    0    0    0  501  0.00000000000E+00  0.00000000000E+00  0.74488336491E+03  0.74488336493E+03  0.50400001928E-02 0. -1.
        1   -1    0    0  501    0  0.00000000000E+00  0.00000000000E+00 -0.10607184810E+04  0.10607184810E+04  0.50400001928E-02 0.  1.
    10030    2    1    2    0    0  0.00000000000E+00  0.00000000000E+00 -0.31583511609E+03  0.18056018459E+04  0.17777643841E+04 0.  0.
        1    1    3    3  502    0 -0.52711955584E+03 -0.20935809865E+03 -0.85305095058E+03  0.10243933639E+04  0.50400001928E-02 0.  1.
       -1    1    3    3    0  502  0.52711955584E+03  0.20935809865E+03  0.53721583449E+03  0.78120848207E+03  0.50400001928E-02 0. -1.
</event>
<event>
 5   0  0.6774451E-04  0.1812081E+04  0.7818609E-02  0.8699901E-01
        2   -1    0    0  501    0  0.00000000000E+00  0.00000000000E+00  0.14761258573E+04  0.14761258573E+04  0.25500000920E-02 0. -1.
       -2   -1    0    0    0  501  0.00000000000E+00  0.00000000000E+00 -0.55612406061E+03  0.55612406061E+03  0.25500000920E-02 0.  1.
    10030    2    1    2    0    0  0.00000000000E+00  0.00000000000E+00  0.92000179673E+03  0.20322499180E+04  0.18120806889E+04 0.  0.
        4    1    3    3  502    0  0.38512714846E+03 -0.69197568127E+03 -0.33655962962E+02  0.79264594915E+03  0.12699999809E+01 0. -1.
       -4    1    3    3    0  502 -0.38512714846E+03  0.69197568127E+03  0.95365775969E+03  0.12396039688E+04  0.12699999809E+01 0.  1.
</event>
<event>
 5   0  0.6774451E-04  0.1266318E+04  0.7818609E-02  0.9056710E-01
       -2   -1    0    0    0  501  0.00000000000E+00  0.00000000000E+00  0.57671403399E+03  0.57671403399E+03  0.25500000920E-02 0. -1.
        2   -1    0    0  501    0  0.00000000000E+00  0.00000000000E+00 -0.69512825686E+03  0.69512825687E+03  0.25500000920E-02 0.  1.
    10030    2    1    2    0    0  0.00000000000E+00  0.00000000000E+00 -0.11841422288E+03  0.12718422909E+04  0.12663178450E+04 0.  0.
        4    1    3    3  502    0 -0.10741373385E+03  0.19037454739E+03 -0.65602877336E+03  0.69148791955E+03  0.12699999809E+01 0.  1.
       -4    1    3    3    0  502  0.10741373385E+03 -0.19037454739E+03  0.53761455048E+03  0.58035437131E+03  0.12699999809E+01 0. -1.
</event>
<event>
 5   0  0.2467375E-04  0.1835358E+04  0.7818609E-02  0.8687719E-01
       -3   -1    0    0    0  501  0.00000000000E+00  0.00000000000E+00  0.15318942877E+04  0.15318942910E+04  0.10100000352E+00 0.  1.
        3   -1    0    0  501    0  0.00000000000E+00  0.00000000000E+00 -0.54973396042E+03  0.54973396970E+03  0.10100000352E+00 0. -1.
    10030    2    1    2    0    0  0.00000000000E+00  0.00000000000E+00  0.98216032725E+03  0.20816282607E+04  0.18353575421E+04 0.  0.
        2    1    3    3  502    0  0.12608828182E+03 -0.67065281632E+03  0.11869730811E+04  0.13691524934E+04  0.25500000920E-02 0.  1.
       -2    1    3    3    0  502 -0.12608828182E+03  0.67065281632E+03 -0.20481275386E+03  0.71247576731E+03  0.25500000920E-02 0. -1.
</event>
<event>
 5   0  0.6853162E-04  0.1797763E+04  0.7818609E-02  0.8707490E-01
       -2   -1    0    0    0  501  0.00000000000E+00  0.00000000000E+00  0.12252947792E+04  0.12252947792E+04  0.25500000920E-02 0. -1.
        2   -1    0    0  501    0  0.00000000000E+00  0.00000000000E+00 -0.65942307511E+03  0.65942307511E+03  0.25500000920E-02 0.  1.
    10030    2    1    2    0    0  0.00000000000E+00  0.00000000000E+00  0.56587170411E+03  0.18847178543E+04  0.17977626665E+04 0.  0.
        2    1    3    3  502    0  0.54322159590E+03 -0.71316964265E+03  0.35157805670E+03  0.96296820893E+03  0.25500000920E-02 0.  1.
       -2    1    3    3    0  502 -0.54322159590E+03  0.71316964265E+03  0.21429364741E+03  0.92174964540E+03  0.25500000920E-02 0. -1.
</event>
<event>
 5   0  0.3377273E-04  0.1859807E+04  0.7818609E-02  0.8675126E-01
       -1   -1    0    0    0  501  0.00000000000E+00  0.00000000000E+00  0.42128336938E+03  0.42128336941E+03  0.50400001928E-02 0.  1.
        1   -1    0    0  501    0  0.00000000000E+00  0.00000000000E+00 -0.20525857082E+04  0.20525857082E+04  0.50400001928E-02 0. -1.
    10030    2    1    2    0    0  0.00000000000E+00  0.00000000000E+00 -0.16313023388E+04  0.24738690776E+04  0.18598066815E+04 0.  0.
        2    1    3    3  502    0 -0.65491585216E+03 -0.54241427122E+03 -0.31512292918E+03  0.90687952647E+03  0.25500000920E-02 0.  1.
       -2    1    3    3    0  502  0.65491585216E+03  0.54241427122E+03 -0.13161794097E+04  0.15669895512E+04  0.25500000920E-02 0. -1.
</event>
<event>
 5   0  0.3308275E-04  0.1757953E+04  0.7818609E-02  0.8728985E-01
        1   -1    0    0  501    0  0.00000000000E+00  0.00000000000E+00  0.42707130399E+03  0.42707130402E+03  0.50400001928E-02 0.  1.
       -1   -1    0    0    0  501  0.00000000000E+00  0.00000000000E+00 -0.18090651566E+04  0.18090651566E+04  0.50400001928E-02 0. -1.
    10030    2    1    2    0    0  0.00000000000E+00  0.00000000000E+00 -0.13819938526E+04  0.22361364606E+04  0.17579531455E+04 0.  0.
        3    1    3    3  502    0 -0.74988089404E+03 -0.35314764949E+02 -0.10943403629E+03  0.75864636450E+03  0.10100000352E+00 0.  1.
       -3    1    3    3    0  502  0.74988089404E+03  0.35314764949E+02 -0.12725598163E+04  0.14774900961E+04  0.10100000352E+00 0. -1.
</event>
<event>
 5   0  0.6547153E-04  0.1718759E+04  0.7818609E-02  0.8750737E-01
        2   -1    0    0  501    0  0.00000000000E+00  0.00000000000E+00  0.25890196544E+04  0.25890196544E+04  0.25500000920E-02 0.  1.
       -2   -1    0    0    0  501  0.00000000000E+00  0.00000000000E+00 -0.28525596967E+03  0.28525596968E+03  0.25500000920E-02 0. -1.
    10030    2    1    2    0    0  0.00000000000E+00  0.00000000000E+00  0.23037636847E+04  0.28742756241E+04  0.17187592176E+04 0.  0.
        5    1    3    3  502    0  0.18248795847E+03 -0.76407730005E+03  0.17345405112E+04  0.19041451758E+04  0.46999998093E+01 0.  1.
       -5    1    3    3    0  502 -0.18248795847E+03  0.76407730005E+03  0.56922317351E+03  0.97013044829E+03  0.46999998093E+01 0. -1.
</event>
<event>
 5   0  0.6771967E-04  0.1807782E+04  0.7818609E-02  0.8702172E-01
        2   -1    0    0  501    0  0.00000000000E+00  0.00000000000E+00  0.16572430804E+04  0.16572430804E+04  0.25500000920E-02 0. -1.
       -2   -1    0    0    0  501  0.00000000000E+00  0.00000000000E+00 -0.49299909492E+03  0.49299909492E+03  0.25500000920E-02 0.  1.
    10030    2    1    2    0    0  0.00000000000E+00  0.00000000000E+00  0.11642439855E+04  0.21502421753E+04  0.18077824412E+04 0.  0.
        1    1    3    3  502    0  0.34996256209E+03  0.53105470572E+03 -0.18183182995E+03  0.66147993903E+03  0.50400001928E-02 0.  1.
       -1    1    3    3    0  502 -0.34996256209E+03 -0.53105470572E+03  0.13460758154E+04  0.14887622363E+04  0.50400001928E-02 0. -1.
</event>
<event>
 5   0  0.3470962E-04  0.1801870E+04  0.7818609E-02  0.8705305E-01
        1   -1    0    0  501    0  0.00000000000E+00  0.00000000000E+00  0.87472424788E+03  0.87472424790E+03  0.50400001928E-02 0. -1.
       -1   -1    0    0    0  501  0.00000000000E+00  0.00000000000E+00 -0.92793147656E+03  0.92793147657E+03  0.50400001928E-02 0.  1.
    10030    2    1    2    0    0  0.00000000000E+00  0.00000000000E+00 -0.53207228673E+02  0.18026557245E+04  0.18018703205E+04 0.  0.
        4    1    3    3  502    0  0.45026891939E+02 -0.63701998568E+03 -0.66238094590E+03  0.92009348087E+03  0.12699999809E+01 0.  1.
       -4    1    3    3    0  502 -0.45026891939E+02  0.63701998568E+03  0.60917371723E+03  0.88256224359E+03  0.12699999809E+01 0. -1.
</event>
<event>
 5   0  0.3470962E-04  0.1792581E+04  0.7818609E-02  0.8710255E-01
       -1   -1    0    0    0  501  0.00000000000E+00  0.00000000000E+00  0.14147774075E+04  0.14147774075E+04  0.50400001928E-02 0.  1.
        1   -1    0    0  501    0  0.00000000000E+00  0.00000000000E+00 -0.56781853784E+03  0.56781853786E+03  0.50400001928E-02 0. -1.
    10030    2    1    2    0    0  0.00000000000E+00  0.00000000000E+00  0.84695886961E+03  0.19825959453E+04  0.17925811992E+04 0.  0.
        4    1    3    3  502    0 -0.53482963659E+03  0.14255382273E+03  0.12031674406E+04  0.13243782826E+04  0.12699999809E+01 0.  1.
       -4    1    3    3    0  502  0.53482963659E+03 -0.14255382273E+03 -0.35620857097E+03  0.65821766269E+03  0.12699999809E+01 0. -1.
</event>
<event>
 5   0  0.3413839E-04  0.1815352E+04  0.7818609E-02  0.8698178E-01
       -1   -1    0    0    0  501  0.00000000000E+00  0.00000000000E+00  0.55600344474E+03  0.55600344476E+03  0.50400001928E-02 0. -1.
        1   -1    0    0  501    0  0.00000000000E+00  0.00000000000E+00 -0.14817816621E+04  0.14817816621E+04  0.50400001928E-02 0.  1.
    10030    2    1    2    0    0  0.00000000000E+00  0.00000000000E+00 -0.92577821738E+03  0.20377851069E+04  0.18153519863E+04 0.  0.
        5    1    3    3  502    0 -0.59123490262E+03 -0.10757280558E+03  0.30069711181E+03  0.67199067079E+03  0.46999998093E+01 0. -1.
       -5    1    3    3    0  502  0.59123490262E+03  0.10757280558E+03 -0.12264753292E+04  0.13657944361E+04  0.46999998093E+01 0.  1.
</event>
<event>
 5   0  0.6774451E-04  0.1825745E+04  0.7818609E-02  0.8692727E-01
       -2   -1    0    0    0  501  0.00000000000E+00  0.00000000000E+00  0.68900579675E+03  0.68900579675E+03  0.25500000920E-02 0. -1.
        2   -1    0    0  501    0  0.00000000000E+00  0.00000000000E+00 -0.12094767962E+04  0.12094767962E+04  0.25500000920E-02 0.  1.
    10030    2    1    2    0    0  0.00000000000E+00  0.00000000000E+00 -0.52047099946E+03  0.18984825930E+04  0.18257453531E+04 0.  0.
        4    1    3    3  502    0 -0.37508507228E+03 -0.65495727578E+03  0.27371696364E+03  0.80285766710E+03  0.12699999809E+01 0. -1.
       -4    1    3    3    0  502  0.37508507228E+03  0.65495727578E+03 -0.79418796310E+03  0.10956249259E+04  0.12699999809E+01 0.  1.
</event>
<event>
 5   0  0.3413839E-04  0.1511930E+04  0.7818609E-02  0.8876558E-01
       -1   -1    0    0    0  501  0.00000000000E+00  0.00000000000E+00  0.47353037023E+03  0.47353037026E+03  0.50400001928E-02 0. -1.
        1   -1    0    0  501    0  0.00000000000E+00  0.00000000000E+00 -0.12068556325E+04  0.12068556326E+04  0.50400001928E-02 0.  1.
    10030    2    1    2    0    0  0.00000000000E+00  0.00000000000E+00 -0.73332526232E+03  0.16803860028E+04  0.15119296208E+04 0.  0.
        5    1    3    3  502    0 -0.63410531893E+03  0.41050457355E+03 -0.33412361580E+03  0.82599288196E+03  0.46999998093E+01 0.  1.
       -5    1    3    3    0  502  0.63410531893E+03 -0.41050457355E+03 -0.39920164651E+03  0.85439312086E+03  0.46999998093E+01 0. -1.
</event>
<event>
 5   0  0.6929121E-04  0.1678104E+04  0.7818609E-02  0.8773952E-01
       -2   -1    0    0    0  501  0.00000000000E+00  0.00000000000E+00  0.77828266325E+03  0.77828266326E+03  0.25500000920E-02 0. -1.
        2   -1    0    0  501    0  0.00000000000E+00  0.00000000000E+00 -0.90456585595E+03  0.90456585595E+03  0.25500000920E-02 0.  1.
    10030    2    1    2    0    0  0.00000000000E+00  0.00000000000E+00 -0.12628319270E+03  0.16828485192E+04  0.16781036004E+04 0.  0.
        3    1    3    3  502    0  0.29513219739E+03  0.78495985112E+03 -0.90475435040E+02  0.84347542724E+03  0.10100000352E+00 0.  1.
       -3    1    3    3    0  502 -0.29513219739E+03 -0.78495985112E+03 -0.35807757658E+02  0.83937309197E+03  0.10100000352E+00 0. -1.
</event>
<event>
 5   0  0.6929121E-04  0.1824588E+04  0.7818609E-02  0.8693332E-01
        2   -1    0    0  501    0  0.00000000000E+00  0.00000000000E+00  0.75349553695E+03  0.75349553695E+03  0.25500000920E-02 0. -1.
       -2   -1    0    0    0  501  0.00000000000E+00  0.00000000000E+00 -0.11045585619E+04  0.11045585619E+04  0.25500000920E-02 0.  1.
    10030    2    1    2    0    0  0.00000000000E+00  0.00000000000E+00 -0.35106302496E+03  0.18580540989E+04  0.18245875662E+04 0.  0.
        3    1    3    3  502    0 -0.81892733530E+03 -0.36632235343E+03 -0.34423819988E+03  0.96090269829E+03  0.10100000352E+00 0.  1.
       -3    1    3    3    0  502  0.81892733530E+03  0.36632235343E+03 -0.68248250866E+01  0.89715140058E+03  0.10100000352E+00 0. -1.
</event>
<event>
 5   0  0.2467375E-04  0.1942612E+04  0.7818609E-02  0.8633932E-01
        3   -1    0    0  501    0  0.00000000000E+00  0.00000000000E+00  0.51905504539E+03  0.51905505522E+03  0.10100000352E+00 0.  1.
       -3   -1    0    0    0  501  0.00000000000E+00  0.00000000000E+00 -0.18176020510E+04  0.18176020538E+04  0.10100000352E+00 0. -1.
    10030    2    1    2    0    0  0.00000000000E+00  0.00000000000E+00 -0.12985470056E+04  0.23366571090E+04  0.19426121897E+04 0.  0.
        4    1    3    3  502    0  0.43045868992E+03 -0.66753653209E+02 -0.16935206315E+04  0.17486464697E+04  0.12699999809E+01 0. -1.
       -4    1    3    3    0  502 -0.43045868992E+03  0.66753653209E+02  0.39497362584E+03  0.58801063932E+03  0.12699999809E+01 0.  1.
</event>
<event>
 5   0  0.3413839E-04  0.1880988E+04  0.7818609E-02  0.8664378E-01
        1   -1    0    0  501    0  0.00000000000E+00  0.00000000000E+00  0.10507155602E+04  0.10507155602E+04  0.50400001928E-02 0. -1.
       -1   -1    0    0    0  501  0.00000000000E+00  0.00000000000E+00 -0.84183479928E+03  0.84183479930E+03  0.50400001928E-02 0.  1.
    10030    2    1    2    0    0  0.00000000000E+00  0.00000000000E+00  0.20888076094E+03  0.18925503595E+04  0.18809879561E+04 0.  0.
        5    1    3    3  502    0 -0.26621882614E+03  0.18227259893E+03 -0.78439869741E+03  0.84817402119E+03  0.46999998093E+01 0.  1.
       -5    1    3    3    0  502  0.26621882614E+03 -0.18227259893E+03  0.99327945835E+03  0.10443763383E+04  0.46999998093E+01 0. -1.
</event>
<event>
 5   0  0.6929121E-04  0.1804575E+04  0.7818609E-02  0.8703871E-01
       -2   -1    0    0    0  501  0.00000000000E+00  0.00000000000E+00  0.57868894881E+03  0.57868894882E+03  0.25500000920E-02 0. -1.
        2   -1    0    0  501    0  0.00000000000E+00  0.00000000000E+00 -0.14068393922E+04  0.14068393922E+04  0.25500000920E-02 0.  1.
    10030    2    1    2    0    0  0.00000000000E+00  0.00000000000E+00 -0.82815044338E+03  0.19855283410E+04  0.18045746413E+04 0.  0.
        3    1    3    3  502    0 -0.53681620165E+03 -0.47332430508E+03  0.19049045857E+03  0.74060391380E+03  0.10100000352E+00 0. -1.
       -3    1    3    3    0  502  0.53681620165E+03  0.47332430508E+03 -0.10186409020E+04  0.12449244272E+04  0.10100000352E+00 0.  1.
</event>
<event>
 5   0  0.2467375E-04  0.1160961E+04  0.7818609E-02  0.9147730E-01
        3   -1    0    0  501    0  0.00000000000E+00  0.00000000000E+00  0.61036524209E+03  0.61036525045E+03  0.10100000352E+00 0. -1.
       -3   -1    0    0    0  501  0.00000000000E+00  0.00000000000E+00 -0.55205938765E+03  0.55205939689E+03  0.10100000352E+00 0.  1.
    10030    2    1    2    0    0  0.00000000000E+00  0.00000000000E+00  0.58305854442E+02  0.11624246473E+04  0.11609614499E+04 0.  0.
        3    1    3    3  502    0  0.24191344009E+03  0.40943774323E+03 -0.30412764610E+03  0.56449536172E+03  0.10100000352E+00 0.  1.
       -3    1    3    3    0  502 -0.24191344009E+03 -0.40943774323E+03  0.36243350054E+03  0.59792928562E+03  0.10100000352E+00 0. -1.
</event>
<event>
 5   0  0.6853162E-04  0.1988799E+04  0.7818609E-02  0.8611876E-01
        2   -1    0    0  501    0  0.00000000000E+00  0.00000000000E+00  0.13990406802E+04  0.13990406802E+04  0.25500000920E-02 0. -1.
       -2   -1    0    0    0  501  0.00000000000E+00  0.00000000000E+00 -0.70679153045E+03  0.70679153045E+03  0.25500000920E-02 0.  1.
    10030    2    1    2    0    0  0.00000000000E+00  0.00000000000E+00  0.69224914975E+03  0.21058322106E+04  0.19887987364E+04 0.  0.
        2    1    3    3  502    0 -0.15978435525E+03 -0.95135174750E+03  0.60163126792E+03  0.11369086904E+04  0.25500000920E-02 0.  1.
       -2    1    3    3    0  502  0.15978435525E+03  0.95135174750E+03  0.90617881832E+02  0.96892352029E+03  0.25500000920E-02 0. -1.
</event>
<event>
 5   0  0.6771967E-04  0.1754397E+04  0.7818609E-02  0.8730934E-01
        2   -1    0    0  501    0  0.00000000000E+00  0.00000000000E+00  0.55990798176E+03  0.55990798177E+03  0.25500000920E-02 0.  1.
       -2   -1    0    0    0  501  0.00000000000E+00  0.00000000000E+00 -0.13742928040E+04  0.13742928040E+04  0.25500000920E-02 0. -1.
    10030    2    1    2    0    0  0.00000000000E+00  0.00000000000E+00 -0.81438482226E+03  0.19342007858E+04  0.17543973441E+04 0.  0.
        1    1    3    3  502    0  0.57062339208E+03  0.53994175115E+03 -0.83748652265E+03  0.11482734108E+04  0.50400001928E-02 0. -1.
       -1    1    3    3    0  502 -0.57062339208E+03 -0.53994175115E+03  0.23101700393E+02  0.78592737503E+03  0.50400001928E-02 0.  1.
</event>
<event>
 5   0  0.3404261E-04  0.1581088E+04  0.7818609E-02  0.8832251E-01
        1   -1    0    0  501    0  0.00000000000E+00  0.00000000000E+00  0.33778444586E+03  0.33778444590E+03  0.50400001928E-02 0.  1.
       -1   -1    0    0    0  501  0.00000000000E+00  0.00000000000E+00 -0.18501729907E+04  0.18501729907E+04  0.50400001928E-02 0. -1.
    10030    2    1    2    0    0  0.00000000000E+00  0.00000000000E+00 -0.15123885448E+04  0.21879574366E+04  0.15810878008E+04 0.  0.
        1    1    3    3  502    0 -0.17268739912E+03 -0.57253008147E+03 -0.14717136053E+04  0.15885693463E+04  0.50400001928E-02 0. -1.
       -1    1    3    3    0  502  0.17268739912E+03  0.57253008147E+03 -0.40674939496E+02  0.59938809024E+03  0.50400001928E-02 0.  1.
</event>
<event>
 5   0  0.6774451E-04  0.1779662E+04  0.7818609E-02  0.8717190E-01
       -2   -1    0    0    0  501  0.00000000000E+00  0.00000000000E+00  0.52685922273E+03  0.52685922273E+03  0.25500000920E-02 0. -1.
        2   -1    0    0  501    0  0.00000000000E+00  0.00000000000E+00 -0.15028664417E+04  0.15028664417E+04  0.25500000920E-02 0.  1.
    10030    2    1    2    0    0  0.00000000000E+00  0.00000000000E+00 -0.97600721897E+03  0.20297256644E+04  0.17796618166E+04 0.  0.
        4    1    3    3  502    0  0.32156339066E+03  0.22857663009E+03  0.42165545369E+03  0.57744716171E+03  0.12699999809E+01 0. -1.
       -4    1    3    3    0  502 -0.32156339066E+03 -0.22857663009E+03 -0.13976626727E+04  0.14522785027E+04  0.12699999809E+01 0.  1.
</event>
<event>
 5   0  0.6774451E-04  0.1387653E+04  0.7818609E-02  0.8962805E-01
       -2   -1    0    0    0  501  0.00000000000E+00  0.00000000000E+00  0.73202586605E+03  0.73202586605E+03  0.25500000920E-02 0. -1.
        2   -1    0    0  501    0  0.00000000000E+00  0.00000000000E+00 -0.65762073224E+03  0.65762073225E+03  0.25500000920E-02 0.  1.
    10030    2    1    2    0    0  0.00000000000E+00  0.00000000000E+00  0.74405133809E+02  0.13896465983E+04  0.13876532507E+04 0.  0.
        4    1    3    3  502    0  0.74766773657E+02 -0.31126095917E+03  0.65365185847E+03  0.72782952684E+03  0.12699999809E+01 0. -1.
       -4    1    3    3    0  502 -0.74766773657E+02  0.31126095917E+03 -0.57924672467E+03  0.66181707146E+03  0.12699999809E+01 0.  1.
</event>
<event>
 5   0  0.6547153E-04  0.1842308E+04  0.7818609E-02  0.8684119E-01
       -2   -1    0    0    0  501  0.00000000000E+00  0.00000000000E+00  0.58899642219E+03  0.58899642219E+03  0.25500000920E-02 0. -1.
        2   -1    0    0  501    0  0.00000000000E+00  0.00000000000E+00 -0.14406280757E+04  0.14406280757E+04  0.25500000920E-02 0.  1.
    10030    2    1    2    0    0  0.00000000000E+00  0.00000000000E+00 -0.85163165348E+03  0.20296244979E+04  0.18423080983E+04 0.  0.
        5    1    3    3  502    0 -0.89839693602E+03 -0.16444481852E+03 -0.29387427159E+03  0.95944949346E+03  0.46999998093E+01 0.  1.
       -5    1    3    3    0  502  0.89839693602E+03  0.16444481852E+03 -0.55775738188E+03  0.10701750044E+04  0.46999998093E+01 0. -1.
</event>
<event>
 5   0  0.3470962E-04  0.1792650E+04  0.7818609E-02  0.8710218E-01
       -1   -1    0    0    0  501  0.00000000000E+00  0.00000000000E+00  0.73042467710E+03  0.73042467712E+03  0.50400001928E-02 0. -1.
        1   -1    0    0  501    0  0.00000000000E+00  0.00000000000E+00 -0.10999059861E+04  0.10999059861E+04  0.50400001928E-02 0.  1.
    10030    2    1    2    0    0  0.00000000000E+00  0.00000000000E+00 -0.36948130899E+03  0.18303306632E+04  0.17926499656E+04 0.  0.
        4    1    3    3  502    0 -0.88936353553E+03 -0.72739438754E+02 -0.27100525181E+03  0.93257921041E+03  0.12699999809E+01 0.  1.
       -4    1    3    3    0  502  0.88936353553E+03  0.72739438754E+02 -0.98476057179E+02  0.89775145281E+03  0.12699999809E+01 0. -1.
</event>
<event>
 5   0  0.3377273E-04  0.1633185E+04  0.7818609E-02  0.8800416E-01
        1   -1    0    0  501    0  0.00000000000E+00  0.00000000000E+00  0.10077159457E+04  0.10077159457E+04  0.50400001928E-02 0.  1.
       -1   -1    0    0    0  501  0.00000000000E+00  0.00000000000E+00 -0.66171792532E+03  0.66171792533E+03  0.50400001928E-02 0. -1.
    10030    2    1    2    0    0  0.00000000000E+00  0.00000000000E+00  0.34599802034E+03  0.16694338710E+04  0.16331854823E+04 0.  0.
        2    1    3    3  502    0 -0.36895113184E+03  0.39770832387E+02 -0.57054997843E+03  0.68061291105E+03  0.25500000920E-02 0. -1.
       -2    1    3    3    0  502  0.36895113184E+03 -0.39770832387E+02  0.91654799876E+03  0.98882095995E+03  0.25500000920E-02 0.  1.
</event>
<event>
 5   0  0.6929121E-04  0.1790812E+04  0.7818609E-02  0.8711201E-01
       -2   -1    0    0    0  501  0.00000000000E+00  0.00000000000E+00  0.34791834606E+03  0.34791834607E+03  0.25500000920E-02 0. -1.
        2   -1    0    0  501    0  0.00000000000E+00  0.00000000000E+00 -0.23044264704E+04  0.23044264704E+04  0.25500000920E-02 0.  1.
    10030    2    1    2    0    0  0.00000000000E+00  0.00000000000E+00 -0.19565081243E+04  0.26523448165E+04  0.17908123813E+04 0.  0.
        3    1    3    3  502    0  0.14172970232E+03 -0.17937916658E+03  0.30396505991E+03  0.38034058654E+03  0.10100000352E+00 0. -1.
       -3    1    3    3    0  502 -0.14172970232E+03  0.17937916658E+03 -0.22604731843E+04  0.22720042299E+04  0.10100000352E+00 0.  1.
</event>
<event>
 5   0  0.6774451E-04  0.1858009E+04  0.7818609E-02  0.8676045E-01
       -2   -1    0    0    0  501  0.00000000000E+00  0.00000000000E+00  0.56747531595E+03  0.56747531596E+03  0.25500000920E-02 0.  1.
        2   -1    0    0  501    0  0.00000000000E+00  0.00000000000E+00 -0.15208571743E+04  0.15208571743E+04  0.25500000920E-02 0. -1.
    10030    2    1    2    0    0  0.00000000000E+00  0.00000000000E+00 -0.95338185833E+03  0.20883324902E+04  0.18580085097E+04 0.  0.
        4    1    3    3  502    0 -0.30950438247E+03 -0.38919088587E+03  0.40530468037E+03  0.64151072107E+03  0.12699999809E+01 0.  1.
       -4    1    3    3    0  502  0.30950438247E+03  0.38919088587E+03 -0.13586865387E+04  0.14468217692E+04  0.12699999809E+01 0. -1.
</event>
<event>
 5   0  0.6774451E-04  0.1677325E+04  0.7818609E-02  0.8774403E-01
        2   -1    0    0  501    0  0.00000000000E+00  0.00000000000E+00  0.23420370724E+04  0.23420370724E+04  0.25500000920E-02 0.  1.
       -2   -1    0    0    0  501  0.00000000000E+00  0.00000000000E+00 -0.30031770285E+03  0.30031770287E+03  0.25500000920E-02 0. -1.
    10030    2    1    2    0    0  0.00000000000E+00  0.00000000000E+00  0.20417193696E+04  0.26423547753E+04  0.16773254826E+04 0.  0.
        4    1    3    3  502    0  0.34432677732E+03  0.75260284754E+03  0.80727726754E+03  0.11561445305E+04  0.12699999809E+01 0. -1.
       -4    1    3    3    0  502 -0.34432677732E+03 -0.75260284754E+03  0.12344421020E+04  0.14862102449E+04  0.12699999809E+01 0.  1.
</event>
<event>
 5   0  0.3308275E-04  0.1989740E+04  0.7818609E-02  0.8611433E-01
       -1   -1    0    0    0  501  0.00000000000E+00  0.00000000000E+00  0.79085917273E+03  0.79085917275E+03  0.50400001928E-02 0.  1.
        1   -1    0    0  501    0  0.00000000000E+00  0.00000000000E+00 -0.12515074863E+04  0.12515074863E+04  0.50400001928E-02 0. -1.
    10030    2    1    2    0    0  0.00000000000E+00  0.00000000000E+00 -0.46064831353E+03  0.20423666590E+04  0.19897398577E+04 0.  0.
        3    1    3    3  502    0  0.91538719038E+03  0.31761737548E+03 -0.46201911290E+03  0.10734412776E+04  0.10100000352E+00 0. -1.
       -3    1    3    3    0  502 -0.91538719038E+03 -0.31761737548E+03  0.13707993704E+01  0.96892538145E+03  0.10100000352E+00 0.  1.
</event>
<event>
 5   0  0.3404261E-04  0.1133652E+04  0.7818609E-02  0.9172999E-01
        1   -1    0    0  501    0  0.00000000000E+00  0.00000000000E+00  0.18882731410E+04  0.18882731410E+04  0.50400001928E-02 0. -1.
       -1   -1    0    0    0  501  0.00000000000E+00  0.00000000000E+00 -0.17015120867E+03  0.17015120875E+03  0.50400001928E-02 0.  1.
    10030    2    1    2    0    0  0.00000000000E+00  0.00000000000E+00  0.17181219323E+04  0.20584243497E+04  0.11336524288E+04 0.  0.
        1    1    3    3  502    0  0.97294474835E+02  0.41733077999E+03  0.15327509233E+04  0.15915264961E+04  0.50400001928E-02 0. -1.
       -1    1    3    3    0  502 -0.97294474835E+02 -0.41733077999E+03  0.18537100902E+03  0.46689785368E+03  0.50400001928E-02 0.  1.
</event>
<event>
 5   0  0.3377273E-04  0.1672591E+04  0.7818609E-02  0.8777153E-01
       -1   -1    0    0    0  501  0.00000000000E+00  0.00000000000E+00  0.85523328183E+03  0.85523328185E+03  0.50400001928E-02 0.  1.
        1   -1    0    0  501    0  0.00000000000E+00  0.00000000000E+00 -0.81777736487E+03  0.81777736489E+03  0.50400001928E-02 0. -1.
    10030    2    1    2    0    0  0.00000000000E+00  0.00000000000E+00  0.37455916956E+02  0.16730106467E+04  0.16725913064E+04 0.  0.
        2    1    3    3  502    0  0.63855226653E+02  0.61779911406E+03  0.57890156532E+03  0.84904667577E+03  0.25500000920E-02 0.  1.
       -2    1    3    3    0  502 -0.63855226653E+02 -0.61779911406E+03 -0.54144564836E+03  0.82396397096E+03  0.25500000920E-02 0. -1.
</event>
<event>
 5   0  0.6771967E-04  0.1783166E+04  0.7818609E-02  0.8715303E-01
       -2   -1    0    0    0  501  0.00000000000E+00  0.00000000000E+00  0.82982542677E+03  0.82982542677E+03  0.25500000920E-02 0.  1.
        2   -1    0    0  501    0  0.00000000000E+00  0.00000000000E+00 -0.95793700018E+03  0.95793700018E+03  0.25500000920E-02 0. -1.
    10030    2    1    2    0    0  0.00000000000E+00  0.00000000000E+00 -0.12811157341E+03  0.17877624270E+04  0.17831662626E+04 0.  0.
        1    1    3    3  502    0  0.31511096192E+03  0.25050672214E+03 -0.86163878623E+03  0.95103624228E+03  0.50400001928E-02 0. -1.
       -1    1    3    3    0  502 -0.31511096192E+03 -0.25050672214E+03  0.73352721282E+03  0.83672618468E+03  0.50400001928E-02 0.  1.
</event>
<event>
 5   0  0.6774451E-04  0.1755100E+04  0.7818609E-02  0.8730548E-01
        2   -1    0    0  501    0  0.00000000000E+00  0.00000000000E+00  0.70642524426E+03  0.70642524427E+03  0.25500000920E-02 0.  1.
       -2   -1    0    0    0  501  0.00000000000E+00  0.00000000000E+00 -0.10901281937E+04  0.10901281937E+04  0.25500000920E-02 0. -1.
    10030    2    1    2    0    0  0.00000000000E+00  0.00000000000E+00 -0.38370294945E+03  0.17965534380E+04  0.17551000832E+04 0.  0.
        4    1    3    3  502    0  0.13763332062E+03  0.56773781114E+03 -0.86216417042E+03  0.10414402637E+04  0.12699999809E+01 0. -1.
       -4    1    3    3    0  502 -0.13763332062E+03 -0.56773781114E+03  0.47846122097E+03  0.75511317431E+03  0.12699999809E+01 0.  1.
</event>
<event>
 5   0  0.3413839E-04  0.1718188E+04  0.7818609E-02  0.8751059E-01
       -1   -1    0    0    0  501  0.00000000000E+00  0.00000000000E+00  0.42249236258E+03  0.42249236261E+03  0.50400001928E-02 0.  1.
        1   -1    0    0  501    0  0.00000000000E+00  0.00000000000E+00 -0.17468773855E+04  0.17468773856E+04  0.50400001928E-02 0. -1.
    10030    2    1    2    0    0  0.00000000000E+00  0.00000000000E+00 -0.13243850230E+04  0.21693697482E+04  0.17181878288E+04 0.  0.
        5    1    3    3  502    0 -0.48490222487E+03 -0.26477039938E+03  0.16842275726E+03  0.57760007551E+03  0.46999998093E+01 0.  1.
       -5    1    3    3    0  502  0.48490222487E+03  0.26477039938E+03 -0.14928077802E+04  0.15917696727E+04  0.46999998093E+01 0. -1.
</event>
<event>
 5   0  0.6771967E-04  0.1805617E+04  0.7818609E-02  0.8703318E-01
        2   -1    0    0  501    0  0.00000000000E+00  0.00000000000E+00  0.19376583984E+04  0.19376583984E+04  0.25500000920E-02 0. -1.
       -2   -1    0    0    0  501  0.00000000000E+00  0.00000000000E+00 -0.42064322448E+03  0.42064322448E+03  0.25500000920E-02 0.  1.
    10030    2    1    2    0    0  0.00000000000E+00  0.00000000000E+00  0.15170151739E+04  0.23583016229E+04  0.18056166555E+04 0.  0.
        1    1    3    3  502    0 -0.39132541486E+03 -0.57187802544E+02  0.18185015812E+04  0.18610088732E+04  0.50400001928E-02 0. -1.
       -1    1    3    3    0  502  0.39132541486E+03  0.57187802544E+02 -0.30148640732E+03  0.49729274970E+03  0.50400001928E-02 0.  1.
</event>
<event>
 5   0  0.3308275E-04  0.1782775E+04  0.7818609E-02  0.8715514E-01
       -1   -1    0    0    0  501  0.00000000000E+00  0.00000000000E+00  0.27011218720E+03  0.27011218725E+03  0.50400001928E-02 0.  1.
        1   -1    0    0  501    0  0.00000000000E+00  0.00000000000E+00 -0.29416356890E+04  0.29416356890E+04  0.50400001928E-02 0. -1.
    10030    2    1    2    0    0  0.00000000000E+00  0.00000000000E+00 -0.26715235018E+04  0.32117478763E+04  0.17827749718E+04 0.  0.
        3    1    3    3  502    0  0.38271508327E+03 -0.80336316390E+03 -0.14295187855E+04  0.16838607948E+04  0.10100000352E+00 0. -1.
       -3    1    3    3    0  502 -0.38271508327E+03  0.80336316390E+03 -0.12420047164E+04  0.15278870815E+04  0.10100000352E+00 0.  1.
</event>
<event>
 5   0  0.3413839E-04  0.1679793E+04  0.7818609E-02  0.8772974E-01
        1   -1    0    0  501    0  0.00000000000E+00  0.00000000000E+00  0.22503769909E+04  0.22503769909E+04  0.50400001928E-02 0. -1.
       -1   -1    0    0    0  501  0.00000000000E+00  0.00000000000E+00 -0.31347005098E+03  0.31347005102E+03  0.50400001928E-02 0.  1.
    10030    2    1    2    0    0  0.00000000000E+00  0.00000000000E+00  0.19369069399E+04  0.25638470419E+04  0.16797925945E+04 0.  0.
        5    1    3    3  502    0 -0.81195219786E+03 -0.20968156204E+03  0.89733810116E+03  0.12281980650E+04  0.46999998093E+01 0.  1.
       -5    1    3    3    0  502  0.81195219786E+03  0.20968156204E+03  0.10395688387E+04  0.13356489769E+04  0.46999998093E+01 0. -1.
</event>
<event>
 5   0  0.3413839E-04  0.1638285E+04  0.7818609E-02  0.8797367E-01
        1   -1    0    0  501    0  0.00000000000E+00  0.00000000000E+00  0.92338402706E+03  0.92338402707E+03  0.50400001928E-02 0.  1.
       -1   -1    0    0    0  501  0.00000000000E+00  0.00000000000E+00 -0.72666909848E+03  0.72666909850E+03  0.50400001928E-02 0. -1.
    10030    2    1    2    0    0  0.00000000000E+00  0.00000000000E+00  0.19671492858E+03  0.16500531256E+04  0.16382852481E+04 0.  0.
        5    1    3    3  502    0 -0.76107096182E+03 -0.30187387256E+03  0.12334909702E+03  0.82800599852E+03  0.46999998093E+01 0. -1.
       -5    1    3    3    0  502  0.76107096182E+03  0.30187387256E+03  0.73365831553E+02  0.82204712705E+03  0.46999998093E+01 0.  1.
</event>
<event>
 5   0  0.2467375E-04  0.1705081E+04  0.7818609E-02  0.8758472E-01
        4   -1    0    0  501    0  0.00000000000E+00  0.00000000000E+00  0.13446557381E+04  0.13446563378E+04  0.12699999809E+01 0.  1.
       -4   -1    0    0    0  501  0.00000000000E+00  0.00000000000E+00 -0.54052719374E+03  0.54052868571E+03  0.12699999809E+01 0. -1.
    10030    2    1    2    0    0  0.00000000000E+00  0.00000000000E+00  0.80412854436E+03  0.18851850236E+04  0.17050806014E+04 0.  0.
        2    1    3    3  502    0 -0.37850864068E+03  0.13857849639E+03  0.12326494344E+04  0.12968798783E+04  0.25500000920E-02 0.  1.
       -2    1    3    3    0  502  0.37850864068E+03 -0.13857849639E+03 -0.42852089001E+03  0.58830514524E+03  0.25500000920E-02 0. -1.
</event>
<event>
 5   0  0.6547153E-04  0.1838411E+04  0.7818609E-02  0.8686136E-01
       -2   -1    0    0    0  501  0.00000000000E+00  0.00000000000E+00  0.35443725636E+03  0.35443725637E+03  0.25500000920E-02 0. -1.
        2   -1    0    0  501    0  0.00000000000E+00  0.00000000000E+00 -0.23838870191E+04  0.23838870191E+04  0.25500000920E-02 0.  1.
    10030    2    1    2    0    0  0.00000000000E+00  0.00000000000E+00 -0.20294497627E+04  0.27383242755E+04  0.18384105902E+04 0.  0.
        5    1    3    3  502    0  0.40954107111E+03  0.81768472251E+03 -0.87672157264E+03  0.12668839727E+04  0.46999998093E+01 0. -1.
       -5    1    3    3    0  502 -0.40954107111E+03 -0.81768472251E+03 -0.11527281901E+04  0.14714403028E+04  0.46999998093E+01 0.  1.
</event>
<event>
 5   0  0.6774451E-04  0.1615855E+04  0.7818609E-02  0.8810866E-01
       -2   -1    0    0    0  501  0.00000000000E+00  0.00000000000E+00  0.24517688335E+03  0.24517688337E+03  0.25500000920E-02 0. -1.
        2   -1    0    0  501    0  0.00000000000E+00  0.00000000000E+00 -0.26623509303E+04  0.26623509303E+04  0.25500000920E-02 0.  1.
    10030    2    1    2    0    0  0.00000000000E+00  0.00000000000E+00 -0.24171740470E+04  0.29075278137E+04  0.16158550721E+04 0.  0.
        4    1    3    3  502    0  0.41702449334E+03  0.40283697575E+03 -0.22209780312E+04  0.22954154493E+04  0.12699999809E+01 0.  1.
       -4    1    3    3    0  502 -0.41702449334E+03 -0.40283697575E+03 -0.19619601575E+03  0.61211236434E+03  0.12699999809E+01 0. -1.
</event>
<event>
 5   0  0.3404261E-04  0.1765948E+04  0.7818609E-02  0.8724620E-01
        1   -1    0    0  501    0  0.00000000000E+00  0.00000000000E+00  0.77056661826E+03  0.77056661828E+03  0.50400001928E-02 0.  1.
       -1   -1    0    0    0  501  0.00000000000E+00  0.00000000000E+00 -0.10117791447E+04  0.10117791447E+04  0.50400001928E-02 0. -1.
    10030    2    1    2    0    0  0.00000000000E+00  0.00000000000E+00 -0.24121252642E+03  0.17823457630E+04  0.17659481691E+04 0.  0.
        1    1    3    3  502    0 -0.26182833628E+03 -0.29490890976E+03  0.67674065769E+03  0.78326448951E+03  0.50400001928E-02 0.  1.
       -1    1    3    3    0  502  0.26182833628E+03  0.29490890976E+03 -0.91795318411E+03  0.99908127346E+03  0.50400001928E-02 0. -1.
</event>
<event>
 5   0  0.6547153E-04  0.1802754E+04  0.7818609E-02  0.8704837E-01
        2   -1    0    0  501    0  0.00000000000E+00  0.00000000000E+00  0.18147577282E+04  0.18147577282E+04  0.25500000920E-02 0. -1.
       -2   -1    0    0    0  501  0.00000000000E+00  0.00000000000E+00 -0.44770717516E+03  0.44770717517E+03  0.25500000920E-02 0.  1.
    10030    2    1    2    0    0  0.00000000000E+00  0.00000000000E+00  0.13670505530E+04  0.22624649034E+04  0.18027535118E+04 0.  0.
        5    1    3    3  502    0  0.36027943114E+03  0.71590480923E+03  0.12011856105E+04  0.14440186721E+04  0.46999998093E+01 0. -1.
       -5    1    3    3    0  502 -0.36027943114E+03 -0.71590480923E+03  0.16586494254E+03  0.81844623131E+03  0.46999998093E+01 0.  1.
</event>
<event>
 5   0  0.3413839E-04  0.1745876E+04  0.7818609E-02  0.8735624E-01
        1   -1    0    0  501    0  0.00000000000E+00  0.00000000000E+00  0.89831150001E+03  0.89831150003E+03  0.50400001928E-02 0.  1.
       -1   -1    0    0    0  501  0.00000000000E+00  0.00000000000E+00 -0.84828131673E+03  0.84828131675E+03  0.50400001928E-02 0. -1.
    10030    2    1    2    0    0  0.00000000000E+00  0.00000000000E+00  0.50030183281E+02  0.17465928168E+04  0.17458761263E+04 0.  0.
        5    1    3    3  502    0  0.66357806964E+03 -0.56627192696E+03  0.56635381101E+02  0.87420215406E+03  0.46999998093E+01 0.  1.
       -5    1    3    3    0  502 -0.66357806964E+03  0.56627192696E+03 -0.66051978197E+01  0.87239066272E+03  0.46999998093E+01 0. -1.
</event>
<event>
 5   0  0.6929121E-04  0.1660549E+04  0.7818609E-02  0.8784190E-01
        2   -1    0    0  501    0  0.00000000000E+00  0.00000000000E+00  0.99276343926E+03  0.99276343926E+03  0.25500000920E-02 0. -1.
       -2   -1    0    0    0  501  0.00000000000E+00  0.00000000000E+00 -0.69438026880E+03  0.69438026880E+03  0.25500000920E-02 0.  1.
    10030    2    1    2    0    0  0.00000000000E+00  0.00000000000E+00  0.29838317046E+03  0.16871437081E+04  0.16605485164E+04 0.  0.
        3    1    3    3  502    0 -0.42751347337E+03 -0.26427325704E+03 -0.52226135055E+03  0.72482070389E+03  0.10100000352E+00 0.  1.
       -3    1    3    3    0  502  0.42751347337E+03  0.26427325704E+03  0.82064452102E+03  0.96232300418E+03  0.10100000352E+00 0. -1.
</event>
<event>
 5   0  0.6547153E-04  0.1785162E+04  0.7818609E-02  0.8714230E-01
       -2   -1    0    0    0  501  0.00000000000E+00  0.00000000000E+00  0.70104196620E+03  0.70104196620E+03  0.25500000920E-02 0. -1.
        2   -1    0    0  501    0  0.00000000000E+00  0.00000000000E+00 -0.11364526235E+04  0.11364526235E+04  0.25500000920E-02 0.  1.
    10030    2    1    2    0    0  0.00000000000E+00  0.00000000000E+00 -0.43541065726E+03  0.18374945897E+04  0.17851621569E+04 0.  0.
        5    1    3    3  502    0  0.28344967796E+03  0.69499597808E+03 -0.71489309840E+03  0.10365603512E+04  0.46999998093E+01 0.  1.
       -5    1    3    3    0  502 -0.28344967796E+03 -0.69499597808E+03  0.27948244114E+03  0.80093423849E+03  0.46999998093E+01 0. -1.
</event>
<event>
 5   0  0.3470962E-04  0.1799251E+04  0.7818609E-02  0.8706698E-01
        1   -1    0    0  501    0  0.00000000000E+00  0.00000000000E+00  0.15735515688E+04  0.15735515688E+04  0.50400001928E-02 0. -1.
       -1   -1    0    0    0  501  0.00000000000E+00  0.00000000000E+00 -0.51433107638E+03  0.51433107640E+03  0.50400001928E-02 0.  1.
    10030    2    1    2    0    0  0.00000000000E+00  0.00000000000E+00  0.10592204924E+04  0.20878826452E+04  0.17992514801E+04 0.  0.
        4    1    3    3  502    0 -0.72804834744E+03  0.52679928796E+03  0.48102528506E+03  0.10192932963E+04  0.12699999809E+01 0. -1.
       -4    1    3    3    0  502  0.72804834744E+03 -0.52679928796E+03  0.57819520738E+03  0.10685893490E+04  0.12699999809E+01 0.  1.
</event>
<event>
 5   0  0.6929121E-04  0.1316049E+04  0.7818609E-02  0.9016934E-01
        2   -1    0    0  501    0  0.00000000000E+00  0.00000000000E+00  0.14571450537E+04  0.14571450537E+04  0.25500000920E-02 0.  1.
       -2   -1    0    0    0  501  0.00000000000E+00  0.00000000000E+00 -0.29715361519E+03  0.29715361520E+03  0.25500000920E-02 0. -1.
    10030    2    1    2    0    0  0.00000000000E+00  0.00000000000E+00  0.11599914385E+04  0.17542986689E+04  0.13160485106E+04 0.  0.
        3    1    3    3  502    0  0.35431126901E+03  0.55189595730E+03  0.50857991637E+03  0.82992720438E+03  0.10100000352E+00 0. -1.
       -3    1    3    3    0  502 -0.35431126901E+03 -0.55189595730E+03  0.65141152211E+03  0.92437146450E+03  0.10100000352E+00 0.  1.
</event>
<event>
 5   0  0.6853162E-04  0.1660669E+04  0.7818609E-02  0.8784120E-01
       -2   -1    0    0    0  501  0.00000000000E+00  0.00000000000E+00  0.39029356678E+03  0.39029356679E+03  0.25500000920E-02 0.  1.
        2   -1    0    0  501    0  0.00000000000E+00  0.00000000000E+00 -0.17665051717E+04  0.17665051717E+04  0.25500000920E-02 0. -1.
    10030    2    1    2    0    0  0.00000000000E+00  0.00000000000E+00 -0.13762116049E+04  0.21567987385E+04  0.16606692678E+04 0.  0.
        2    1    3    3  502    0 -0.47706040925E+03 -0.62674305045E+03 -0.34679783903E+03  0.86061735198E+03  0.25500000920E-02 0.  1.
       -2    1    3    3    0  502  0.47706040925E+03  0.62674305045E+03 -0.10294137659E+04  0.12961813865E+04  0.25500000920E-02 0. -1.
</event>
<event>
 5   0  0.6774451E-04  0.9393487E+03  0.7818609E-02  0.9377688E-01
       -2   -1    0    0    0  501  0.00000000000E+00  0.00000000000E+00  0.27366424834E+03  0.27366424836E+03  0.25500000920E-02 0. -1.
        2   -1    0    0  501    0  0.00000000000E+00  0.00000000000E+00 -0.80607536683E+03  0.80607536683E+03  0.25500000920E-02 0.  1.
    10030    2    1    2    0    0  0.00000000000E+00  0.00000000000E+00 -0.53241111848E+03  0.10797396152E+04  0.93934873051E+03 0.  0.
        4    1    3    3  502    0 -0.10377143432E+03 -0.20231929976E+03 -0.73858954093E+03  0.77279863646E+03  0.12699999809E+01 0.  1.
       -4    1    3    3    0  502  0.10377143432E+03  0.20231929976E+03  0.20617842245E+03  0.30694097873E+03  0.12699999809E+01 0. -1.
</event>
<event>
 5   0  0.6547153E-04  0.1818211E+04  0.7818609E-02  0.8696675E-01
       -2   -1    0    0    0  501  0.00000000000E+00  0.00000000000E+00  0.73428362933E+03  0.73428362933E+03  0.25500000920E-02 0. -1.
        2   -1    0    0  501    0  0.00000000000E+00  0.00000000000E+00 -0.11255499578E+04  0.11255499578E+04  0.25500000920E-02 0.  1.
    10030    2    1    2    0    0  0.00000000000E+00  0.00000000000E+00 -0.39126632847E+03  0.18598335871E+04  0.18182111077E+04 0.  0.
        5    1    3    3  502    0 -0.28878130845E+03  0.64840071281E+03  0.38537731317E+03  0.80768551553E+03  0.46999998093E+01 0. -1.
       -5    1    3    3    0  502  0.28878130845E+03 -0.64840071281E+03 -0.77664364164E+03  0.10521480716E+04  0.46999998093E+01 0.  1.
</event>
<event>
 5   0  0.6771967E-04  0.1798304E+04  0.7818609E-02  0.8707202E-01
       -2   -1    0    0    0  501  0.00000000000E+00  0.00000000000E+00  0.12468352010E+04  0.12468352010E+04  0.25500000920E-02 0. -1.
        2   -1    0    0  501    0  0.00000000000E+00  0.00000000000E+00 -0.64842106123E+03  0.64842106124E+03  0.25500000920E-02 0.  1.
    10030    2    1    2    0    0  0.00000000000E+00  0.00000000000E+00  0.59841413973E+03  0.18952562622E+04  0.17983038722E+04 0.  0.
        1    1    3    3  502    0  0.15315910633E+03 -0.42491729812E+03  0.11185944757E+04  0.12063440733E+04  0.50400001928E-02 0. -1.
       -1    1    3    3    0  502 -0.15315910633E+03  0.42491729812E+03 -0.52018033595E+03  0.68891218891E+03  0.50400001928E-02 0.  1.
</event>
<event>
 5   0  0.6771967E-04  0.1794036E+04  0.7818609E-02  0.8709478E-01
        2   -1    0    0  501    0  0.00000000000E+00  0.00000000000E+00  0.17735224446E+04  0.17735224446E+04  0.25500000920E-02 0.  1.
       -2   -1    0    0    0  501  0.00000000000E+00  0.00000000000E+00 -0.45369650519E+03  0.45369650520E+03  0.25500000920E-02 0. -1.
    10030    2    1    2    0    0  0.00000000000E+00  0.00000000000E+00  0.13198259394E+04  0.22272189498E+04  0.17940356017E+04 0.  0.
        1    1    3    3  502    0 -0.51909432156E+03 -0.52162677405E+03  0.12966820788E+04  0.14909519844E+04  0.50400001928E-02 0.  1.
       -1    1    3    3    0  502  0.51909432156E+03  0.52162677405E+03  0.23143860570E+02  0.73626696543E+03  0.50400001928E-02 0. -1.
</event>
<event>
 5   0  0.3404261E-04  0.1855287E+04  0.7818609E-02  0.8677439E-01
        1   -1    0    0  501    0  0.00000000000E+00  0.00000000000E+00  0.84024204465E+03  0.84024204466E+03  0.50400001928E-02 0. -1.
       -1   -1    0    0    0  501  0.00000000000E+00  0.00000000000E+00 -0.10241364766E+04  0.10241364766E+04  0.50400001928E-02 0.  1.
    10030    2    1    2    0    0  0.00000000000E+00  0.00000000000E+00 -0.18389443192E+03  0.18643785212E+04  0.18552870690E+04 0.  0.
        1    1    3    3  502    0 -0.53008064992E+03 -0.69678123460E+03 -0.40009779426E+03  0.96258393365E+03  0.50400001928E-02 0.  1.
       -1    1    3    3    0  502  0.53008064992E+03  0.69678123460E+03  0.21620336234E+03  0.90179458760E+03  0.50400001928E-02 0. -1.
</event>
<event>
 5   0  0.3377273E-04  0.1741206E+04  0.7818609E-02  0.8738206E-01
       -1   -1    0    0    0  501  0.00000000000E+00  0.00000000000E+00  0.57809638886E+03  0.57809638888E+03  0.50400001928E-02 0. -1.
        1   -1    0    0  501    0  0.00000000000E+00  0.00000000000E+00 -0.13111129150E+04  0.13111129151E+04  0.50400001928E-02 0.  1.
    10030    2    1    2    0    0  0.00000000000E+00  0.00000000000E+00 -0.73301652619E+03  0.18892093039E+04  0.17412060666E+04 0.  0.
        2    1    3    3  502    0  0.38445278771E+03  0.24401877413E+03  0.43858875481E+03  0.63222559578E+03  0.25500000920E-02 0. -1.
       -2    1    3    3    0  502 -0.38445278771E+03 -0.24401877413E+03 -0.11716052810E+04  0.12569837082E+04  0.25500000920E-02 0.  1.
</event>
<event>
 5   0  0.6771967E-04  0.1780734E+04  0.7818609E-02  0.8716612E-01
        2   -1    0    0  501    0  0.00000000000E+00  0.00000000000E+00  0.23865775874E+04  0.23865775874E+04  0.25500000920E-02 0.  1.
       -2   -1    0    0    0  501  0.00000000000E+00  0.00000000000E+00 -0.33217177822E+03  0.33217177823E+03  0.25500000920E-02 0. -1.
    10030    2    1    2    0    0  0.00000000000E+00  0.00000000000E+00  0.20544058092E+04  0.27187493656E+04  0.17807343666E+04 0.  0.
        1    1    3    3  502    0 -0.46534234023E+03  0.41401823760E+02 -0.13001083478E+03  0.48493341997E+03  0.50400001928E-02 0. -1.
       -1    1    3    3    0  502  0.46534234023E+03 -0.41401823760E+02  0.21844166440E+04  0.22338159456E+04  0.50400001928E-02 0.  1.
</event>
<event>
 5   0  0.3308275E-04  0.1595411E+04  0.7818609E-02  0.8823372E-01
        1   -1    0    0  501    0  0.00000000000E+00  0.00000000000E+00  0.94266685182E+03  0.94266685183E+03  0.50400001928E-02 0. -1.
       -1   -1    0    0    0  501  0.00000000000E+00  0.00000000000E+00 -0.67503576149E+03  0.67503576150E+03  0.50400001928E-02 0.  1.
    10030    2    1    2    0    0  0.00000000000E+00  0.00000000000E+00  0.26763109033E+03  0.16177026133E+04  0.15954107135E+04 0.  0.
        3    1    3    3  502    0 -0.64090412237E+03 -0.47414642727E+03  0.10584575316E+03  0.80422401246E+03  0.10100000352E+00 0.  1.
       -3    1    3    3    0  502  0.64090412237E+03  0.47414642727E+03  0.16178533717E+03  0.81347860087E+03  0.10100000352E+00 0. -1.
</event>
<event>
 5   0  0.6547153E-04  0.1718781E+04  0.7818609E-02  0.8750725E-01
        2   -1    0    0  501    0  0.00000000000E+00  0.00000000000E+00  0.15463516136E+04  0.15463516136E+04  0.25500000920E-02 0.  1.
       -2   -1    0    0    0  501  0.00000000000E+00  0.00000000000E+00 -0.47760925332E+03  0.47760925332E+03  0.25500000920E-02 0. -1.
    10030    2    1    2    0    0  0.00000000000E+00  0.00000000000E+00  0.10687423603E+04  0.20239608669E+04  0.17187807766E+04 0.  0.
        5    1    3    3  502    0  0.18399789986E+03 -0.13688414013E+03 -0.44089647018E+03  0.49699525389E+03  0.46999998093E+01 0. -1.
       -5    1    3    3    0  502 -0.18399789986E+03  0.13688414013E+03  0.15096388305E+04  0.15269656130E+04  0.46999998093E+01 0.  1.
</event>
<event>
 5   0  0.3308275E-04  0.1802789E+04  0.7818609E-02  0.8704818E-01
        1   -1    0    0  501    0  0.00000000000E+00  0.00000000000E+00  0.24070639805E+04  0.24070639805E+04  0.50400001928E-02 0. -1.
       -1   -1    0    0    0  501  0.00000000000E+00  0.00000000000E+00 -0.33755313381E+03  0.33755313385E+03  0.50400001928E-02 0.  1.
    10030    2    1    2    0    0  0.00000000000E+00  0.00000000000E+00  0.20695108467E+04  0.27446171144E+04  0.18027889394E+04 0.  0.
        3    1    3    3  502    0  0.21348560166E+03 -0.37509067737E+03 -0.17002603860E+03  0.46387280840E+03  0.10100000352E+00 0.  1.
       -3    1    3    3    0  502 -0.21348560166E+03  0.37509067737E+03  0.22395368853E+04  0.22807443060E+04  0.10100000352E+00 0. -1.
</event>
<event>
 5   0  0.6853162E-04  0.1220268E+04  0.7818609E-02  0.9095299E-01
        2   -1    0    0  501    0  0.00000000000E+00  0.00000000000E+00  0.25413715142E+03  0.25413715143E+03  0.25500000920E-02 0. -1.
       -2   -1    0    0    0  501  0.00000000000E+00  0.00000000000E+00 -0.14648125365E+04  0.14648125365E+04  0.25500000920E-02 0.  1.
    10030    2    1    2    0    0  0.00000000000E+00  0.00000000000E+00 -0.12106753850E+04  0.17189496879E+04  0.12202676516E+04 0.  0.
        2    1    3    3  502    0  0.47110798556E+03  0.21483781468E+03 -0.10599796656E+04  0.11796842425E+04  0.25500000920E-02 0.  1.
       -2    1    3    3    0  502 -0.47110798556E+03 -0.21483781468E+03 -0.15069571946E+03  0.53926544535E+03  0.25500000920E-02 0. -1.
</event>
<event>
 5   0  0.3470962E-04  0.1811708E+04  0.7818609E-02  0.8700098E-01
       -1   -1    0    0    0  501  0.00000000000E+00  0.00000000000E+00  0.36704462930E+03  0.36704462934E+03  0.50400001928E-02 0. -1.
        1   -1    0    0  501    0  0.00000000000E+00  0.00000000000E+00 -0.22356168096E+04  0.22356168096E+04  0.50400001928E-02 0.  1.
    10030    2    1    2    0    0  0.00000000000E+00  0.00000000000E+00 -0.18685721803E+04  0.26026614389E+04  0.18117076400E+04 0.  0.
        4    1    3    3  502    0  0.63263792746E+03 -0.64247071473E+03 -0.80929409554E+03  0.12115931299E+04  0.12699999809E+01 0.  1.
       -4    1    3    3    0  502 -0.63263792746E+03  0.64247071473E+03 -0.10592780847E+04  0.13910683090E+04  0.12699999809E+01 0. -1.
</event>
<event>
 5   0  0.3413839E-04  0.1774303E+04  0.7818609E-02  0.8720086E-01
       -1   -1    0    0    0  501  0.00000000000E+00  0.00000000000E+00  0.68897957797E+03  0.68897957799E+03  0.50400001928E-02 0.  1.
        1   -1    0    0  501    0  0.00000000000E+00  0.00000000000E+00 -0.11423234519E+04  0.11423234519E+04  0.50400001928E-02 0. -1.
    10030    2    1    2    0    0  0.00000000000E+00  0.00000000000E+00 -0.45334387396E+03  0.18313030299E+04  0.17743027136E+04 0.  0.
        5    1    3    3  502    0 -0.58849974790E+03 -0.66383248487E+03 -0.22992249238E+03  0.91645619849E+03  0.46999998093E+01 0. -1.
       -5    1    3    3    0  502  0.58849974790E+03  0.66383248487E+03 -0.22342138157E+03  0.91484683144E+03  0.46999998093E+01 0.  1.
</event>
<event>
 5   0  0.3404261E-04  0.1810622E+04  0.7818609E-02  0.8700671E-01
        1   -1    0    0  501    0  0.00000000000E+00  0.00000000000E+00  0.10610432471E+04  0.10610432471E+04  0.50400001928E-02 0.  1.
       -1   -1    0    0    0  501  0.00000000000E+00  0.00000000000E+00 -0.77243575615E+03  0.77243575617E+03  0.50400001928E-02 0. -1.
    10030    2    1    2    0    0  0.00000000000E+00  0.00000000000E+00  0.28860749096E+03  0.18334790033E+04  0.18106217086E+04 0.  0.
        1    1    3    3  502    0 -0.67303307425E+03 -0.59602020868E+03  0.25229967858E+03  0.93373911562E+03  0.50400001928E-02 0.  1.
       -1    1    3    3    0  502  0.67303307425E+03  0.59602020868E+03  0.36307812373E+02  0.89973988767E+03  0.50400001928E-02 0. -1.
</event>
<event>
 5   0  0.3377273E-04  0.1742781E+04  0.7818609E-02  0.8737334E-01
        1   -1    0    0  501    0  0.00000000000E+00  0.00000000000E+00  0.90331054445E+03  0.90331054447E+03  0.50400001928E-02 0. -1.
       -1   -1    0    0    0  501  0.00000000000E+00  0.00000000000E+00 -0.84059881089E+03  0.84059881091E+03  0.50400001928E-02 0.  1.
    10030    2    1    2    0    0  0.00000000000E+00  0.00000000000E+00  0.62711733556E+02  0.17439093554E+04  0.17427814201E+04 0.  0.
        2    1    3    3  502    0 -0.43849927522E+03 -0.50837621544E+03 -0.52451583995E+03  0.85196529105E+03  0.25500000920E-02 0.  1.
       -2    1    3    3    0  502  0.43849927522E+03  0.50837621544E+03  0.58722757350E+03  0.89194406432E+03  0.25500000920E-02 0. -1.
</event>
<event>
 5   0  0.6929121E-04  0.1796826E+04  0.7818609E-02  0.8707989E-01
        2   -1    0    0  501    0  0.00000000000E+00  0.00000000000E+00  0.16396501024E+04  0.16396501024E+04  0.25500000920E-02 0. -1.
       -2   -1    0    0    0  501  0.00000000000E+00  0.00000000000E+00 -0.49226691632E+03  0.49226691633E+03  0.25500000920E-02 0.  1.
    10030    2    1    2    0    0  0.00000000000E+00  0.00000000000E+00  0.11473831860E+04  0.21319170187E+04  0.17968255338E+04 0.  0.
        3    1    3    3  502    0  0.38115223038E+01  0.27343028898E+03 -0.44168868031E+03  0.51948777768E+03  0.10100000352E+00 0.  1.
       -3    1    3    3    0  502 -0.38115223038E+01 -0.27343028898E+03  0.15890718664E+04  0.16124292410E+04  0.10100000352E+00 0. -1.
</event>
<event>
 5   0  0.6771967E-04  0.1381853E+04  0.7818609E-02  0.8967060E-01
        2   -1    0    0  501    0  0.00000000000E+00  0.00000000000E+00  0.27593057578E+04  0.27593057578E+04  0.25500000920E-02 0.  1.
       -2   -1    0    0    0  501  0.00000000000E+00  0.00000000000E+00 -0.17300715216E+03  0.17300715218E+03  0.25500000920E-02 0. -1.
    10030    2    1    2    0    0  0.00000000000E+00  0.00000000000E+00  0.25862986057E+04  0.29323129100E+04  0.13818532934E+04 0.  0.
        1    1    3    3  502    0  0.61592465556E+03  0.27100814576E+03  0.96052031273E+03  0.11727778424E+04  0.50400001928E-02 0. -1.
       -1    1    3    3    0  502 -0.61592465556E+03 -0.27100814576E+03  0.16257782929E+04  0.17595350676E+04  0.50400001928E-02 0.  1.
</event>
<event>
 5   0  0.3377273E-04  0.1765861E+04  0.7818609E-02  0.8724668E-01
        1   -1    0    0  501    0  0.00000000000E+00  0.00000000000E+00  0.21563258712E+04  0.21563258712E+04  0.50400001928E-02 0.  1.
       -1   -1    0    0    0  501  0.00000000000E+00  0.00000000000E+00 -0.36152509528E+03  0.36152509531E+03  0.50400001928E-02 0. -1.
    10030    2    1    2    0    0  0.00000000000E+00  0.00000000000E+00  0.17948007759E+04  0.25178509665E+04  0.17658606016E+04 0.  0.
        2    1    3    3  502    0  0.22780249621E+03  0.70201710300E+03  0.15883768750E+04  0.17514745466E+04  0.25500000920E-02 0.  1.
       -2    1    3    3    0  502 -0.22780249621E+03 -0.70201710300E+03  0.20642390092E+03  0.76637641996E+03  0.25500000920E-02 0. -1.
</event>
<event>
 5   0  0.3470962E-04  0.1766418E+04  0.7818609E-02  0.8724365E-01
        1   -1    0    0  501    0  0.00000000000E+00  0.00000000000E+00  0.83996888748E+03  0.83996888750E+03  0.50400001928E-02 0. -1.
       -1   -1    0    0    0  501  0.00000000000E+00  0.00000000000E+00 -0.92867454671E+03  0.92867454673E+03  0.50400001928E-02 0.  1.
    10030    2    1    2    0    0  0.00000000000E+00  0.00000000000E+00 -0.88705659232E+02  0.17686434342E+04  0.17664175337E+04 0.  0.
        4    1    3    3  502    0  0.29981461584E+03 -0.37101120404E+03 -0.78860503981E+03  0.92164941226E+03  0.12699999809E+01 0.  1.
       -4    1    3    3    0  502 -0.29981461584E+03  0.37101120404E+03  0.69989938058E+03  0.84699402196E+03  0.12699999809E+01 0. -1.
</event>
<event>
 5   0  0.3308275E-04  0.2158149E+04  0.7818609E-02  0.8536052E-01
       -1   -1    0    0    0  501  0.00000000000E+00  0.00000000000E+00  0.91861195128E+03  0.91861195129E+03  0.50400001928E-02 0. -1.
        1   -1    0    0  501    0  0.00000000000E+00  0.00000000000E+00 -0.12675667087E+04  0.12675667087E+04  0.50400001928E-02 0.  1.
    10030    2    1    2    0    0  0.00000000000E+00  0.00000000000E+00 -0.34895475742E+03  0.21861786600E+04  0.21581491400E+04 0.  0.
        3    1    3    3  502    0  0.11862695711E+02  0.66368420573E+03  0.68732725934E+03  0.95552928794E+03  0.10100000352E+00 0. -1.
       -3    1    3    3    0  502 -0.11862695711E+02 -0.66368420573E+03 -0.10362820168E+04  0.12306493721E+04  0.10100000352E+00 0.  1.
</event>
<event>
 5   0  0.3470962E-04  0.1160545E+04  0.7818609E-02  0.9148110E-01
       -1   -1    0    0    0  501  0.00000000000E+00  0.00000000000E+00  0.35433619582E+03  0.35433619586E+03  0.50400001928E-02 0.  1.
        1   -1    0    0  501    0  0.00000000000E+00  0.00000000000E+00 -0.95027247736E+03  0.95027247737E+03  0.50400001928E-02 0. -1.
    10030    2    1    2    0    0  0.00000000000E+00  0.00000000000E+00 -0.59593628153E+03  0.13046086732E+04  0.11605445871E+04 0.  0.
        4    1    3    3  502    0 -0.57354097619E+03  0.80512905021E+02 -0.25770680542E+03  0.63391323516E+03  0.12699999809E+01 0. -1.
       -4    1    3    3    0  502  0.57354097619E+03 -0.80512905021E+02 -0.33822947611E+03  0.67069543808E+03  0.12699999809E+01 0.  1.
</event>
<event>
 5   0  0.6853162E-04  0.1815834E+04  0.7818609E-02  0.8697924E-01
       -2   -1    0    0    0  501  0.00000000000E+00  0.00000000000E+00  0.61462229355E+03  0.61462229355E+03  0.25500000920E-02 0. -1.
        2   -1    0    0  501    0  0.00000000000E+00  0.00000000000E+00 -0.13411698329E+04  0.13411698329E+04  0.25500000920E-02 0.  1.
    10030    2    1    2    0    0  0.00000000000E+00  0.00000000000E+00 -0.72654753937E+03  0.19557921265E+04  0.18158335593E+04 0.  0.
        2    1    3    3  502    0 -0.58204207776E+03  0.68278904032E+03 -0.51305725820E+03  0.10335383902E+04  0.25500000920E-02 0.  1.
       -2    1    3    3    0  502  0.58204207776E+03 -0.68278904032E+03 -0.21349028117E+03  0.92225373625E+03  0.25500000920E-02 0. -1.
</event>
<event>
 5   0  0.6771967E-04  0.1865124E+04  0.7818609E-02  0.8672414E-01
        2   -1    0    0  501    0  0.00000000000E+00  0.00000000000E+00  0.65246399507E+03  0.65246399507E+03  0.25500000920E-02 0.  1.
       -2   -1    0    0    0  501  0.00000000000E+00  0.00000000000E+00 -0.13329046403E+04  0.13329046403E+04  0.25500000920E-02 0. -1.
    10030    2    1    2    0    0  0.00000000000E+00  0.00000000000E+00 -0.68044064528E+03  0.19853686354E+04  0.18651244320E+04 0.  0.
        1    1    3    3  502    0  0.38618305979E+03 -0.77665691376E+03  0.24411425955E+02  0.86771495037E+03  0.50400001928E-02 0.  1.
       -1    1    3    3    0  502 -0.38618305979E+03  0.77665691376E+03 -0.70485207123E+03  0.11176536851E+04  0.50400001928E-02 0. -1.
</event>
<event>
 5   0  0.3404261E-04  0.2095347E+04  0.7818609E-02  0.8563296E-01
        1   -1    0    0  501    0  0.00000000000E+00  0.00000000000E+00  0.12533674107E+04  0.12533674107E+04  0.50400001928E-02 0.  1.
       -1   -1    0    0    0  501  0.00000000000E+00  0.00000000000E+00 -0.87573672211E+03  0.87573672212E+03  0.50400001928E-02 0. -1.
    10030    2    1    2    0    0  0.00000000000E+00  0.00000000000E+00  0.37763068855E+03  0.21291041328E+04  0.20953471004E+04 0.  0.
        1    1    3    3  502    0  0.71450533540E+03 -0.16728875032E+03  0.94860271316E+03  0.11993125146E+04  0.50400001928E-02 0.  1.
       -1    1    3    3    0  502 -0.71450533540E+03  0.16728875032E+03 -0.57097202461E+03  0.92979161817E+03  0.50400001928E-02 0. -1.
</event>
<event>
 5   0  0.6853162E-04  0.1799584E+04  0.7818609E-02  0.8706521E-01
        2   -1    0    0  501    0  0.00000000000E+00  0.00000000000E+00  0.88311391088E+03  0.88311391088E+03  0.25500000920E-02 0. -1.
       -2   -1    0    0    0  501  0.00000000000E+00  0.00000000000E+00 -0.91678511286E+03  0.91678511286E+03  0.25500000920E-02 0.  1.
    10030    2    1    2    0    0  0.00000000000E+00  0.00000000000E+00 -0.33671201977E+02  0.17998990237E+04  0.17995840480E+04 0.  0.
        2    1    3    3  502    0 -0.58923611697E+03  0.43997316191E+03 -0.53543392530E+03  0.90965107218E+03  0.25500000920E-02 0.  1.
       -2    1    3    3    0  502  0.58923611697E+03 -0.43997316191E+03  0.50176272332E+03  0.89024795157E+03  0.25500000920E-02 0. -1.
</event>
<event>
 5   0  0.3308275E-04  0.1770446E+04  0.7818609E-02  0.8722176E-01
       -1   -1    0    0    0  501  0.00000000000E+00  0.00000000000E+00  0.10933797389E+04  0.10933797390E+04  0.50400001928E-02 0. -1.
        1   -1    0    0  501    0  0.00000000000E+00  0.00000000000E+00 -0.71669511958E+03  0.71669511960E+03  0.50400001928E-02 0.  1.
    10030    2    1    2    0    0  0.00000000000E+00  0.00000000000E+00  0.37668461937E+03  0.18100748586E+04  0.17704461842E+04 0.  0.
        3    1    3    3  502    0 -0.29995943819E+03 -0.40855649473E+03  0.93034608960E+03  0.10594517123E+04  0.10100000352E+00 0. -1.
       -3    1    3    3    0  502  0.29995943819E+03  0.40855649473E+03 -0.55366147023E+03  0.75062314630E+03  0.10100000352E+00 0.  1.
</event>
<event>
 5   0  0.6771967E-04  0.1207052E+04  0.7818609E-02  0.9106707E-01
        2   -1    0    0  501    0  0.00000000000E+00  0.00000000000E+00  0.11742404064E+04  0.11742404064E+04  0.25500000920E-02 0. -1.
       -2   -1    0    0    0  501  0.00000000000E+00  0.00000000000E+00 -0.31019487149E+03  0.31019487150E+03  0.25500000920E-02 0.  1.
    10030    2    1    2    0    0  0.00000000000E+00  0.00000000000E+00  0.86404553491E+03  0.14844352779E+04  0.12070515349E+04 0.  0.
        1    1    3    3  502    0 -0.21583334733E+03 -0.29112872882E+03  0.10255263587E+04  0.10876783913E+04  0.50400001928E-02 0. -1.
       -1    1    3    3    0  502  0.21583334733E+03  0.29112872882E+03 -0.16148082379E+03  0.39675688657E+03  0.50400001928E-02 0.  1.
</event>
<event>
 5   0  0.3308275E-04  0.1845001E+04  0.7818609E-02  0.8682728E-01
       -1   -1    0    0    0  501  0.00000000000E+00  0.00000000000E+00  0.54748909015E+03  0.54748909018E+03  0.50400001928E-02 0.  1.
        1   -1    0    0  501    0  0.00000000000E+00  0.00000000000E+00 -0.15543811488E+04  0.15543811488E+04  0.50400001928E-02 0. -1.
    10030    2    1    2    0    0  0.00000000000E+00  0.00000000000E+00 -0.10068920586E+04  0.21018702390E+04  0.18450005105E+04 0.  0.
        3    1    3    3  502    0  0.72983423950E+03  0.54836894119E+03 -0.65475376676E+03  0.11234184519E+04  0.10100000352E+00 0. -1.
       -3    1    3    3    0  502 -0.72983423950E+03 -0.54836894119E+03 -0.35213829187E+03  0.97845178706E+03  0.10100000352E+00 0.  1.
</event>
<event>
 5   0  0.6547153E-04  0.1698511E+04  0.7818609E-02  0.8762214E-01
       -2   -1    0    0    0  501  0.00000000000E+00  0.00000000000E+00  0.60043329760E+03  0.60043329761E+03  0.25500000920E-02 0. -1.
        2   -1    0    0  501    0  0.00000000000E+00  0.00000000000E+00 -0.12011905197E+04  0.12011905197E+04  0.25500000920E-02 0.  1.
    10030    2    1    2    0    0  0.00000000000E+00  0.00000000000E+00 -0.60075722210E+03  0.18016238173E+04  0.16985108593E+04 0.  0.
        5    1    3    3  502    0  0.49285638103E+03 -0.59276575586E+03  0.77528305078E+02  0.77479763922E+03  0.46999998093E+01 0. -1.
       -5    1    3    3    0  502 -0.49285638103E+03  0.59276575586E+03 -0.67828552718E+03  0.10268261781E+04  0.46999998093E+01 0.  1.
</event>
<event>
 5   0  0.6771967E-04  0.1789101E+04  0.7818609E-02  0.8712117E-01
       -2   -1    0    0    0  501  0.00000000000E+00  0.00000000000E+00  0.60798246352E+03  0.60798246353E+03  0.25500000920E-02 0. -1.
        2   -1    0    0  501    0  0.00000000000E+00  0.00000000000E+00 -0.13161899934E+04  0.13161899934E+04  0.25500000920E-02 0.  1.
    10030    2    1    2    0    0  0.00000000000E+00  0.00000000000E+00 -0.70820752984E+03  0.19241724569E+04  0.17891008184E+04 0.  0.
        1    1    3    3  502    0  0.39256166240E+03 -0.72702469873E+03  0.14637796845E+02  0.82636785784E+03  0.50400001928E-02 0. -1.
       -1    1    3    3    0  502 -0.39256166240E+03  0.72702469873E+03 -0.72284532668E+03  0.10978045990E+04  0.50400001928E-02 0.  1.
</event>
<event>
 5   0  0.3377273E-04  0.1862609E+04  0.7818609E-02  0.8673695E-01
       -1   -1    0    0    0  501  0.00000000000E+00  0.00000000000E+00  0.76986858211E+03  0.76986858213E+03  0.50400001928E-02 0.  1.
        1   -1    0    0  501    0  0.00000000000E+00  0.00000000000E+00 -0.11265929153E+04  0.11265929153E+04  0.50400001928E-02 0. -1.
    10030    2    1    2    0    0  0.00000000000E+00  0.00000000000E+00 -0.35672433322E+03  0.18964614975E+04  0.18626094495E+04 0.  0.
        2    1    3    3  502    0  0.26073960815E+03 -0.52578866386E+02 -0.10870958012E+04  0.11191635097E+04  0.25500000920E-02 0. -1.
       -2    1    3    3    0  502 -0.26073960815E+03  0.52578866386E+02  0.73037146801E+03  0.77729798774E+03  0.25500000920E-02 0.  1.
</event>
<event>
 5   0  0.6853162E-04  0.1797400E+04  0.7818609E-02  0.8707683E-01
        2   -1    0    0  501    0  0.00000000000E+00  0.00000000000E+00  0.16445317782E+04  0.16445317782E+04  0.25500000920E-02 0. -1.
       -2   -1    0    0    0  501  0.00000000000E+00  0.00000000000E+00 -0.49111970925E+03  0.49111970926E+03  0.25500000920E-02 0.  1.
    10030    2    1    2    0    0  0.00000000000E+00  0.00000000000E+00  0.11534120690E+04  0.21356514875E+04  0.17974003102E+04 0.  0.
        2    1    3    3  502    0 -0.39805368160E+03  0.14091496225E+03 -0.36590934379E+03  0.55874270277E+03  0.25500000920E-02 0.  1.
       -2    1    3    3    0  502  0.39805368160E+03 -0.14091496225E+03  0.15193214128E+04  0.15769087847E+04  0.25500000920E-02 0. -1.
</event>
<event>
 5   0  0.6771967E-04  0.1434757E+04  0.7818609E-02  0.8929037E-01
       -2   -1    0    0    0  501  0.00000000000E+00  0.00000000000E+00  0.30622684008E+03  0.30622684009E+03  0.25500000920E-02 0.  1.
        2   -1    0    0  501    0  0.00000000000E+00  0.00000000000E+00 -0.16805585500E+04  0.16805585500E+04  0.25500000920E-02 0. -1.
    10030    2    1    2    0    0  0.00000000000E+00  0.00000000000E+00 -0.13743317099E+04  0.19867853901E+04  0.14347573096E+04 0.  0.
        1    1    3    3  502    0 -0.52418073885E+03  0.47257309681E+03 -0.86526345191E+03  0.11165892799E+04  0.50400001928E-02 0. -1.
       -1    1    3    3    0  502  0.52418073885E+03 -0.47257309681E+03 -0.50906825803E+03  0.87019611018E+03  0.50400001928E-02 0.  1.
</event>
<event>
 5   0  0.3377273E-04  0.1818194E+04  0.7818609E-02  0.8696684E-01
        1   -1    0    0  501    0  0.00000000000E+00  0.00000000000E+00  0.12112620010E+04  0.12112620010E+04  0.50400001928E-02 0. -1.
       -1   -1    0    0    0  501  0.00000000000E+00  0.00000000000E+00 -0.68231069763E+03  0.68231069765E+03  0.50400001928E-02 0.  1.
    10030    2    1    2    0    0  0.00000000000E+00  0.00000000000E+00  0.52895130335E+03  0.18935726986E+04  0.18181936321E+04 0.  0.
        2    1    3    3  502    0  0.70701559355E+03  0.49729269184E+03 -0.28775663262E+02  0.86486941771E+03  0.25500000920E-02 0.  1.
       -2    1    3    3    0  502 -0.70701559355E+03 -0.49729269184E+03  0.55772696661E+03  0.10287032809E+04  0.25500000920E-02 0. -1.
</event>
<event>
 5   0  0.3470962E-04  0.1784296E+04  0.7818609E-02  0.8714696E-01
        1   -1    0    0  501    0  0.00000000000E+00  0.00000000000E+00  0.42239990459E+03  0.42239990462E+03  0.50400001928E-02 0.  1.
       -1   -1    0    0    0  501  0.00000000000E+00  0.00000000000E+00 -0.18842989491E+04  0.18842989491E+04  0.50400001928E-02 0. -1.
    10030    2    1    2    0    0  0.00000000000E+00  0.00000000000E+00 -0.14618990445E+04  0.23066988538E+04  0.17842955992E+04 0.  0.
        4    1    3    3  502    0  0.88845628783E+03  0.71914140247E+02 -0.68258052340E+03  0.11226949732E+04  0.12699999809E+01 0.  1.
       -4    1    3    3    0  502 -0.88845628783E+03 -0.71914140247E+02 -0.77931852114E+03  0.11840038806E+04  0.12699999809E+01 0. -1.
</event>
<event>
 5   0  0.6547153E-04  0.1789734E+04  0.7818609E-02  0.8711778E-01
        2   -1    0    0  501    0  0.00000000000E+00  0.00000000000E+00  0.76411917592E+03  0.76411917593E+03  0.25500000920E-02 0. -1.
       -2   -1    0    0    0  501  0.00000000000E+00  0.00000000000E+00 -0.10479868954E+04  0.10479868954E+04  0.25500000920E-02 0.  1.
    10030    2    1    2    0    0  0.00000000000E+00  0.00000000000E+00 -0.28386771950E+03  0.18121060714E+04  0.17897339276E+04 0.  0.
        5    1    3    3  502    0 -0.41233159281E+03  0.77136645978E+03  0.49482883654E+02  0.87606746514E+03  0.46999998093E+01 0. -1.
       -5    1    3    3    0  502  0.41233159281E+03 -0.77136645978E+03 -0.33335060315E+03  0.93603860621E+03  0.46999998093E+01 0.  1.
</event>
<event>
 5   0  0.3308275E-04  0.1363856E+04  0.7818609E-02  0.8980405E-01
        1   -1    0    0  501    0  0.00000000000E+00  0.00000000000E+00  0.34538833401E+03  0.34538833405E+03  0.50400001928E-02 0. -1.
       -1   -1    0    0    0  501  0.00000000000E+00  0.00000000000E+00 -0.13463855407E+04  0.13463855407E+04  0.50400001928E-02 0.  1.
    10030    2    1    2    0    0  0.00000000000E+00  0.00000000000E+00 -0.10009972067E+04  0.16917738747E+04  0.13638560905E+04 0.  0.
        3    1    3    3  502    0 -0.30485198793E+03  0.23658431840E+03  0.19692886599E+03  0.43322957277E+03  0.10100000352E+00 0. -1.
       -3    1    3    3    0  502  0.30485198793E+03 -0.23658431840E+03 -0.11979260727E+04  0.12585443020E+04  0.10100000352E+00 0.  1.
</event>
<event>
 5   0  0.3308275E-04  0.1825100E+04  0.7818609E-02  0.8693064E-01
        1   -1    0    0  501    0  0.00000000000E+00  0.00000000000E+00  0.71171643082E+03  0.71171643084E+03  0.50400001928E-02 0. -1.
       -1   -1    0    0    0  501  0.00000000000E+00  0.00000000000E+00 -0.11700549331E+04  0.11700549331E+04  0.50400001928E-02 0.  1.
    10030    2    1    2    0    0  0.00000000000E+00  0.00000000000E+00 -0.45833850227E+03  0.18817713639E+04  0.18250998010E+04 0.  0.
        3    1    3    3  502    0  0.21729757735E+03  0.15531424527E+03 -0.11288502417E+04  0.11600188060E+04  0.10100000352E+00 0.  1.
       -3    1    3    3    0  502 -0.21729757735E+03 -0.15531424527E+03  0.67051173945E+03  0.72175255791E+03  0.10100000352E+00 0. -1.
</event>
<event>
 5   0  0.6929121E-04  0.1349310E+04  0.7818609E-02  0.8991351E-01
        2   -1    0    0  501    0  0.00000000000E+00  0.00000000000E+00  0.14231169056E+04  0.14231169056E+04  0.25500000920E-02 0.  1.
       -2   -1    0    0    0  501  0.00000000000E+00  0.00000000000E+00 -0.31983274667E+03  0.31983274668E+03  0.25500000920E-02 0. -1.
    10030    2    1    2    0    0  0.00000000000E+00  0.00000000000E+00  0.11032841589E+04  0.17429496523E+04  0.13493100292E+04 0.  0.
        3    1    3    3  502    0 -0.62288195167E+03  0.22659983116E+03  0.71416444340E+03  0.97435120548E+03  0.10100000352E+00 0.  1.
       -3    1    3    3    0  502  0.62288195167E+03 -0.22659983116E+03  0.38911971554E+03  0.76859844680E+03  0.10100000352E+00 0. -1.
</event>
<event>
 5   0  0.6547153E-04  0.1796766E+04  0.7818609E-02  0.8708021E-01
        2   -1    0    0  501    0  0.00000000000E+00  0.00000000000E+00  0.80765943169E+03  0.80765943170E+03  0.25500000920E-02 0.  1.
       -2   -1    0    0    0  501  0.00000000000E+00  0.00000000000E+00 -0.99929735910E+03  0.99929735911E+03  0.25500000920E-02 0. -1.
    10030    2    1    2    0    0  0.00000000000E+00  0.00000000000E+00 -0.19163792741E+03  0.18069567908E+04  0.17967659137E+04 0.  0.
        5    1    3    3  502    0  0.33483590168E+03  0.83342942105E+03 -0.77000099996E+02  0.90148254910E+03  0.46999998093E+01 0. -1.
       -5    1    3    3    0  502 -0.33483590168E+03 -0.83342942105E+03 -0.11463782741E+03  0.90547424171E+03  0.46999998093E+01 0.  1.
</event>
<event>
 5   0  0.3413839E-04  0.1976604E+04  0.7818609E-02  0.8617638E-01
       -1   -1    0    0    0  501  0.00000000000E+00  0.00000000000E+00  0.10316043747E+04  0.10316043747E+04  0.50400001928E-02 0. -1.
        1   -1    0    0  501    0  0.00000000000E+00  0.00000000000E+00 -0.94681748789E+03  0.94681748791E+03  0.50400001928E-02 0.  1.
    10030    2    1    2    0    0  0.00000000000E+00  0.00000000000E+00  0.84786886812E+02  0.19784218626E+04  0.19766042220E+04 0.  0.
        5    1    3    3  502    0 -0.81500144068E+03 -0.36951601588E+03  0.46224256574E+03  0.10072039088E+04  0.46999998093E+01 0.  1.
       -5    1    3    3    0  502  0.81500144068E+03  0.36951601588E+03 -0.37745567893E+03  0.97121795384E+03  0.46999998093E+01 0. -1.
</event>
<event>
 5   0  0.3377273E-04  0.1811459E+04  0.7818609E-02  0.8700229E-01
        1   -1    0    0  501    0  0.00000000000E+00  0.00000000000E+00  0.24124644028E+04  0.24124644028E+04  0.50400001928E-02 0.  1.
       -1   -1    0    0    0  501  0.00000000000E+00  0.00000000000E+00 -0.34004495906E+03  0.34004495909E+03  0.50400001928E-02 0. -1.
    10030    2    1    2    0    0  0.00000000000E+00  0.00000000000E+00  0.20724194438E+04  0.27525093619E+04  0.18114594769E+04 0.  0.
        2    1    3    3  502    0 -0.36218672984E+03  0.76377212721E+03  0.15305005607E+04  0.17484161564E+04  0.25500000920E-02 0.  1.
       -2    1    3    3    0  502  0.36218672984E+03 -0.76377212721E+03  0.54191888306E+03  0.10040932055E+04  0.25500000920E-02 0. -1.
</event>
<event>
 5   0  0.6774451E-04  0.1813042E+04  0.7818609E-02  0.8699394E-01
       -2   -1    0    0    0  501  0.00000000000E+00  0.00000000000E+00  0.57513213368E+03  0.57513213369E+03  0.25500000920E-02 0.  1.
        2   -1    0    0  501    0  0.00000000000E+00  0.00000000000E+00 -0.14288549435E+04  0.14288549435E+04  0.25500000920E-02 0. -1.
    10030    2    1    2    0    0  0.00000000000E+00  0.00000000000E+00 -0.85372280980E+03  0.20039870772E+04  0.18130420760E+04 0.  0.
        4    1    3    3  502    0  0.36337478462E+03  0.74890682546E+03 -0.30059958439E+02  0.83295130789E+03  0.12699999809E+01 0. -1.
       -4    1    3    3    0  502 -0.36337478462E+03 -0.74890682546E+03 -0.82366285136E+03  0.11710357693E+04  0.12699999809E+01 0.  1.
</event>
<event>
 5   0  0.6547153E-04  0.1794697E+04  0.7818609E-02  0.8709125E-01
        2   -1    0    0  501    0  0.00000000000E+00  0.00000000000E+00  0.96245420808E+03  0.96245420808E+03  0.25500000920E-02 0. -1.
       -2   -1    0    0    0  501  0.00000000000E+00  0.00000000000E+00 -0.83664691262E+03  0.83664691263E+03  0.25500000920E-02 0.  1.
    10030    2    1    2    0    0  0.00000000000E+00  0.00000000000E+00  0.12580729546E+03  0.17991011207E+04  0.17946970126E+04 0.  0.
        5    1    3    3  502    0  0.13215893459E+03 -0.83294636008E+03  0.37016294632E+03  0.92103654628E+03  0.46999998093E+01 0. -1.
       -5    1    3    3    0  502 -0.13215893459E+03  0.83294636008E+03 -0.24435565086E+03  0.87806457443E+03  0.46999998093E+01 0.  1.
</event>
<event>
 5   0  0.3404261E-04  0.1694069E+04  0.7818609E-02  0.8764754E-01
       -1   -1    0    0    0  501  0.00000000000E+00  0.00000000000E+00  0.82491006131E+03  0.82491006133E+03  0.50400001928E-02 0. -1.
        1   -1    0    0  501    0  0.00000000000E+00  0.00000000000E+00 -0.86975268784E+03  0.86975268786E+03  0.50400001928E-02 0.  1.
    10030    2    1    2    0    0  0.00000000000E+00  0.00000000000E+00 -0.44842626529E+02  0.16946627492E+04  0.16940693529E+04 0.  0.
        1    1    3    3  502    0  0.12021162099E+03  0.32306424491E+03 -0.79641476443E+03  0.86781208634E+03  0.50400001928E-02 0.  1.
       -1    1    3    3    0  502 -0.12021162099E+03 -0.32306424491E+03  0.75157213791E+03  0.82685066285E+03  0.50400001928E-02 0. -1.
</event>
<event>
 5   0  0.6853162E-04  0.1624527E+04  0.7818609E-02  0.8805620E-01
       -2   -1    0    0    0  501  0.00000000000E+00  0.00000000000E+00  0.65027854108E+03  0.65027854108E+03  0.25500000920E-02 0. -1.
        2   -1    0    0  501    0  0.00000000000E+00  0.00000000000E+00 -0.10145991470E+04  0.10145991470E+04  0.25500000920E-02 0.  1.
    10030    2    1    2    0    0  0.00000000000E+00  0.00000000000E+00 -0.36432060597E+03  0.16648776881E+04  0.16245270735E+04 0.  0.
        2    1    3    3  502    0  0.47093028850E+03  0.39806084014E+03 -0.72401231199E+03  0.95101082906E+03  0.25500000920E-02 0.  1.
       -2    1    3    3    0  502 -0.47093028850E+03 -0.39806084014E+03  0.35969170602E+03  0.71386685906E+03  0.25500000920E-02 0. -1.
</event>
<event>
 5   0  0.3377273E-04  0.1860534E+04  0.7818609E-02  0.8674754E-01
       -1   -1    0    0    0  501  0.00000000000E+00  0.00000000000E+00  0.49360332241E+03  0.49360332244E+03  0.50400001928E-02 0. -1.
        1   -1    0    0  501    0  0.00000000000E+00  0.00000000000E+00 -0.17532230524E+04  0.17532230524E+04  0.50400001928E-02 0.  1.
    10030    2    1    2    0    0  0.00000000000E+00  0.00000000000E+00 -0.12596197299E+04  0.22468263748E+04  0.18605340347E+04 0.  0.
        2    1    3    3  502    0 -0.47301458471E+03 -0.68176815201E+03 -0.11376530792E+04  0.14081211379E+04  0.25500000920E-02 0. -1.
       -2    1    3    3    0  502  0.47301458471E+03  0.68176815201E+03 -0.12196665073E+03  0.83870523687E+03  0.25500000920E-02 0.  1.
</event>
<event>
 5   0  0.6771967E-04  0.1789553E+04  0.7818609E-02  0.8711875E-01
       -2   -1    0    0    0  501  0.00000000000E+00  0.00000000000E+00  0.13091396413E+04  0.13091396413E+04  0.25500000920E-02 0. -1.
        2   -1    0    0  501    0  0.00000000000E+00  0.00000000000E+00 -0.61156574902E+03  0.61156574903E+03  0.25500000920E-02 0.  1.
    10030    2    1    2    0    0  0.00000000000E+00  0.00000000000E+00  0.69757389226E+03  0.19207053903E+04  0.17895529780E+04 0.  0.
        1    1    3    3  502    0  0.44832445107E+03  0.70544675009E+03  0.69152563116E+03  0.10848306915E+04  0.50400001928E-02 0. -1.
       -1    1    3    3    0  502 -0.44832445107E+03 -0.70544675009E+03  0.60482610968E+01  0.83587469882E+03  0.50400001928E-02 0.  1.
</event>
<event>
 5   0  0.3308275E-04  0.1777107E+04  0.7818609E-02  0.8718569E-01
       -1   -1    0    0    0  501  0.00000000000E+00  0.00000000000E+00  0.69817883390E+03  0.69817883392E+03  0.50400001928E-02 0. -1.
        1   -1    0    0  501    0  0.00000000000E+00  0.00000000000E+00 -0.11308384701E+04  0.11308384701E+04  0.50400001928E-02 0.  1.
    10030    2    1    2    0    0  0.00000000000E+00  0.00000000000E+00 -0.43265963619E+03  0.18290173040E+04  0.17771071824E+04 0.  0.
        3    1    3    3  502    0 -0.20468348335E+03 -0.50573822434E+03 -0.93814395546E+03  0.10852559934E+04  0.10100000352E+00 0.  1.
       -3    1    3    3    0  502  0.20468348335E+03  0.50573822434E+03  0.50548431927E+03  0.74376131060E+03  0.10100000352E+00 0. -1.
</event>
<event>
 5   0  0.3308275E-04  0.1817094E+04  0.7818609E-02  0.8697262E-01
       -1   -1    0    0    0  501  0.00000000000E+00  0.00000000000E+00  0.38540008406E+03  0.38540008410E+03  0.50400001928E-02 0.  1.
        1   -1    0    0  501    0  0.00000000000E+00  0.00000000000E+00 -0.21418199787E+04  0.21418199787E+04  0.50400001928E-02 0. -1.
    10030    2    1    2    0    0  0.00000000000E+00  0.00000000000E+00 -0.17564198947E+04  0.25272200628E+04  0.18170939435E+04 0.  0.
        3    1    3    3  502    0 -0.65806024393E+03  0.51719243713E+03 -0.13697881278E+04  0.16052572463E+04  0.10100000352E+00 0. -1.
       -3    1    3    3    0  502  0.65806024393E+03 -0.51719243713E+03 -0.38663176691E+03  0.92196281653E+03  0.10100000352E+00 0.  1.
</event>
<event>
 5   0  0.6774451E-04  0.1827456E+04  0.7818609E-02  0.8691833E-01
       -2   -1    0    0    0  501  0.00000000000E+00  0.00000000000E+00  0.12862609080E+04  0.12862609080E+04  0.25500000920E-02 0. -1.
        2   -1    0    0  501    0  0.00000000000E+00  0.00000000000E+00 -0.64909013184E+03  0.64909013185E+03  0.25500000920E-02 0.  1.
    10030    2    1    2    0    0  0.00000000000E+00  0.00000000000E+00  0.63717077617E+03  0.19353510399E+04  0.18274564426E+04 0.  0.
        4    1    3    3  502    0  0.90132707105E+03  0.35766916181E+02  0.47288545389E+03  0.10184753442E+04  0.12699999809E+01 0. -1.
       -4    1    3    3    0  502 -0.90132707105E+03 -0.35766916181E+02  0.16428532228E+03  0.91687569568E+03  0.12699999809E+01 0.  1.
</event>
<event>
 5   0  0.6771967E-04  0.1700250E+04  0.7818609E-02  0.8761222E-01
       -2   -1    0    0    0  501  0.00000000000E+00  0.00000000000E+00  0.10075207828E+04  0.10075207828E+04  0.25500000920E-02 0. -1.
        2   -1    0    0  501    0  0.00000000000E+00  0.00000000000E+00 -0.71731773438E+03  0.71731773438E+03  0.25500000920E-02 0.  1.
    10030    2    1    2    0    0  0.00000000000E+00  0.00000000000E+00  0.29020304846E+03  0.17248385172E+04  0.17002500114E+04 0.  0.
        1    1    3    3  502    0 -0.45152388839E+03  0.68543570119E+03 -0.79497187286E+02  0.82463065979E+03  0.50400001928E-02 0.  1.
       -1    1    3    3    0  502  0.45152388839E+03 -0.68543570119E+03  0.36970023574E+03  0.90020785743E+03  0.50400001928E-02 0. -1.
</event>
<event>
 5   0  0.2467375E-04  0.1757168E+04  0.7818609E-02  0.8729414E-01
        4   -1    0    0  501    0  0.00000000000E+00  0.00000000000E+00  0.13335731050E+04  0.13335737097E+04  0.12699999809E+01 0.  1.
       -4   -1    0    0    0  501  0.00000000000E+00  0.00000000000E+00 -0.57882717555E+03  0.57882856880E+03  0.12699999809E+01 0. -1.
    10030    2    1    2    0    0  0.00000000000E+00  0.00000000000E+00  0.75474592944E+03  0.19124022785E+04  0.17571684771E+04 0.  0.
        1    1    3    3  502    0  0.52130701369E+03  0.69393654427E+03  0.22893742474E+03  0.89761978279E+03  0.50400001928E-02 0. -1.
       -1    1    3    3    0  502 -0.52130701369E+03 -0.69393654427E+03  0.52580850470E+03  0.10147824957E+04  0.50400001928E-02 0.  1.
</event>
<event>
 5   0  0.3470962E-04  0.1713529E+04  0.7818609E-02  0.8753686E-01
       -1   -1    0    0    0  501  0.00000000000E+00  0.00000000000E+00  0.46424404454E+03  0.46424404457E+03  0.50400001928E-02 0. -1.
        1   -1    0    0  501    0  0.00000000000E+00  0.00000000000E+00 -0.15811627470E+04  0.15811627470E+04  0.50400001928E-02 0.  1.
    10030    2    1    2    0    0  0.00000000000E+00  0.00000000000E+00 -0.11169187025E+04  0.20454067916E+04  0.17135289770E+04 0.  0.
        4    1    3    3  502    0 -0.63306028399E+03 -0.14886207036E+03 -0.12242706861E+04  0.13862775930E+04  0.12699999809E+01 0.  1.
       -4    1    3    3    0  502  0.63306028399E+03  0.14886207036E+03  0.10735198360E+03  0.65912919859E+03  0.12699999809E+01 0. -1.
</event>
<event>
 5   0  0.3413839E-04  0.1706452E+04  0.7818609E-02  0.8757693E-01
        1   -1    0    0  501    0  0.00000000000E+00  0.00000000000E+00  0.16442480617E+04  0.16442480617E+04  0.50400001928E-02 0. -1.
       -1   -1    0    0    0  501  0.00000000000E+00  0.00000000000E+00 -0.44275224936E+03  0.44275224939E+03  0.50400001928E-02 0.  1.
    10030    2    1    2    0    0  0.00000000000E+00  0.00000000000E+00  0.12014958124E+04  0.20870003111E+04  0.17064519072E+04 0.  0.
        5    1    3    3  502    0  0.67144262560E+03  0.38648262782E+03  0.10379077050E+04  0.12951750905E+04  0.46999998093E+01 0. -1.
       -5    1    3    3    0  502 -0.67144262560E+03 -0.38648262782E+03  0.16358810739E+03  0.79182522059E+03  0.46999998093E+01 0.  1.
</event>
<event>
 5   0  0.6853162E-04  0.1829981E+04  0.7818609E-02  0.8690516E-01
       -2   -1    0    0    0  501  0.00000000000E+00  0.00000000000E+00  0.36202374260E+03  0.36202374261E+03  0.25500000920E-02 0.  1.
        2   -1    0    0  501    0  0.00000000000E+00  0.00000000000E+00 -0.23125762808E+04  0.23125762808E+04  0.25500000920E-02 0. -1.
    10030    2    1    2    0    0  0.00000000000E+00  0.00000000000E+00 -0.19505525382E+04  0.26746000234E+04  0.18299808963E+04 0.  0.
        2    1    3    3  502    0 -0.13010933061E+03  0.26397090671E+03 -0.22415165285E+04  0.22607532871E+04  0.25500000920E-02 0. -1.
       -2    1    3    3    0  502  0.13010933061E+03 -0.26397090671E+03  0.29096399031E+03  0.41384673632E+03  0.25500000920E-02 0.  1.
</event>
<event>
 5   0  0.3470962E-04  0.1751422E+04  0.7818609E-02  0.8732568E-01
        1   -1    0    0  501    0  0.00000000000E+00  0.00000000000E+00  0.67097838356E+03  0.67097838358E+03  0.50400001928E-02 0.  1.
       -1   -1    0    0    0  501  0.00000000000E+00  0.00000000000E+00 -0.11429124663E+04  0.11429124663E+04  0.50400001928E-02 0. -1.
    10030    2    1    2    0    0  0.00000000000E+00  0.00000000000E+00 -0.47193408273E+03  0.18138908499E+04  0.17514217758E+04 0.  0.
        4    1    3    3  502    0  0.55800623434E+03 -0.71661012625E+02 -0.93099315785E+03  0.10877757725E+04  0.12699999809E+01 0. -1.
       -4    1    3    3    0  502 -0.55800623434E+03  0.71661012625E+02  0.45905907512E+03  0.72611507741E+03  0.12699999809E+01 0.  1.
</event>
<event>
 5   0  0.6547153E-04  0.1684732E+04  0.7818609E-02  0.8770121E-01
       -2   -1    0    0    0  501  0.00000000000E+00  0.00000000000E+00  0.48838723142E+03  0.48838723143E+03  0.25500000920E-02 0. -1.
        2   -1    0    0  501    0  0.00000000000E+00  0.00000000000E+00 -0.14529050185E+04  0.14529050185E+04  0.25500000920E-02 0.  1.
    10030    2    1    2    0    0  0.00000000000E+00  0.00000000000E+00 -0.96451778707E+03  0.19412922499E+04  0.16847317407E+04 0.  0.
        5    1    3    3  502    0 -0.15434017370E+03 -0.82127303577E+03 -0.60446573498E+03  0.10313637589E+04  0.46999998093E+01 0.  1.
       -5    1    3    3    0  502  0.15434017370E+03  0.82127303577E+03 -0.36005205209E+03  0.90992849099E+03  0.46999998093E+01 0. -1.
</event>
<event>
 5   0  0.3413839E-04  0.1699048E+04  0.7818609E-02  0.8761908E-01
       -1   -1    0    0    0  501  0.00000000000E+00  0.00000000000E+00  0.37895263206E+03  0.37895263209E+03  0.50400001928E-02 0. -1.
        1   -1    0    0  501    0  0.00000000000E+00  0.00000000000E+00 -0.19044355737E+04  0.19044355737E+04  0.50400001928E-02 0.  1.
    10030    2    1    2    0    0  0.00000000000E+00  0.00000000000E+00 -0.15254829416E+04  0.22833882058E+04  0.16990478195E+04 0.  0.
        5    1    3    3  502    0  0.81205036068E+03 -0.77898666694E+02 -0.44421546883E+03  0.92889367707E+03  0.46999998093E+01 0. -1.
       -5    1    3    3    0  502 -0.81205036068E+03  0.77898666694E+02 -0.10812674728E+04  0.13544945287E+04  0.46999998093E+01 0.  1.
</event>
<event>
 5   0  0.3404261E-04  0.1818031E+04  0.7818609E-02  0.8696769E-01
        1   -1    0    0  501    0  0.00000000000E+00  0.00000000000E+00  0.53652165319E+03  0.53652165321E+03  0.50400001928E-02 0.  1.
       -1   -1    0    0    0  501  0.00000000000E+00  0.00000000000E+00 -0.15401234752E+04  0.15401234752E+04  0.50400001928E-02 0. -1.
    10030    2    1    2    0    0  0.00000000000E+00  0.00000000000E+00 -0.10036018220E+04  0.20766451284E+04  0.18180314553E+04 0.  0.
        1    1    3    3  502    0  0.42316240705E+03  0.40970288872E+03 -0.12926687062E+04  0.14205334434E+04  0.50400001928E-02 0. -1.
       -1    1    3    3    0  502 -0.42316240705E+03 -0.40970288872E+03  0.28906688414E+03  0.65611168508E+03  0.50400001928E-02 0.  1.
</event>
<event>
 5   0  0.6853162E-04  0.1860173E+04  0.7818609E-02  0.8674939E-01
       -2   -1    0    0    0  501  0.00000000000E+00  0.00000000000E+00  0.11496941345E+04  0.11496941345E+04  0.25500000920E-02 0. -1.
        2   -1    0    0  501    0  0.00000000000E+00  0.00000000000E+00 -0.75242737858E+03  0.75242737858E+03  0.25500000920E-02 0.  1.
    10030    2    1    2    0    0  0.00000000000E+00  0.00000000000E+00  0.39726675588E+03  0.19021215130E+04  0.18601734798E+04 0.  0.
        2    1    3    3  502    0 -0.99787022036E+02 -0.44353168295E+02 -0.74584956474E+03  0.75380118501E+03  0.25500000920E-02 0.  1.
       -2    1    3    3    0  502  0.99787022036E+02  0.44353168295E+02  0.11431163206E+04  0.11483203280E+04  0.25500000920E-02 0. -1.
</event>
<event>
 5   0  0.3413839E-04  0.1851496E+04  0.7818609E-02  0.8679384E-01
        1   -1    0    0  501    0  0.00000000000E+00  0.00000000000E+00  0.15551302996E+04  0.15551302996E+04  0.50400001928E-02 0.  1.
       -1   -1    0    0    0  501  0.00000000000E+00  0.00000000000E+00 -0.55108539316E+03  0.55108539319E+03  0.50400001928E-02 0. -1.
    10030    2    1    2    0    0  0.00000000000E+00  0.00000000000E+00  0.10040449064E+04  0.21062156928E+04  0.18514962518E+04 0.  0.
        5    1    3    3  502    0 -0.48466865362E+03 -0.12390009182E+03 -0.38406922954E+03  0.63070294088E+03  0.46999998093E+01 0. -1.
       -5    1    3    3    0  502  0.48466865362E+03  0.12390009182E+03  0.13881141360E+04  0.14755127519E+04  0.46999998093E+01 0.  1.
</event>
<event>
 5   0  0.6771967E-04  0.1812502E+04  0.7818609E-02  0.8699679E-01
        2   -1    0    0  501    0  0.00000000000E+00  0.00000000000E+00  0.61924998348E+03  0.61924998349E+03  0.25500000920E-02 0. -1.
       -2   -1    0    0    0  501  0.00000000000E+00  0.00000000000E+00 -0.13262677269E+04  0.13262677269E+04  0.25500000920E-02 0.  1.
    10030    2    1    2    0    0  0.00000000000E+00  0.00000000000E+00 -0.70701774345E+03  0.19455177104E+04  0.18125024337E+04 0.  0.
        1    1    3    3  502    0 -0.83231425192E+02 -0.29780856143E+03 -0.12678901586E+04  0.13050528203E+04  0.50400001928E-02 0.  1.
       -1    1    3    3    0  502  0.83231425192E+02  0.29780856143E+03  0.56087241516E+03  0.64046489015E+03  0.50400001928E-02 0. -1.
</event>
<event>
 5   0  0.3404261E-04  0.1641119E+04  0.7818609E-02  0.8795678E-01
        1   -1    0    0  501    0  0.00000000000E+00  0.00000000000E+00  0.57237691924E+03  0.57237691926E+03  0.50400001928E-02 0.  1.
       -1   -1    0    0    0  501  0.00000000000E+00  0.00000000000E+00 -0.11763537331E+04  0.11763537331E+04  0.50400001928E-02 0. -1.
    10030    2    1    2    0    0  0.00000000000E+00  0.00000000000E+00 -0.60397681385E+03  0.17487306524E+04  0.16411187961E+04 0.  0.
        1    1    3    3  502    0 -0.44370175442E+03 -0.68371114283E+03 -0.20098052054E+03  0.83947920961E+03  0.50400001928E-02 0. -1.
       -1    1    3    3    0  502  0.44370175442E+03  0.68371114283E+03 -0.40299629330E+03  0.90925144275E+03  0.50400001928E-02 0.  1.
</event>
<event>
 5   0  0.3377273E-04  0.1834632E+04  0.7818609E-02  0.8688096E-01
        1   -1    0    0  501    0  0.00000000000E+00  0.00000000000E+00  0.11500550236E+04  0.11500550236E+04  0.50400001928E-02 0.  1.
       -1   -1    0    0    0  501  0.00000000000E+00  0.00000000000E+00 -0.73167716013E+03  0.73167716015E+03  0.50400001928E-02 0. -1.
    10030    2    1    2    0    0  0.00000000000E+00  0.00000000000E+00  0.41837786342E+03  0.18817321837E+04  0.18346323813E+04 0.  0.
        2    1    3    3  502    0 -0.45041507914E+03 -0.21298303388E+03  0.99917891352E+03  0.11165097480E+04  0.25500000920E-02 0.  1.
       -2    1    3    3    0  502  0.45041507914E+03  0.21298303388E+03 -0.58080105011E+03  0.76522243567E+03  0.25500000920E-02 0. -1.
</event>
<event>
 5   0  0.6774451E-04  0.1808211E+04  0.7818609E-02  0.8701945E-01
        2   -1    0    0  501    0  0.00000000000E+00  0.00000000000E+00  0.82632824834E+03  0.82632824834E+03  0.25500000920E-02 0.  1.
       -2   -1    0    0    0  501  0.00000000000E+00  0.00000000000E+00 -0.98920301687E+03  0.98920301687E+03  0.25500000920E-02 0. -1.
    10030    2    1    2    0    0  0.00000000000E+00  0.00000000000E+00 -0.16287476854E+03  0.18155312652E+04  0.18082106030E+04 0.  0.
        4    1    3    3  502    0  0.83590819819E+03  0.32918908450E+03  0.20446655641E+02  0.89862542129E+03  0.12699999809E+01 0. -1.
       -4    1    3    3    0  502 -0.83590819819E+03 -0.32918908450E+03 -0.18332142418E+03  0.91690584392E+03  0.12699999809E+01 0.  1.
</event>
<event>
 5   0  0.6853162E-04  0.8956383E+03  0.7818609E-02  0.9431050E-01
        2   -1    0    0  501    0  0.00000000000E+00  0.00000000000E+00  0.10053512514E+03  0.10053512517E+03  0.25500000920E-02 0. -1.
       -2   -1    0    0    0  501  0.00000000000E+00  0.00000000000E+00 -0.19947453733E+04  0.19947453733E+04  0.25500000920E-02 0.  1.
    10030    2    1    2    0    0  0.00000000000E+00  0.00000000000E+00 -0.18942102482E+04  0.20952804985E+04  0.89563826572E+03 0.  0.
        2    1    3    3  502    0 -0.33310382841E+03 -0.23052101644E+02 -0.24898142142E+03  0.41651087394E+03  0.25500000920E-02 0. -1.
       -2    1    3    3    0  502  0.33310382841E+03  0.23052101644E+02 -0.16452288267E+04  0.16787696245E+04  0.25500000920E-02 0.  1.
</event>
<event>
 5   0  0.6774451E-04  0.1798879E+04  0.7818609E-02  0.8706896E-01
        2   -1    0    0  501    0  0.00000000000E+00  0.00000000000E+00  0.93885084912E+03  0.93885084913E+03  0.25500000920E-02 0. -1.
       -2   -1    0    0    0  501  0.00000000000E+00  0.00000000000E+00 -0.86168264413E+03  0.86168264414E+03  0.25500000920E-02 0.  1.
    10030    2    1    2    0    0  0.00000000000E+00  0.00000000000E+00  0.77168204990E+02  0.18005334933E+04  0.17988790756E+04 0.  0.
        4    1    3    3  502    0  0.32452007298E+03 -0.70523475412E+03  0.49322705134E+03  0.91975207162E+03  0.12699999809E+01 0. -1.
       -4    1    3    3    0  502 -0.32452007298E+03  0.70523475412E+03 -0.41605884635E+03  0.88078142164E+03  0.12699999809E+01 0.  1.
</event>
<event>
 5   0  0.3377273E-04  0.1118697E+04  0.7818609E-02  0.9187158E-01
        1   -1    0    0  501    0  0.00000000000E+00  0.00000000000E+00  0.82333900823E+03  0.82333900824E+03  0.50400001928E-02 0.  1.
       -1   -1    0    0    0  501  0.00000000000E+00  0.00000000000E+00 -0.38000217756E+03  0.38000217760E+03  0.50400001928E-02 0. -1.
    10030    2    1    2    0    0  0.00000000000E+00  0.00000000000E+00  0.44333683067E+03  0.12033411858E+04  0.11186967704E+04 0.  0.
        2    1    3    3  502    0 -0.36073278298E+03  0.20364316179E+03  0.62596898041E+03  0.75062363572E+03  0.25500000920E-02 0.  1.
       -2    1    3    3    0  502  0.36073278298E+03 -0.20364316179E+03 -0.18263214974E+03  0.45271755012E+03  0.25500000920E-02 0. -1.
</event>
<event>
 5   0  0.6771967E-04  0.1768577E+04  0.7818609E-02  0.8723190E-01
       -2   -1    0    0    0  501  0.00000000000E+00  0.00000000000E+00  0.31677571637E+03  0.31677571638E+03  0.25500000920E-02 0.  1.
        2   -1    0    0  501    0  0.00000000000E+00  0.00000000000E+00 -0.24685175107E+04  0.24685175107E+04  0.25500000920E-02 0. -1.
    10030    2    1    2    0    0  0.00000000000E+00  0.00000000000E+00 -0.21517417943E+04  0.27852932270E+04  0.17685772845E+04 0.  0.
        1    1    3    3  502    0 -0.44104931599E+03 -0.22126615694E+02 -0.22824291399E+04  0.23247573776E+04  0.50400001928E-02 0. -1.
       -1    1    3    3    0  502  0.44104931599E+03  0.22126615694E+02  0.13068734560E+03  0.46053584940E+03  0.50400001928E-02 0.  1.
</event>
<event>
 5   0  0.3470962E-04  0.1743684E+04  0.7818609E-02  0.8736835E-01
       -1   -1    0    0    0  501  0.00000000000E+00  0.00000000000E+00  0.91625077951E+03  0.91625077952E+03  0.50400001928E-02 0.  1.
        1   -1    0    0  501    0  0.00000000000E+00  0.00000000000E+00 -0.82958540385E+03  0.82958540386E+03  0.50400001928E-02 0. -1.
    10030    2    1    2    0    0  0.00000000000E+00  0.00000000000E+00  0.86665375665E+02  0.17458361834E+04  0.17436837706E+04 0.  0.
        4    1    3    3  502    0  0.14704083669E+03 -0.34110227882E+03  0.83306160917E+03  0.91212117059E+03  0.12699999809E+01 0.  1.
       -4    1    3    3    0  502 -0.14704083669E+03  0.34110227882E+03 -0.74639623351E+03  0.83371501279E+03  0.12699999809E+01 0. -1.
</event>
<event>
 5   0  0.3377273E-04  0.1849674E+04  0.7818609E-02  0.8680320E-01
        1   -1    0    0  501    0  0.00000000000E+00  0.00000000000E+00  0.17996339892E+04  0.17996339892E+04  0.50400001928E-02 0. -1.
       -1   -1    0    0    0  501  0.00000000000E+00  0.00000000000E+00 -0.47527637179E+03  0.47527637182E+03  0.50400001928E-02 0.  1.
    10030    2    1    2    0    0  0.00000000000E+00  0.00000000000E+00  0.13243576174E+04  0.22749103610E+04  0.18496740393E+04 0.  0.
        2    1    3    3  502    0  0.32524651798E+03 -0.17567198359E+03 -0.38046539391E+03  0.53047135573E+03  0.25500000920E-02 0.  1.
       -2    1    3    3    0  502 -0.32524651798E+03  0.17567198359E+03  0.17048230113E+04  0.17444390053E+04  0.25500000920E-02 0. -1.
</event>
<event>
 5   0  0.3404261E-04  0.1814078E+04  0.7818609E-02  0.8698849E-01
       -1   -1    0    0    0  501  0.00000000000E+00  0.00000000000E+00  0.74543859666E+03  0.74543859668E+03  0.50400001928E-02 0. -1.
        1   -1    0    0  501    0  0.00000000000E+00  0.00000000000E+00 -0.11036715257E+04  0.11036715257E+04  0.50400001928E-02 0.  1.
    10030    2    1    2    0    0  0.00000000000E+00  0.00000000000E+00 -0.35823292900E+03  0.18491101224E+04  0.18140775654E+04 0.  0.
        1    1    3    3  502    0 -0.28328450957E+03  0.76103327947E+03 -0.59102122175E+03  0.10043544446E+04  0.50400001928E-02 0.  1.
       -1    1    3    3    0  502  0.28328450957E+03 -0.76103327947E+03  0.23278829275E+03  0.84475567775E+03  0.50400001928E-02 0. -1.
</event>
<event>
 5   0  0.6771967E-04  0.1854138E+04  0.7818609E-02  0.8678028E-01
        2   -1    0    0  501    0  0.00000000000E+00  0.00000000000E+00  0.14044806014E+04  0.14044806014E+04  0.25500000920E-02 0. -1.
       -2   -1    0    0    0  501  0.00000000000E+00  0.00000000000E+00 -0.61193935590E+03  0.61193935591E+03  0.25500000920E-02 0.  1.
    10030    2    1    2    0    0  0.00000000000E+00  0.00000000000E+00  0.79254124550E+03  0.20164199573E+04  0.18541380257E+04 0.  0.
        1    1    3    3  502    0  0.47468265781E+03 -0.29095922491E+03 -0.40987465355E+03  0.69135962265E+03  0.50400001928E-02 0.  1.
       -1    1    3    3    0  502 -0.47468265781E+03  0.29095922491E+03  0.12024158991E+04  0.13250603347E+04  0.50400001928E-02 0. -1.
</event>
<event>
 5   0  0.3308275E-04  0.1784811E+04  0.7818609E-02  0.8714419E-01
        1   -1    0    0  501    0  0.00000000000E+00  0.00000000000E+00  0.59899917338E+03  0.59899917340E+03  0.50400001928E-02 0.  1.
       -1   -1    0    0    0  501  0.00000000000E+00  0.00000000000E+00 -0.13295310206E+04  0.13295310206E+04  0.50400001928E-02 0. -1.
    10030    2    1    2    0    0  0.00000000000E+00  0.00000000000E+00 -0.73053184717E+03  0.19285301940E+04  0.17848114548E+04 0.  0.
        3    1    3    3  502    0 -0.16018410459E+03 -0.13324481465E+03 -0.13028804599E+04  0.13194357245E+04  0.10100000352E+00 0. -1.
       -3    1    3    3    0  502  0.16018410459E+03  0.13324481465E+03  0.57234861277E+03  0.60909446947E+03  0.10100000352E+00 0.  1.
</event>
<event>
 5   0  0.3413839E-04  0.1823237E+04  0.7818609E-02  0.8694039E-01
       -1   -1    0    0    0  501  0.00000000000E+00  0.00000000000E+00  0.52719590778E+03  0.52719590780E+03  0.50400001928E-02 0. -1.
        1   -1    0    0  501    0  0.00000000000E+00  0.00000000000E+00 -0.15763554217E+04  0.15763554218E+04  0.50400001928E-02 0.  1.
    10030    2    1    2    0    0  0.00000000000E+00  0.00000000000E+00 -0.10491595140E+04  0.21035513296E+04  0.18232368223E+04 0.  0.
        5    1    3    3  502    0  0.40969292596E+03  0.70740711827E+02  0.41142967548E+03  0.58493504747E+03  0.46999998093E+01 0. -1.
       -5    1    3    3    0  502 -0.40969292596E+03 -0.70740711827E+02 -0.14605891895E+04  0.15186162821E+04  0.46999998093E+01 0.  1.
</event>
<event>
 5   0  0.3308275E-04  0.1852239E+04  0.7818609E-02  0.8679002E-01
        1   -1    0    0  501    0  0.00000000000E+00  0.00000000000E+00  0.80670948843E+03  0.80670948844E+03  0.50400001928E-02 0.  1.
       -1   -1    0    0    0  501  0.00000000000E+00  0.00000000000E+00 -0.10632046455E+04  0.10632046455E+04  0.50400001928E-02 0. -1.
    10030    2    1    2    0    0  0.00000000000E+00  0.00000000000E+00 -0.25649515709E+03  0.18699141340E+04  0.18522389432E+04 0.  0.
        3    1    3    3  502    0 -0.18916556014E+03 -0.70747744015E+03 -0.70056949769E+03  0.10134621694E+04  0.10100000352E+00 0. -1.
       -3    1    3    3    0  502  0.18916556014E+03  0.70747744015E+03  0.44407434060E+03  0.85645196459E+03  0.10100000352E+00 0.  1.
</event>
<event>
 5   0  0.6853162E-04  0.1678328E+04  0.7818609E-02  0.8773822E-01
       -2   -1    0    0    0  501  0.00000000000E+00  0.00000000000E+00  0.36737103038E+03  0.36737103039E+03  0.25500000920E-02 0. -1.
        2   -1    0    0  501    0  0.00000000000E+00  0.00000000000E+00 -0.19168525311E+04  0.19168525311E+04  0.25500000920E-02 0.  1.
    10030    2    1    2    0    0  0.00000000000E+00  0.00000000000E+00 -0.15494815007E+04  0.22842235615E+04  0.16783278457E+04 0.  0.
        2    1    3    3  502    0 -0.27110349469E+03 -0.39248148821E+03  0.16490664785E+03  0.50471083398E+03  0.25500000920E-02 0. -1.
       -2    1    3    3    0  502  0.27110349469E+03  0.39248148821E+03 -0.17143881486E+04  0.17795127275E+04  0.25500000920E-02 0.  1.
</event>
<event>
 5   0  0.6853162E-04  0.1819560E+04  0.7818609E-02  0.8695966E-01
        2   -1    0    0  501    0  0.00000000000E+00  0.00000000000E+00  0.17602785379E+04  0.17602785379E+04  0.25500000920E-02 0.  1.
       -2   -1    0    0    0  501  0.00000000000E+00  0.00000000000E+00 -0.47020966503E+03  0.47020966504E+03  0.25500000920E-02 0. -1.
    10030    2    1    2    0    0  0.00000000000E+00  0.00000000000E+00  0.12900688728E+04  0.22304882029E+04  0.18195603663E+04 0.  0.
        2    1    3    3  502    0  0.10391220537E+03 -0.76627599094E+03  0.12325725222E+04  0.14550641440E+04  0.25500000920E-02 0.  1.
       -2    1    3    3    0  502 -0.10391220537E+03  0.76627599094E+03  0.57496350603E+02  0.77542405886E+03  0.25500000920E-02 0. -1.
</event>
<event>
 5   0  0.6774451E-04  0.1808385E+04  0.7818609E-02  0.8701853E-01
        2   -1    0    0  501    0  0.00000000000E+00  0.00000000000E+00  0.19662829182E+04  0.19662829182E+04  0.25500000920E-02 0.  1.
       -2   -1    0    0    0  501  0.00000000000E+00  0.00000000000E+00 -0.41579150035E+03  0.41579150036E+03  0.25500000920E-02 0. -1.
    10030    2    1    2    0    0  0.00000000000E+00  0.00000000000E+00  0.15504914179E+04  0.23820744186E+04  0.18083846103E+04 0.  0.
        4    1    3    3  502    0 -0.39993119203E+03  0.79419052677E+03  0.99120282879E+03  0.13316036242E+04  0.12699999809E+01 0.  1.
       -4    1    3    3    0  502  0.39993119203E+03 -0.79419052677E+03  0.55928858908E+03  0.10504707944E+04  0.12699999809E+01 0. -1.
</event>
<event>
 5   0  0.2467375E-04  0.1787368E+04  0.7818609E-02  0.8713046E-01
       -3   -1    0    0    0  501  0.00000000000E+00  0.00000000000E+00  0.75263334593E+03  0.75263335270E+03  0.10100000352E+00 0.  1.
        3   -1    0    0  501    0  0.00000000000E+00  0.00000000000E+00 -0.10611685061E+04  0.10611685109E+04  0.10100000352E+00 0. -1.
    10030    2    1    2    0    0  0.00000000000E+00  0.00000000000E+00 -0.30853516017E+03  0.18138018636E+04  0.17873676889E+04 0.  0.
        4    1    3    3  502    0 -0.60262420982E+03  0.57257568341E+03 -0.48725206798E+03  0.96354296331E+03  0.12699999809E+01 0. -1.
       -4    1    3    3    0  502  0.60262420982E+03 -0.57257568341E+03  0.17871690781E+03  0.85025890030E+03  0.12699999809E+01 0.  1.
</event>
<event>
 5   0  0.3308275E-04  0.1789409E+04  0.7818609E-02  0.8711952E-01
       -1   -1    0    0    0  501  0.00000000000E+00  0.00000000000E+00  0.41278388815E+03  0.41278388818E+03  0.50400001928E-02 0. -1.
        1   -1    0    0  501    0  0.00000000000E+00  0.00000000000E+00 -0.19392626698E+04  0.19392626698E+04  0.50400001928E-02 0.  1.
    10030    2    1    2    0    0  0.00000000000E+00  0.00000000000E+00 -0.15264787816E+04  0.23520465580E+04  0.17894092713E+04 0.  0.
        3    1    3    3  502    0  0.79032651141E+03 -0.38767344787E+03 -0.55297358999E+03  0.10395607237E+04  0.10100000352E+00 0. -1.
       -3    1    3    3    0  502 -0.79032651141E+03  0.38767344787E+03 -0.97350519164E+03  0.13124858343E+04  0.10100000352E+00 0.  1.
</event>
<event>
 5   0  0.3470962E-04  0.1712489E+04  0.7818609E-02  0.8754273E-01
       -1   -1    0    0    0  501  0.00000000000E+00  0.00000000000E+00  0.53326370310E+03  0.53326370312E+03  0.50400001928E-02 0. -1.
        1   -1    0    0  501    0  0.00000000000E+00  0.00000000000E+00 -0.13748447240E+04  0.13748447240E+04  0.50400001928E-02 0.  1.
    10030    2    1    2    0    0  0.00000000000E+00  0.00000000000E+00 -0.84158102094E+03  0.19081084272E+04  0.17124891693E+04 0.  0.
        4    1    3    3  502    0 -0.45065385376E+03 -0.24095621801E+03  0.34471484072E+03  0.61642414717E+03  0.12699999809E+01 0. -1.
       -4    1    3    3    0  502  0.45065385376E+03  0.24095621801E+03 -0.11862958617E+04  0.12916842800E+04  0.12699999809E+01 0.  1.
</event>
<event>
 5   0  0.6547153E-04  0.1782778E+04  0.7818609E-02  0.8715512E-01
        2   -1    0    0  501    0  0.00000000000E+00  0.00000000000E+00  0.27958364241E+04  0.27958364241E+04  0.25500000920E-02 0.  1.
       -2   -1    0    0    0  501  0.00000000000E+00  0.00000000000E+00 -0.28419909082E+03  0.28419909083E+03  0.25500000920E-02 0. -1.
    10030    2    1    2    0    0  0.00000000000E+00  0.00000000000E+00  0.25116373333E+04  0.30800355149E+04  0.17827777986E+04 0.  0.
        5    1    3    3  502    0  0.75466970323E+03  0.19997176290E+03  0.19989880535E+04  0.21460406322E+04  0.46999998093E+01 0.  1.
       -5    1    3    3    0  502 -0.75466970323E+03 -0.19997176290E+03  0.51264927976E+03  0.93399488273E+03  0.46999998093E+01 0. -1.
</event>
<event>
 5   0  0.3308275E-04  0.1779414E+04  0.7818609E-02  0.8717324E-01
        1   -1    0    0  501    0  0.00000000000E+00  0.00000000000E+00  0.11029421721E+04  0.11029421721E+04  0.50400001928E-02 0. -1.
       -1   -1    0    0    0  501  0.00000000000E+00  0.00000000000E+00 -0.71769693921E+03  0.71769693923E+03  0.50400001928E-02 0.  1.
    10030    2    1    2    0    0  0.00000000000E+00  0.00000000000E+00  0.38524523285E+03  0.18206391113E+04  0.17794136349E+04 0.  0.
        3    1    3    3  502    0 -0.11437930469E+03 -0.31400280992E+03 -0.65103994783E+03  0.73180148527E+03  0.10100000352E+00 0.  1.
       -3    1    3    3    0  502  0.11437930469E+03  0.31400280992E+03  0.10362851807E+04  0.10888376260E+04  0.10100000352E+00 0. -1.
</event>
<event>
 5   0  0.3377273E-04  0.1840038E+04  0.7818609E-02  0.8685293E-01
        1   -1    0    0  501    0  0.00000000000E+00  0.00000000000E+00  0.78615817866E+03  0.78615817868E+03  0.50400001928E-02 0. -1.
       -1   -1    0    0    0  501  0.00000000000E+00  0.00000000000E+00 -0.10766721467E+04  0.10766721467E+04  0.50400001928E-02 0.  1.
    10030    2    1    2    0    0  0.00000000000E+00  0.00000000000E+00 -0.29051396803E+03  0.18628303254E+04  0.18400376234E+04 0.  0.
        2    1    3    3  502    0 -0.73856896841E+03  0.27814413710E+03  0.33344940253E+03  0.85675946808E+03  0.25500000920E-02 0. -1.
       -2    1    3    3    0  502  0.73856896841E+03 -0.27814413710E+03 -0.62396337056E+03  0.10060708573E+04  0.25500000920E-02 0.  1.
</event>
<event>
 5   0  0.6929121E-04  0.1794694E+04  0.7818609E-02  0.8709126E-01
        2   -1    0    0  501    0  0.00000000000E+00  0.00000000000E+00  0.63067781900E+03  0.63067781900E+03  0.25500000920E-02 0.  1.
       -2   -1    0    0    0  501  0.00000000000E+00  0.00000000000E+00 -0.12767718512E+04  0.12767718512E+04  0.25500000920E-02 0. -1.
    10030    2    1    2    0    0  0.00000000000E+00  0.00000000000E+00 -0.64609403223E+03  0.19074496702E+04  0.17946940536E+04 0.  0.
        3    1    3    3  502    0  0.24479233168E+03 -0.59870720629E+03 -0.98410338704E+03  0.11776387778E+04  0.10100000352E+00 0. -1.
       -3    1    3    3    0  502 -0.24479233168E+03  0.59870720629E+03  0.33800935480E+03  0.72981089239E+03  0.10100000352E+00 0.  1.
</event>
<event>
 5   0  0.3308275E-04  0.1766360E+04  0.7818609E-02  0.8724396E-01
       -1   -1    0    0    0  501  0.00000000000E+00  0.00000000000E+00  0.15441227734E+04  0.15441227734E+04  0.50400001928E-02 0. -1.
        1   -1    0    0  501    0  0.00000000000E+00  0.00000000000E+00 -0.50514592609E+03  0.50514592612E+03  0.50400001928E-02 0.  1.
    10030    2    1    2    0    0  0.00000000000E+00  0.00000000000E+00  0.10389768473E+04  0.20492686995E+04  0.17663604710E+04 0.  0.
        3    1    3    3  502    0 -0.66287900598E+03 -0.13166408054E+03 -0.14013759566E+03  0.69020472513E+03  0.10100000352E+00 0.  1.
       -3    1    3    3    0  502  0.66287900598E+03  0.13166408054E+03  0.11791144429E+04  0.13590639744E+04  0.10100000352E+00 0. -1.
</event>
<event>
 5   0  0.3308275E-04  0.1751016E+04  0.7818609E-02  0.8732791E-01
       -1   -1    0    0    0  501  0.00000000000E+00  0.00000000000E+00  0.18417969019E+04  0.18417969019E+04  0.50400001928E-02 0.  1.
        1   -1    0    0  501    0  0.00000000000E+00  0.00000000000E+00 -0.41617740977E+03  0.41617740980E+03  0.50400001928E-02 0. -1.
    10030    2    1    2    0    0  0.00000000000E+00  0.00000000000E+00  0.14256194921E+04  0.22579743117E+04  0.17510160068E+04 0.  0.
        3    1    3    3  502    0 -0.54945951559E+03 -0.16821780648E+02  0.15915087994E+04  0.16837722531E+04  0.10100000352E+00 0.  1.
       -3    1    3    3    0  502  0.54945951559E+03  0.16821780648E+02 -0.16588930731E+03  0.57420205857E+03  0.10100000352E+00 0. -1.
</event>
<event>
 5   0  0.3308275E-04  0.1757215E+04  0.7818609E-02  0.8729389E-01
       -1   -1    0    0    0  501  0.00000000000E+00  0.00000000000E+00  0.77975265531E+03  0.77975265533E+03  0.50400001928E-02 0. -1.
        1   -1    0    0  501    0  0.00000000000E+00  0.00000000000E+00 -0.98999438227E+03  0.98999438228E+03  0.50400001928E-02 0.  1.
    10030    2    1    2    0    0  0.00000000000E+00  0.00000000000E+00 -0.21024172696E+03  0.17697470376E+04  0.17572145553E+04 0.  0.
        3    1    3    3  502    0 -0.46638896683E+03 -0.72946805988E+03  0.45304407379E+02  0.86700335541E+03  0.10100000352E+00 0. -1.
       -3    1    3    3    0  502  0.46638896683E+03  0.72946805988E+03 -0.25554613434E+03  0.90274368220E+03  0.10100000352E+00 0.  1.
</event>
<event>
 5   0  0.2467375E-04  0.1941649E+04  0.7818609E-02  0.8634398E-01
       -4   -1    0    0    0  501  0.00000000000E+00  0.00000000000E+00  0.10202841350E+04  0.10202849254E+04  0.12699999809E+01 0.  1.
        4   -1    0    0  501    0  0.00000000000E+00  0.00000000000E+00 -0.92376069586E+03  0.92376156886E+03  0.12699999809E+01 0. -1.
    10030    2    1    2    0    0  0.00000000000E+00  0.00000000000E+00  0.96523439095E+02  0.19440464942E+04  0.19416487832E+04 0.  0.
        3    1    3    3  502    0 -0.13609038212E+03 -0.11119079367E+03  0.10042266115E+04  0.10194876567E+04  0.10100000352E+00 0.  1.
       -3    1    3    3    0  502  0.13609038212E+03  0.11119079367E+03 -0.90770317240E+03  0.92455883755E+03  0.10100000352E+00 0. -1.
</event>
<event>
 5   0  0.3470962E-04  0.1838123E+04  0.7818609E-02  0.8686285E-01
        1   -1    0    0  501    0  0.00000000000E+00  0.00000000000E+00  0.12161638285E+04  0.12161638285E+04  0.50400001928E-02 0. -1.
       -1   -1    0    0    0  501  0.00000000000E+00  0.00000000000E+00 -0.69453972004E+03  0.69453972006E+03  0.50400001928E-02 0.  1.
    10030    2    1    2    0    0  0.00000000000E+00  0.00000000000E+00  0.52162410849E+03  0.19107035486E+04  0.18381230481E+04 0.  0.
        4    1    3    3  502    0 -0.17090863529E+03  0.89918686666E+03  0.17430525709E+03  0.93173532633E+03  0.12699999809E+01 0.  1.
       -4    1    3    3    0  502  0.17090863529E+03 -0.89918686666E+03  0.34731885140E+03  0.97896822228E+03  0.12699999809E+01 0. -1.
</event>
<event>
 5   0  0.3470962E-04  0.1799267E+04  0.7818609E-02  0.8706690E-01
        1   -1    0    0  501    0  0.00000000000E+00  0.00000000000E+00  0.94247479243E+03  0.94247479244E+03  0.50400001928E-02 0. -1.
       -1   -1    0    0    0  501  0.00000000000E+00  0.00000000000E+00 -0.85873936961E+03  0.85873936962E+03  0.50400001928E-02 0.  1.
    10030    2    1    2    0    0  0.00000000000E+00  0.00000000000E+00  0.83735422817E+02  0.18012141621E+04  0.17992667497E+04 0.  0.
        4    1    3    3  502    0 -0.10651259763E+03 -0.88881627988E+03 -0.47667804604E+02  0.89644472519E+03  0.12699999809E+01 0.  1.
       -4    1    3    3    0  502  0.10651259763E+03  0.88881627988E+03  0.13140322742E+03  0.90476943687E+03  0.12699999809E+01 0. -1.
</event>
<event>
 5   0  0.6929121E-04  0.1792735E+04  0.7818609E-02  0.8710173E-01
       -2   -1    0    0    0  501  0.00000000000E+00  0.00000000000E+00  0.37714795157E+03  0.37714795158E+03  0.25500000920E-02 0. -1.
        2   -1    0    0  501    0  0.00000000000E+00  0.00000000000E+00 -0.21303962144E+04  0.21303962144E+04  0.25500000920E-02 0.  1.
    10030    2    1    2    0    0  0.00000000000E+00  0.00000000000E+00 -0.17532482628E+04  0.25075441659E+04  0.17927348586E+04 0.  0.
        3    1    3    3  502    0  0.89172024769E+03  0.81891223063E+02 -0.82061594524E+03  0.12146117537E+04  0.10100000352E+00 0.  1.
       -3    1    3    3    0  502 -0.89172024769E+03 -0.81891223063E+02 -0.93263231756E+03  0.12929324122E+04  0.10100000352E+00 0. -1.
</event>
<event>
 5   0  0.6774451E-04  0.1829122E+04  0.7818609E-02  0.8690964E-01
        2   -1    0    0  501    0  0.00000000000E+00  0.00000000000E+00  0.62649945965E+03  0.62649945966E+03  0.25500000920E-02 0.  1.
       -2   -1    0    0    0  501  0.00000000000E+00  0.00000000000E+00 -0.13350715572E+04  0.13350715572E+04  0.25500000920E-02 0. -1.
    10030    2    1    2    0    0  0.00000000000E+00  0.00000000000E+00 -0.70857209757E+03  0.19615710169E+04  0.18291217665E+04 0.  0.
        4    1    3    3  502    0  0.58666431042E+03 -0.50048916140E+03  0.17300411968E+03  0.79031414774E+03  0.12699999809E+01 0.  1.
       -4    1    3    3    0  502 -0.58666431042E+03  0.50048916140E+03 -0.88157621725E+03  0.11712568691E+04  0.12699999809E+01 0. -1.
</event>
<event>
 5   0  0.6774451E-04  0.1666963E+04  0.7818609E-02  0.8780434E-01
       -2   -1    0    0    0  501  0.00000000000E+00  0.00000000000E+00  0.34380584735E+03  0.34380584736E+03  0.25500000920E-02 0. -1.
        2   -1    0    0  501    0  0.00000000000E+00  0.00000000000E+00 -0.20205926366E+04  0.20205926366E+04  0.25500000920E-02 0.  1.
    10030    2    1    2    0    0  0.00000000000E+00  0.00000000000E+00 -0.16767867892E+04  0.23643984839E+04  0.16669631832E+04 0.  0.
        4    1    3    3  502    0  0.50884996158E+03  0.16697932828E+03 -0.17442524731E+04  0.18246174071E+04  0.12699999809E+01 0.  1.
       -4    1    3    3    0  502 -0.50884996158E+03 -0.16697932828E+03  0.67465683902E+02  0.53978107681E+03  0.12699999809E+01 0. -1.
</event>
<event>
 5   0  0.3413839E-04  0.1819941E+04  0.7818609E-02  0.8695767E-01
        1   -1    0    0  501    0  0.00000000000E+00  0.00000000000E+00  0.89250454092E+03  0.89250454093E+03  0.50400001928E-02 0.  1.
       -1   -1    0    0    0  501  0.00000000000E+00  0.00000000000E+00 -0.92777795549E+03  0.92777795551E+03  0.50400001928E-02 0. -1.
    10030    2    1    2    0    0  0.00000000000E+00  0.00000000000E+00 -0.35273414576E+02  0.18202824964E+04  0.18199407004E+04 0.  0.
        5    1    3    3  502    0  0.31817179641E+03  0.39974950205E+03 -0.77076616535E+03  0.92473538273E+03  0.46999998093E+01 0. -1.
       -5    1    3    3    0  502 -0.31817179641E+03 -0.39974950205E+03  0.73549275078E+03  0.89554711371E+03  0.46999998093E+01 0.  1.
</event>
<event>
 5   0  0.3308275E-04  0.1468538E+04  0.7818609E-02  0.8905648E-01
       -1   -1    0    0    0  501  0.00000000000E+00  0.00000000000E+00  0.13509429861E+04  0.13509429861E+04  0.50400001928E-02 0.  1.
        1   -1    0    0  501    0  0.00000000000E+00  0.00000000000E+00 -0.39909240799E+03  0.39909240802E+03  0.50400001928E-02 0. -1.
    10030    2    1    2    0    0  0.00000000000E+00  0.00000000000E+00  0.95185057814E+03  0.17500353942E+04  0.14685381703E+04 0.  0.
        3    1    3    3  502    0 -0.39728721300E+03 -0.21532853189E+03  0.11656090664E+04  0.12501391971E+04  0.10100000352E+00 0.  1.
       -3    1    3    3    0  502  0.39728721300E+03  0.21532853189E+03 -0.21375848831E+03  0.49989619701E+03  0.10100000352E+00 0. -1.
</event>
<event>
 5   0  0.6774451E-04  0.1718359E+04  0.7818609E-02  0.8750962E-01
       -2   -1    0    0    0  501  0.00000000000E+00  0.00000000000E+00  0.41323979184E+03  0.41323979185E+03  0.25500000920E-02 0.  1.
        2   -1    0    0  501    0  0.00000000000E+00  0.00000000000E+00 -0.17863468761E+04  0.17863468761E+04  0.25500000920E-02 0. -1.
    10030    2    1    2    0    0  0.00000000000E+00  0.00000000000E+00 -0.13731070842E+04  0.21995866679E+04  0.17183592305E+04 0.  0.
        4    1    3    3  502    0  0.77140193645E+03 -0.16752820052E+03 -0.11207555791E+04  0.13708469376E+04  0.12699999809E+01 0. -1.
       -4    1    3    3    0  502 -0.77140193645E+03  0.16752820052E+03 -0.25235150519E+03  0.82873973031E+03  0.12699999809E+01 0.  1.
</event>
<event>
 5   0  0.6547153E-04  0.1796424E+04  0.7818609E-02  0.8708204E-01
        2   -1    0    0  501    0  0.00000000000E+00  0.00000000000E+00  0.10764659730E+04  0.10764659730E+04  0.25500000920E-02 0. -1.
       -2   -1    0    0    0  501  0.00000000000E+00  0.00000000000E+00 -0.74947502218E+03  0.74947502219E+03  0.25500000920E-02 0.  1.
    10030    2    1    2    0    0  0.00000000000E+00  0.00000000000E+00  0.32699095082E+03  0.18259409952E+04  0.17964235124E+04 0.  0.
        5    1    3    3  502    0  0.86593687074E+03 -0.21698965918E+03  0.62714419450E+02  0.89492254676E+03  0.46999998093E+01 0.  1.
       -5    1    3    3    0  502 -0.86593687074E+03  0.21698965918E+03  0.26427653137E+03  0.93101844844E+03  0.46999998093E+01 0. -1.
</event>
<event>
 5   0  0.3413839E-04  0.1780723E+04  0.7818609E-02  0.8716618E-01
       -1   -1    0    0    0  501  0.00000000000E+00  0.00000000000E+00  0.30963802806E+03  0.30963802810E+03  0.50400001928E-02 0. -1.
        1   -1    0    0  501    0  0.00000000000E+00  0.00000000000E+00 -0.25602274105E+04  0.25602274105E+04  0.50400001928E-02 0.  1.
    10030    2    1    2    0    0  0.00000000000E+00  0.00000000000E+00 -0.22505893824E+04  0.28698654386E+04  0.17807231866E+04 0.  0.
        5    1    3    3  502    0  0.59353568122E+03 -0.48962838566E+03 -0.18472993736E+04  0.20011390823E+04  0.46999998093E+01 0.  1.
       -5    1    3    3    0  502 -0.59353568122E+03  0.48962838566E+03 -0.40329000881E+03  0.86872635630E+03  0.46999998093E+01 0. -1.
</event>
<event>
 5   0  0.3308275E-04  0.1787155E+04  0.7818609E-02  0.8713160E-01
        1   -1    0    0  501    0  0.00000000000E+00  0.00000000000E+00  0.14066116341E+04  0.14066116341E+04  0.50400001928E-02 0. -1.
       -1   -1    0    0    0  501  0.00000000000E+00  0.00000000000E+00 -0.56766259721E+03  0.56766259723E+03  0.50400001928E-02 0.  1.
    10030    2    1    2    0    0  0.00000000000E+00  0.00000000000E+00  0.83894903692E+03  0.19742742314E+04  0.17871550728E+04 0.  0.
        3    1    3    3  502    0  0.16502520230E+03  0.77390708469E+03  0.87804613665E+03  0.11820027586E+04  0.10100000352E+00 0.  1.
       -3    1    3    3    0  502 -0.16502520230E+03 -0.77390708469E+03 -0.39097099724E+02  0.79227147275E+03  0.10100000352E+00 0. -1.
</event>
<event>
 5   0  0.6853162E-04  0.2674822E+04  0.7818609E-02  0.8343221E-01
        2   -1    0    0  501    0  0.00000000000E+00  0.00000000000E+00  0.10492660474E+04  0.10492660475E+04  0.25500000920E-02 0. -1.
       -2   -1    0    0    0  501  0.00000000000E+00  0.00000000000E+00 -0.17046854815E+04  0.17046854815E+04  0.25500000920E-02 0.  1.
    10030    2    1    2    0    0  0.00000000000E+00  0.00000000000E+00 -0.65541943407E+03  0.27539515290E+04  0.26748223099E+04 0.  0.
        2    1    3    3  502    0 -0.41511504755E+03  0.43403753536E+03  0.90261373442E+03  0.10841681781E+04  0.25500000920E-02 0. -1.
       -2    1    3    3    0  502  0.41511504755E+03 -0.43403753536E+03 -0.15580331685E+04  0.16697833509E+04  0.25500000920E-02 0.  1.
</event>
<event>
 5   0  0.6547153E-04  0.1479963E+04  0.7818609E-02  0.8897888E-01
       -2   -1    0    0    0  501  0.00000000000E+00  0.00000000000E+00  0.32981782243E+03  0.32981782244E+03  0.25500000920E-02 0.  1.
        2   -1    0    0  501    0  0.00000000000E+00  0.00000000000E+00 -0.16602266209E+04  0.16602266209E+04  0.25500000920E-02 0. -1.
    10030    2    1    2    0    0  0.00000000000E+00  0.00000000000E+00 -0.13304087985E+04  0.19900444434E+04  0.14799626061E+04 0.  0.
        5    1    3    3  502    0  0.59790845457E+03 -0.24060456084E+03 -0.11540486739E+04  0.13218303622E+04  0.46999998093E+01 0. -1.
       -5    1    3    3    0  502 -0.59790845457E+03  0.24060456084E+03 -0.17636012464E+03  0.66821408119E+03  0.46999998093E+01 0.  1.
</event>
<event>
 5   0  0.6771967E-04  0.1785582E+04  0.7818609E-02  0.8714004E-01
        2   -1    0    0  501    0  0.00000000000E+00  0.00000000000E+00  0.97536893356E+03  0.97536893357E+03  0.25500000920E-02 0. -1.
       -2   -1    0    0    0  501  0.00000000000E+00  0.00000000000E+00 -0.81720453095E+03  0.81720453096E+03  0.25500000920E-02 0.  1.
    10030    2    1    2    0    0  0.00000000000E+00  0.00000000000E+00  0.15816440261E+03  0.17925734645E+04  0.17855821593E+04 0.  0.
        1    1    3    3  502    0 -0.42745976214E+03  0.41503663930E+03  0.74659057849E+03  0.95518309874E+03  0.50400001928E-02 0. -1.
       -1    1    3    3    0  502  0.42745976214E+03 -0.41503663930E+03 -0.58842617589E+03  0.83739036578E+03  0.50400001928E-02 0.  1.
</event>
<event>
 5   0  0.6774451E-04  0.1772061E+04  0.7818609E-02  0.8721300E-01
        2   -1    0    0  501    0  0.00000000000E+00  0.00000000000E+00  0.72286381084E+03  0.72286381085E+03  0.25500000920E-02 0. -1.
       -2   -1    0    0    0  501  0.00000000000E+00  0.00000000000E+00 -0.10860280474E+04  0.10860280474E+04  0.25500000920E-02 0.  1.
    10030    2    1    2    0    0  0.00000000000E+00  0.00000000000E+00 -0.36316423657E+03  0.18088918583E+04  0.17720613681E+04 0.  0.
        4    1    3    3  502    0  0.22796092154E+02  0.57465750756E+03  0.50644282893E+03  0.76631381606E+03  0.12699999809E+01 0. -1.
       -4    1    3    3    0  502 -0.22796092154E+02 -0.57465750756E+03 -0.86960706550E+03  0.10425780422E+04  0.12699999809E+01 0.  1.
</event>
<event>
 5   0  0.6547153E-04  0.1811116E+04  0.7818609E-02  0.8700411E-01
        2   -1    0    0  501    0  0.00000000000E+00  0.00000000000E+00  0.90140368892E+03  0.90140368892E+03  0.25500000920E-02 0. -1.
       -2   -1    0    0    0  501  0.00000000000E+00  0.00000000000E+00 -0.90973096750E+03  0.90973096751E+03  0.25500000920E-02 0.  1.
    10030    2    1    2    0    0  0.00000000000E+00  0.00000000000E+00 -0.83272785822E+01  0.18111346564E+04  0.18111155126E+04 0.  0.
        5    1    3    3  502    0 -0.39567558554E+03  0.73913439997E+02  0.80701100568E+03  0.90183768988E+03  0.46999998093E+01 0. -1.
       -5    1    3    3    0  502  0.39567558554E+03 -0.73913439997E+02 -0.81533828426E+03  0.90929696655E+03  0.46999998093E+01 0.  1.
</event>
<event>
 5   0  0.6929121E-04  0.1688593E+04  0.7818609E-02  0.8767897E-01
       -2   -1    0    0    0  501  0.00000000000E+00  0.00000000000E+00  0.88790150523E+03  0.88790150524E+03  0.25500000920E-02 0.  1.
        2   -1    0    0  501    0  0.00000000000E+00  0.00000000000E+00 -0.80283324192E+03  0.80283324192E+03  0.25500000920E-02 0. -1.
    10030    2    1    2    0    0  0.00000000000E+00  0.00000000000E+00  0.85068263315E+02  0.16907347472E+04  0.16885933127E+04 0.  0.
        3    1    3    3  502    0  0.59535050761E+03 -0.33733579594E+02  0.64100163790E+03  0.87547889255E+03  0.10100000352E+00 0.  1.
       -3    1    3    3    0  502 -0.59535050761E+03  0.33733579594E+02 -0.55593337459E+03  0.81525585461E+03  0.10100000352E+00 0. -1.
</event>
<event>
 5   0  0.3470962E-04  0.1965749E+04  0.7818609E-02  0.8622804E-01
        1   -1    0    0  501    0  0.00000000000E+00  0.00000000000E+00  0.11079693144E+04  0.11079693144E+04  0.50400001928E-02 0. -1.
       -1   -1    0    0    0  501  0.00000000000E+00  0.00000000000E+00 -0.87190302024E+03  0.87190302025E+03  0.50400001928E-02 0.  1.
    10030    2    1    2    0    0  0.00000000000E+00  0.00000000000E+00  0.23606629417E+03  0.19798723347E+04  0.19657485003E+04 0.  0.
        4    1    3    3  502    0 -0.59782545556E+02  0.97455636787E+03  0.45018577289E+01  0.97639948101E+03  0.12699999809E+01 0.  1.
       -4    1    3    3    0  502  0.59782545556E+02 -0.97455636787E+03  0.23156443644E+03  0.10034728537E+04  0.12699999809E+01 0. -1.
</event>
<event>
 5   0  0.6547153E-04  0.1732139E+04  0.7818609E-02  0.8743244E-01
        2   -1    0    0  501    0  0.00000000000E+00  0.00000000000E+00  0.18248249882E+04  0.18248249882E+04  0.25500000920E-02 0. -1.
       -2   -1    0    0    0  501  0.00000000000E+00  0.00000000000E+00 -0.41104013437E+03  0.41104013438E+03  0.25500000920E-02 0.  1.
    10030    2    1    2    0    0  0.00000000000E+00  0.00000000000E+00  0.14137848539E+04  0.22358651226E+04  0.17321389186E+04 0.  0.
        5    1    3    3  502    0  0.44822728899E+03  0.17594271808E+03  0.16360891696E+04  0.17054833342E+04  0.46999998093E+01 0. -1.
       -5    1    3    3    0  502 -0.44822728899E+03 -0.17594271808E+03 -0.22230431571E+03  0.53038178835E+03  0.46999998093E+01 0.  1.
</event>
<event>
 5   0  0.3413839E-04  0.8867767E+03  0.7818609E-02  0.9442264E-01
        1   -1    0    0  501    0  0.00000000000E+00  0.00000000000E+00  0.18454760633E+03  0.18454760640E+03  0.50400001928E-02 0. -1.
       -1   -1    0    0    0  501  0.00000000000E+00  0.00000000000E+00 -0.10652710050E+04  0.10652710050E+04  0.50400001928E-02 0.  1.
    10030    2    1    2    0    0  0.00000000000E+00  0.00000000000E+00 -0.88072339870E+03  0.12498186114E+04  0.88677666663E+03 0.  0.
        5    1    3    3  502    0  0.16126182710E+03  0.31523806538E+03 -0.64312740471E+02  0.35991475842E+03  0.46999998093E+01 0. -1.
       -5    1    3    3    0  502 -0.16126182710E+03 -0.31523806538E+03 -0.81641065823E+03  0.88990385302E+03  0.46999998093E+01 0.  1.
</event>
<event>
 5   0  0.3413839E-04  0.1741174E+04  0.7818609E-02  0.8738224E-01
       -1   -1    0    0    0  501  0.00000000000E+00  0.00000000000E+00  0.46744929650E+03  0.46744929653E+03  0.50400001928E-02 0.  1.
        1   -1    0    0  501    0  0.00000000000E+00  0.00000000000E+00 -0.16213986961E+04  0.16213986961E+04  0.50400001928E-02 0. -1.
    10030    2    1    2    0    0  0.00000000000E+00  0.00000000000E+00 -0.11539493996E+04  0.20888479927E+04  0.17411739487E+04 0.  0.
        5    1    3    3  502    0  0.59747988654E+03  0.14076494022E+02  0.18245008561E+03  0.62489237973E+03  0.46999998093E+01 0. -1.
       -5    1    3    3    0  502 -0.59747988654E+03 -0.14076494022E+02 -0.13363994852E+04  0.14639556129E+04  0.46999998093E+01 0.  1.
</event>
<event>
 5   0  0.3413839E-04  0.1724557E+04  0.7818609E-02  0.8747481E-01
        1   -1    0    0  501    0  0.00000000000E+00  0.00000000000E+00  0.93662819041E+03  0.93662819042E+03  0.50400001928E-02 0. -1.
       -1   -1    0    0    0  501  0.00000000000E+00  0.00000000000E+00 -0.79383100458E+03  0.79383100459E+03  0.50400001928E-02 0.  1.
    10030    2    1    2    0    0  0.00000000000E+00  0.00000000000E+00  0.14279718583E+03  0.17304591950E+04  0.17245573314E+04 0.  0.
        5    1    3    3  502    0  0.98181599260E+02 -0.17221097759E+03 -0.77064317829E+03  0.79574445991E+03  0.46999998093E+01 0.  1.
       -5    1    3    3    0  502 -0.98181599260E+02  0.17221097759E+03  0.91344036411E+03  0.93471473511E+03  0.46999998093E+01 0. -1.
</event>
<event>
 5   0  0.3404261E-04  0.1798575E+04  0.7818609E-02  0.8707057E-01
        1   -1    0    0  501    0  0.00000000000E+00  0.00000000000E+00  0.16822126030E+04  0.16822126030E+04  0.50400001928E-02 0. -1.
       -1   -1    0    0    0  501  0.00000000000E+00  0.00000000000E+00 -0.48074680095E+03  0.48074680097E+03  0.50400001928E-02 0.  1.
    10030    2    1    2    0    0  0.00000000000E+00  0.00000000000E+00  0.12014658020E+04  0.21629594040E+04  0.17985753556E+04 0.  0.
        1    1    3    3  502    0  0.22108179723E+03 -0.62087248648E+02  0.16463596967E+04  0.16622972774E+04  0.50400001928E-02 0. -1.
       -1    1    3    3    0  502 -0.22108179723E+03  0.62087248648E+02 -0.44489389463E+03  0.50066212660E+03  0.50400001928E-02 0.  1.
</event>
<event>
 5   0  0.6929121E-04  0.1733378E+04  0.7818609E-02  0.8742554E-01
       -2   -1    0    0    0  501  0.00000000000E+00  0.00000000000E+00  0.46348616210E+03  0.46348616211E+03  0.25500000920E-02 0. -1.
        2   -1    0    0  501    0  0.00000000000E+00  0.00000000000E+00 -0.16206515124E+04  0.16206515124E+04  0.25500000920E-02 0.  1.
    10030    2    1    2    0    0  0.00000000000E+00  0.00000000000E+00 -0.11571653503E+04  0.20841376746E+04  0.17333776849E+04 0.  0.
        3    1    3    3  502    0 -0.86222571305E+03 -0.86793523142E+02 -0.59485866878E+03  0.10511056759E+04  0.10100000352E+00 0. -1.
       -3    1    3    3    0  502  0.86222571305E+03  0.86793523142E+02 -0.56230668157E+03  0.10330319987E+04  0.10100000352E+00 0.  1.
</event>
<event>
 5   0  0.2467375E-04  0.1778447E+04  0.7818609E-02  0.8717846E-01
       -4   -1    0    0    0  501  0.00000000000E+00  0.00000000000E+00  0.11992525549E+04  0.11992532274E+04  0.12699999809E+01 0.  1.
        4   -1    0    0  501    0  0.00000000000E+00  0.00000000000E+00 -0.65934106090E+03  0.65934228401E+03  0.12699999809E+01 0. -1.
    10030    2    1    2    0    0  0.00000000000E+00  0.00000000000E+00  0.53991149402E+03  0.18585955114E+04  0.17784467531E+04 0.  0.
        4    1    3    3  502    0 -0.43092756277E+03  0.63343801921E+03 -0.20180166771E+03  0.79225489239E+03  0.12699999809E+01 0. -1.
       -4    1    3    3    0  502  0.43092756277E+03 -0.63343801921E+03  0.74171316173E+03  0.10663406190E+04  0.12699999809E+01 0.  1.
</event>
<event>
 5   0  0.3470962E-04  0.1764977E+04  0.7818609E-02  0.8725149E-01
        1   -1    0    0  501    0  0.00000000000E+00  0.00000000000E+00  0.70827066658E+03  0.70827066660E+03  0.50400001928E-02 0.  1.
       -1   -1    0    0    0  501  0.00000000000E+00  0.00000000000E+00 -0.10995600062E+04  0.10995600062E+04  0.50400001928E-02 0. -1.
    10030    2    1    2    0    0  0.00000000000E+00  0.00000000000E+00 -0.39128933958E+03  0.18078306728E+04  0.17649771653E+04 0.  0.
        4    1    3    3  502    0  0.74647011662E+02 -0.83999451596E+03 -0.46199984031E+03  0.96156561323E+03  0.12699999809E+01 0. -1.
       -4    1    3    3    0  502 -0.74647011662E+02  0.83999451596E+03  0.70710500730E+02  0.84626505955E+03  0.12699999809E+01 0.  1.
</event>
<event>
 5   0  0.6853162E-04  0.1431561E+04  0.7818609E-02  0.8931285E-01
        2   -1    0    0  501    0  0.00000000000E+00  0.00000000000E+00  0.10688970178E+04  0.10688970178E+04  0.25500000920E-02 0. -1.
       -2   -1    0    0    0  501  0.00000000000E+00  0.00000000000E+00 -0.47931783107E+03  0.47931783108E+03  0.25500000920E-02 0.  1.
    10030    2    1    2    0    0  0.00000000000E+00  0.00000000000E+00  0.58957918675E+03  0.15482148489E+04  0.14315605474E+04 0.  0.
        2    1    3    3  502    0  0.40215502258E+03  0.33744915767E+03 -0.23141915789E+03  0.57372068365E+03  0.25500000920E-02 0.  1.
       -2    1    3    3    0  502 -0.40215502258E+03 -0.33744915767E+03  0.82099834463E+03  0.97449416525E+03  0.25500000920E-02 0. -1.
</event>
<event>
 5   0  0.6853162E-04  0.1818524E+04  0.7818609E-02  0.8696510E-01
       -2   -1    0    0    0  501  0.00000000000E+00  0.00000000000E+00  0.76800185145E+03  0.76800185145E+03  0.25500000920E-02 0. -1.
        2   -1    0    0  501    0  0.00000000000E+00  0.00000000000E+00 -0.10765046857E+04  0.10765046857E+04  0.25500000920E-02 0.  1.
    10030    2    1    2    0    0  0.00000000000E+00  0.00000000000E+00 -0.30850283429E+03  0.18445065372E+04  0.18185242278E+04 0.  0.
        2    1    3    3  502    0 -0.41593538784E+03  0.18497207575E+03  0.64410352851E+03  0.78872445829E+03  0.25500000920E-02 0. -1.
       -2    1    3    3    0  502  0.41593538784E+03 -0.18497207575E+03 -0.95260636279E+03  0.10557820789E+04  0.25500000920E-02 0.  1.
</event>
<event>
 5   0  0.3404261E-04  0.1779962E+04  0.7818609E-02  0.8717028E-01
        1   -1    0    0  501    0  0.00000000000E+00  0.00000000000E+00  0.79749005670E+03  0.79749005672E+03  0.50400001928E-02 0. -1.
       -1   -1    0    0    0  501  0.00000000000E+00  0.00000000000E+00 -0.99319904093E+03  0.99319904094E+03  0.50400001928E-02 0.  1.
    10030    2    1    2    0    0  0.00000000000E+00  0.00000000000E+00 -0.19570898423E+03  0.17906890977E+04  0.17799622013E+04 0.  0.
        1    1    3    3  502    0 -0.84999788601E+03  0.16751296960E+02 -0.36266953079E+03  0.92428686064E+03  0.50400001928E-02 0. -1.
       -1    1    3    3    0  502  0.84999788601E+03 -0.16751296960E+02  0.16696054656E+03  0.86640223701E+03  0.50400001928E-02 0.  1.
</event>
<event>
 5   0  0.6547153E-04  0.1781620E+04  0.7818609E-02  0.8716135E-01
        2   -1    0    0  501    0  0.00000000000E+00  0.00000000000E+00  0.20709934280E+04  0.20709934280E+04  0.25500000920E-02 0.  1.
       -2   -1    0    0    0  501  0.00000000000E+00  0.00000000000E+00 -0.38317006298E+03  0.38317006299E+03  0.25500000920E-02 0. -1.
    10030    2    1    2    0    0  0.00000000000E+00  0.00000000000E+00  0.16878233651E+04  0.24541634910E+04  0.17816202539E+04 0.  0.
        5    1    3    3  502    0  0.27293123157E+03 -0.65715885551E+03  0.10573737938E+03  0.71941066293E+03  0.46999998093E+01 0. -1.
       -5    1    3    3    0  502 -0.27293123157E+03  0.65715885551E+03  0.15820859857E+04  0.17347528281E+04  0.46999998093E+01 0.  1.
</event>
<event>
 5   0  0.3308275E-04  0.1845563E+04  0.7818609E-02  0.8682438E-01
        1   -1    0    0  501    0  0.00000000000E+00  0.00000000000E+00  0.12418456033E+04  0.12418456034E+04  0.50400001928E-02 0.  1.
       -1   -1    0    0    0  501  0.00000000000E+00  0.00000000000E+00 -0.68569368522E+03  0.68569368524E+03  0.50400001928E-02 0. -1.
    10030    2    1    2    0    0  0.00000000000E+00  0.00000000000E+00  0.55615191812E+03  0.19275392886E+04  0.18455629908E+04 0.  0.
        3    1    3    3  502    0 -0.16148748201E+03  0.55516792656E+03 -0.47306035247E+03  0.74704467122E+03  0.10100000352E+00 0. -1.
       -3    1    3    3    0  502  0.16148748201E+03 -0.55516792656E+03  0.10292122706E+04  0.11804946174E+04  0.10100000352E+00 0.  1.
</event>
<event>
 5   0  0.6774451E-04  0.2145923E+04  0.7818609E-02  0.8541279E-01
       -2   -1    0    0    0  501  0.00000000000E+00  0.00000000000E+00  0.10929259640E+04  0.10929259640E+04  0.25500000920E-02 0.  1.
        2   -1    0    0  501    0  0.00000000000E+00  0.00000000000E+00 -0.10533619979E+04  0.10533619979E+04  0.25500000920E-02 0. -1.
    10030    2    1    2    0    0  0.00000000000E+00  0.00000000000E+00  0.39563966062E+02  0.21462879620E+04  0.21459232764E+04 0.  0.
        4    1    3    3  502    0 -0.21178987096E+03 -0.84779453454E+03 -0.60292686145E+03  0.10616651710E+04  0.12699999809E+01 0. -1.
       -4    1    3    3    0  502  0.21178987096E+03  0.84779453454E+03  0.64249082751E+03  0.10846227909E+04  0.12699999809E+01 0.  1.
</event>
<event>
 5   0  0.2467375E-04  0.1829304E+04  0.7818609E-02  0.8690869E-01
        3   -1    0    0  501    0  0.00000000000E+00  0.00000000000E+00  0.91566236263E+03  0.91566236820E+03  0.10100000352E+00 0.  1.
       -3   -1    0    0    0  501  0.00000000000E+00  0.00000000000E+00 -0.91364285699E+03  0.91364286257E+03  0.10100000352E+00 0. -1.
    10030    2    1    2    0    0  0.00000000000E+00  0.00000000000E+00  0.20195056399E+01  0.18293052308E+04  0.18293041160E+04 0.  0.
        5    1    3    3  502    0  0.69419649178E+03  0.53374967261E+03  0.26514778501E+03  0.91494421694E+03  0.46999998093E+01 0.  1.
       -5    1    3    3    0  502 -0.69419649178E+03 -0.53374967261E+03 -0.26312827937E+03  0.91436101383E+03  0.46999998093E+01 0. -1.
</event>
<event>
 5   0  0.2467375E-04  0.1786245E+04  0.7818609E-02  0.8713649E-01
        4   -1    0    0  501    0  0.00000000000E+00  0.00000000000E+00  0.83359959849E+03  0.83360056592E+03  0.12699999809E+01 0.  1.
       -4   -1    0    0    0  501  0.00000000000E+00  0.00000000000E+00 -0.95689337487E+03  0.95689421765E+03  0.12699999809E+01 0. -1.
    10030    2    1    2    0    0  0.00000000000E+00  0.00000000000E+00 -0.12329377638E+03  0.17904947836E+04  0.17862447242E+04 0.  0.
        4    1    3    3  502    0 -0.12394134846E+03  0.53200972859E+03  0.64662481910E+03  0.84647568114E+03  0.12699999809E+01 0.  1.
       -4    1    3    3    0  502  0.12394134846E+03 -0.53200972859E+03 -0.76991859548E+03  0.94401910243E+03  0.12699999809E+01 0. -1.
</event>
<event>
 5   0  0.3404261E-04  0.1761849E+04  0.7818609E-02  0.8726855E-01
        1   -1    0    0  501    0  0.00000000000E+00  0.00000000000E+00  0.24045904422E+04  0.24045904422E+04  0.50400001928E-02 0. -1.
       -1   -1    0    0    0  501  0.00000000000E+00  0.00000000000E+00 -0.32272758873E+03  0.32272758877E+03  0.50400001928E-02 0.  1.
    10030    2    1    2    0    0  0.00000000000E+00  0.00000000000E+00  0.20818628534E+04  0.27273180310E+04  0.17618486602E+04 0.  0.
        1    1    3    3  502    0  0.17640200660E+03  0.32239577402E+03  0.22802597191E+04  0.23096841969E+04  0.50400001928E-02 0. -1.
       -1    1    3    3    0  502 -0.17640200660E+03 -0.32239577402E+03 -0.19839686561E+03  0.41763383406E+03  0.50400001928E-02 0.  1.
</event>
<event>
 5   0  0.3404261E-04  0.1907488E+04  0.7818609E-02  0.8651138E-01
       -1   -1    0    0    0  501  0.00000000000E+00  0.00000000000E+00  0.13545734365E+04  0.13545734365E+04  0.50400001928E-02 0. -1.
        1   -1    0    0  501    0  0.00000000000E+00  0.00000000000E+00 -0.67152308777E+03  0.67152308779E+03  0.50400001928E-02 0.  1.
    10030    2    1    2    0    0  0.00000000000E+00  0.00000000000E+00  0.68305034873E+03  0.20260965243E+04  0.19074877056E+04 0.  0.
        1    1    3    3  502    0  0.55578432042E+03  0.62671159375E+03  0.82591181430E+03  0.11763477197E+04  0.50400001928E-02 0. -1.
       -1    1    3    3    0  502 -0.55578432042E+03 -0.62671159375E+03 -0.14286146558E+03  0.84974880461E+03  0.50400001928E-02 0.  1.
</event>
<event>
 5   0  0.3308275E-04  0.1780664E+04  0.7818609E-02  0.8716650E-01
       -1   -1    0    0    0  501  0.00000000000E+00  0.00000000000E+00  0.33438481138E+03  0.33438481142E+03  0.50400001928E-02 0. -1.
        1   -1    0    0  501    0  0.00000000000E+00  0.00000000000E+00 -0.23705951002E+04  0.23705951002E+04  0.50400001928E-02 0.  1.
    10030    2    1    2    0    0  0.00000000000E+00  0.00000000000E+00 -0.20362102888E+04  0.27049799116E+04  0.17806639161E+04 0.  0.
        3    1    3    3  502    0 -0.55301766083E+03 -0.61639116876E+03 -0.15148352185E+04  0.17264102512E+04  0.10100000352E+00 0.  1.
       -3    1    3    3    0  502  0.55301766083E+03  0.61639116876E+03 -0.52137507034E+03  0.97856966042E+03  0.10100000352E+00 0. -1.
</event>
<event>
 5   0  0.6774451E-04  0.1924845E+04  0.7818609E-02  0.8642588E-01
        2   -1    0    0  501    0  0.00000000000E+00  0.00000000000E+00  0.49703925565E+03  0.49703925566E+03  0.25500000920E-02 0. -1.
       -2   -1    0    0    0  501  0.00000000000E+00  0.00000000000E+00 -0.18635483234E+04  0.18635483234E+04  0.25500000920E-02 0.  1.
    10030    2    1    2    0    0  0.00000000000E+00  0.00000000000E+00 -0.13665090677E+04  0.23605875791E+04  0.19248445875E+04 0.  0.
        4    1    3    3  502    0 -0.53346585656E+03  0.27085072572E+02 -0.16650740429E+04  0.17486545120E+04  0.12699999809E+01 0.  1.
       -4    1    3    3    0  502  0.53346585656E+03 -0.27085072572E+02  0.29856497512E+03  0.61193306704E+03  0.12699999809E+01 0. -1.
</event>
<event>
 5   0  0.6771967E-04  0.1808507E+04  0.7818609E-02  0.8701789E-01
       -2   -1    0    0    0  501  0.00000000000E+00  0.00000000000E+00  0.41742928479E+03  0.41742928480E+03  0.25500000920E-02 0. -1.
        2   -1    0    0  501    0  0.00000000000E+00  0.00000000000E+00 -0.19588326742E+04  0.19588326742E+04  0.25500000920E-02 0.  1.
    10030    2    1    2    0    0  0.00000000000E+00  0.00000000000E+00 -0.15414033894E+04  0.23762619590E+04  0.18085067014E+04 0.  0.
        1    1    3    3  502    0 -0.50065620948E+03 -0.57139020645E+02  0.21584688950E+03  0.54818918952E+03  0.50400001928E-02 0. -1.
       -1    1    3    3    0  502  0.50065620948E+03  0.57139020645E+02 -0.17572502789E+04  0.18280727695E+04  0.50400001928E-02 0.  1.
</event>
<event>
 5   0  0.2467375E-04  0.1774718E+04  0.7818609E-02  0.8719861E-01
        4   -1    0    0  501    0  0.00000000000E+00  0.00000000000E+00  0.76702642364E+03  0.76702747504E+03  0.12699999809E+01 0.  1.
       -4   -1    0    0    0  501  0.00000000000E+00  0.00000000000E+00 -0.10265677717E+04  0.10265685573E+04  0.12699999809E+01 0. -1.
    10030    2    1    2    0    0  0.00000000000E+00  0.00000000000E+00 -0.25954134807E+03  0.17935960323E+04  0.17747182920E+04 0.  0.
        4    1    3    3  502    0  0.17445727879E+03 -0.43097160130E+01 -0.10090543564E+04  0.10240342880E+04  0.12699999809E+01 0. -1.
       -4    1    3    3    0  502 -0.17445727879E+03  0.43097160130E+01  0.74951300837E+03  0.76956174437E+03  0.12699999809E+01 0.  1.
</event>
<event>
 5   0  0.3377273E-04  0.1821042E+04  0.7818609E-02  0.8695189E-01
        1   -1    0    0  501    0  0.00000000000E+00  0.00000000000E+00  0.14892409360E+04  0.14892409360E+04  0.50400001928E-02 0. -1.
       -1   -1    0    0    0  501  0.00000000000E+00  0.00000000000E+00 -0.55669196017E+03  0.55669196019E+03  0.50400001928E-02 0.  1.
    10030    2    1    2    0    0  0.00000000000E+00  0.00000000000E+00  0.93254897583E+03  0.20459328962E+04  0.18210419609E+04 0.  0.
        2    1    3    3  502    0  0.46428076411E+03  0.23084375917E+03  0.13071740809E+04  0.14062537278E+04  0.25500000920E-02 0. -1.
       -2    1    3    3    0  502 -0.46428076411E+03 -0.23084375917E+03 -0.37462510512E+03  0.63967916838E+03  0.25500000920E-02 0.  1.
</event>
<event>
 5   0  0.3413839E-04  0.1799085E+04  0.7818609E-02  0.8706786E-01
       -1   -1    0    0    0  501  0.00000000000E+00  0.00000000000E+00  0.64030208106E+03  0.64030208108E+03  0.50400001928E-02 0.  1.
        1   -1    0    0  501    0  0.00000000000E+00  0.00000000000E+00 -0.12637421906E+04  0.12637421907E+04  0.50400001928E-02 0. -1.
    10030    2    1    2    0    0  0.00000000000E+00  0.00000000000E+00 -0.62344010959E+03  0.19040442717E+04  0.17990850504E+04 0.  0.
        5    1    3    3  502    0  0.34404848332E+03 -0.38924560797E+03 -0.10889146132E+04  0.12064984986E+04  0.46999998093E+01 0. -1.
       -5    1    3    3    0  502 -0.34404848332E+03  0.38924560797E+03  0.46547450360E+03  0.69754577319E+03  0.46999998093E+01 0.  1.
</event>
<event>
 5   0  0.6774451E-04  0.1898597E+04  0.7818609E-02  0.8655555E-01
        2   -1    0    0  501    0  0.00000000000E+00  0.00000000000E+00  0.67481422378E+03  0.67481422379E+03  0.25500000920E-02 0. -1.
       -2   -1    0    0    0  501  0.00000000000E+00  0.00000000000E+00 -0.13354312065E+04  0.13354312065E+04  0.25500000920E-02 0.  1.
    10030    2    1    2    0    0  0.00000000000E+00  0.00000000000E+00 -0.66061698275E+03  0.20102454303E+04  0.18985973486E+04 0.  0.
        4    1    3    3  502    0 -0.21655827002E+03  0.35026594998E+03  0.57531547937E+03  0.70751200254E+03  0.12699999809E+01 0. -1.
       -4    1    3    3    0  502  0.21655827002E+03 -0.35026594998E+03 -0.12359324621E+04  0.13027334278E+04  0.12699999809E+01 0.  1.
</event>
<event>
 5   0  0.3308275E-04  0.1806925E+04  0.7818609E-02  0.8702625E-01
       -1   -1    0    0    0  501  0.00000000000E+00  0.00000000000E+00  0.50395119825E+03  0.50395119828E+03  0.50400001928E-02 0.  1.
        1   -1    0    0  501    0  0.00000000000E+00  0.00000000000E+00 -0.16196903307E+04  0.16196903307E+04  0.50400001928E-02 0. -1.
    10030    2    1    2    0    0  0.00000000000E+00  0.00000000000E+00 -0.11157391324E+04  0.21236415290E+04  0.18069254362E+04 0.  0.
        3    1    3    3  502    0 -0.17571194229E+03 -0.55326803182E+02 -0.15973831714E+04  0.16079703816E+04  0.10100000352E+00 0. -1.
       -3    1    3    3    0  502  0.17571194229E+03  0.55326803182E+02  0.48164403891E+03  0.51567114737E+03  0.10100000352E+00 0.  1.
</event>
<event>
 5   0  0.6774451E-04  0.1785664E+04  0.7818609E-02  0.8713961E-01
       -2   -1    0    0    0  501  0.00000000000E+00  0.00000000000E+00  0.14146632658E+04  0.14146632658E+04  0.25500000920E-02 0. -1.
        2   -1    0    0  501    0  0.00000000000E+00  0.00000000000E+00 -0.56348997680E+03  0.56348997680E+03  0.25500000920E-02 0.  1.
    10030    2    1    2    0    0  0.00000000000E+00  0.00000000000E+00  0.85117328899E+03  0.19781532426E+04  0.17856635415E+04 0.  0.
        4    1    3    3  502    0 -0.13558710028E+03  0.69192194265E+03 -0.18118612530E+03  0.72799028935E+03  0.12699999809E+01 0.  1.
       -4    1    3    3    0  502  0.13558710028E+03 -0.69192194265E+03  0.10323594143E+04  0.12501629532E+04  0.12699999809E+01 0. -1.
</event>
<event>
 5   0  0.3308275E-04  0.1783174E+04  0.7818609E-02  0.8715299E-01
        1   -1    0    0  501    0  0.00000000000E+00  0.00000000000E+00  0.12581803874E+04  0.12581803874E+04  0.50400001928E-02 0. -1.
       -1   -1    0    0    0  501  0.00000000000E+00  0.00000000000E+00 -0.63180686398E+03  0.63180686400E+03  0.50400001928E-02 0.  1.
    10030    2    1    2    0    0  0.00000000000E+00  0.00000000000E+00  0.62637352343E+03  0.18899872514E+04  0.17831735809E+04 0.  0.
        3    1    3    3  502    0  0.63225486455E+03  0.62524550808E+03  0.24409914410E+03  0.92209682869E+03  0.10100000352E+00 0. -1.
       -3    1    3    3    0  502 -0.63225486455E+03 -0.62524550808E+03  0.38227437934E+03  0.96789042274E+03  0.10100000352E+00 0.  1.
</event>
<event>
 5   0  0.3404261E-04  0.1892338E+04  0.7818609E-02  0.8658680E-01
       -1   -1    0    0    0  501  0.00000000000E+00  0.00000000000E+00  0.66518046255E+03  0.66518046257E+03  0.50400001928E-02 0. -1.
        1   -1    0    0  501    0  0.00000000000E+00  0.00000000000E+00 -0.13458535376E+04  0.13458535376E+04  0.50400001928E-02 0.  1.
    10030    2    1    2    0    0  0.00000000000E+00  0.00000000000E+00 -0.68067307504E+03  0.20110340002E+04  0.18923376852E+04 0.  0.
        1    1    3    3  502    0 -0.48669513473E+03  0.72818881392E+03  0.40030397655E+02  0.87677450673E+03  0.50400001928E-02 0. -1.
       -1    1    3    3    0  502  0.48669513473E+03 -0.72818881392E+03 -0.72070347269E+03  0.11342594934E+04  0.50400001928E-02 0.  1.
</event>
<event>
 5   0  0.6774451E-04  0.1745063E+04  0.7818609E-02  0.8736073E-01
        2   -1    0    0  501    0  0.00000000000E+00  0.00000000000E+00  0.15976908746E+04  0.15976908746E+04  0.25500000920E-02 0.  1.
       -2   -1    0    0    0  501  0.00000000000E+00  0.00000000000E+00 -0.47650704901E+03  0.47650704901E+03  0.25500000920E-02 0. -1.
    10030    2    1    2    0    0  0.00000000000E+00  0.00000000000E+00  0.11211838256E+04  0.20741979236E+04  0.17450627082E+04 0.  0.
        4    1    3    3  502    0 -0.78778867882E+03 -0.36512536129E+03  0.66271427566E+03  0.10923000302E+04  0.12699999809E+01 0. -1.
       -4    1    3    3    0  502  0.78778867882E+03  0.36512536129E+03  0.45846954991E+03  0.98189789338E+03  0.12699999809E+01 0.  1.
</event>
<event>
 5   0  0.6771967E-04  0.1802392E+04  0.7818609E-02  0.8705029E-01
        2   -1    0    0  501    0  0.00000000000E+00  0.00000000000E+00  0.14534022071E+04  0.14534022071E+04  0.25500000920E-02 0.  1.
       -2   -1    0    0    0  501  0.00000000000E+00  0.00000000000E+00 -0.55879498883E+03  0.55879498883E+03  0.25500000920E-02 0. -1.
    10030    2    1    2    0    0  0.00000000000E+00  0.00000000000E+00  0.89460721824E+03  0.20121971959E+04  0.18023916001E+04 0.  0.
        1    1    3    3  502    0  0.54259425313E+03  0.71929447031E+03  0.42609747202E+03  0.99667051438E+03  0.50400001928E-02 0.  1.
       -1    1    3    3    0  502 -0.54259425313E+03 -0.71929447031E+03  0.46850974622E+03  0.10155266815E+04  0.50400001928E-02 0. -1.
</event>
<event>
 5   0  0.6774451E-04  0.1801070E+04  0.7818609E-02  0.8705731E-01
        2   -1    0    0  501    0  0.00000000000E+00  0.00000000000E+00  0.20210191511E+04  0.20210191511E+04  0.25500000920E-02 0. -1.
       -2   -1    0    0    0  501  0.00000000000E+00  0.00000000000E+00 -0.40126446853E+03  0.40126446854E+03  0.25500000920E-02 0.  1.
    10030    2    1    2    0    0  0.00000000000E+00  0.00000000000E+00  0.16197546825E+04  0.24222836196E+04  0.18010698771E+04 0.  0.
        4    1    3    3  502    0  0.28545489169E+03 -0.63426182630E+03  0.40580801698E+02  0.69672158991E+03  0.12699999809E+01 0.  1.
       -4    1    3    3    0  502 -0.28545489169E+03  0.63426182630E+03  0.15791738808E+04  0.17255620297E+04  0.12699999809E+01 0. -1.
</event>
<event>
 5   0  0.6774451E-04  0.1784125E+04  0.7818609E-02  0.8714788E-01
        2   -1    0    0  501    0  0.00000000000E+00  0.00000000000E+00  0.67603978709E+03  0.67603978709E+03  0.25500000920E-02 0. -1.
       -2   -1    0    0    0  501  0.00000000000E+00  0.00000000000E+00 -0.11771129801E+04  0.11771129801E+04  0.25500000920E-02 0.  1.
    10030    2    1    2    0    0  0.00000000000E+00  0.00000000000E+00 -0.50107319303E+03  0.18531527672E+04  0.17841246688E+04 0.  0.
        4    1    3    3  502    0 -0.36840221468E+02  0.72235947101E+03  0.29178819164E+03  0.77993741349E+03  0.12699999809E+01 0. -1.
       -4    1    3    3    0  502  0.36840221468E+02 -0.72235947101E+03 -0.79286138467E+03  0.10732153537E+04  0.12699999809E+01 0.  1.
</event>
<event>
 5   0  0.3404261E-04  0.1812148E+04  0.7818609E-02  0.8699866E-01
        1   -1    0    0  501    0  0.00000000000E+00  0.00000000000E+00  0.10022647265E+04  0.10022647266E+04  0.50400001928E-02 0.  1.
       -1   -1    0    0    0  501  0.00000000000E+00  0.00000000000E+00 -0.81911546867E+03  0.81911546869E+03  0.50400001928E-02 0. -1.
    10030    2    1    2    0    0  0.00000000000E+00  0.00000000000E+00  0.18314925787E+03  0.18213801952E+04  0.18121484942E+04 0.  0.
        1    1    3    3  502    0 -0.39071279782E+03  0.19346198501E+03 -0.70675536879E+03  0.83041386150E+03  0.50400001928E-02 0. -1.
       -1    1    3    3    0  502  0.39071279782E+03 -0.19346198501E+03  0.88990462667E+03  0.99096633375E+03  0.50400001928E-02 0.  1.
</event>
<event>
 5   0  0.3308275E-04  0.1805580E+04  0.7818609E-02  0.8703338E-01
        1   -1    0    0  501    0  0.00000000000E+00  0.00000000000E+00  0.19961795272E+04  0.19961795272E+04  0.50400001928E-02 0.  1.
       -1   -1    0    0    0  501  0.00000000000E+00  0.00000000000E+00 -0.40829497497E+03  0.40829497500E+03  0.50400001928E-02 0. -1.
    10030    2    1    2    0    0  0.00000000000E+00  0.00000000000E+00  0.15878845522E+04  0.24044745022E+04  0.18055803168E+04 0.  0.
        3    1    3    3  502    0  0.17400664547E+03  0.85542605356E+03  0.11005147530E+04  0.14046938377E+04  0.10100000352E+00 0.  1.
       -3    1    3    3    0  502 -0.17400664547E+03 -0.85542605356E+03  0.48736979920E+03  0.99978066452E+03  0.10100000352E+00 0. -1.
</event>
<event>
 5   0  0.6853162E-04  0.1836123E+04  0.7818609E-02  0.8687322E-01
       -2   -1    0    0    0  501  0.00000000000E+00  0.00000000000E+00  0.79172544536E+03  0.79172544536E+03  0.25500000920E-02 0.  1.
        2   -1    0    0  501    0  0.00000000000E+00  0.00000000000E+00 -0.10645568075E+04  0.10645568075E+04  0.25500000920E-02 0. -1.
    10030    2    1    2    0    0  0.00000000000E+00  0.00000000000E+00 -0.27283136219E+03  0.18562822529E+04  0.18361227765E+04 0.  0.
        2    1    3    3  502    0 -0.85629819193E+03  0.25304079115E+03  0.79376858536E+02  0.89642452062E+03  0.25500000920E-02 0. -1.
       -2    1    3    3    0  502  0.85629819193E+03 -0.25304079115E+03 -0.35220822072E+03  0.95985773229E+03  0.25500000920E-02 0.  1.
</event>
<event>
 5   0  0.3377273E-04  0.1727155E+04  0.7818609E-02  0.8746027E-01
        1   -1    0    0  501    0  0.00000000000E+00  0.00000000000E+00  0.12821725027E+04  0.12821725027E+04  0.50400001928E-02 0. -1.
       -1   -1    0    0    0  501  0.00000000000E+00  0.00000000000E+00 -0.58164228111E+03  0.58164228113E+03  0.50400001928E-02 0.  1.
    10030    2    1    2    0    0  0.00000000000E+00  0.00000000000E+00  0.70053022159E+03  0.18638147838E+04  0.17271545840E+04 0.  0.
        2    1    3    3  502    0  0.33264146315E+03  0.15991071660E+03  0.11927731593E+04  0.12485710191E+04  0.25500000920E-02 0. -1.
       -2    1    3    3    0  502 -0.33264146315E+03 -0.15991071660E+03 -0.49224293770E+03  0.61524376471E+03  0.25500000920E-02 0.  1.
</event>
<event>
 5   0  0.3470962E-04  0.1571678E+04  0.7818609E-02  0.8838139E-01
        1   -1    0    0  501    0  0.00000000000E+00  0.00000000000E+00  0.12534371419E+04  0.12534371419E+04  0.50400001928E-02 0.  1.
       -1   -1    0    0    0  501  0.00000000000E+00  0.00000000000E+00 -0.49267945292E+03  0.49267945295E+03  0.50400001928E-02 0. -1.
    10030    2    1    2    0    0  0.00000000000E+00  0.00000000000E+00  0.76075768901E+03  0.17461165949E+04  0.15716777346E+04 0.  0.
        4    1    3    3  502    0  0.61824772913E+03 -0.24983444792E+03 -0.81575659721E+02  0.67179141636E+03  0.12699999809E+01 0. -1.
       -4    1    3    3    0  502 -0.61824772913E+03  0.24983444792E+03  0.84233334873E+03  0.10743251785E+04  0.12699999809E+01 0.  1.
</event>
<event>
 5   0  0.3470962E-04  0.1835170E+04  0.7818609E-02  0.8687817E-01
       -1   -1    0    0    0  501  0.00000000000E+00  0.00000000000E+00  0.11327025998E+04  0.11327025998E+04  0.50400001928E-02 0. -1.
        1   -1    0    0  501    0  0.00000000000E+00  0.00000000000E+00 -0.74332192470E+03  0.74332192472E+03  0.50400001928E-02 0.  1.
    10030    2    1    2    0    0  0.00000000000E+00  0.00000000000E+00  0.38938067511E+03  0.18760245245E+04  0.18351704843E+04 0.  0.
        4    1    3    3  502    0 -0.57612159987E+03 -0.14378241604E+03 -0.52043385285E+03  0.78958374419E+03  0.12699999809E+01 0.  1.
       -4    1    3    3    0  502  0.57612159987E+03  0.14378241604E+03  0.90981452796E+03  0.10864407803E+04  0.12699999809E+01 0. -1.
</event>
<event>
 5   0  0.6853162E-04  0.1831200E+04  0.7818609E-02  0.8689881E-01
        2   -1    0    0  501    0  0.00000000000E+00  0.00000000000E+00  0.17585893452E+04  0.17585893452E+04  0.25500000920E-02 0.  1.
       -2   -1    0    0    0  501  0.00000000000E+00  0.00000000000E+00 -0.47670221967E+03  0.47670221968E+03  0.25500000920E-02 0. -1.
    10030    2    1    2    0    0  0.00000000000E+00  0.00000000000E+00  0.12818871255E+04  0.22352915648E+04  0.18312000921E+04 0.  0.
        2    1    3    3  502    0  0.77531233293E+03 -0.18538776412E+02  0.12350358400E+04  0.14583437270E+04  0.25500000920E-02 0.  1.
       -2    1    3    3    0  502 -0.77531233293E+03  0.18538776412E+02  0.46851285461E+02  0.77694783787E+03  0.25500000920E-02 0. -1.
</event>
<event>
 5   0  0.3404261E-04  0.1774909E+04  0.7818609E-02  0.8719757E-01
        1   -1    0    0  501    0  0.00000000000E+00  0.00000000000E+00  0.20041478472E+04  0.20041478472E+04  0.50400001928E-02 0.  1.
       -1   -1    0    0    0  501  0.00000000000E+00  0.00000000000E+00 -0.39297285500E+03  0.39297285504E+03  0.50400001928E-02 0. -1.
    10030    2    1    2    0    0  0.00000000000E+00  0.00000000000E+00  0.16111749922E+04  0.23971207023E+04  0.17749092387E+04 0.  0.
        1    1    3    3  502    0  0.14355245668E+03  0.66745910989E+03  0.15713282632E+04  0.17132371354E+04  0.50400001928E-02 0.  1.
       -1    1    3    3    0  502 -0.14355245668E+03 -0.66745910989E+03  0.39846728977E+02  0.68388356687E+03  0.50400001928E-02 0. -1.
</event>
<event>
 5   0  0.6853162E-04  0.1814946E+04  0.7818609E-02  0.8698392E-01
        2   -1    0    0  501    0  0.00000000000E+00  0.00000000000E+00  0.12294209945E+04  0.12294209945E+04  0.25500000920E-02 0. -1.
       -2   -1    0    0    0  501  0.00000000000E+00  0.00000000000E+00 -0.66983337034E+03  0.66983337034E+03  0.25500000920E-02 0.  1.
    10030    2    1    2    0    0  0.00000000000E+00  0.00000000000E+00  0.55958762417E+03  0.18992543649E+04  0.18149459588E+04 0.  0.
        2    1    3    3  502    0 -0.61805034431E+03  0.65905590526E+03  0.19120747501E+03  0.92352650902E+03  0.25500000920E-02 0.  1.
       -2    1    3    3    0  502  0.61805034431E+03 -0.65905590526E+03  0.36838014916E+03  0.97572785584E+03  0.25500000920E-02 0. -1.
</event>
<event>
 5   0  0.6853162E-04  0.1856300E+04  0.7818609E-02  0.8676920E-01
        2   -1    0    0  501    0  0.00000000000E+00  0.00000000000E+00  0.15301494305E+04  0.15301494306E+04  0.25500000920E-02 0.  1.
       -2   -1    0    0    0  501  0.00000000000E+00  0.00000000000E+00 -0.56299244674E+03  0.56299244675E+03  0.25500000920E-02 0. -1.
    10030    2    1    2    0    0  0.00000000000E+00  0.00000000000E+00  0.96715698381E+03  0.20931418773E+04  0.18563001609E+04 0.  0.
        2    1    3    3  502    0  0.14538199970E+03  0.39593092723E+02  0.15162663470E+04  0.15237346140E+04  0.25500000920E-02 0.  1.
       -2    1    3    3    0  502 -0.14538199970E+03 -0.39593092723E+02 -0.54910936316E+03  0.56940726334E+03  0.25500000920E-02 0. -1.
</event>
<event>
 5   0  0.6853162E-04  0.1077074E+04  0.7818609E-02  0.9227830E-01
       -2   -1    0    0    0  501  0.00000000000E+00  0.00000000000E+00  0.10081973032E+04  0.10081973032E+04  0.25500000920E-02 0.  1.
        2   -1    0    0  501    0  0.00000000000E+00  0.00000000000E+00 -0.28766407974E+03  0.28766407975E+03  0.25500000920E-02 0. -1.
    10030    2    1    2    0    0  0.00000000000E+00  0.00000000000E+00  0.72053322346E+03  0.12958613830E+04  0.10770740911E+04 0.  0.
        2    1    3    3  502    0  0.18855677061E+03 -0.49709446096E+03  0.25701026489E+03  0.59051742999E+03  0.25500000920E-02 0.  1.
       -2    1    3    3    0  502 -0.18855677061E+03  0.49709446096E+03  0.46352295857E+03  0.70534395297E+03  0.25500000920E-02 0. -1.
</event>
<event>
 5   0  0.6771967E-04  0.1964610E+04  0.7818609E-02  0.8623348E-01
        2   -1    0    0  501    0  0.00000000000E+00  0.00000000000E+00  0.72473469710E+03  0.72473469711E+03  0.25500000920E-02 0. -1.
       -2   -1    0    0    0  501  0.00000000000E+00  0.00000000000E+00 -0.13314153331E+04  0.13314153331E+04  0.25500000920E-02 0.  1.
    10030    2    1    2    0    0  0.00000000000E+00  0.00000000000E+00 -0.60668063602E+03  0.20561500302E+04  0.19646097711E+04 0.  0.
        1    1    3    3  502    0 -0.66061967202E+03 -0.61580840608E+03 -0.70771683184E+03  0.11473889742E+04  0.50400001928E-02 0.  1.
       -1    1    3    3    0  502  0.66061967202E+03  0.61580840608E+03  0.10103619582E+03  0.90876105602E+03  0.50400001928E-02 0. -1.
</event>
<event>
 5   0  0.3377273E-04  0.1860721E+04  0.7818609E-02  0.8674659E-01
        1   -1    0    0  501    0  0.00000000000E+00  0.00000000000E+00  0.24026646131E+04  0.24026646131E+04  0.50400001928E-02 0.  1.
       -1   -1    0    0    0  501  0.00000000000E+00  0.00000000000E+00 -0.36025460748E+03  0.36025460752E+03  0.50400001928E-02 0. -1.
    10030    2    1    2    0    0  0.00000000000E+00  0.00000000000E+00  0.20424100056E+04  0.27629192206E+04  0.18607213624E+04 0.  0.
        2    1    3    3  502    0  0.85084111221E+03  0.22902619940E+03  0.14646488088E+04  0.17092629205E+04  0.25500000920E-02 0.  1.
       -2    1    3    3    0  502 -0.85084111221E+03 -0.22902619940E+03  0.57776119680E+03  0.10536563001E+04  0.25500000920E-02 0. -1.
</event>
<event>
 5   0  0.6774451E-04  0.1701185E+04  0.7818609E-02  0.8760689E-01
        2   -1    0    0  501    0  0.00000000000E+00  0.00000000000E+00  0.47374413219E+03  0.47374413220E+03  0.25500000920E-02 0.  1.
       -2   -1    0    0    0  501  0.00000000000E+00  0.00000000000E+00 -0.15272122614E+04  0.15272122614E+04  0.25500000920E-02 0. -1.
    10030    2    1    2    0    0  0.00000000000E+00  0.00000000000E+00 -0.10534681292E+04  0.20009563936E+04  0.17011852897E+04 0.  0.
        4    1    3    3  502    0 -0.71102993975E+03  0.84469746513E+02 -0.10667779541E+04  0.12848017472E+04  0.12699999809E+01 0. -1.
       -4    1    3    3    0  502  0.71102993975E+03 -0.84469746513E+02  0.13309824867E+02  0.71615464645E+03  0.12699999809E+01 0.  1.
</event>
<event>
 5   0  0.6547153E-04  0.1035092E+04  0.7818609E-02  0.9270873E-01
        2   -1    0    0  501    0  0.00000000000E+00  0.00000000000E+00  0.48320643707E+03  0.48320643708E+03  0.25500000920E-02 0.  1.
       -2   -1    0    0    0  501  0.00000000000E+00  0.00000000000E+00 -0.55432547209E+03  0.55432547209E+03  0.25500000920E-02 0. -1.
    10030    2    1    2    0    0  0.00000000000E+00  0.00000000000E+00 -0.71119035019E+02  0.10375319092E+04  0.10350915638E+04 0.  0.
        5    1    3    3  502    0  0.95751953416E+02  0.45761963904E+03 -0.25800021068E+03  0.53401345426E+03  0.46999998093E+01 0. -1.
       -5    1    3    3    0  502 -0.95751953416E+02 -0.45761963904E+03  0.18688117566E+03  0.50351845491E+03  0.46999998093E+01 0.  1.
</event>
<event>
 5   0  0.3308275E-04  0.1795840E+04  0.7818609E-02  0.8708515E-01
       -1   -1    0    0    0  501  0.00000000000E+00  0.00000000000E+00  0.63465410643E+03  0.63465410645E+03  0.50400001928E-02 0. -1.
        1   -1    0    0  501    0  0.00000000000E+00  0.00000000000E+00 -0.12703929771E+04  0.12703929771E+04  0.50400001928E-02 0.  1.
    10030    2    1    2    0    0  0.00000000000E+00  0.00000000000E+00 -0.63573887069E+03  0.19050470836E+04  0.17958397698E+04 0.  0.
        3    1    3    3  502    0 -0.63823068368E+02 -0.65806626901E+03 -0.96238148628E+03  0.11676055557E+04  0.10100000352E+00 0.  1.
       -3    1    3    3    0  502  0.63823068368E+02  0.65806626901E+03  0.32664261559E+03  0.73744152784E+03  0.10100000352E+00 0. -1.
</event>
<event>
 5   0  0.6547153E-04  0.1812296E+04  0.7818609E-02  0.8699788E-01
       -2   -1    0    0    0  501  0.00000000000E+00  0.00000000000E+00  0.54455838136E+03  0.54455838137E+03  0.25500000920E-02 0. -1.
        2   -1    0    0  501    0  0.00000000000E+00  0.00000000000E+00 -0.15078345302E+04  0.15078345302E+04  0.25500000920E-02 0.  1.
    10030    2    1    2    0    0  0.00000000000E+00  0.00000000000E+00 -0.96327614883E+03  0.20523929116E+04  0.18122957056E+04 0.  0.
        5    1    3    3  502    0 -0.33557228934E+03  0.84153788878E+03 -0.50082559796E+03  0.10352019847E+04  0.46999998093E+01 0. -1.
       -5    1    3    3    0  502  0.33557228934E+03 -0.84153788878E+03 -0.46245055087E+03  0.10171909268E+04  0.46999998093E+01 0.  1.
</event>
<event>
 5   0  0.3413839E-04  0.1831948E+04  0.7818609E-02  0.8689492E-01
        1   -1    0    0  501    0  0.00000000000E+00  0.00000000000E+00  0.96207904058E+03  0.96207904059E+03  0.50400001928E-02 0.  1.
       -1   -1    0    0    0  501  0.00000000000E+00  0.00000000000E+00 -0.87207875865E+03  0.87207875867E+03  0.50400001928E-02 0. -1.
    10030    2    1    2    0    0  0.00000000000E+00  0.00000000000E+00  0.90000281929E+02  0.18341577993E+04  0.18319483568E+04 0.  0.
        5    1    3    3  502    0 -0.36237579726E+03 -0.38611231206E+02  0.88635855395E+03  0.95836351233E+03  0.46999998093E+01 0.  1.
       -5    1    3    3    0  502  0.36237579726E+03  0.38611231206E+02 -0.79635827202E+03  0.87579428693E+03  0.46999998093E+01 0. -1.
</event>
<event>
 5   0  0.6547153E-04  0.1767365E+04  0.7818609E-02  0.8723850E-01
       -2   -1    0    0    0  501  0.00000000000E+00  0.00000000000E+00  0.63660367372E+03  0.63660367373E+03  0.25500000920E-02 0.  1.
        2   -1    0    0  501    0  0.00000000000E+00  0.00000000000E+00 -0.12266571721E+04  0.12266571721E+04  0.25500000920E-02 0. -1.
    10030    2    1    2    0    0  0.00000000000E+00  0.00000000000E+00 -0.59005349833E+03  0.18632608458E+04  0.17673646620E+04 0.  0.
        5    1    3    3  502    0  0.58035488471E+01 -0.26450759347E+02  0.63615294905E+03  0.63674640826E+03  0.46999998093E+01 0.  1.
       -5    1    3    3    0  502 -0.58035488471E+01  0.26450759347E+02 -0.12262064474E+04  0.12265144375E+04  0.46999998093E+01 0. -1.
</event>
<event>
 5   0  0.6853162E-04  0.1445562E+04  0.7818609E-02  0.8921483E-01
       -2   -1    0    0    0  501  0.00000000000E+00  0.00000000000E+00  0.44606462571E+03  0.44606462572E+03  0.25500000920E-02 0. -1.
        2   -1    0    0  501    0  0.00000000000E+00  0.00000000000E+00 -0.11711591916E+04  0.11711591916E+04  0.25500000920E-02 0.  1.
    10030    2    1    2    0    0  0.00000000000E+00  0.00000000000E+00 -0.72509456585E+03  0.16172238173E+04  0.14455624323E+04 0.  0.
        2    1    3    3  502    0 -0.34408671437E+03 -0.26610700746E+03  0.28323842732E+03  0.51906898688E+03  0.25500000920E-02 0. -1.
       -2    1    3    3    0  502  0.34408671437E+03  0.26610700746E+03 -0.10083329932E+04  0.10981548304E+04  0.25500000920E-02 0.  1.
</event>
<event>
 5   0  0.3404261E-04  0.1614620E+04  0.7818609E-02  0.8811617E-01
       -1   -1    0    0    0  501  0.00000000000E+00  0.00000000000E+00  0.57066016320E+03  0.57066016323E+03  0.50400001928E-02 0.  1.
        1   -1    0    0  501    0  0.00000000000E+00  0.00000000000E+00 -0.11420967043E+04  0.11420967043E+04  0.50400001928E-02 0. -1.
    10030    2    1    2    0    0  0.00000000000E+00  0.00000000000E+00 -0.57143654107E+03  0.17127568675E+04  0.16146195734E+04 0.  0.
        1    1    3    3  502    0  0.72943832444E+03 -0.11502745246E+03  0.60358821516E+02  0.74091482057E+03  0.50400001928E-02 0.  1.
       -1    1    3    3    0  502 -0.72943832444E+03  0.11502745246E+03 -0.63179536259E+03  0.97184204694E+03  0.50400001928E-02 0. -1.
</event>
<event>
 5   0  0.3308275E-04  0.1757443E+04  0.7818609E-02  0.8729264E-01
        1   -1    0    0  501    0  0.00000000000E+00  0.00000000000E+00  0.17301691448E+04  0.17301691448E+04  0.50400001928E-02 0. -1.
       -1   -1    0    0    0  501  0.00000000000E+00  0.00000000000E+00 -0.44628658243E+03  0.44628658246E+03  0.50400001928E-02 0.  1.
    10030    2    1    2    0    0  0.00000000000E+00  0.00000000000E+00  0.12838825624E+04  0.21764557273E+04  0.17574427726E+04 0.  0.
        3    1    3    3  502    0 -0.36142298332E+03 -0.54788251747E+03  0.13654907713E+04  0.15150468252E+04  0.10100000352E+00 0. -1.
       -3    1    3    3    0  502  0.36142298332E+03  0.54788251747E+03 -0.81608208890E+02  0.66140890210E+03  0.10100000352E+00 0.  1.
</event>
<event>
 5   0  0.6774451E-04  0.1839712E+04  0.7818609E-02  0.8685461E-01
       -2   -1    0    0    0  501  0.00000000000E+00  0.00000000000E+00  0.74456691589E+03  0.74456691590E+03  0.25500000920E-02 0.  1.
        2   -1    0    0  501    0  0.00000000000E+00  0.00000000000E+00 -0.11364128406E+04  0.11364128406E+04  0.25500000920E-02 0. -1.
    10030    2    1    2    0    0  0.00000000000E+00  0.00000000000E+00 -0.39184592474E+03  0.18809797565E+04  0.18397123731E+04 0.  0.
        4    1    3    3  502    0 -0.45819185909E+03  0.29393205216E+03 -0.95403912284E+03  0.10984207262E+04  0.12699999809E+01 0. -1.
       -4    1    3    3    0  502  0.45819185909E+03 -0.29393205216E+03  0.56219319809E+03  0.78255903030E+03  0.12699999809E+01 0.  1.
</event>
<event>
 5   0  0.6774451E-04  0.2068842E+04  0.7818609E-02  0.8575094E-01
       -2   -1    0    0    0  501  0.00000000000E+00  0.00000000000E+00  0.74761816706E+03  0.74761816707E+03  0.25500000920E-02 0. -1.
        2   -1    0    0  501    0  0.00000000000E+00  0.00000000000E+00 -0.14312482671E+04  0.14312482671E+04  0.25500000920E-02 0.  1.
    10030    2    1    2    0    0  0.00000000000E+00  0.00000000000E+00 -0.68363010005E+03  0.21788664342E+04  0.20688423875E+04 0.  0.
        4    1    3    3  502    0  0.15381241094E+03  0.88799874808E+03 -0.87658400449E+03  0.12572196165E+04  0.12699999809E+01 0.  1.
       -4    1    3    3    0  502 -0.15381241094E+03 -0.88799874808E+03  0.19295390444E+03  0.92164681765E+03  0.12699999809E+01 0. -1.
</event>
<event>
 5   0  0.6771967E-04  0.1816785E+04  0.7818609E-02  0.8697424E-01
        2   -1    0    0  501    0  0.00000000000E+00  0.00000000000E+00  0.23220935411E+04  0.23220935411E+04  0.25500000920E-02 0.  1.
       -2   -1    0    0    0  501  0.00000000000E+00  0.00000000000E+00 -0.35535914570E+03  0.35535914571E+03  0.25500000920E-02 0. -1.
    10030    2    1    2    0    0  0.00000000000E+00  0.00000000000E+00  0.19667343954E+04  0.26774526869E+04  0.18167852675E+04 0.  0.
        1    1    3    3  502    0 -0.22117652993E+03 -0.73291042178E+03  0.17039906423E+04  0.18680633963E+04  0.50400001928E-02 0.  1.
       -1    1    3    3    0  502  0.22117652993E+03  0.73291042178E+03  0.26274375316E+03  0.80938929051E+03  0.50400001928E-02 0. -1.
</event>
<event>
 5   0  0.6547153E-04  0.1781083E+04  0.7818609E-02  0.8716425E-01
       -2   -1    0    0    0  501  0.00000000000E+00  0.00000000000E+00  0.14276608653E+04  0.14276608653E+04  0.25500000920E-02 0.  1.
        2   -1    0    0  501    0  0.00000000000E+00  0.00000000000E+00 -0.55549871094E+03  0.55549871094E+03  0.25500000920E-02 0. -1.
    10030    2    1    2    0    0  0.00000000000E+00  0.00000000000E+00  0.87216215434E+03  0.19831595762E+04  0.17810825588E+04 0.  0.
        5    1    3    3  502    0  0.81319215652E+03 -0.14694156864E+03  0.80565564441E+03  0.11541128261E+04  0.46999998093E+01 0.  1.
       -5    1    3    3    0  502 -0.81319215652E+03  0.14694156864E+03  0.66506509932E+02  0.82904675012E+03  0.46999998093E+01 0. -1.
</event>
<event>
 5   0  0.3308275E-04  0.1729388E+04  0.7818609E-02  0.8744779E-01
       -1   -1    0    0    0  501  0.00000000000E+00  0.00000000000E+00  0.14688239345E+04  0.14688239345E+04  0.50400001928E-02 0.  1.
        1   -1    0    0  501    0  0.00000000000E+00  0.00000000000E+00 -0.50904370989E+03  0.50904370991E+03  0.50400001928E-02 0. -1.
    10030    2    1    2    0    0  0.00000000000E+00  0.00000000000E+00  0.95978022465E+03  0.19778676445E+04  0.17293878511E+04 0.  0.
        3    1    3    3  502    0  0.38699356682E+03 -0.77319802478E+03  0.49111732751E+03  0.99438194164E+03  0.10100000352E+00 0.  1.
       -3    1    3    3    0  502 -0.38699356682E+03  0.77319802478E+03  0.46866289713E+03  0.98348570281E+03  0.10100000352E+00 0. -1.
</event>
<event>
 5   0  0.3404261E-04  0.1804182E+04  0.7818609E-02  0.8704079E-01
        1   -1    0    0  501    0  0.00000000000E+00  0.00000000000E+00  0.11146483188E+04  0.11146483188E+04  0.50400001928E-02 0.  1.
       -1   -1    0    0    0  501  0.00000000000E+00  0.00000000000E+00 -0.73006731118E+03  0.73006731119E+03  0.50400001928E-02 0. -1.
    10030    2    1    2    0    0  0.00000000000E+00  0.00000000000E+00  0.38458100758E+03  0.18447156300E+04  0.18041821427E+04 0.  0.
        1    1    3    3  502    0 -0.48454328115E+03  0.17282108092E+03  0.94996431549E+03  0.10803154715E+04  0.50400001928E-02 0.  1.
       -1    1    3    3    0  502  0.48454328115E+03 -0.17282108092E+03 -0.56538330790E+03  0.76440015843E+03  0.50400001928E-02 0. -1.
</event>
<event>
 5   0  0.6853162E-04  0.1776805E+04  0.7818609E-02  0.8718732E-01
       -2   -1    0    0    0  501  0.00000000000E+00  0.00000000000E+00  0.10394295802E+04  0.10394295802E+04  0.25500000920E-02 0.  1.
        2   -1    0    0  501    0  0.00000000000E+00  0.00000000000E+00 -0.75931957237E+03  0.75931957237E+03  0.25500000920E-02 0. -1.
    10030    2    1    2    0    0  0.00000000000E+00  0.00000000000E+00  0.28011000780E+03  0.17987491525E+04  0.17768052503E+04 0.  0.
        2    1    3    3  502    0  0.15477484314E+03  0.75579607907E+03 -0.30592663559E+03  0.82992413604E+03  0.25500000920E-02 0. -1.
       -2    1    3    3    0  502 -0.15477484314E+03 -0.75579607907E+03  0.58603664339E+03  0.96882501651E+03  0.25500000920E-02 0.  1.
</event>
<event>
 5   0  0.3413839E-04  0.1843541E+04  0.7818609E-02  0.8683482E-01
       -1   -1    0    0    0  501  0.00000000000E+00  0.00000000000E+00  0.13379138452E+04  0.13379138452E+04  0.50400001928E-02 0.  1.
        1   -1    0    0  501    0  0.00000000000E+00  0.00000000000E+00 -0.63506381675E+03  0.63506381677E+03  0.50400001928E-02 0. -1.
    10030    2    1    2    0    0  0.00000000000E+00  0.00000000000E+00  0.70285002841E+03  0.19729776619E+04  0.18435408029E+04 0.  0.
        5    1    3    3  502    0  0.56408490894E+03 -0.31000735272E+03  0.10575552657E+04  0.12380394070E+04  0.46999998093E+01 0.  1.
       -5    1    3    3    0  502 -0.56408490894E+03  0.31000735272E+03 -0.35470523730E+03  0.73493825496E+03  0.46999998093E+01 0. -1.
</event>
<event>
 5   0  0.3308275E-04  0.1792432E+04  0.7818609E-02  0.8710334E-01
       -1   -1    0    0    0  501  0.00000000000E+00  0.00000000000E+00  0.74590355070E+03  0.74590355072E+03  0.50400001928E-02 0.  1.
        1   -1    0    0  501    0  0.00000000000E+00  0.00000000000E+00 -0.10768192581E+04  0.10768192581E+04  0.50400001928E-02 0. -1.
    10030    2    1    2    0    0  0.00000000000E+00  0.00000000000E+00 -0.33091570740E+03  0.18227228088E+04  0.17924322114E+04 0.  0.
        3    1    3    3  502    0  0.50800424265E+03 -0.23220907830E+03 -0.87816846671E+03  0.10407541654E+04  0.10100000352E+00 0. -1.
       -3    1    3    3    0  502 -0.50800424265E+03  0.23220907830E+03  0.54725275931E+03  0.78196864347E+03  0.10100000352E+00 0.  1.
</event>
<event>
 5   0  0.3377273E-04  0.1803040E+04  0.7818609E-02  0.8704684E-01
       -1   -1    0    0    0  501  0.00000000000E+00  0.00000000000E+00  0.81312903384E+03  0.81312903386E+03  0.50400001928E-02 0.  1.
        1   -1    0    0  501    0  0.00000000000E+00  0.00000000000E+00 -0.99951968306E+03  0.99951968307E+03  0.50400001928E-02 0. -1.
    10030    2    1    2    0    0  0.00000000000E+00  0.00000000000E+00 -0.18639064922E+03  0.18126487169E+04  0.18030401817E+04 0.  0.
        2    1    3    3  502    0 -0.41667470365E+03  0.61115968524E+02  0.70816326022E+03  0.82392243167E+03  0.25500000920E-02 0.  1.
       -2    1    3    3    0  502  0.41667470365E+03 -0.61115968524E+02 -0.89455390944E+03  0.98872628526E+03  0.25500000920E-02 0. -1.
</event>
<event>
 5   0  0.6853162E-04  0.1028771E+04  0.7818609E-02  0.9277540E-01
       -2   -1    0    0    0  501  0.00000000000E+00  0.00000000000E+00  0.21767029118E+03  0.21767029120E+03  0.25500000920E-02 0.  1.
        2   -1    0    0  501    0  0.00000000000E+00  0.00000000000E+00 -0.12155650241E+04  0.12155650241E+04  0.25500000920E-02 0. -1.
    10030    2    1    2    0    0  0.00000000000E+00  0.00000000000E+00 -0.99789473290E+03  0.14332353153E+04  0.10287709031E+04 0.  0.
        2    1    3    3  502    0  0.14219156397E+03 -0.21806436767E+03  0.11911958185E+03  0.28628654194E+03  0.25500000920E-02 0.  1.
       -2    1    3    3    0  502 -0.14219156397E+03  0.21806436767E+03 -0.11170143148E+04  0.11469487733E+04  0.25500000920E-02 0. -1.
</event>
<event>
 5   0  0.6929121E-04  0.1874379E+04  0.7818609E-02  0.8667716E-01
        2   -1    0    0  501    0  0.00000000000E+00  0.00000000000E+00  0.10582944471E+04  0.10582944471E+04  0.25500000920E-02 0. -1.
       -2   -1    0    0    0  501  0.00000000000E+00  0.00000000000E+00 -0.82994321372E+03  0.82994321373E+03  0.25500000920E-02 0.  1.
    10030    2    1    2    0    0  0.00000000000E+00  0.00000000000E+00  0.22835123334E+03  0.18882376608E+04  0.18743791446E+04 0.  0.
        3    1    3    3  502    0 -0.47223381383E+03 -0.71691846579E+03  0.49291734705E+03  0.98992140231E+03  0.10100000352E+00 0. -1.
       -3    1    3    3    0  502  0.47223381383E+03  0.71691846579E+03 -0.26456611372E+03  0.89831625848E+03  0.10100000352E+00 0.  1.
</event>
<event>
 5   0  0.3413839E-04  0.1827343E+04  0.7818609E-02  0.8691892E-01
        1   -1    0    0  501    0  0.00000000000E+00  0.00000000000E+00  0.13347063940E+04  0.13347063940E+04  0.50400001928E-02 0. -1.
       -1   -1    0    0    0  501  0.00000000000E+00  0.00000000000E+00 -0.62545283325E+03  0.62545283327E+03  0.50400001928E-02 0.  1.
    10030    2    1    2    0    0  0.00000000000E+00  0.00000000000E+00  0.70925356076E+03  0.19601592273E+04  0.18273433128E+04 0.  0.
        5    1    3    3  502    0  0.77834011891E+03  0.41351511195E+03  0.96366980649E+02  0.88663226508E+03  0.46999998093E+01 0.  1.
       -5    1    3    3    0  502 -0.77834011891E+03 -0.41351511195E+03  0.61288658011E+03  0.10735269622E+04  0.46999998093E+01 0. -1.
</event>
<event>
 5   0  0.3404261E-04  0.1752822E+04  0.7818609E-02  0.8731799E-01
        1   -1    0    0  501    0  0.00000000000E+00  0.00000000000E+00  0.10038137720E+04  0.10038137720E+04  0.50400001928E-02 0.  1.
       -1   -1    0    0    0  501  0.00000000000E+00  0.00000000000E+00 -0.76517799123E+03  0.76517799125E+03  0.50400001928E-02 0. -1.
    10030    2    1    2    0    0  0.00000000000E+00  0.00000000000E+00  0.23863578075E+03  0.17689917632E+04  0.17528219597E+04 0.  0.
        1    1    3    3  502    0 -0.15755923829E+03 -0.27760831492E+03 -0.70442545966E+03  0.77337346627E+03  0.50400001928E-02 0. -1.
       -1    1    3    3    0  502  0.15755923829E+03  0.27760831492E+03  0.94306124040E+03  0.99561829697E+03  0.50400001928E-02 0.  1.
</event>
<event>
 5   0  0.3308275E-04  0.1810195E+04  0.7818609E-02  0.8700896E-01
       -1   -1    0    0    0  501  0.00000000000E+00  0.00000000000E+00  0.60897098246E+03  0.60897098248E+03  0.50400001928E-02 0.  1.
        1   -1    0    0  501    0  0.00000000000E+00  0.00000000000E+00 -0.13452229057E+04  0.13452229057E+04  0.50400001928E-02 0. -1.
    10030    2    1    2    0    0  0.00000000000E+00  0.00000000000E+00 -0.73625192326E+03  0.19541938882E+04  0.18101952542E+04 0.  0.
        3    1    3    3  502    0 -0.85404056018E+03 -0.17263933006E+03 -0.10366498581E+03  0.87746000262E+03  0.10100000352E+00 0.  1.
       -3    1    3    3    0  502  0.85404056018E+03  0.17263933006E+03 -0.63258693745E+03  0.10767338856E+04  0.10100000352E+00 0. -1.
</event>
<event>
 5   0  0.6547153E-04  0.1782414E+04  0.7818609E-02  0.8715708E-01
        2   -1    0    0  501    0  0.00000000000E+00  0.00000000000E+00  0.18560506801E+04  0.18560506801E+04  0.25500000920E-02 0. -1.
       -2   -1    0    0    0  501  0.00000000000E+00  0.00000000000E+00 -0.42792474353E+03  0.42792474354E+03  0.25500000920E-02 0.  1.
    10030    2    1    2    0    0  0.00000000000E+00  0.00000000000E+00  0.14281259366E+04  0.22839754237E+04  0.17824141060E+04 0.  0.
        5    1    3    3  502    0 -0.26277011222E+03 -0.49644852811E+03  0.16006532954E+04  0.16963556040E+04  0.46999998093E+01 0. -1.
       -5    1    3    3    0  502  0.26277011222E+03  0.49644852811E+03 -0.17252735884E+03  0.58761981969E+03  0.46999998093E+01 0.  1.
</event>
<event>
 5   0  0.2467375E-04  0.1752235E+04  0.7818609E-02  0.8732121E-01
       -3   -1    0    0    0  501  0.00000000000E+00  0.00000000000E+00  0.88393596674E+03  0.88393597251E+03  0.10100000352E+00 0. -1.
        3   -1    0    0  501    0  0.00000000000E+00  0.00000000000E+00 -0.86836773914E+03  0.86836774501E+03  0.10100000352E+00 0.  1.
    10030    2    1    2    0    0  0.00000000000E+00  0.00000000000E+00  0.15568227605E+02  0.17523037175E+04  0.17522345587E+04 0.  0.
        4    1    3    3  502    0  0.38995635273E+03  0.21377207898E+03  0.76267509692E+03  0.88285863826E+03  0.12699999809E+01 0. -1.
       -4    1    3    3    0  502 -0.38995635273E+03 -0.21377207898E+03 -0.74710686931E+03  0.86944507927E+03  0.12699999809E+01 0.  1.
</event>
<event>
 5   0  0.6853162E-04  0.1800257E+04  0.7818609E-02  0.8706163E-01
        2   -1    0    0  501    0  0.00000000000E+00  0.00000000000E+00  0.14487384774E+04  0.14487384774E+04  0.25500000920E-02 0. -1.
       -2   -1    0    0    0  501  0.00000000000E+00  0.00000000000E+00 -0.55926665346E+03  0.55926665347E+03  0.25500000920E-02 0.  1.
    10030    2    1    2    0    0  0.00000000000E+00  0.00000000000E+00  0.88947182392E+03  0.20080051308E+04  0.18002567817E+04 0.  0.
        2    1    3    3  502    0  0.59292198718E+03 -0.66440852057E+03  0.29829985137E+03  0.93913681986E+03  0.25500000920E-02 0.  1.
       -2    1    3    3    0  502 -0.59292198718E+03  0.66440852057E+03  0.59117197255E+03  0.10688683110E+04  0.25500000920E-02 0. -1.
</event>
<event>
 5   0  0.6853162E-04  0.1733446E+04  0.7818609E-02  0.8742515E-01
        2   -1    0    0  501    0  0.00000000000E+00  0.00000000000E+00  0.57388994994E+03  0.57388994994E+03  0.25500000920E-02 0. -1.
       -2   -1    0    0    0  501  0.00000000000E+00  0.00000000000E+00 -0.13089774358E+04  0.13089774358E+04  0.25500000920E-02 0.  1.
    10030    2    1    2    0    0  0.00000000000E+00  0.00000000000E+00 -0.73508748584E+03  0.18828673857E+04  0.17334462727E+04 0.  0.
        2    1    3    3  502    0 -0.38841902953E+03 -0.71998201476E+03 -0.67851842232E+03  0.10628408599E+04  0.25500000920E-02 0.  1.
       -2    1    3    3    0  502  0.38841902953E+03  0.71998201476E+03 -0.56569063525E+02  0.82002652581E+03  0.25500000920E-02 0. -1.
</event>
<event>
 5   0  0.6547153E-04  0.1633811E+04  0.7818609E-02  0.8800042E-01
       -2   -1    0    0    0  501  0.00000000000E+00  0.00000000000E+00  0.71669364545E+03  0.71669364545E+03  0.25500000920E-02 0.  1.
        2   -1    0    0  501    0  0.00000000000E+00  0.00000000000E+00 -0.93112956141E+03  0.93112956142E+03  0.25500000920E-02 0. -1.
    10030    2    1    2    0    0  0.00000000000E+00  0.00000000000E+00 -0.21443591597E+03  0.16478232069E+04  0.16338110537E+04 0.  0.
        5    1    3    3  502    0 -0.20359172291E+03 -0.79028924419E+03 -0.70771203336E+02  0.81916868369E+03  0.46999998093E+01 0. -1.
       -5    1    3    3    0  502  0.20359172291E+03  0.79028924419E+03 -0.14366471263E+03  0.82865452317E+03  0.46999998093E+01 0.  1.
</event>
<event>
 5   0  0.6771967E-04  0.1820533E+04  0.7818609E-02  0.8695456E-01
        2   -1    0    0  501    0  0.00000000000E+00  0.00000000000E+00  0.17877488691E+04  0.17877488691E+04  0.25500000920E-02 0. -1.
       -2   -1    0    0    0  501  0.00000000000E+00  0.00000000000E+00 -0.46347954987E+03  0.46347954988E+03  0.25500000920E-02 0.  1.
    10030    2    1    2    0    0  0.00000000000E+00  0.00000000000E+00  0.13242693192E+04  0.22512284189E+04  0.18205329342E+04 0.  0.
        1    1    3    3  502    0  0.38089089991E+03  0.14151016220E+03  0.16693807897E+04  0.17181196770E+04  0.50400001928E-02 0. -1.
       -1    1    3    3    0  502 -0.38089089991E+03 -0.14151016220E+03 -0.34511147047E+03  0.53310874192E+03  0.50400001928E-02 0.  1.
</event>
<event>
 5   0  0.6853162E-04  0.1816741E+04  0.7818609E-02  0.8697447E-01
       -2   -1    0    0    0  501  0.00000000000E+00  0.00000000000E+00  0.70253023911E+03  0.70253023912E+03  0.25500000920E-02 0.  1.
        2   -1    0    0  501    0  0.00000000000E+00  0.00000000000E+00 -0.11745215624E+04  0.11745215624E+04  0.25500000920E-02 0. -1.
    10030    2    1    2    0    0  0.00000000000E+00  0.00000000000E+00 -0.47199132325E+03  0.18770518015E+04  0.18167409436E+04 0.  0.
        2    1    3    3  502    0 -0.17642707020E+03 -0.44005988900E+03  0.56455403207E+03  0.73722484503E+03  0.25500000920E-02 0.  1.
       -2    1    3    3    0  502  0.17642707020E+03  0.44005988900E+03 -0.10365453553E+04  0.11398269564E+04  0.25500000920E-02 0. -1.
</event>
<event>
 5   0  0.6771967E-04  0.1807409E+04  0.7818609E-02  0.8702369E-01
        2   -1    0    0  501    0  0.00000000000E+00  0.00000000000E+00  0.19654940201E+04  0.19654940201E+04  0.25500000920E-02 0. -1.
       -2   -1    0    0    0  501  0.00000000000E+00  0.00000000000E+00 -0.41550976562E+03  0.41550976563E+03  0.25500000920E-02 0.  1.
    10030    2    1    2    0    0  0.00000000000E+00  0.00000000000E+00  0.15499842545E+04  0.23810037857E+04  0.18074091508E+04 0.  0.
        1    1    3    3  502    0 -0.14123809343E+03  0.11719406551E+03  0.19406854244E+04  0.19493441371E+04  0.50400001928E-02 0. -1.
       -1    1    3    3    0  502  0.14123809343E+03 -0.11719406551E+03 -0.39070116998E+03  0.43165964865E+03  0.50400001928E-02 0.  1.
</event>
<event>
 5   0  0.3470962E-04  0.1109065E+04  0.7818609E-02  0.9196402E-01
       -1   -1    0    0    0  501  0.00000000000E+00  0.00000000000E+00  0.10017207681E+04  0.10017207681E+04  0.50400001928E-02 0.  1.
        1   -1    0    0  501    0  0.00000000000E+00  0.00000000000E+00 -0.30697779265E+03  0.30697779269E+03  0.50400001928E-02 0. -1.
    10030    2    1    2    0    0  0.00000000000E+00  0.00000000000E+00  0.69474297540E+03  0.13086985608E+04  0.11090645252E+04 0.  0.
        4    1    3    3  502    0  0.12621270190E+02  0.54996682992E+03  0.42981646684E+03  0.69811647921E+03  0.12699999809E+01 0.  1.
       -4    1    3    3    0  502 -0.12621270190E+02 -0.54996682992E+03  0.26492650856E+03  0.61058208155E+03  0.12699999809E+01 0. -1.
</event>
<event>
 5   0  0.3470962E-04  0.1350298E+04  0.7818609E-02  0.8990602E-01
        1   -1    0    0  501    0  0.00000000000E+00  0.00000000000E+00  0.50963955053E+03  0.50963955055E+03  0.50400001928E-02 0.  1.
       -1   -1    0    0    0  501  0.00000000000E+00  0.00000000000E+00 -0.89440916793E+03  0.89440916794E+03  0.50400001928E-02 0. -1.
    10030    2    1    2    0    0  0.00000000000E+00  0.00000000000E+00 -0.38476961740E+03  0.14040487185E+04  0.13502981691E+04 0.  0.
        4    1    3    3  502    0 -0.43044124353E+02  0.30577931286E+03 -0.81667656084E+03  0.87310709694E+03  0.12699999809E+01 0. -1.
       -4    1    3    3    0  502  0.43044124353E+02 -0.30577931286E+03  0.43190694343E+03  0.53094162155E+03  0.12699999809E+01 0.  1.
</event>
<event>
 5   0  0.3470962E-04  0.1817871E+04  0.7818609E-02  0.8696853E-01
       -1   -1    0    0    0  501  0.00000000000E+00  0.00000000000E+00  0.10880721282E+04  0.10880721282E+04  0.50400001928E-02 0. -1.
        1   -1    0    0  501    0  0.00000000000E+00  0.00000000000E+00 -0.75929107666E+03  0.75929107668E+03  0.50400001928E-02 0.  1.
    10030    2    1    2    0    0  0.00000000000E+00  0.00000000000E+00  0.32878105155E+03  0.18473632049E+04  0.18178706860E+04 0.  0.
        4    1    3    3  502    0 -0.59897129480E+02 -0.35230948464E+03  0.10136837307E+04  0.10748329907E+04  0.12699999809E+01 0. -1.
       -4    1    3    3    0  502  0.59897129480E+02  0.35230948464E+03 -0.68490267914E+03  0.77253021422E+03  0.12699999809E+01 0.  1.
</event>
<event>
 5   0  0.6774451E-04  0.1847299E+04  0.7818609E-02  0.8681543E-01
        2   -1    0    0  501    0  0.00000000000E+00  0.00000000000E+00  0.12126262766E+04  0.12126262766E+04  0.25500000920E-02 0.  1.
       -2   -1    0    0    0  501  0.00000000000E+00  0.00000000000E+00 -0.70353747138E+03  0.70353747138E+03  0.25500000920E-02 0. -1.
    10030    2    1    2    0    0  0.00000000000E+00  0.00000000000E+00  0.50908880518E+03  0.19161637479E+04  0.18472985945E+04 0.  0.
        4    1    3    3  502    0  0.53968094351E+03 -0.50862023489E+03  0.82568519238E+03  0.11098232805E+04  0.12699999809E+01 0.  1.
       -4    1    3    3    0  502 -0.53968094351E+03  0.50862023489E+03 -0.31659638721E+03  0.80634046743E+03  0.12699999809E+01 0. -1.
</event>
<event>
 5   0  0.3413839E-04  0.1773607E+04  0.7818609E-02  0.8720462E-01
        1   -1    0    0  501    0  0.00000000000E+00  0.00000000000E+00  0.13213500465E+04  0.13213500465E+04  0.50400001928E-02 0.  1.
       -1   -1    0    0    0  501  0.00000000000E+00  0.00000000000E+00 -0.59516412213E+03  0.59516412216E+03  0.50400001928E-02 0. -1.
    10030    2    1    2    0    0  0.00000000000E+00  0.00000000000E+00  0.72618592438E+03  0.19165141687E+04  0.17736066537E+04 0.  0.
        5    1    3    3  502    0 -0.79926815918E+01 -0.45919295686E+03 -0.45663232306E+03  0.64765517295E+03  0.46999998093E+01 0. -1.
       -5    1    3    3    0  502  0.79926815918E+01  0.45919295686E+03  0.11828182474E+04  0.12688589957E+04  0.46999998093E+01 0.  1.
</event>
<event>
 5   0  0.3377273E-04  0.1761738E+04  0.7818609E-02  0.8726915E-01
        1   -1    0    0  501    0  0.00000000000E+00  0.00000000000E+00  0.10373381953E+04  0.10373381953E+04  0.50400001928E-02 0.  1.
       -1   -1    0    0    0  501  0.00000000000E+00  0.00000000000E+00 -0.74800135009E+03  0.74800135011E+03  0.50400001928E-02 0. -1.
    10030    2    1    2    0    0  0.00000000000E+00  0.00000000000E+00  0.28933684518E+03  0.17853395454E+04  0.17617381992E+04 0.  0.
        2    1    3    3  502    0  0.64390499542E+03 -0.42722336318E+03  0.57317695785E+03  0.96211499842E+03  0.25500000920E-02 0.  1.
       -2    1    3    3    0  502 -0.64390499542E+03  0.42722336318E+03 -0.28384011267E+03  0.82322454697E+03  0.25500000920E-02 0. -1.
</event>
<event>
 5   0  0.3470962E-04  0.1845455E+04  0.7818609E-02  0.8682494E-01
        1   -1    0    0  501    0  0.00000000000E+00  0.00000000000E+00  0.11457570438E+04  0.11457570438E+04  0.50400001928E-02 0.  1.
       -1   -1    0    0    0  501  0.00000000000E+00  0.00000000000E+00 -0.74311211581E+03  0.74311211582E+03  0.50400001928E-02 0. -1.
    10030    2    1    2    0    0  0.00000000000E+00  0.00000000000E+00  0.40264492803E+03  0.18888691597E+04  0.18454548936E+04 0.  0.
        4    1    3    3  502    0  0.73621404908E+03 -0.48822370176E+03  0.47414672389E+03  0.10025917602E+04  0.12699999809E+01 0.  1.
       -4    1    3    3    0  502 -0.73621404908E+03  0.48822370176E+03 -0.71501795857E+02  0.88627739943E+03  0.12699999809E+01 0. -1.
</event>
<event>
 5   0  0.3470962E-04  0.1796605E+04  0.7818609E-02  0.8708107E-01
       -1   -1    0    0    0  501  0.00000000000E+00  0.00000000000E+00  0.59507836200E+03  0.59507836202E+03  0.50400001928E-02 0. -1.
        1   -1    0    0  501    0  0.00000000000E+00  0.00000000000E+00 -0.13560355897E+04  0.13560355897E+04  0.50400001928E-02 0.  1.
    10030    2    1    2    0    0  0.00000000000E+00  0.00000000000E+00 -0.76095722770E+03  0.19511139517E+04  0.17966050624E+04 0.  0.
        4    1    3    3  502    0 -0.74127558848E+03  0.21352540548E+03 -0.88034945932E+03  0.11705124435E+04  0.12699999809E+01 0.  1.
       -4    1    3    3    0  502  0.74127558848E+03 -0.21352540548E+03  0.11939223162E+03  0.78060150828E+03  0.12699999809E+01 0. -1.
</event>
<event>
 5   0  0.6929121E-04  0.1762292E+04  0.7818609E-02  0.8726613E-01
        2   -1    0    0  501    0  0.00000000000E+00  0.00000000000E+00  0.11824065474E+04  0.11824065474E+04  0.25500000920E-02 0. -1.
       -2   -1    0    0    0  501  0.00000000000E+00  0.00000000000E+00 -0.65664228820E+03  0.65664228820E+03  0.25500000920E-02 0.  1.
    10030    2    1    2    0    0  0.00000000000E+00  0.00000000000E+00  0.52576425917E+03  0.18390488356E+04  0.17622918497E+04 0.  0.
        3    1    3    3  502    0  0.21903157809E+03 -0.17248042426E+03  0.11351680741E+04  0.11689015765E+04  0.10100000352E+00 0. -1.
       -3    1    3    3    0  502 -0.21903157809E+03  0.17248042426E+03 -0.60940381493E+03  0.67014725905E+03  0.10100000352E+00 0.  1.
</event>
<event>
 5   0  0.3377273E-04  0.1838178E+04  0.7818609E-02  0.8686256E-01
        1   -1    0    0  501    0  0.00000000000E+00  0.00000000000E+00  0.11959308807E+04  0.11959308807E+04  0.50400001928E-02 0.  1.
       -1   -1    0    0    0  501  0.00000000000E+00  0.00000000000E+00 -0.70633206716E+03  0.70633206718E+03  0.50400001928E-02 0. -1.
    10030    2    1    2    0    0  0.00000000000E+00  0.00000000000E+00  0.48959881357E+03  0.19022629479E+04  0.18381777185E+04 0.  0.
        2    1    3    3  502    0  0.86126179425E+03  0.32082226368E+03  0.25002808721E+03  0.95247721627E+03  0.25500000920E-02 0. -1.
       -2    1    3    3    0  502 -0.86126179425E+03 -0.32082226368E+03  0.23957072636E+03  0.94978573165E+03  0.25500000920E-02 0.  1.
</event>
<event>
 5   0  0.6929121E-04  0.1792795E+04  0.7818609E-02  0.8710140E-01
        2   -1    0    0  501    0  0.00000000000E+00  0.00000000000E+00  0.57802420723E+03  0.57802420724E+03  0.25500000920E-02 0. -1.
       -2   -1    0    0    0  501  0.00000000000E+00  0.00000000000E+00 -0.13901292305E+04  0.13901292305E+04  0.25500000920E-02 0.  1.
    10030    2    1    2    0    0  0.00000000000E+00  0.00000000000E+00 -0.81210502329E+03  0.19681534378E+04  0.17927948532E+04 0.  0.
        3    1    3    3  502    0  0.48618642972E+02  0.76494482950E+03 -0.91629818353E+03  0.11946157273E+04  0.10100000352E+00 0. -1.
       -3    1    3    3    0  502 -0.48618642972E+02 -0.76494482950E+03  0.10419316024E+03  0.77353771044E+03  0.10100000352E+00 0.  1.
</event>
<event>
 5   0  0.3413839E-04  0.1753944E+04  0.7818609E-02  0.8731183E-01
        1   -1    0    0  501    0  0.00000000000E+00  0.00000000000E+00  0.71473404570E+03  0.71473404572E+03  0.50400001928E-02 0.  1.
       -1   -1    0    0    0  501  0.00000000000E+00  0.00000000000E+00 -0.10760359126E+04  0.10760359126E+04  0.50400001928E-02 0. -1.
    10030    2    1    2    0    0  0.00000000000E+00  0.00000000000E+00 -0.36130186688E+03  0.17907699583E+04  0.17539435580E+04 0.  0.
        5    1    3    3  502    0 -0.35064926677E+03 -0.41717000408E+03 -0.88215172447E+03  0.10369182589E+04  0.46999998093E+01 0. -1.
       -5    1    3    3    0  502  0.35064926677E+03  0.41717000408E+03  0.52084985760E+03  0.75385169944E+03  0.46999998093E+01 0.  1.
</event>
<event>
 5   0  0.6929121E-04  0.1755403E+04  0.7818609E-02  0.8730382E-01
        2   -1    0    0  501    0  0.00000000000E+00  0.00000000000E+00  0.24245316461E+04  0.24245316461E+04  0.25500000920E-02 0. -1.
       -2   -1    0    0    0  501  0.00000000000E+00  0.00000000000E+00 -0.31773548205E+03  0.31773548206E+03  0.25500000920E-02 0.  1.
    10030    2    1    2    0    0  0.00000000000E+00  0.00000000000E+00  0.21067961641E+04  0.27422671282E+04  0.17554027815E+04 0.  0.
        3    1    3    3  502    0  0.67871208114E+03  0.23943910891E+03  0.18381984389E+04  0.19740705881E+04  0.10100000352E+00 0. -1.
       -3    1    3    3    0  502 -0.67871208114E+03 -0.23943910891E+03  0.26859772518E+03  0.76819654005E+03  0.10100000352E+00 0.  1.
</event>
<event>
 5   0  0.3308275E-04  0.1852719E+04  0.7818609E-02  0.8678756E-01
       -1   -1    0    0    0  501  0.00000000000E+00  0.00000000000E+00  0.15142848645E+04  0.15142848645E+04  0.50400001928E-02 0. -1.
        1   -1    0    0  501    0  0.00000000000E+00  0.00000000000E+00 -0.56669797566E+03  0.56669797568E+03  0.50400001928E-02 0.  1.
    10030    2    1    2    0    0  0.00000000000E+00  0.00000000000E+00  0.94758688886E+03  0.20809828402E+04  0.18527192635E+04 0.  0.
        3    1    3    3  502    0 -0.40222543052E+03 -0.80321187504E+03  0.21962252775E+03  0.92475330659E+03  0.10100000352E+00 0.  1.
       -3    1    3    3    0  502  0.40222543052E+03  0.80321187504E+03  0.72796436111E+03  0.11562295336E+04  0.10100000352E+00 0. -1.
</event>
<event>
 5   0  0.3413839E-04  0.1787931E+04  0.7818609E-02  0.8712744E-01
        1   -1    0    0  501    0  0.00000000000E+00  0.00000000000E+00  0.23163325536E+04  0.23163325536E+04  0.50400001928E-02 0. -1.
       -1   -1    0    0    0  501  0.00000000000E+00  0.00000000000E+00 -0.34501705945E+03  0.34501705948E+03  0.50400001928E-02 0.  1.
    10030    2    1    2    0    0  0.00000000000E+00  0.00000000000E+00  0.19713154942E+04  0.26613496131E+04  0.17879309231E+04 0.  0.
        5    1    3    3  502    0  0.42279061212E+03 -0.40596219049E+03 -0.19052073702E+02  0.58646591829E+03  0.46999998093E+01 0.  1.
       -5    1    3    3    0  502 -0.42279061212E+03  0.40596219049E+03  0.19903675679E+04  0.20748836948E+04  0.46999998093E+01 0. -1.
</event>
<event>
 5   0  0.6547153E-04  0.1818381E+04  0.7818609E-02  0.8696585E-01
        2   -1    0    0  501    0  0.00000000000E+00  0.00000000000E+00  0.94006640338E+03  0.94006640338E+03  0.25500000920E-02 0. -1.
       -2   -1    0    0    0  501  0.00000000000E+00  0.00000000000E+00 -0.87932858206E+03  0.87932858206E+03  0.25500000920E-02 0.  1.
    10030    2    1    2    0    0  0.00000000000E+00  0.00000000000E+00  0.60737821323E+02  0.18193949854E+04  0.18183808815E+04 0.  0.
        5    1    3    3  502    0 -0.70825554055E+03 -0.55190944696E+03  0.17319030911E+03  0.91446537471E+03  0.46999998093E+01 0.  1.
       -5    1    3    3    0  502  0.70825554055E+03  0.55190944696E+03 -0.11245248779E+03  0.90492961073E+03  0.46999998093E+01 0. -1.
</event>
<event>
 5   0  0.3308275E-04  0.1755874E+04  0.7818609E-02  0.8730123E-01
       -1   -1    0    0    0  501  0.00000000000E+00  0.00000000000E+00  0.57272739885E+03  0.57272739887E+03  0.50400001928E-02 0.  1.
        1   -1    0    0  501    0  0.00000000000E+00  0.00000000000E+00 -0.13457951280E+04  0.13457951280E+04  0.50400001928E-02 0. -1.
    10030    2    1    2    0    0  0.00000000000E+00  0.00000000000E+00 -0.77306772915E+03  0.19185225269E+04  0.17558744181E+04 0.  0.
        3    1    3    3  502    0 -0.41664693451E+03 -0.44447905179E+03 -0.10772437421E+04  0.12375824763E+04  0.10100000352E+00 0. -1.
       -3    1    3    3    0  502  0.41664693451E+03  0.44447905179E+03  0.30417601291E+03  0.68094005063E+03  0.10100000352E+00 0.  1.
</event>
<event>
 5   0  0.3377273E-04  0.1792997E+04  0.7818609E-02  0.8710032E-01
        1   -1    0    0  501    0  0.00000000000E+00  0.00000000000E+00  0.99230372470E+03  0.99230372472E+03  0.50400001928E-02 0. -1.
       -1   -1    0    0    0  501  0.00000000000E+00  0.00000000000E+00 -0.80994334120E+03  0.80994334121E+03  0.50400001928E-02 0.  1.
    10030    2    1    2    0    0  0.00000000000E+00  0.00000000000E+00  0.18236038351E+03  0.18022470659E+04  0.17929972608E+04 0.  0.
        2    1    3    3  502    0 -0.54530012197E+03 -0.57992120911E+03 -0.32331709720E+03  0.85918262153E+03  0.25500000920E-02 0.  1.
       -2    1    3    3    0  502  0.54530012197E+03  0.57992120911E+03  0.50567748070E+03  0.94306444440E+03  0.25500000920E-02 0. -1.
</event>
<event>
 5   0  0.6853162E-04  0.9211290E+03  0.7818609E-02  0.9399548E-01
       -2   -1    0    0    0  501  0.00000000000E+00  0.00000000000E+00  0.41919682421E+03  0.41919682422E+03  0.25500000920E-02 0.  1.
        2   -1    0    0  501    0  0.00000000000E+00  0.00000000000E+00 -0.50601441584E+03  0.50601441585E+03  0.25500000920E-02 0. -1.
    10030    2    1    2    0    0  0.00000000000E+00  0.00000000000E+00 -0.86817591630E+02  0.92521124007E+03  0.92112895109E+03 0.  0.
        2    1    3    3  502    0  0.24951288248E+03  0.38679429575E+03 -0.27428213378E+02  0.46110607526E+03  0.25500000920E-02 0.  1.
       -2    1    3    3    0  502 -0.24951288248E+03 -0.38679429575E+03 -0.59389378252E+02  0.46410516481E+03  0.25500000920E-02 0. -1.
</event>
<event>
 5   0  0.6853162E-04  0.1785913E+04  0.7818609E-02  0.8713827E-01
       -2   -1    0    0    0  501  0.00000000000E+00  0.00000000000E+00  0.89737399708E+03  0.89737399708E+03  0.25500000920E-02 0.  1.
        2   -1    0    0  501    0  0.00000000000E+00  0.00000000000E+00 -0.88856058976E+03  0.88856058976E+03  0.25500000920E-02 0. -1.
    10030    2    1    2    0    0  0.00000000000E+00  0.00000000000E+00  0.88134073221E+01  0.17859345868E+04  0.17859128401E+04 0.  0.
        2    1    3    3  502    0 -0.50903050111E+03 -0.10915318551E+03  0.72991171234E+03  0.89654758757E+03  0.25500000920E-02 0.  1.
       -2    1    3    3    0  502  0.50903050111E+03  0.10915318551E+03 -0.72109830502E+03  0.88938699927E+03  0.25500000920E-02 0. -1.
</event>
<event>
 5   0  0.6774451E-04  0.1747564E+04  0.7818609E-02  0.8734692E-01
        2   -1    0    0  501    0  0.00000000000E+00  0.00000000000E+00  0.16962922368E+04  0.16962922368E+04  0.25500000920E-02 0. -1.
       -2   -1    0    0    0  501  0.00000000000E+00  0.00000000000E+00 -0.45009638825E+03  0.45009638825E+03  0.25500000920E-02 0.  1.
    10030    2    1    2    0    0  0.00000000000E+00  0.00000000000E+00  0.12461958485E+04  0.21463886250E+04  0.17475640294E+04 0.  0.
        4    1    3    3  502    0  0.50372946931E+03 -0.64840471649E+03  0.25602455330E+03  0.86007106649E+03  0.12699999809E+01 0. -1.
       -4    1    3    3    0  502 -0.50372946931E+03  0.64840471649E+03  0.99017129522E+03  0.12863175585E+04  0.12699999809E+01 0.  1.
</event>
<event>
 5   0  0.6771967E-04  0.1805002E+04  0.7818609E-02  0.8703644E-01
       -2   -1    0    0    0  501  0.00000000000E+00  0.00000000000E+00  0.59116010183E+03  0.59116010183E+03  0.25500000920E-02 0.  1.
        2   -1    0    0  501    0  0.00000000000E+00  0.00000000000E+00 -0.13778135458E+04  0.13778135458E+04  0.25500000920E-02 0. -1.
    10030    2    1    2    0    0  0.00000000000E+00  0.00000000000E+00 -0.78665344395E+03  0.19689736476E+04  0.18050023779E+04 0.  0.
        1    1    3    3  502    0  0.89211837975E+03 -0.11988322801E+03 -0.32211880266E+03  0.95603750706E+03  0.50400001928E-02 0. -1.
       -1    1    3    3    0  502 -0.89211837975E+03  0.11988322801E+03 -0.46453464129E+03  0.10129361406E+04  0.50400001928E-02 0.  1.
</event>
<event>
 5   0  0.2467375E-04  0.1809272E+04  0.7818609E-02  0.8701384E-01
       -4   -1    0    0    0  501  0.00000000000E+00  0.00000000000E+00  0.12231693170E+04  0.12231699764E+04  0.12699999809E+01 0.  1.
        4   -1    0    0  501    0  0.00000000000E+00  0.00000000000E+00 -0.66905237410E+03  0.66905357946E+03  0.12699999809E+01 0. -1.
    10030    2    1    2    0    0  0.00000000000E+00  0.00000000000E+00  0.55411694294E+03  0.18922235558E+04  0.18092717869E+04 0.  0.
        4    1    3    3  502    0 -0.13471792350E+03  0.80040713332E+03  0.69482734177E+03  0.10684508158E+04  0.12699999809E+01 0.  1.
       -4    1    3    3    0  502  0.13471792350E+03 -0.80040713332E+03 -0.14071039883E+03  0.82377274003E+03  0.12699999809E+01 0. -1.
</event>
<event>
 5   0  0.6774451E-04  0.1797593E+04  0.7818609E-02  0.8707580E-01
        2   -1    0    0  501    0  0.00000000000E+00  0.00000000000E+00  0.16509648629E+04  0.16509648629E+04  0.25500000920E-02 0.  1.
       -2   -1    0    0    0  501  0.00000000000E+00  0.00000000000E+00 -0.48931119877E+03  0.48931119878E+03  0.25500000920E-02 0. -1.
    10030    2    1    2    0    0  0.00000000000E+00  0.00000000000E+00  0.11616536642E+04  0.21402760617E+04  0.17975934982E+04 0.  0.
        4    1    3    3  502    0 -0.63148373608E+03 -0.61107162449E+03  0.80564472709E+03  0.11921599215E+04  0.12699999809E+01 0.  1.
       -4    1    3    3    0  502  0.63148373608E+03  0.61107162449E+03  0.35600893707E+03  0.94811614023E+03  0.12699999809E+01 0. -1.
</event>
<event>
 5   0  0.6929121E-04  0.1769019E+04  0.7818609E-02  0.8722951E-01
        2   -1    0    0  501    0  0.00000000000E+00  0.00000000000E+00  0.37608091801E+03  0.37608091802E+03  0.25500000920E-02 0.  1.
       -2   -1    0    0    0  501  0.00000000000E+00  0.00000000000E+00 -0.20802887817E+04  0.20802887817E+04  0.25500000920E-02 0. -1.
    10030    2    1    2    0    0  0.00000000000E+00  0.00000000000E+00 -0.17042078637E+04  0.24563696997E+04  0.17690188408E+04 0.  0.
        3    1    3    3  502    0 -0.95415353686E+02 -0.31898050751E+03 -0.19899556150E+04  0.20176164189E+04  0.10100000352E+00 0. -1.
       -3    1    3    3    0  502  0.95415353686E+02  0.31898050751E+03  0.28574775129E+03  0.43875328086E+03  0.10100000352E+00 0.  1.
</event>
<event>
 5   0  0.2467375E-04  0.1407921E+04  0.7818609E-02  0.8948105E-01
       -3   -1    0    0    0  501  0.00000000000E+00  0.00000000000E+00  0.63188874249E+03  0.63188875056E+03  0.10100000352E+00 0.  1.
        3   -1    0    0  501    0  0.00000000000E+00  0.00000000000E+00 -0.78425280956E+03  0.78425281606E+03  0.10100000352E+00 0. -1.
    10030    2    1    2    0    0  0.00000000000E+00  0.00000000000E+00 -0.15236406707E+03  0.14161415666E+04  0.14079212079E+04 0.  0.
        1    1    3    3  502    0  0.48068085728E+03  0.26602108600E+03 -0.51891014723E+03  0.75570433747E+03  0.50400001928E-02 0. -1.
       -1    1    3    3    0  502 -0.48068085728E+03 -0.26602108600E+03  0.36654608015E+03  0.66043722915E+03  0.50400001928E-02 0.  1.
</event>
<event>
 5   0  0.2467375E-04  0.1775529E+04  0.7818609E-02  0.8719422E-01
        3   -1    0    0  501    0  0.00000000000E+00  0.00000000000E+00  0.89109267266E+03  0.89109267838E+03  0.10100000352E+00 0.  1.
       -3   -1    0    0    0  501  0.00000000000E+00  0.00000000000E+00 -0.88444866311E+03  0.88444866888E+03  0.10100000352E+00 0. -1.
    10030    2    1    2    0    0  0.00000000000E+00  0.00000000000E+00  0.66440095495E+01  0.17755413473E+04  0.17755289164E+04 0.  0.
        1    1    3    3  502    0 -0.47464987936E+02 -0.27011954494E+03  0.84766685261E+03  0.89093018058E+03  0.50400001928E-02 0.  1.
       -1    1    3    3    0  502  0.47464987936E+02  0.27011954494E+03 -0.84102284306E+03  0.88461116668E+03  0.50400001928E-02 0. -1.
</event>
<event>
 5   0  0.3308275E-04  0.1329105E+04  0.7818609E-02  0.9006798E-01
        1   -1    0    0  501    0  0.00000000000E+00  0.00000000000E+00  0.30480299222E+03  0.30480299227E+03  0.50400001928E-02 0.  1.
       -1   -1    0    0    0  501  0.00000000000E+00  0.00000000000E+00 -0.14489023056E+04  0.14489023056E+04  0.50400001928E-02 0. -1.
    10030    2    1    2    0    0  0.00000000000E+00  0.00000000000E+00 -0.11440993134E+04  0.17537052979E+04  0.13291045982E+04 0.  0.
        3    1    3    3  502    0 -0.37351315398E+03  0.54928949280E+03 -0.59839683712E+03  0.89404127868E+03  0.10100000352E+00 0.  1.
       -3    1    3    3    0  502  0.37351315398E+03 -0.54928949280E+03 -0.54570247623E+03  0.85966401918E+03  0.10100000352E+00 0. -1.
</event>
<event>
 5   0  0.6547153E-04  0.1765564E+04  0.7818609E-02  0.8724829E-01
        2   -1    0    0  501    0  0.00000000000E+00  0.00000000000E+00  0.70191099611E+03  0.70191099611E+03  0.25500000920E-02 0. -1.
       -2   -1    0    0    0  501  0.00000000000E+00  0.00000000000E+00 -0.11102608324E+04  0.11102608324E+04  0.25500000920E-02 0.  1.
    10030    2    1    2    0    0  0.00000000000E+00  0.00000000000E+00 -0.40834983629E+03  0.18121718285E+04  0.17655642575E+04 0.  0.
        5    1    3    3  502    0  0.29251930741E+03 -0.59623836533E+03 -0.80108915090E+03  0.10405929325E+04  0.46999998093E+01 0.  1.
       -5    1    3    3    0  502 -0.29251930741E+03  0.59623836533E+03  0.39273931461E+03  0.77157889600E+03  0.46999998093E+01 0. -1.
</event>
<event>
 5   0  0.3470962E-04  0.1732036E+04  0.7818609E-02  0.8743301E-01
       -1   -1    0    0    0  501  0.00000000000E+00  0.00000000000E+00  0.15223898239E+04  0.15223898239E+04  0.50400001928E-02 0.  1.
        1   -1    0    0  501    0  0.00000000000E+00  0.00000000000E+00 -0.49263784334E+03  0.49263784337E+03  0.50400001928E-02 0. -1.
    10030    2    1    2    0    0  0.00000000000E+00  0.00000000000E+00  0.10297519805E+04  0.20150276673E+04  0.17320356112E+04 0.  0.
        4    1    3    3  502    0 -0.88051598757E+02 -0.20507368503E+03 -0.45860638711E+03  0.51002914773E+03  0.12699999809E+01 0. -1.
       -4    1    3    3    0  502  0.88051598757E+02  0.20507368503E+03  0.14883583676E+04  0.15049985195E+04  0.12699999809E+01 0.  1.
</event>
<event>
 5   0  0.6771967E-04  0.1835569E+04  0.7818609E-02  0.8687610E-01
        2   -1    0    0  501    0  0.00000000000E+00  0.00000000000E+00  0.95722574382E+03  0.95722574382E+03  0.25500000920E-02 0. -1.
       -2   -1    0    0    0  501  0.00000000000E+00  0.00000000000E+00 -0.87996870536E+03  0.87996870537E+03  0.25500000920E-02 0.  1.
    10030    2    1    2    0    0  0.00000000000E+00  0.00000000000E+00  0.77257038455E+02  0.18371944492E+04  0.18355693379E+04 0.  0.
        1    1    3    3  502    0 -0.63781653401E+02 -0.74215360358E+03 -0.49800717731E+03  0.89603081380E+03  0.50400001928E-02 0.  1.
       -1    1    3    3    0  502  0.63781653401E+02  0.74215360358E+03  0.57526421576E+03  0.94116363539E+03  0.50400001928E-02 0. -1.
</event>
<event>
 5   0  0.6853162E-04  0.1835714E+04  0.7818609E-02  0.8687534E-01
       -2   -1    0    0    0  501  0.00000000000E+00  0.00000000000E+00  0.85681474351E+03  0.85681474351E+03  0.25500000920E-02 0.  1.
        2   -1    0    0  501    0  0.00000000000E+00  0.00000000000E+00 -0.98324803338E+03  0.98324803338E+03  0.25500000920E-02 0. -1.
    10030    2    1    2    0    0  0.00000000000E+00  0.00000000000E+00 -0.12643328987E+03  0.18400627769E+04  0.18357139336E+04 0.  0.
        2    1    3    3  502    0  0.33579460888E+03  0.61482413066E+03 -0.65766008034E+03  0.96087642924E+03  0.25500000920E-02 0. -1.
       -2    1    3    3    0  502 -0.33579460888E+03 -0.61482413066E+03  0.53122679046E+03  0.87918634766E+03  0.25500000920E-02 0.  1.
</event>
<event>
 5   0  0.3413839E-04  0.1762827E+04  0.7818609E-02  0.8726321E-01
       -1   -1    0    0    0  501  0.00000000000E+00  0.00000000000E+00  0.45200158771E+03  0.45200158773E+03  0.50400001928E-02 0. -1.
        1   -1    0    0  501    0  0.00000000000E+00  0.00000000000E+00 -0.17187760358E+04  0.17187760359E+04  0.50400001928E-02 0.  1.
    10030    2    1    2    0    0  0.00000000000E+00  0.00000000000E+00 -0.12667744481E+04  0.21707776236E+04  0.17628267041E+04 0.  0.
        5    1    3    3  502    0  0.11758325316E+03 -0.42918612503E+02  0.44098552711E+03  0.45843009701E+03  0.46999998093E+01 0. -1.
       -5    1    3    3    0  502 -0.11758325316E+03  0.42918612503E+02 -0.17077599753E+04  0.17123475266E+04  0.46999998093E+01 0.  1.
</event>
<event>
 5   0  0.6774451E-04  0.1797849E+04  0.7818609E-02  0.8707444E-01
        2   -1    0    0  501    0  0.00000000000E+00  0.00000000000E+00  0.12576935029E+04  0.12576935029E+04  0.25500000920E-02 0.  1.
       -2   -1    0    0    0  501  0.00000000000E+00  0.00000000000E+00 -0.64249768841E+03  0.64249768841E+03  0.25500000920E-02 0. -1.
    10030    2    1    2    0    0  0.00000000000E+00  0.00000000000E+00  0.61519581452E+03  0.19001911913E+04  0.17978489017E+04 0.  0.
        4    1    3    3  502    0  0.66696534641E+03  0.10118708395E+03 -0.32034529617E+03  0.74679603705E+03  0.12699999809E+01 0. -1.
       -4    1    3    3    0  502 -0.66696534641E+03 -0.10118708395E+03  0.93554111068E+03  0.11533951543E+04  0.12699999809E+01 0.  1.
</event>
<event>
 5   0  0.6547153E-04  0.1789857E+04  0.7818609E-02  0.8711712E-01
        2   -1    0    0  501    0  0.00000000000E+00  0.00000000000E+00  0.16041293945E+04  0.16041293945E+04  0.25500000920E-02 0. -1.
       -2   -1    0    0    0  501  0.00000000000E+00  0.00000000000E+00 -0.49927201393E+03  0.49927201394E+03  0.25500000920E-02 0.  1.
    10030    2    1    2    0    0  0.00000000000E+00  0.00000000000E+00  0.11048573806E+04  0.21034014084E+04  0.17898568808E+04 0.  0.
        5    1    3    3  502    0 -0.47839355370E+03  0.30153773998E+03 -0.26268231900E+03  0.62354590173E+03  0.46999998093E+01 0.  1.
       -5    1    3    3    0  502  0.47839355370E+03 -0.30153773998E+03  0.13675396996E+04  0.14798555067E+04  0.46999998093E+01 0. -1.
</event>
<event>
 5   0  0.3470962E-04  0.1382168E+04  0.7818609E-02  0.8966828E-01
        1   -1    0    0  501    0  0.00000000000E+00  0.00000000000E+00  0.61827058299E+03  0.61827058301E+03  0.50400001928E-02 0.  1.
       -1   -1    0    0    0  501  0.00000000000E+00  0.00000000000E+00 -0.77247286830E+03  0.77247286832E+03  0.50400001928E-02 0. -1.
    10030    2    1    2    0    0  0.00000000000E+00  0.00000000000E+00 -0.15420228531E+03  0.13907434513E+04  0.13821682252E+04 0.  0.
        4    1    3    3  502    0 -0.58002873405E+03  0.10467416339E+03  0.28597774156E+03  0.65511441319E+03  0.12699999809E+01 0.  1.
       -4    1    3    3    0  502  0.58002873405E+03 -0.10467416339E+03 -0.44018002687E+03  0.73562903814E+03  0.12699999809E+01 0. -1.
</event>
<event>
 5   0  0.6929121E-04  0.1825622E+04  0.7818609E-02  0.8692791E-01
       -2   -1    0    0    0  501  0.00000000000E+00  0.00000000000E+00  0.44948342103E+03  0.44948342104E+03  0.25500000920E-02 0. -1.
        2   -1    0    0  501    0  0.00000000000E+00  0.00000000000E+00 -0.18537367309E+04  0.18537367309E+04  0.25500000920E-02 0.  1.
    10030    2    1    2    0    0  0.00000000000E+00  0.00000000000E+00 -0.14042533099E+04  0.23032201520E+04  0.18256220064E+04 0.  0.
        3    1    3    3  502    0  0.10042195571E+03  0.46971889396E+03 -0.16814010062E+04  0.17486651373E+04  0.10100000352E+00 0.  1.
       -3    1    3    3    0  502 -0.10042195571E+03 -0.46971889396E+03  0.27714769630E+03  0.55455501468E+03  0.10100000352E+00 0. -1.
</event>
<event>
 5   0  0.3413839E-04  0.1792653E+04  0.7818609E-02  0.8710216E-01
        1   -1    0    0  501    0  0.00000000000E+00  0.00000000000E+00  0.11217375874E+04  0.11217375874E+04  0.50400001928E-02 0.  1.
       -1   -1    0    0    0  501  0.00000000000E+00  0.00000000000E+00 -0.71621142265E+03  0.71621142267E+03  0.50400001928E-02 0. -1.
    10030    2    1    2    0    0  0.00000000000E+00  0.00000000000E+00  0.40552616477E+03  0.18379490101E+04  0.17926530879E+04 0.  0.
        5    1    3    3  502    0 -0.87790581876E+03  0.18014105776E+03  0.21761198831E+03  0.92225077650E+03  0.46999998093E+01 0.  1.
       -5    1    3    3    0  502  0.87790581876E+03 -0.18014105776E+03  0.18791417646E+03  0.91569823360E+03  0.46999998093E+01 0. -1.
</event>
<event>
 5   0  0.3308275E-04  0.1706896E+04  0.7818609E-02  0.8757441E-01
        1   -1    0    0  501    0  0.00000000000E+00  0.00000000000E+00  0.76795931854E+03  0.76795931855E+03  0.50400001928E-02 0.  1.
       -1   -1    0    0    0  501  0.00000000000E+00  0.00000000000E+00 -0.94845316395E+03  0.94845316397E+03  0.50400001928E-02 0. -1.
    10030    2    1    2    0    0  0.00000000000E+00  0.00000000000E+00 -0.18049384542E+03  0.17164124825E+04  0.17068959494E+04 0.  0.
        3    1    3    3  502    0  0.20165643440E+03 -0.11744302095E+03  0.73525342403E+03  0.77139859246E+03  0.10100000352E+00 0.  1.
       -3    1    3    3    0  502 -0.20165643440E+03  0.11744302095E+03 -0.91574726945E+03  0.94501389006E+03  0.10100000352E+00 0. -1.
</event>
<event>
 5   0  0.3308275E-04  0.1625207E+04  0.7818609E-02  0.8805210E-01
       -1   -1    0    0    0  501  0.00000000000E+00  0.00000000000E+00  0.41296840368E+03  0.41296840371E+03  0.50400001928E-02 0. -1.
        1   -1    0    0  501    0  0.00000000000E+00  0.00000000000E+00 -0.15989706054E+04  0.15989706054E+04  0.50400001928E-02 0.  1.
    10030    2    1    2    0    0  0.00000000000E+00  0.00000000000E+00 -0.11860022017E+04  0.20119390091E+04  0.16252068650E+04 0.  0.
        3    1    3    3  502    0  0.23094425781E+03 -0.56033658891E+03 -0.12631153541E+04  0.14009899183E+04  0.10100000352E+00 0.  1.
       -3    1    3    3    0  502 -0.23094425781E+03  0.56033658891E+03  0.77113152431E+02  0.61094909081E+03  0.10100000352E+00 0. -1.
</event>
<event>
 5   0  0.3404261E-04  0.1829284E+04  0.7818609E-02  0.8690880E-01
        1   -1    0    0  501    0  0.00000000000E+00  0.00000000000E+00  0.85580008761E+03  0.85580008763E+03  0.50400001928E-02 0.  1.
       -1   -1    0    0    0  501  0.00000000000E+00  0.00000000000E+00 -0.97752925347E+03  0.97752925348E+03  0.50400001928E-02 0. -1.
    10030    2    1    2    0    0  0.00000000000E+00  0.00000000000E+00 -0.12172916586E+03  0.18333293411E+04  0.18292835983E+04 0.  0.
        1    1    3    3  502    0 -0.28923186987E+03 -0.65277220739E+03 -0.63379576590E+03  0.95470608157E+03  0.50400001928E-02 0. -1.
       -1    1    3    3    0  502  0.28923186987E+03  0.65277220739E+03  0.51206660005E+03  0.87862325953E+03  0.50400001928E-02 0.  1.
</event>
<event>
 5   0  0.6929121E-04  0.1737561E+04  0.7818609E-02  0.8740227E-01
        2   -1    0    0  501    0  0.00000000000E+00  0.00000000000E+00  0.14630088379E+04  0.14630088379E+04  0.25500000920E-02 0.  1.
       -2   -1    0    0    0  501  0.00000000000E+00  0.00000000000E+00 -0.51590899206E+03  0.51590899207E+03  0.25500000920E-02 0. -1.
    10030    2    1    2    0    0  0.00000000000E+00  0.00000000000E+00  0.94709984588E+03  0.19789178300E+04  0.17375608363E+04 0.  0.
        3    1    3    3  502    0 -0.23278066501E+03 -0.11327845986E+03 -0.47095967406E+03  0.53742150335E+03  0.10100000352E+00 0. -1.
       -3    1    3    3    0  502  0.23278066501E+03  0.11327845986E+03  0.14180595199E+04  0.14414963267E+04  0.10100000352E+00 0.  1.
</event>
<event>
 5   0  0.2467375E-04  0.1258852E+04  0.7818609E-02  0.9062848E-01
       -3   -1    0    0    0  501  0.00000000000E+00  0.00000000000E+00  0.32255611960E+03  0.32255613541E+03  0.10100000352E+00 0.  1.
        3   -1    0    0  501    0  0.00000000000E+00  0.00000000000E+00 -0.12282425371E+04  0.12282425412E+04  0.10100000352E+00 0. -1.
    10030    2    1    2    0    0  0.00000000000E+00  0.00000000000E+00 -0.90568641749E+03  0.15507986767E+04  0.12588521155E+04 0.  0.
        2    1    3    3  502    0  0.16721700537E+03 -0.51999935321E+03 -0.83813196993E+03  0.10004129414E+04  0.25500000920E-02 0. -1.
       -2    1    3    3    0  502 -0.16721700537E+03  0.51999935321E+03 -0.67554447560E+02  0.55038573529E+03  0.25500000920E-02 0.  1.
</event>
<event>
 5   0  0.6929121E-04  0.1762721E+04  0.7818609E-02  0.8726379E-01
        2   -1    0    0  501    0  0.00000000000E+00  0.00000000000E+00  0.10304214212E+04  0.10304214212E+04  0.25500000920E-02 0.  1.
       -2   -1    0    0    0  501  0.00000000000E+00  0.00000000000E+00 -0.75386286025E+03  0.75386286025E+03  0.25500000920E-02 0. -1.
    10030    2    1    2    0    0  0.00000000000E+00  0.00000000000E+00  0.27655856093E+03  0.17842842814E+04  0.17627211235E+04 0.  0.
        3    1    3    3  502    0  0.22181533597E+03 -0.54977446871E+03  0.79844016699E+03  0.99446504221E+03  0.10100000352E+00 0.  1.
       -3    1    3    3    0  502 -0.22181533597E+03  0.54977446871E+03 -0.52188160606E+03  0.78981923923E+03  0.10100000352E+00 0. -1.
</event>
<event>
 5   0  0.6547153E-04  0.1491166E+04  0.7818609E-02  0.8890349E-01
        2   -1    0    0  501    0  0.00000000000E+00  0.00000000000E+00  0.11720826514E+04  0.11720826514E+04  0.25500000920E-02 0. -1.
       -2   -1    0    0    0  501  0.00000000000E+00  0.00000000000E+00 -0.47427896441E+03  0.47427896442E+03  0.25500000920E-02 0.  1.
    10030    2    1    2    0    0  0.00000000000E+00  0.00000000000E+00  0.69780368703E+03  0.16463616159E+04  0.14911661827E+04 0.  0.
        5    1    3    3  502    0 -0.66504161280E+03  0.31188002981E+03  0.20784528785E+03  0.76339455947E+03  0.46999998093E+01 0.  1.
       -5    1    3    3    0  502  0.66504161280E+03 -0.31188002981E+03  0.48995839918E+03  0.88296705639E+03  0.46999998093E+01 0. -1.
</event>
<event>
 5   0  0.3377273E-04  0.1832165E+04  0.7818609E-02  0.8689379E-01
        1   -1    0    0  501    0  0.00000000000E+00  0.00000000000E+00  0.18685171074E+04  0.18685171075E+04  0.50400001928E-02 0. -1.
       -1   -1    0    0    0  501  0.00000000000E+00  0.00000000000E+00 -0.44912996032E+03  0.44912996034E+03  0.50400001928E-02 0.  1.
    10030    2    1    2    0    0  0.00000000000E+00  0.00000000000E+00  0.14193871471E+04  0.23176470678E+04  0.18321648554E+04 0.  0.
        2    1    3    3  502    0 -0.50463336071E+03 -0.66951459059E+03  0.11767125236E+04  0.14448380459E+04  0.25500000920E-02 0. -1.
       -2    1    3    3    0  502  0.50463336071E+03  0.66951459059E+03  0.24267462354E+03  0.87280902188E+03  0.25500000920E-02 0.  1.
</event>
<event>
 5   0  0.3470962E-04  0.1821477E+04  0.7818609E-02  0.8694961E-01
       -1   -1    0    0    0  501  0.00000000000E+00  0.00000000000E+00  0.11098283071E+04  0.11098283071E+04  0.50400001928E-02 0.  1.
        1   -1    0    0  501    0  0.00000000000E+00  0.00000000000E+00 -0.74736318068E+03  0.74736318069E+03  0.50400001928E-02 0. -1.
    10030    2    1    2    0    0  0.00000000000E+00  0.00000000000E+00  0.36246512642E+03  0.18571914878E+04  0.18214772177E+04 0.  0.
        4    1    3    3  502    0  0.35176982387E+03  0.55820951835E+03 -0.45885293883E+03  0.80367126846E+03  0.12699999809E+01 0. -1.
       -4    1    3    3    0  502 -0.35176982387E+03 -0.55820951835E+03  0.82131806525E+03  0.10535202193E+04  0.12699999809E+01 0.  1.
</event>
<event>
 5   0  0.6853162E-04  0.2040350E+04  0.7818609E-02  0.8587984E-01
        2   -1    0    0  501    0  0.00000000000E+00  0.00000000000E+00  0.11511263632E+04  0.11511263632E+04  0.25500000920E-02 0.  1.
       -2   -1    0    0    0  501  0.00000000000E+00  0.00000000000E+00 -0.90412093541E+03  0.90412093541E+03  0.25500000920E-02 0. -1.
    10030    2    1    2    0    0  0.00000000000E+00  0.00000000000E+00  0.24700542776E+03  0.20552472986E+04  0.20403504054E+04 0.  0.
        2    1    3    3  502    0 -0.89124257164E+03  0.26661515241E+03  0.54532079741E+03  0.10783189385E+04  0.25500000920E-02 0.  1.
       -2    1    3    3    0  502  0.89124257164E+03 -0.26661515241E+03 -0.29831536965E+03  0.97692836010E+03  0.25500000920E-02 0. -1.
</event>
<event>
 5   0  0.6929121E-04  0.1904051E+04  0.7818609E-02  0.8652842E-01
       -2   -1    0    0    0  501  0.00000000000E+00  0.00000000000E+00  0.68121358405E+03  0.68121358405E+03  0.25500000920E-02 0.  1.
        2   -1    0    0  501    0  0.00000000000E+00  0.00000000000E+00 -0.13304974437E+04  0.13304974437E+04  0.25500000920E-02 0. -1.
    10030    2    1    2    0    0  0.00000000000E+00  0.00000000000E+00 -0.64928385969E+03  0.20117110278E+04  0.19040513987E+04 0.  0.
        3    1    3    3  502    0 -0.10688640994E+03  0.94584975334E+03 -0.30645032224E+03  0.99998413524E+03  0.10100000352E+00 0.  1.
       -3    1    3    3    0  502  0.10688640994E+03 -0.94584975334E+03 -0.34283353745E+03  0.10117268926E+04  0.10100000352E+00 0. -1.
</event>
<event>
 5   0  0.3404261E-04  0.1895735E+04  0.7818609E-02  0.8656982E-01
       -1   -1    0    0    0  501  0.00000000000E+00  0.00000000000E+00  0.10515230312E+04  0.10515230312E+04  0.50400001928E-02 0.  1.
        1   -1    0    0  501    0  0.00000000000E+00  0.00000000000E+00 -0.85443023457E+03  0.85443023458E+03  0.50400001928E-02 0. -1.
    10030    2    1    2    0    0  0.00000000000E+00  0.00000000000E+00  0.19709279666E+03  0.19059532658E+04  0.18957352877E+04 0.  0.
        1    1    3    3  502    0  0.66944003760E+03 -0.32909609523E+02  0.77239778420E+03  0.10226589575E+04  0.50400001928E-02 0.  1.
       -1    1    3    3    0  502 -0.66944003760E+03  0.32909609523E+02 -0.57530498754E+03  0.88329430829E+03  0.50400001928E-02 0. -1.
</event>
<event>
 5   0  0.6547153E-04  0.1699514E+04  0.7818609E-02  0.8761642E-01
        2   -1    0    0  501    0  0.00000000000E+00  0.00000000000E+00  0.24674738900E+04  0.24674738900E+04  0.25500000920E-02 0. -1.
       -2   -1    0    0    0  501  0.00000000000E+00  0.00000000000E+00 -0.29264204920E+03  0.29264204921E+03  0.25500000920E-02 0.  1.
    10030    2    1    2    0    0  0.00000000000E+00  0.00000000000E+00  0.21748318408E+04  0.27601159392E+04  0.16995135957E+04 0.  0.
        5    1    3    3  502    0  0.13681667457E+03  0.10287572636E+03 -0.26432918939E+03  0.31495115157E+03  0.46999998093E+01 0.  1.
       -5    1    3    3    0  502 -0.13681667457E+03 -0.10287572636E+03  0.24391610302E+04  0.24451647876E+04  0.46999998093E+01 0. -1.
</event>
<event>
 5   0  0.3470962E-04  0.1812317E+04  0.7818609E-02  0.8699777E-01
        1   -1    0    0  501    0  0.00000000000E+00  0.00000000000E+00  0.19728658420E+04  0.19728658421E+04  0.50400001928E-02 0. -1.
       -1   -1    0    0    0  501  0.00000000000E+00  0.00000000000E+00 -0.41620824695E+03  0.41620824698E+03  0.50400001928E-02 0.  1.
    10030    2    1    2    0    0  0.00000000000E+00  0.00000000000E+00  0.15566575951E+04  0.23890740890E+04  0.18123167865E+04 0.  0.
        4    1    3    3  502    0  0.18871899628E+03  0.33776489742E+03  0.18585012718E+04  0.18983489078E+04  0.12699999809E+01 0. -1.
       -4    1    3    3    0  502 -0.18871899628E+03 -0.33776489742E+03 -0.30184367668E+03  0.49072518127E+03  0.12699999809E+01 0.  1.
</event>
<event>
 5   0  0.3413839E-04  0.1810854E+04  0.7818609E-02  0.8700549E-01
       -1   -1    0    0    0  501  0.00000000000E+00  0.00000000000E+00  0.10938929207E+04  0.10938929207E+04  0.50400001928E-02 0.  1.
        1   -1    0    0  501    0  0.00000000000E+00  0.00000000000E+00 -0.74943176495E+03  0.74943176497E+03  0.50400001928E-02 0. -1.
    10030    2    1    2    0    0  0.00000000000E+00  0.00000000000E+00  0.34446115578E+03  0.18433246857E+04  0.18108540552E+04 0.  0.
        5    1    3    3  502    0 -0.30494467864E+03 -0.41069498406E+03  0.93269692056E+03  0.10637703054E+04  0.46999998093E+01 0.  1.
       -5    1    3    3    0  502  0.30494467864E+03  0.41069498406E+03 -0.58823576478E+03  0.77955438035E+03  0.46999998093E+01 0. -1.
</event>
<event>
 5   0  0.6853162E-04  0.1808992E+04  0.7818609E-02  0.8701532E-01
       -2   -1    0    0    0  501  0.00000000000E+00  0.00000000000E+00  0.13279645062E+04  0.13279645062E+04  0.25500000920E-02 0.  1.
        2   -1    0    0  501    0  0.00000000000E+00  0.00000000000E+00 -0.61606538886E+03  0.61606538887E+03  0.25500000920E-02 0. -1.
    10030    2    1    2    0    0  0.00000000000E+00  0.00000000000E+00  0.71189911736E+03  0.19440298951E+04  0.18089919513E+04 0.  0.
        2    1    3    3  502    0  0.84853408191E+03 -0.30551708007E+03  0.43010959212E+03  0.99917217516E+03  0.25500000920E-02 0.  1.
       -2    1    3    3    0  502 -0.84853408191E+03  0.30551708007E+03  0.28178952524E+03  0.94485771993E+03  0.25500000920E-02 0. -1.
</event>
<event>
 5   0  0.3404261E-04  0.1734589E+04  0.7818609E-02  0.8741879E-01
        1   -1    0    0  501    0  0.00000000000E+00  0.00000000000E+00  0.11659804345E+04  0.11659804346E+04  0.50400001928E-02 0.  1.
       -1   -1    0    0    0  501  0.00000000000E+00  0.00000000000E+00 -0.64512246751E+03  0.64512246753E+03  0.50400001928E-02 0. -1.
    10030    2    1    2    0    0  0.00000000000E+00  0.00000000000E+00  0.52085796704E+03  0.18111029021E+04  0.17345894904E+04 0.  0.
        1    1    3    3  502    0 -0.15016131417E+03 -0.81117136324E+03  0.53991682565E+03  0.98592980453E+03  0.50400001928E-02 0.  1.
       -1    1    3    3    0  502  0.15016131417E+03  0.81117136324E+03 -0.19058858612E+02  0.82517309756E+03  0.50400001928E-02 0. -1.
</event>
<event>
 5   0  0.3377273E-04  0.1757153E+04  0.7818609E-02  0.8729423E-01
        1   -1    0    0  501    0  0.00000000000E+00  0.00000000000E+00  0.54305927236E+03  0.54305927238E+03  0.50400001928E-02 0.  1.
       -1   -1    0    0    0  501  0.00000000000E+00  0.00000000000E+00 -0.14213859412E+04  0.14213859412E+04  0.50400001928E-02 0. -1.
    10030    2    1    2    0    0  0.00000000000E+00  0.00000000000E+00 -0.87832666884E+03  0.19644452136E+04  0.17571531692E+04 0.  0.
        2    1    3    3  502    0  0.59963562395E+03  0.48598145176E+03  0.30059322595E+02  0.77242761204E+03  0.25500000920E-02 0.  1.
       -2    1    3    3    0  502 -0.59963562395E+03 -0.48598145176E+03 -0.90838599144E+03  0.11920176016E+04  0.25500000920E-02 0. -1.
</event>
<event>
 5   0  0.6547153E-04  0.1780419E+04  0.7818609E-02  0.8716782E-01
        2   -1    0    0  501    0  0.00000000000E+00  0.00000000000E+00  0.14144285498E+04  0.14144285498E+04  0.25500000920E-02 0. -1.
       -2   -1    0    0    0  501  0.00000000000E+00  0.00000000000E+00 -0.56027793046E+03  0.56027793047E+03  0.25500000920E-02 0.  1.
    10030    2    1    2    0    0  0.00000000000E+00  0.00000000000E+00  0.85415061933E+03  0.19747064803E+04  0.17804191649E+04 0.  0.
        5    1    3    3  502    0  0.38759550772E+03  0.33909094580E+03  0.12324234664E+04  0.13357030499E+04  0.46999998093E+01 0. -1.
       -5    1    3    3    0  502 -0.38759550772E+03 -0.33909094580E+03 -0.37827284706E+03  0.63900343031E+03  0.46999998093E+01 0.  1.
</event>
<event>
 5   0  0.6774451E-04  0.1811020E+04  0.7818609E-02  0.8700461E-01
        2   -1    0    0  501    0  0.00000000000E+00  0.00000000000E+00  0.19434737874E+04  0.19434737874E+04  0.25500000920E-02 0.  1.
       -2   -1    0    0    0  501  0.00000000000E+00  0.00000000000E+00 -0.42189852022E+03  0.42189852023E+03  0.25500000920E-02 0. -1.
    10030    2    1    2    0    0  0.00000000000E+00  0.00000000000E+00  0.15215752672E+04  0.23653723076E+04  0.18110203919E+04 0.  0.
        4    1    3    3  502    0  0.50097637043E+03 -0.75354561485E+03  0.71671216073E+03  0.11543336830E+04  0.12699999809E+01 0.  1.
       -4    1    3    3    0  502 -0.50097637043E+03  0.75354561485E+03  0.80486310644E+03  0.12110386246E+04  0.12699999809E+01 0. -1.
</event>
<event>
 5   0  0.3377273E-04  0.1754653E+04  0.7818609E-02  0.8730793E-01
       -1   -1    0    0    0  501  0.00000000000E+00  0.00000000000E+00  0.35874116901E+03  0.35874116904E+03  0.50400001928E-02 0. -1.
        1   -1    0    0  501    0  0.00000000000E+00  0.00000000000E+00 -0.21455637539E+04  0.21455637539E+04  0.50400001928E-02 0.  1.
    10030    2    1    2    0    0  0.00000000000E+00  0.00000000000E+00 -0.17868225849E+04  0.25043049230E+04  0.17546532983E+04 0.  0.
        2    1    3    3  502    0  0.81210636533E+02 -0.62935299569E+03 -0.28758487514E+02  0.63522233217E+03  0.25500000920E-02 0. -1.
       -2    1    3    3    0  502 -0.81210636533E+02  0.62935299569E+03 -0.17580640974E+04  0.18690825908E+04  0.25500000920E-02 0.  1.
</event>
<event>
 5   0  0.3308275E-04  0.1819685E+04  0.7818609E-02  0.8695901E-01
        1   -1    0    0  501    0  0.00000000000E+00  0.00000000000E+00  0.21481330393E+04  0.21481330393E+04  0.50400001928E-02 0.  1.
       -1   -1    0    0    0  501  0.00000000000E+00  0.00000000000E+00 -0.38536426341E+03  0.38536426344E+03  0.50400001928E-02 0. -1.
    10030    2    1    2    0    0  0.00000000000E+00  0.00000000000E+00  0.17627687759E+04  0.25334973027E+04  0.18196853645E+04 0.  0.
        3    1    3    3  502    0 -0.94767480825E+02  0.12109477575E+03 -0.36714213995E+03  0.39804293897E+03  0.10100000352E+00 0. -1.
       -3    1    3    3    0  502  0.94767480825E+02 -0.12109477575E+03  0.21299109158E+04  0.21354543637E+04  0.10100000352E+00 0.  1.
</event>
<event>
 5   0  0.3377273E-04  0.1768152E+04  0.7818609E-02  0.8723421E-01
        1   -1    0    0  501    0  0.00000000000E+00  0.00000000000E+00  0.13404130917E+04  0.13404130917E+04  0.50400001928E-02 0.  1.
       -1   -1    0    0    0  501  0.00000000000E+00  0.00000000000E+00 -0.58309696156E+03  0.58309696158E+03  0.50400001928E-02 0. -1.
    10030    2    1    2    0    0  0.00000000000E+00  0.00000000000E+00  0.75731613015E+03  0.19235100533E+04  0.17681524833E+04 0.  0.
        2    1    3    3  502    0  0.49035274012E+03  0.56735175114E+03  0.88804929190E+03  0.11623103562E+04  0.25500000920E-02 0.  1.
       -2    1    3    3    0  502 -0.49035274012E+03 -0.56735175114E+03 -0.13073316175E+03  0.76119969710E+03  0.25500000920E-02 0. -1.
</event>
<event>
 5   0  0.6929121E-04  0.1830553E+04  0.7818609E-02  0.8690218E-01
        2   -1    0    0  501    0  0.00000000000E+00  0.00000000000E+00  0.18619877843E+04  0.18619877843E+04  0.25500000920E-02 0. -1.
       -2   -1    0    0    0  501  0.00000000000E+00  0.00000000000E+00 -0.44991240299E+03  0.44991240300E+03  0.25500000920E-02 0.  1.
    10030    2    1    2    0    0  0.00000000000E+00  0.00000000000E+00  0.14120753813E+04  0.23119001873E+04  0.18305533572E+04 0.  0.
        3    1    3    3  502    0 -0.36436062066E+03  0.52286592895E+03 -0.12365894479E+03  0.64918332262E+03  0.10100000352E+00 0.  1.
       -3    1    3    3    0  502  0.36436062066E+03 -0.52286592895E+03  0.15357343261E+04  0.16627168647E+04  0.10100000352E+00 0. -1.
</event>
<event>
 5   0  0.3413839E-04  0.1769628E+04  0.7818609E-02  0.8722620E-01
       -1   -1    0    0    0  501  0.00000000000E+00  0.00000000000E+00  0.66718420116E+03  0.66718420118E+03  0.50400001928E-02 0.  1.
        1   -1    0    0  501    0  0.00000000000E+00  0.00000000000E+00 -0.11734328648E+04  0.11734328648E+04  0.50400001928E-02 0. -1.
    10030    2    1    2    0    0  0.00000000000E+00  0.00000000000E+00 -0.50624866366E+03  0.18406170660E+04  0.17696280610E+04 0.  0.
        5    1    3    3  502    0 -0.46942593331E+03 -0.14525855535E+03 -0.10184491508E+04  0.11308056940E+04  0.46999998093E+01 0. -1.
       -5    1    3    3    0  502  0.46942593331E+03  0.14525855535E+03  0.51220048717E+03  0.70981137200E+03  0.46999998093E+01 0.  1.
</event>
<event>
 5   0  0.3470962E-04  0.1808775E+04  0.7818609E-02  0.8701647E-01
       -1   -1    0    0    0  501  0.00000000000E+00  0.00000000000E+00  0.21107869346E+04  0.21107869346E+04  0.50400001928E-02 0. -1.
        1   -1    0    0  501    0  0.00000000000E+00  0.00000000000E+00 -0.38749388309E+03  0.38749388313E+03  0.50400001928E-02 0.  1.
    10030    2    1    2    0    0  0.00000000000E+00  0.00000000000E+00  0.17232930515E+04  0.24982808177E+04  0.18087753047E+04 0.  0.
        4    1    3    3  502    0 -0.83743414504E+03  0.34120031461E+03  0.84202517564E+03  0.12356057669E+04  0.12699999809E+01 0.  1.
       -4    1    3    3    0  502  0.83743414504E+03 -0.34120031461E+03  0.88126787586E+03  0.12626750508E+04  0.12699999809E+01 0. -1.
</event>
<event>
 5   0  0.3308275E-04  0.1854656E+04  0.7818609E-02  0.8677762E-01
        1   -1    0    0  501    0  0.00000000000E+00  0.00000000000E+00  0.12852240250E+04  0.12852240250E+04  0.50400001928E-02 0. -1.
       -1   -1    0    0    0  501  0.00000000000E+00  0.00000000000E+00 -0.66909494011E+03  0.66909494013E+03  0.50400001928E-02 0.  1.
    10030    2    1    2    0    0  0.00000000000E+00  0.00000000000E+00  0.61612908492E+03  0.19543189652E+04  0.18546556468E+04 0.  0.
        3    1    3    3  502    0 -0.47784269271E+03 -0.73229367735E+03  0.63344443906E+03  0.10797404950E+04  0.10100000352E+00 0.  1.
       -3    1    3    3    0  502  0.47784269271E+03  0.73229367735E+03 -0.17315354141E+02  0.87457847021E+03  0.10100000352E+00 0. -1.
</event>
<event>
 5   0  0.6771967E-04  0.1829813E+04  0.7818609E-02  0.8690604E-01
       -2   -1    0    0    0  501  0.00000000000E+00  0.00000000000E+00  0.52515201646E+03  0.52515201647E+03  0.25500000920E-02 0. -1.
        2   -1    0    0  501    0  0.00000000000E+00  0.00000000000E+00 -0.15939266733E+04  0.15939266733E+04  0.25500000920E-02 0.  1.
    10030    2    1    2    0    0  0.00000000000E+00  0.00000000000E+00 -0.10687746568E+04  0.21190786897E+04  0.18298128938E+04 0.  0.
        1    1    3    3  502    0  0.85499677110E+02 -0.16733963609E+03  0.50256182879E+03  0.53654556225E+03  0.50400001928E-02 0. -1.
       -1    1    3    3    0  502 -0.85499677110E+02  0.16733963609E+03 -0.15713364856E+04  0.15825331275E+04  0.50400001928E-02 0.  1.
</event>
<event>
 5   0  0.3404261E-04  0.1830229E+04  0.7818609E-02  0.8690387E-01
        1   -1    0    0  501    0  0.00000000000E+00  0.00000000000E+00  0.90140250291E+03  0.90140250293E+03  0.50400001928E-02 0. -1.
       -1   -1    0    0    0  501  0.00000000000E+00  0.00000000000E+00 -0.92903542369E+03  0.92903542371E+03  0.50400001928E-02 0.  1.
    10030    2    1    2    0    0  0.00000000000E+00  0.00000000000E+00 -0.27632920777E+02  0.18304379266E+04  0.18302293367E+04 0.  0.
        1    1    3    3  502    0  0.49754029493E+03  0.35136641487E+03  0.66921829504E+03  0.90490763562E+03  0.50400001928E-02 0. -1.
       -1    1    3    3    0  502 -0.49754029493E+03 -0.35136641487E+03 -0.69685121581E+03  0.92553029101E+03  0.50400001928E-02 0.  1.
</event>
<event>
 5   0  0.6929121E-04  0.1603113E+04  0.7818609E-02  0.8818638E-01
       -2   -1    0    0    0  501  0.00000000000E+00  0.00000000000E+00  0.55767179972E+03  0.55767179973E+03  0.25500000920E-02 0. -1.
        2   -1    0    0  501    0  0.00000000000E+00  0.00000000000E+00 -0.11520979035E+04  0.11520979035E+04  0.25500000920E-02 0.  1.
    10030    2    1    2    0    0  0.00000000000E+00  0.00000000000E+00 -0.59442610380E+03  0.17097697032E+04  0.16031126115E+04 0.  0.
        3    1    3    3  502    0 -0.38840534825E+03  0.41823701015E+03 -0.89742628297E+03  0.10635576405E+04  0.10100000352E+00 0.  1.
       -3    1    3    3    0  502  0.38840534825E+03 -0.41823701015E+03  0.30300017917E+03  0.64621206270E+03  0.10100000352E+00 0. -1.
</event>
<event>
 5   0  0.6929121E-04  0.1907329E+04  0.7818609E-02  0.8651217E-01
        2   -1    0    0  501    0  0.00000000000E+00  0.00000000000E+00  0.10927115487E+04  0.10927115487E+04  0.25500000920E-02 0.  1.
       -2   -1    0    0    0  501  0.00000000000E+00  0.00000000000E+00 -0.83231101323E+03  0.83231101324E+03  0.25500000920E-02 0. -1.
    10030    2    1    2    0    0  0.00000000000E+00  0.00000000000E+00  0.26040053551E+03  0.19250225620E+04  0.19073288718E+04 0.  0.
        3    1    3    3  502    0 -0.87256254823E+03  0.35209119226E+03  0.28701938449E+03  0.98372442560E+03  0.10100000352E+00 0.  1.
       -3    1    3    3    0  502  0.87256254823E+03 -0.35209119226E+03 -0.26618848973E+02  0.94129813639E+03  0.10100000352E+00 0. -1.
</event>
<event>
 5   0  0.6774451E-04  0.1783437E+04  0.7818609E-02  0.8715157E-01
        2   -1    0    0  501    0  0.00000000000E+00  0.00000000000E+00  0.76459830093E+03  0.76459830093E+03  0.25500000920E-02 0. -1.
       -2   -1    0    0    0  501  0.00000000000E+00  0.00000000000E+00 -0.10399738511E+04  0.10399738511E+04  0.25500000920E-02 0.  1.
    10030    2    1    2    0    0  0.00000000000E+00  0.00000000000E+00 -0.27537555015E+03  0.18045721520E+04  0.17834373996E+04 0.  0.
        4    1    3    3  502    0  0.27776599413E+03 -0.81247625668E+03  0.10576484236E+03  0.86513549802E+03  0.12699999809E+01 0. -1.
       -4    1    3    3    0  502 -0.27776599413E+03  0.81247625668E+03 -0.38114039250E+03  0.93943665399E+03  0.12699999809E+01 0.  1.
</event>
<event>
 5   0  0.3308275E-04  0.1659135E+04  0.7818609E-02  0.8785020E-01
        1   -1    0    0  501    0  0.00000000000E+00  0.00000000000E+00  0.67089752600E+03  0.67089752601E+03  0.50400001928E-02 0. -1.
       -1   -1    0    0    0  501  0.00000000000E+00  0.00000000000E+00 -0.10257638900E+04  0.10257638900E+04  0.50400001928E-02 0.  1.
    10030    2    1    2    0    0  0.00000000000E+00  0.00000000000E+00 -0.35486636398E+03  0.16966614160E+04  0.16591352640E+04 0.  0.
        3    1    3    3  502    0  0.45191069063E+03  0.21352062358E+03 -0.85450208775E+03  0.98994351211E+03  0.10100000352E+00 0.  1.
       -3    1    3    3    0  502 -0.45191069063E+03 -0.21352062358E+03  0.49963572377E+03  0.70671790389E+03  0.10100000352E+00 0. -1.
</event>
<event>
 5   0  0.6774451E-04  0.1851391E+04  0.7818609E-02  0.8679438E-01
       -2   -1    0    0    0  501  0.00000000000E+00  0.00000000000E+00  0.76703772197E+03  0.76703772197E+03  0.25500000920E-02 0. -1.
        2   -1    0    0  501    0  0.00000000000E+00  0.00000000000E+00 -0.11171702320E+04  0.11171702320E+04  0.25500000920E-02 0.  1.
    10030    2    1    2    0    0  0.00000000000E+00  0.00000000000E+00 -0.35013251001E+03  0.18842079540E+04  0.18513905150E+04 0.  0.
        4    1    3    3  502    0  0.50795153051E+03 -0.55230342799E+03 -0.72676027181E+03  0.10446223909E+04  0.12699999809E+01 0.  1.
       -4    1    3    3    0  502 -0.50795153051E+03  0.55230342799E+03  0.37662776179E+03  0.83958556310E+03  0.12699999809E+01 0. -1.
</event>
<event>
 5   0  0.3413839E-04  0.1806866E+04  0.7818609E-02  0.8702657E-01
       -1   -1    0    0    0  501  0.00000000000E+00  0.00000000000E+00  0.11237392004E+04  0.11237392004E+04  0.50400001928E-02 0. -1.
        1   -1    0    0  501    0  0.00000000000E+00  0.00000000000E+00 -0.72631730328E+03  0.72631730330E+03  0.50400001928E-02 0.  1.
    10030    2    1    2    0    0  0.00000000000E+00  0.00000000000E+00  0.39742189715E+03  0.18500565037E+04  0.18068660445E+04 0.  0.
        5    1    3    3  502    0 -0.28570976410E+03  0.59602707568E+03 -0.43187630173E+03  0.78956796683E+03  0.46999998093E+01 0.  1.
       -5    1    3    3    0  502  0.28570976410E+03 -0.59602707568E+03  0.82929819888E+03  0.10604885369E+04  0.46999998093E+01 0. -1.
</event>
<event>
 5   0  0.6771967E-04  0.1806310E+04  0.7818609E-02  0.8702951E-01
       -2   -1    0    0    0  501  0.00000000000E+00  0.00000000000E+00  0.50006070549E+03  0.50006070550E+03  0.25500000920E-02 0.  1.
        2   -1    0    0  501    0  0.00000000000E+00  0.00000000000E+00 -0.16311795519E+04  0.16311795519E+04  0.25500000920E-02 0. -1.
    10030    2    1    2    0    0  0.00000000000E+00  0.00000000000E+00 -0.11311188464E+04  0.21312402574E+04  0.18063098267E+04 0.  0.
        1    1    3    3  502    0  0.31030265216E+03  0.40272699381E+03 -0.14463048737E+04  0.15330605191E+04  0.50400001928E-02 0. -1.
       -1    1    3    3    0  502 -0.31030265216E+03 -0.40272699381E+03  0.31518602730E+03  0.59817973830E+03  0.50400001928E-02 0.  1.
</event>
<event>
 5   0  0.3377273E-04  0.1814655E+04  0.7818609E-02  0.8698545E-01
        1   -1    0    0  501    0  0.00000000000E+00  0.00000000000E+00  0.11527468206E+04  0.11527468207E+04  0.50400001928E-02 0.  1.
       -1   -1    0    0    0  501  0.00000000000E+00  0.00000000000E+00 -0.71415799617E+03  0.71415799619E+03  0.50400001928E-02 0. -1.
    10030    2    1    2    0    0  0.00000000000E+00  0.00000000000E+00  0.43858882448E+03  0.18669048168E+04  0.18146551844E+04 0.  0.
        2    1    3    3  502    0 -0.61971589001E+03 -0.39421750815E+03 -0.32876189067E+03  0.80469845832E+03  0.25500000920E-02 0. -1.
       -2    1    3    3    0  502  0.61971589001E+03  0.39421750815E+03  0.76735071514E+03  0.10622063585E+04  0.25500000920E-02 0.  1.
</event>
<event>
 5   0  0.6547153E-04  0.1858954E+04  0.7818609E-02  0.8675562E-01
        2   -1    0    0  501    0  0.00000000000E+00  0.00000000000E+00  0.12506600160E+04  0.12506600160E+04  0.25500000920E-02 0. -1.
       -2   -1    0    0    0  501  0.00000000000E+00  0.00000000000E+00 -0.69077695453E+03  0.69077695453E+03  0.25500000920E-02 0.  1.
    10030    2    1    2    0    0  0.00000000000E+00  0.00000000000E+00  0.55988306146E+03  0.19414369705E+04  0.18589535949E+04 0.  0.
        5    1    3    3  502    0 -0.29712887002E+03  0.59446747743E+03  0.95856394557E+03  0.11664236258E+04  0.46999998093E+01 0. -1.
       -5    1    3    3    0  502  0.29712887002E+03 -0.59446747743E+03 -0.39868088411E+03  0.77501334470E+03  0.46999998093E+01 0.  1.
</event>
<event>
 5   0  0.3308275E-04  0.1885587E+04  0.7818609E-02  0.8662064E-01
        1   -1    0    0  501    0  0.00000000000E+00  0.00000000000E+00  0.15918103006E+04  0.15918103006E+04  0.50400001928E-02 0.  1.
       -1   -1    0    0    0  501  0.00000000000E+00  0.00000000000E+00 -0.55839557912E+03  0.55839557915E+03  0.50400001928E-02 0. -1.
    10030    2    1    2    0    0  0.00000000000E+00  0.00000000000E+00  0.10334147215E+04  0.21502058798E+04  0.18855872663E+04 0.  0.
        3    1    3    3  502    0 -0.63781492070E+03 -0.40519638736E+03 -0.12621229461E+03  0.76610804650E+03  0.10100000352E+00 0. -1.
       -3    1    3    3    0  502  0.63781492070E+03  0.40519638736E+03  0.11596270161E+04  0.13840978333E+04  0.10100000352E+00 0.  1.
</event>
<event>
 5   0  0.3308275E-04  0.1696815E+04  0.7818609E-02  0.8763183E-01
        1   -1    0    0  501    0  0.00000000000E+00  0.00000000000E+00  0.16185526549E+04  0.16185526549E+04  0.50400001928E-02 0.  1.
       -1   -1    0    0    0  501  0.00000000000E+00  0.00000000000E+00 -0.44471549332E+03  0.44471549335E+03  0.50400001928E-02 0. -1.
    10030    2    1    2    0    0  0.00000000000E+00  0.00000000000E+00  0.11738371615E+04  0.20632681482E+04  0.16968151843E+04 0.  0.
        3    1    3    3  502    0  0.39319849858E+03  0.38836955912E+03 -0.19580741955E+03  0.58632459396E+03  0.10100000352E+00 0. -1.
       -3    1    3    3    0  502 -0.39319849858E+03 -0.38836955912E+03  0.13696445811E+04  0.14769435542E+04  0.10100000352E+00 0.  1.
</event>
<event>
 5   0  0.2467375E-04  0.1777961E+04  0.7818609E-02  0.8718108E-01
       -3   -1    0    0    0  501  0.00000000000E+00  0.00000000000E+00  0.11261728501E+04  0.11261728547E+04  0.10100000352E+00 0.  1.
        3   -1    0    0  501    0  0.00000000000E+00  0.00000000000E+00 -0.70174476562E+03  0.70174477288E+03  0.10100000352E+00 0. -1.
    10030    2    1    2    0    0  0.00000000000E+00  0.00000000000E+00  0.42442808452E+03  0.18279176276E+04  0.17779605322E+04 0.  0.
        4    1    3    3  502    0 -0.36176074949E+03  0.12687895521E+03  0.10368198864E+04  0.11054257998E+04  0.12699999809E+01 0.  1.
       -4    1    3    3    0  502  0.36176074949E+03 -0.12687895521E+03 -0.61239180192E+03  0.72249182771E+03  0.12699999809E+01 0. -1.
</event>
<event>
 5   0  0.3404261E-04  0.1755688E+04  0.7818609E-02  0.8730226E-01
       -1   -1    0    0    0  501  0.00000000000E+00  0.00000000000E+00  0.60621455087E+03  0.60621455089E+03  0.50400001928E-02 0.  1.
        1   -1    0    0  501    0  0.00000000000E+00  0.00000000000E+00 -0.12711839074E+04  0.12711839074E+04  0.50400001928E-02 0. -1.
    10030    2    1    2    0    0  0.00000000000E+00  0.00000000000E+00 -0.66496935653E+03  0.18773984583E+04  0.17556881062E+04 0.  0.
        1    1    3    3  502    0 -0.50045789800E+03 -0.10950840643E+03  0.42978618658E+03  0.66870499097E+03  0.50400001928E-02 0.  1.
       -1    1    3    3    0  502  0.50045789800E+03  0.10950840643E+03 -0.10947555431E+04  0.12086934673E+04  0.50400001928E-02 0. -1.
</event>
<event>
 5   0  0.3377273E-04  0.1766180E+04  0.7818609E-02  0.8724494E-01
        1   -1    0    0  501    0  0.00000000000E+00  0.00000000000E+00  0.24000804178E+04  0.24000804178E+04  0.50400001928E-02 0.  1.
       -1   -1    0    0    0  501  0.00000000000E+00  0.00000000000E+00 -0.32492589069E+03  0.32492589073E+03  0.50400001928E-02 0. -1.
    10030    2    1    2    0    0  0.00000000000E+00  0.00000000000E+00  0.20751545271E+04  0.27250063086E+04  0.17661803618E+04 0.  0.
        2    1    3    3  502    0  0.38032505766E+02 -0.85904524370E+03  0.72729675611E+03  0.11262174629E+04  0.25500000920E-02 0. -1.
       -2    1    3    3    0  502 -0.38032505766E+02  0.85904524370E+03  0.13478577710E+04  0.15987888457E+04  0.25500000920E-02 0.  1.
</event>
<event>
 5   0  0.3413839E-04  0.1815504E+04  0.7818609E-02  0.8698098E-01
        1   -1    0    0  501    0  0.00000000000E+00  0.00000000000E+00  0.15023954248E+04  0.15023954248E+04  0.50400001928E-02 0.  1.
       -1   -1    0    0    0  501  0.00000000000E+00  0.00000000000E+00 -0.54846670506E+03  0.54846670508E+03  0.50400001928E-02 0. -1.
    10030    2    1    2    0    0  0.00000000000E+00  0.00000000000E+00  0.95392871970E+03  0.20508621299E+04  0.18155041926E+04 0.  0.
        5    1    3    3  502    0 -0.29532071865E+03 -0.80818141268E+03  0.15030511399E+03  0.87349026323E+03  0.46999998093E+01 0. -1.
       -5    1    3    3    0  502  0.29532071865E+03  0.80818141268E+03  0.80362360571E+03  0.11773718666E+04  0.46999998093E+01 0.  1.
</event>
<event>
 5   0  0.6547153E-04  0.1787939E+04  0.7818609E-02  0.8712740E-01
        2   -1    0    0  501    0  0.00000000000E+00  0.00000000000E+00  0.12047491223E+04  0.12047491223E+04  0.25500000920E-02 0.  1.
       -2   -1    0    0    0  501  0.00000000000E+00  0.00000000000E+00 -0.66335895975E+03  0.66335895975E+03  0.25500000920E-02 0. -1.
    10030    2    1    2    0    0  0.00000000000E+00  0.00000000000E+00  0.54139016253E+03  0.18681080820E+04  0.17879386170E+04 0.  0.
        5    1    3    3  502    0  0.84859036377E+03 -0.28098812647E+03  0.28109644363E+03  0.93706842510E+03  0.46999998093E+01 0. -1.
       -5    1    3    3    0  502 -0.84859036377E+03  0.28098812647E+03  0.26029371890E+03  0.93103965694E+03  0.46999998093E+01 0.  1.
</event>
<event>
 5   0  0.3413839E-04  0.1799210E+04  0.7818609E-02  0.8706720E-01
       -1   -1    0    0    0  501  0.00000000000E+00  0.00000000000E+00  0.66402460889E+03  0.66402460891E+03  0.50400001928E-02 0.  1.
        1   -1    0    0  501    0  0.00000000000E+00  0.00000000000E+00 -0.12187639845E+04  0.12187639845E+04  0.50400001928E-02 0. -1.
    10030    2    1    2    0    0  0.00000000000E+00  0.00000000000E+00 -0.55473937562E+03  0.18827885934E+04  0.17992101358E+04 0.  0.
        5    1    3    3  502    0 -0.58687768827E+03  0.48270134713E+03 -0.78123557383E+03  0.10898518814E+04  0.46999998093E+01 0. -1.
       -5    1    3    3    0  502  0.58687768827E+03 -0.48270134713E+03  0.22649619821E+03  0.79293671205E+03  0.46999998093E+01 0.  1.
</event>
<event>
 5   0  0.6771967E-04  0.1732841E+04  0.7818609E-02  0.8742852E-01
        2   -1    0    0  501    0  0.00000000000E+00  0.00000000000E+00  0.45188160566E+03  0.45188160567E+03  0.25500000920E-02 0. -1.
       -2   -1    0    0    0  501  0.00000000000E+00  0.00000000000E+00 -0.16612422788E+04  0.16612422788E+04  0.25500000920E-02 0.  1.
    10030    2    1    2    0    0  0.00000000000E+00  0.00000000000E+00 -0.12093606731E+04  0.21131238845E+04  0.17328413988E+04 0.  0.
        1    1    3    3  502    0  0.28810152647E+03  0.33779146887E+03  0.30263040012E+03  0.53729947432E+03  0.50400001928E-02 0. -1.
       -1    1    3    3    0  502 -0.28810152647E+03 -0.33779146887E+03 -0.15119910733E+04  0.15758244101E+04  0.50400001928E-02 0.  1.
</event>
<event>
 5   0  0.3404261E-04  0.9530932E+03  0.7818609E-02  0.9361542E-01
        1   -1    0    0  501    0  0.00000000000E+00  0.00000000000E+00  0.78912293777E+03  0.78912293778E+03  0.50400001928E-02 0.  1.
       -1   -1    0    0    0  501  0.00000000000E+00  0.00000000000E+00 -0.28778361219E+03  0.28778361224E+03  0.50400001928E-02 0. -1.
    10030    2    1    2    0    0  0.00000000000E+00  0.00000000000E+00  0.50133932558E+03  0.10769065500E+04  0.95309317389E+03 0.  0.
        1    1    3    3  502    0  0.28043255234E+03 -0.33011622442E+03  0.26169043407E+02  0.43394003836E+03  0.50400001928E-02 0. -1.
       -1    1    3    3    0  502 -0.28043255234E+03  0.33011622442E+03  0.47517028217E+03  0.64296651166E+03  0.50400001928E-02 0.  1.
</event>
<event>
 5   0  0.6774451E-04  0.1843020E+04  0.7818609E-02  0.8683751E-01
        2   -1    0    0  501    0  0.00000000000E+00  0.00000000000E+00  0.78869799263E+03  0.78869799263E+03  0.25500000920E-02 0. -1.
       -2   -1    0    0    0  501  0.00000000000E+00  0.00000000000E+00 -0.10766862398E+04  0.10766862398E+04  0.25500000920E-02 0.  1.
    10030    2    1    2    0    0  0.00000000000E+00  0.00000000000E+00 -0.28798824715E+03  0.18653842324E+04  0.18430195615E+04 0.  0.
        4    1    3    3  502    0 -0.14233237688E+03  0.54125190180E+03 -0.88497533188E+03  0.10470888585E+04  0.12699999809E+01 0.  1.
       -4    1    3    3    0  502  0.14233237688E+03 -0.54125190180E+03  0.59698708473E+03  0.81829537390E+03  0.12699999809E+01 0. -1.
</event>
<event>
 5   0  0.6929121E-04  0.1740383E+04  0.7818609E-02  0.8738662E-01
        2   -1    0    0  501    0  0.00000000000E+00  0.00000000000E+00  0.18114941281E+04  0.18114941281E+04  0.25500000920E-02 0.  1.
       -2   -1    0    0    0  501  0.00000000000E+00  0.00000000000E+00 -0.41801587038E+03  0.41801587038E+03  0.25500000920E-02 0. -1.
    10030    2    1    2    0    0  0.00000000000E+00  0.00000000000E+00  0.13934782577E+04  0.22295099984E+04  0.17403830551E+04 0.  0.
        3    1    3    3  502    0 -0.81639677686E+03  0.23818472880E+03  0.93294399984E+03  0.12623866996E+04  0.10100000352E+00 0. -1.
       -3    1    3    3    0  502  0.81639677686E+03 -0.23818472880E+03  0.46053425784E+03  0.96712329884E+03  0.10100000352E+00 0.  1.
</event>
<event>
 5   0  0.3308275E-04  0.1826354E+04  0.7818609E-02  0.8692409E-01
       -1   -1    0    0    0  501  0.00000000000E+00  0.00000000000E+00  0.99082410598E+03  0.99082410599E+03  0.50400001928E-02 0.  1.
        1   -1    0    0  501    0  0.00000000000E+00  0.00000000000E+00 -0.84161470050E+03  0.84161470051E+03  0.50400001928E-02 0. -1.
    10030    2    1    2    0    0  0.00000000000E+00  0.00000000000E+00  0.14920940548E+03  0.18324388065E+04  0.18263538904E+04 0.  0.
        3    1    3    3  502    0  0.83825634739E+03 -0.33297961192E+03  0.21770878250E+03  0.92787189314E+03  0.10100000352E+00 0. -1.
       -3    1    3    3    0  502 -0.83825634739E+03  0.33297961192E+03 -0.68499377018E+02  0.90456691336E+03  0.10100000352E+00 0.  1.
</event>
<event>
 5   0  0.3413839E-04  0.1813995E+04  0.7818609E-02  0.8698893E-01
       -1   -1    0    0    0  501  0.00000000000E+00  0.00000000000E+00  0.54759937571E+03  0.54759937573E+03  0.50400001928E-02 0.  1.
        1   -1    0    0  501    0  0.00000000000E+00  0.00000000000E+00 -0.15022734787E+04  0.15022734787E+04  0.50400001928E-02 0. -1.
    10030    2    1    2    0    0  0.00000000000E+00  0.00000000000E+00 -0.95467410295E+03  0.20498728544E+04  0.18139945084E+04 0.  0.
        5    1    3    3  502    0  0.45115648845E+03  0.17691464276E+03 -0.13436976920E+04  0.14284209973E+04  0.46999998093E+01 0. -1.
       -5    1    3    3    0  502 -0.45115648845E+03 -0.17691464276E+03  0.38902358906E+03  0.62145185714E+03  0.46999998093E+01 0.  1.
</event>
<event>
 5   0  0.2467375E-04  0.1803970E+04  0.7818609E-02  0.8704191E-01
       -3   -1    0    0    0  501  0.00000000000E+00  0.00000000000E+00  0.52636586313E+03  0.52636587282E+03  0.10100000352E+00 0. -1.
        3   -1    0    0  501    0  0.00000000000E+00  0.00000000000E+00 -0.15456495927E+04  0.15456495960E+04  0.10100000352E+00 0.  1.
    10030    2    1    2    0    0  0.00000000000E+00  0.00000000000E+00 -0.10192837296E+04  0.20720154688E+04  0.18039702829E+04 0.  0.
        3    1    3    3  502    0 -0.17540222870E+03  0.64108973759E+03 -0.12100112914E+04  0.13805395065E+04  0.10100000352E+00 0.  1.
       -3    1    3    3    0  502  0.17540222870E+03 -0.64108973759E+03  0.19072756180E+03  0.69147596235E+03  0.10100000352E+00 0. -1.
</event>
<event>
 5   0  0.3470962E-04  0.1775631E+04  0.7818609E-02  0.8719367E-01
        1   -1    0    0  501    0  0.00000000000E+00  0.00000000000E+00  0.83800951771E+03  0.83800951773E+03  0.50400001928E-02 0. -1.
       -1   -1    0    0    0  501  0.00000000000E+00  0.00000000000E+00 -0.94058136756E+03  0.94058136757E+03  0.50400001928E-02 0.  1.
    10030    2    1    2    0    0  0.00000000000E+00  0.00000000000E+00 -0.10257184984E+03  0.17785908853E+04  0.17756307479E+04 0.  0.
        4    1    3    3  502    0  0.18763096263E+03  0.52848479391E+03 -0.74070142464E+03  0.92905423356E+03  0.12699999809E+01 0.  1.
       -4    1    3    3    0  502 -0.18763096263E+03 -0.52848479391E+03  0.63812957479E+03  0.84953665174E+03  0.12699999809E+01 0. -1.
</event>
<event>
 5   0  0.6547153E-04  0.9435644E+03  0.7818609E-02  0.9372705E-01
       -2   -1    0    0    0  501  0.00000000000E+00  0.00000000000E+00  0.15118176411E+03  0.15118176414E+03  0.25500000920E-02 0.  1.
        2   -1    0    0  501    0  0.00000000000E+00  0.00000000000E+00 -0.14722570687E+04  0.14722570687E+04  0.25500000920E-02 0. -1.
    10030    2    1    2    0    0  0.00000000000E+00  0.00000000000E+00 -0.13210753046E+04  0.16234388328E+04  0.94356435052E+03 0.  0.
        5    1    3    3  502    0 -0.50357779241E+02  0.39984072874E+03 -0.23857468328E+03  0.46834654241E+03  0.46999998093E+01 0.  1.
       -5    1    3    3    0  502  0.50357779241E+02 -0.39984072874E+03 -0.10825006213E+04  0.11550922904E+04  0.46999998093E+01 0. -1.
</event>
<event>
 5   0  0.6853162E-04  0.1459499E+04  0.7818609E-02  0.8911841E-01
        2   -1    0    0  501    0  0.00000000000E+00  0.00000000000E+00  0.28136755892E+03  0.28136755893E+03  0.25500000920E-02 0.  1.
       -2   -1    0    0    0  501  0.00000000000E+00  0.00000000000E+00 -0.18926654334E+04  0.18926654334E+04  0.25500000920E-02 0. -1.
    10030    2    1    2    0    0  0.00000000000E+00  0.00000000000E+00 -0.16112978745E+04  0.21740329924E+04  0.14594994387E+04 0.  0.
        2    1    3    3  502    0 -0.72511731608E+03  0.68348353205E+02 -0.87338827906E+03  0.11372219245E+04  0.25500000920E-02 0.  1.
       -2    1    3    3    0  502  0.72511731608E+03 -0.68348353205E+02 -0.73790959545E+03  0.10368110679E+04  0.25500000920E-02 0. -1.
</event>
<event>
 5   0  0.6929121E-04  0.1782303E+04  0.7818609E-02  0.8715768E-01
       -2   -1    0    0    0  501  0.00000000000E+00  0.00000000000E+00  0.46469463150E+03  0.46469463151E+03  0.25500000920E-02 0. -1.
        2   -1    0    0  501    0  0.00000000000E+00  0.00000000000E+00 -0.17089729767E+04  0.17089729767E+04  0.25500000920E-02 0.  1.
    10030    2    1    2    0    0  0.00000000000E+00  0.00000000000E+00 -0.12442783452E+04  0.21736676082E+04  0.17823025194E+04 0.  0.
        3    1    3    3  502    0  0.90893422335E+02  0.66487856233E+03 -0.13372621241E+04  0.14961935421E+04  0.10100000352E+00 0.  1.
       -3    1    3    3    0  502 -0.90893422335E+02 -0.66487856233E+03  0.92983778876E+02  0.67747406607E+03  0.10100000352E+00 0. -1.
</event>
<event>
 5   0  0.6853162E-04  0.1860053E+04  0.7818609E-02  0.8675000E-01
       -2   -1    0    0    0  501  0.00000000000E+00  0.00000000000E+00  0.50771121020E+03  0.50771121021E+03  0.25500000920E-02 0. -1.
        2   -1    0    0  501    0  0.00000000000E+00  0.00000000000E+00 -0.17036253215E+04  0.17036253215E+04  0.25500000920E-02 0.  1.
    10030    2    1    2    0    0  0.00000000000E+00  0.00000000000E+00 -0.11959141113E+04  0.22113365317E+04  0.18600534118E+04 0.  0.
        2    1    3    3  502    0 -0.71206979368E+02  0.66774645661E+02  0.50160368072E+03  0.51101422654E+03  0.25500000920E-02 0. -1.
       -2    1    3    3    0  502  0.71206979368E+02 -0.66774645661E+02 -0.16975177920E+04  0.17003223052E+04  0.25500000920E-02 0.  1.
</event>
<event>
 5   0  0.6929121E-04  0.1805533E+04  0.7818609E-02  0.8703363E-01
        2   -1    0    0  501    0  0.00000000000E+00  0.00000000000E+00  0.23594605718E+04  0.23594605718E+04  0.25500000920E-02 0.  1.
       -2   -1    0    0    0  501  0.00000000000E+00  0.00000000000E+00 -0.34541258370E+03  0.34541258371E+03  0.25500000920E-02 0. -1.
    10030    2    1    2    0    0  0.00000000000E+00  0.00000000000E+00  0.20140479881E+04  0.27048731555E+04  0.18055330208E+04 0.  0.
        3    1    3    3  502    0  0.61274576680E+03 -0.50264659366E+03  0.35940633069E+03  0.87022060053E+03  0.10100000352E+00 0. -1.
       -3    1    3    3    0  502 -0.61274576680E+03  0.50264659366E+03  0.16546416574E+04  0.18346525550E+04  0.10100000352E+00 0.  1.
</event>
<event>
 5   0  0.6547153E-04  0.1782551E+04  0.7818609E-02  0.8715634E-01
       -2   -1    0    0    0  501  0.00000000000E+00  0.00000000000E+00  0.10195597530E+04  0.10195597530E+04  0.25500000920E-02 0. -1.
        2   -1    0    0  501    0  0.00000000000E+00  0.00000000000E+00 -0.77913275596E+03  0.77913275596E+03  0.25500000920E-02 0.  1.
    10030    2    1    2    0    0  0.00000000000E+00  0.00000000000E+00  0.24042699703E+03  0.17986925090E+04  0.17825514301E+04 0.  0.
        5    1    3    3  502    0  0.58297689004E+03  0.51175071147E+03 -0.32262196736E+03  0.84015347933E+03  0.46999998093E+01 0.  1.
       -5    1    3    3    0  502 -0.58297689004E+03 -0.51175071147E+03  0.56304896439E+03  0.95853902962E+03  0.46999998093E+01 0. -1.
</event>
<event>
 5   0  0.6774451E-04  0.1772456E+04  0.7818609E-02  0.8721086E-01
       -2   -1    0    0    0  501  0.00000000000E+00  0.00000000000E+00  0.61315354045E+03  0.61315354045E+03  0.25500000920E-02 0.  1.
        2   -1    0    0  501    0  0.00000000000E+00  0.00000000000E+00 -0.12809190855E+04  0.12809190855E+04  0.25500000920E-02 0. -1.
    10030    2    1    2    0    0  0.00000000000E+00  0.00000000000E+00 -0.66776554509E+03  0.18940726260E+04  0.17724560049E+04 0.  0.
        4    1    3    3  502    0 -0.37553877093E+03 -0.25624671954E+03  0.47904211992E+03  0.66043524687E+03  0.12699999809E+01 0.  1.
       -4    1    3    3    0  502  0.37553877093E+03  0.25624671954E+03 -0.11468076650E+04  0.12336373791E+04  0.12699999809E+01 0. -1.
</event>
<event>
 5   0  0.6774451E-04  0.1782717E+04  0.7818609E-02  0.8715545E-01
       -2   -1    0    0    0  501  0.00000000000E+00  0.00000000000E+00  0.39683815750E+03  0.39683815751E+03  0.25500000920E-02 0.  1.
        2   -1    0    0  501    0  0.00000000000E+00  0.00000000000E+00 -0.20021255295E+04  0.20021255295E+04  0.25500000920E-02 0. -1.
    10030    2    1    2    0    0  0.00000000000E+00  0.00000000000E+00 -0.16052873720E+04  0.23989636870E+04  0.17827168101E+04 0.  0.
        4    1    3    3  502    0  0.79453399525E+03 -0.36160455719E+03 -0.56013738068E+03  0.10372066446E+04  0.12699999809E+01 0. -1.
       -4    1    3    3    0  502 -0.79453399525E+03  0.36160455719E+03 -0.10451499913E+04  0.13617570424E+04  0.12699999809E+01 0.  1.
</event>
<event>
 5   0  0.3404261E-04  0.1793795E+04  0.7818609E-02  0.8709606E-01
       -1   -1    0    0    0  501  0.00000000000E+00  0.00000000000E+00  0.83034276572E+03  0.83034276573E+03  0.50400001928E-02 0. -1.
        1   -1    0    0  501    0  0.00000000000E+00  0.00000000000E+00 -0.96878717670E+03  0.96878717671E+03  0.50400001928E-02 0.  1.
    10030    2    1    2    0    0  0.00000000000E+00  0.00000000000E+00 -0.13844441098E+03  0.17991299424E+04  0.17937953325E+04 0.  0.
        1    1    3    3  502    0  0.16868206826E+02  0.46675073966E+03  0.69874716288E+03  0.84046914698E+03  0.50400001928E-02 0. -1.
       -1    1    3    3    0  502 -0.16868206826E+02 -0.46675073966E+03 -0.83719157386E+03  0.95866079546E+03  0.50400001928E-02 0.  1.
</event>
<event>
 5   0  0.6853162E-04  0.1799551E+04  0.7818609E-02  0.8706538E-01
       -2   -1    0    0    0  501  0.00000000000E+00  0.00000000000E+00  0.86733649554E+03  0.86733649555E+03  0.25500000920E-02 0.  1.
        2   -1    0    0  501    0  0.00000000000E+00  0.00000000000E+00 -0.93342788899E+03  0.93342788899E+03  0.25500000920E-02 0. -1.
    10030    2    1    2    0    0  0.00000000000E+00  0.00000000000E+00 -0.66091393446E+02  0.18007643845E+04  0.17995511375E+04 0.  0.
        2    1    3    3  502    0  0.67153512924E+03  0.49895229380E+03  0.29836220647E+03  0.88821890744E+03  0.25500000920E-02 0.  1.
       -2    1    3    3    0  502 -0.67153512924E+03 -0.49895229380E+03 -0.36445359991E+03  0.91254547710E+03  0.25500000920E-02 0. -1.
</event>
<event>
 5   0  0.3413839E-04  0.1837294E+04  0.7818609E-02  0.8686714E-01
        1   -1    0    0  501    0  0.00000000000E+00  0.00000000000E+00  0.17925076229E+04  0.17925076229E+04  0.50400001928E-02 0.  1.
       -1   -1    0    0    0  501  0.00000000000E+00  0.00000000000E+00 -0.47079997801E+03  0.47079997804E+03  0.50400001928E-02 0. -1.
    10030    2    1    2    0    0  0.00000000000E+00  0.00000000000E+00  0.13217076449E+04  0.22633076009E+04  0.18372942600E+04 0.  0.
        5    1    3    3  502    0 -0.22651227416E+03  0.83694344370E+03  0.28698926390E+03  0.91332746914E+03  0.46999998093E+01 0. -1.
       -5    1    3    3    0  502  0.22651227416E+03 -0.83694344370E+03  0.10347183810E+04  0.13499801318E+04  0.46999998093E+01 0.  1.
</event>
<event>
 5   0  0.3470962E-04  0.1792482E+04  0.7818609E-02  0.8710307E-01
       -1   -1    0    0    0  501  0.00000000000E+00  0.00000000000E+00  0.46375314830E+03  0.46375314833E+03  0.50400001928E-02 0.  1.
        1   -1    0    0  501    0  0.00000000000E+00  0.00000000000E+00 -0.17320601135E+04  0.17320601135E+04  0.50400001928E-02 0. -1.
    10030    2    1    2    0    0  0.00000000000E+00  0.00000000000E+00 -0.12683069652E+04  0.21958132618E+04  0.17924824470E+04 0.  0.
        4    1    3    3  502    0 -0.43319938523E+02  0.51174496138E+03 -0.15339225583E+04  0.16176153901E+04  0.12699999809E+01 0. -1.
       -4    1    3    3    0  502  0.43319938523E+02 -0.51174496138E+03  0.26561559316E+03  0.57819787167E+03  0.12699999809E+01 0.  1.
</event>
<event>
 5   0  0.3413839E-04  0.1817725E+04  0.7818609E-02  0.8696930E-01
        1   -1    0    0  501    0  0.00000000000E+00  0.00000000000E+00  0.83886055547E+03  0.83886055549E+03  0.50400001928E-02 0.  1.
       -1   -1    0    0    0  501  0.00000000000E+00  0.00000000000E+00 -0.98470632775E+03  0.98470632776E+03  0.50400001928E-02 0. -1.
    10030    2    1    2    0    0  0.00000000000E+00  0.00000000000E+00 -0.14584577227E+03  0.18235668832E+04  0.18177252786E+04 0.  0.
        5    1    3    3  502    0  0.31577406695E+03 -0.36418386324E+03 -0.84589630582E+03  0.97360453871E+03  0.46999998093E+01 0. -1.
       -5    1    3    3    0  502 -0.31577406695E+03  0.36418386324E+03  0.70005053355E+03  0.84996234453E+03  0.46999998093E+01 0.  1.
</event>
<event>
 5   0  0.6771967E-04  0.1783457E+04  0.7818609E-02  0.8715147E-01
       -2   -1    0    0    0  501  0.00000000000E+00  0.00000000000E+00  0.11956652846E+04  0.11956652846E+04  0.25500000920E-02 0.  1.
        2   -1    0    0  501    0  0.00000000000E+00  0.00000000000E+00 -0.66505221395E+03  0.66505221396E+03  0.25500000920E-02 0. -1.
    10030    2    1    2    0    0  0.00000000000E+00  0.00000000000E+00  0.53061307061E+03  0.18607174985E+04  0.17834571424E+04 0.  0.
        1    1    3    3  502    0  0.11142322839E+02 -0.43105678453E+03  0.10796620011E+04  0.11625851107E+04  0.50400001928E-02 0.  1.
       -1    1    3    3    0  502 -0.11142322839E+02  0.43105678453E+03 -0.54904893052E+03  0.69813238786E+03  0.50400001928E-02 0. -1.
</event>
<event>
 5   0  0.6929121E-04  0.1757443E+04  0.7818609E-02  0.8729264E-01
        2   -1    0    0  501    0  0.00000000000E+00  0.00000000000E+00  0.18665218087E+04  0.18665218087E+04  0.25500000920E-02 0. -1.
       -2   -1    0    0    0  501  0.00000000000E+00  0.00000000000E+00 -0.41368487512E+03  0.41368487512E+03  0.25500000920E-02 0.  1.
    10030    2    1    2    0    0  0.00000000000E+00  0.00000000000E+00  0.14528369336E+04  0.22802066838E+04  0.17574434174E+04 0.  0.
        3    1    3    3  502    0  0.46786646603E+03 -0.71650750674E+03  0.46734981907E+03  0.97503738433E+03  0.10100000352E+00 0.  1.
       -3    1    3    3    0  502 -0.46786646603E+03  0.71650750674E+03  0.98548711449E+03  0.13051692995E+04  0.10100000352E+00 0. -1.
</event>
<event>
 5   0  0.6547153E-04  0.1827263E+04  0.7818609E-02  0.8691934E-01
       -2   -1    0    0    0  501  0.00000000000E+00  0.00000000000E+00  0.57222442225E+03  0.57222442226E+03  0.25500000920E-02 0. -1.
        2   -1    0    0  501    0  0.00000000000E+00  0.00000000000E+00 -0.14587324727E+04  0.14587324727E+04  0.25500000920E-02 0.  1.
    10030    2    1    2    0    0  0.00000000000E+00  0.00000000000E+00 -0.88650805047E+03  0.20309568950E+04  0.18272628124E+04 0.  0.
        5    1    3    3  502    0  0.70912093573E+03  0.51758748782E+03 -0.72432964800E+03  0.11381673155E+04  0.46999998093E+01 0.  1.
       -5    1    3    3    0  502 -0.70912093573E+03 -0.51758748782E+03 -0.16217840247E+03  0.89278957950E+03  0.46999998093E+01 0. -1.
</event>
<event>
 5   0  0.3413839E-04  0.1110439E+04  0.7818609E-02  0.9195076E-01
       -1   -1    0    0    0  501  0.00000000000E+00  0.00000000000E+00  0.90134290390E+03  0.90134290392E+03  0.50400001928E-02 0. -1.
        1   -1    0    0  501    0  0.00000000000E+00  0.00000000000E+00 -0.34201065600E+03  0.34201065604E+03  0.50400001928E-02 0.  1.
    10030    2    1    2    0    0  0.00000000000E+00  0.00000000000E+00  0.55933224790E+03  0.12433535600E+04  0.11104393327E+04 0.  0.
        5    1    3    3  502    0 -0.26529541172E+03  0.27772886642E+03 -0.16923503044E+03  0.41973511201E+03  0.46999998093E+01 0.  1.
       -5    1    3    3    0  502  0.26529541172E+03 -0.27772886642E+03  0.72856727834E+03  0.82361844795E+03  0.46999998093E+01 0. -1.
</event>
<event>
 5   0  0.6929121E-04  0.1100253E+04  0.7818609E-02  0.9204945E-01
        2   -1    0    0  501    0  0.00000000000E+00  0.00000000000E+00  0.16237051449E+04  0.16237051449E+04  0.25500000920E-02 0. -1.
       -2   -1    0    0    0  501  0.00000000000E+00  0.00000000000E+00 -0.18638814536E+03  0.18638814538E+03  0.25500000920E-02 0.  1.
    10030    2    1    2    0    0  0.00000000000E+00  0.00000000000E+00  0.14373169995E+04  0.18100932903E+04  0.11002534083E+04 0.  0.
        3    1    3    3  502    0  0.22561281824E+03  0.48253204025E+03  0.49247996091E+03  0.72544802414E+03  0.10100000352E+00 0.  1.
       -3    1    3    3    0  502 -0.22561281824E+03 -0.48253204025E+03  0.94483703863E+03  0.10846452662E+04  0.10100000352E+00 0. -1.
</event>
<event>
 5   0  0.6774451E-04  0.1808006E+04  0.7818609E-02  0.8702053E-01
        2   -1    0    0  501    0  0.00000000000E+00  0.00000000000E+00  0.24475908467E+04  0.24475908467E+04  0.25500000920E-02 0.  1.
       -2   -1    0    0    0  501  0.00000000000E+00  0.00000000000E+00 -0.33388816869E+03  0.33388816870E+03  0.25500000920E-02 0. -1.
    10030    2    1    2    0    0  0.00000000000E+00  0.00000000000E+00  0.21137026780E+04  0.27814790154E+04  0.18080062229E+04 0.  0.
        4    1    3    3  502    0 -0.39717292748E+03 -0.31271447889E+02 -0.19154464593E+03  0.44205791709E+03  0.12699999809E+01 0. -1.
       -4    1    3    3    0  502  0.39717292748E+03  0.31271447889E+02  0.23052473240E+04  0.23394210983E+04  0.12699999809E+01 0.  1.
</event>
<event>
 5   0  0.6547153E-04  0.1495246E+04  0.7818609E-02  0.8887620E-01
        2   -1    0    0  501    0  0.00000000000E+00  0.00000000000E+00  0.17885200756E+04  0.17885200756E+04  0.25500000920E-02 0. -1.
       -2   -1    0    0    0  501  0.00000000000E+00  0.00000000000E+00 -0.31251547500E+03  0.31251547501E+03  0.25500000920E-02 0.  1.
    10030    2    1    2    0    0  0.00000000000E+00  0.00000000000E+00  0.14760046006E+04  0.21010355506E+04  0.14952460680E+04 0.  0.
        5    1    3    3  502    0  0.26719342554E+03 -0.24361905583E+03 -0.18145519816E+03  0.40458701160E+03  0.46999998093E+01 0.  1.
       -5    1    3    3    0  502 -0.26719342554E+03  0.24361905583E+03  0.16574597988E+04  0.16964485390E+04  0.46999998093E+01 0. -1.
</event>
<event>
 5   0  0.3413839E-04  0.1772760E+04  0.7818609E-02  0.8720921E-01
        1   -1    0    0  501    0  0.00000000000E+00  0.00000000000E+00  0.97105382679E+03  0.97105382680E+03  0.50400001928E-02 0. -1.
       -1   -1    0    0    0  501  0.00000000000E+00  0.00000000000E+00 -0.80908986084E+03  0.80908986086E+03  0.50400001928E-02 0.  1.
    10030    2    1    2    0    0  0.00000000000E+00  0.00000000000E+00  0.16196396594E+03  0.17801436877E+04  0.17727603398E+04 0.  0.
        5    1    3    3  502    0  0.99071554373E+02 -0.53596720977E+02 -0.80186110895E+03  0.80974755908E+03  0.46999998093E+01 0.  1.
       -5    1    3    3    0  502 -0.99071554373E+02  0.53596720977E+02  0.96382507489E+03  0.97039612858E+03  0.46999998093E+01 0. -1.
</event>
<event>
 5   0  0.6929121E-04  0.1789587E+04  0.7818609E-02  0.8711856E-01
       -2   -1    0    0    0  501  0.00000000000E+00  0.00000000000E+00  0.84928501535E+03  0.84928501535E+03  0.25500000920E-02 0. -1.
        2   -1    0    0  501    0  0.00000000000E+00  0.00000000000E+00 -0.94274083662E+03  0.94274083663E+03  0.25500000920E-02 0.  1.
    10030    2    1    2    0    0  0.00000000000E+00  0.00000000000E+00 -0.93455821275E+02  0.17920258520E+04  0.17895872886E+04 0.  0.
        3    1    3    3  502    0  0.66966538009E+03  0.31055455649E+03 -0.55314403780E+03  0.92242299983E+03  0.10100000352E+00 0.  1.
       -3    1    3    3    0  502 -0.66966538009E+03 -0.31055455649E+03  0.45968821653E+03  0.86960285215E+03  0.10100000352E+00 0. -1.
</event>
<event>
 5   0  0.6771967E-04  0.1724701E+04  0.7818609E-02  0.8747401E-01
       -2   -1    0    0    0  501  0.00000000000E+00  0.00000000000E+00  0.41277516564E+03  0.41277516565E+03  0.25500000920E-02 0. -1.
        2   -1    0    0  501    0  0.00000000000E+00  0.00000000000E+00 -0.18015823167E+04  0.18015823167E+04  0.25500000920E-02 0.  1.
    10030    2    1    2    0    0  0.00000000000E+00  0.00000000000E+00 -0.13888071511E+04  0.22143574824E+04  0.17247010630E+04 0.  0.
        1    1    3    3  502    0 -0.56973433338E+03 -0.17455265664E+03  0.10593836713E+03  0.60521795928E+03  0.50400001928E-02 0. -1.
       -1    1    3    3    0  502  0.56973433338E+03  0.17455265664E+03 -0.14947455182E+04  0.16091395231E+04  0.50400001928E-02 0.  1.
</event>
<event>
 5   0  0.6774451E-04  0.1685620E+04  0.7818609E-02  0.8769608E-01
       -2   -1    0    0    0  501  0.00000000000E+00  0.00000000000E+00  0.74135852829E+03  0.74135852830E+03  0.25500000920E-02 0. -1.
        2   -1    0    0  501    0  0.00000000000E+00  0.00000000000E+00 -0.95814507830E+03  0.95814507831E+03  0.25500000920E-02 0.  1.
    10030    2    1    2    0    0  0.00000000000E+00  0.00000000000E+00 -0.21678655001E+03  0.16995036066E+04  0.16856203904E+04 0.  0.
        4    1    3    3  502    0  0.65672792887E+02 -0.60701616644E+03 -0.69416541709E+03  0.92447216358E+03  0.12699999809E+01 0.  1.
       -4    1    3    3    0  502 -0.65672792887E+02  0.60701616644E+03  0.47737886708E+03  0.77503144303E+03  0.12699999809E+01 0. -1.
</event>
<event>
 5   0  0.6771967E-04  0.1791116E+04  0.7818609E-02  0.8711038E-01
       -2   -1    0    0    0  501  0.00000000000E+00  0.00000000000E+00  0.66512393750E+03  0.66512393750E+03  0.25500000920E-02 0.  1.
        2   -1    0    0  501    0  0.00000000000E+00  0.00000000000E+00 -0.12058261230E+04  0.12058261230E+04  0.25500000920E-02 0. -1.
    10030    2    1    2    0    0  0.00000000000E+00  0.00000000000E+00 -0.54070218549E+03  0.18709500605E+04  0.17911156511E+04 0.  0.
        1    1    3    3  502    0  0.89255525084E+03 -0.70803386233E+02 -0.29005516108E+03  0.94116948091E+03  0.50400001928E-02 0. -1.
       -1    1    3    3    0  502 -0.89255525084E+03  0.70803386233E+02 -0.25064702441E+03  0.92978057959E+03  0.50400001928E-02 0.  1.
</event>
<event>
 5   0  0.6929121E-04  0.1839293E+04  0.7818609E-02  0.8685678E-01
        2   -1    0    0  501    0  0.00000000000E+00  0.00000000000E+00  0.82299044433E+03  0.82299044433E+03  0.25500000920E-02 0.  1.
       -2   -1    0    0    0  501  0.00000000000E+00  0.00000000000E+00 -0.10276548586E+04  0.10276548586E+04  0.25500000920E-02 0. -1.
    10030    2    1    2    0    0  0.00000000000E+00  0.00000000000E+00 -0.20466441431E+03  0.18506453030E+04  0.18392934825E+04 0.  0.
        3    1    3    3  502    0  0.50245357432E+03  0.31301932357E+03 -0.81045806669E+03  0.10036348835E+04  0.10100000352E+00 0. -1.
       -3    1    3    3    0  502 -0.50245357432E+03 -0.31301932357E+03  0.60579365238E+03  0.84701041950E+03  0.10100000352E+00 0.  1.
</event>
<event>
 5   0  0.6853162E-04  0.1661574E+04  0.7818609E-02  0.8783589E-01
       -2   -1    0    0    0  501  0.00000000000E+00  0.00000000000E+00  0.39472602461E+03  0.39472602462E+03  0.25500000920E-02 0. -1.
        2   -1    0    0  501    0  0.00000000000E+00  0.00000000000E+00 -0.17485728230E+04  0.17485728230E+04  0.25500000920E-02 0.  1.
    10030    2    1    2    0    0  0.00000000000E+00  0.00000000000E+00 -0.13538467984E+04  0.21432988476E+04  0.16615741923E+04 0.  0.
        2    1    3    3  502    0 -0.22459884470E+03 -0.68603575220E+03 -0.12073890576E+04  0.14067259970E+04  0.25500000920E-02 0. -1.
       -2    1    3    3    0  502  0.22459884470E+03  0.68603575220E+03 -0.14645774075E+03  0.73657285055E+03  0.25500000920E-02 0.  1.
</event>
<event>
 5   0  0.6771967E-04  0.1858488E+04  0.7818609E-02  0.8675800E-01
       -2   -1    0    0    0  501  0.00000000000E+00  0.00000000000E+00  0.83259091847E+03  0.83259091848E+03  0.25500000920E-02 0.  1.
        2   -1    0    0  501    0  0.00000000000E+00  0.00000000000E+00 -0.10371176077E+04  0.10371176077E+04  0.25500000920E-02 0. -1.
    10030    2    1    2    0    0  0.00000000000E+00  0.00000000000E+00 -0.20452668920E+03  0.18697085261E+04  0.18584883121E+04 0.  0.
        1    1    3    3  502    0  0.31895771934E+03  0.82127390178E+03  0.19493487035E+03  0.90234386582E+03  0.50400001928E-02 0.  1.
       -1    1    3    3    0  502 -0.31895771934E+03 -0.82127390178E+03 -0.39946155955E+03  0.96736466033E+03  0.50400001928E-02 0. -1.
</event>
<event>
 5   0  0.6853162E-04  0.1990058E+04  0.7818609E-02  0.8611283E-01
       -2   -1    0    0    0  501  0.00000000000E+00  0.00000000000E+00  0.18702803237E+04  0.18702803237E+04  0.25500000920E-02 0. -1.
        2   -1    0    0  501    0  0.00000000000E+00  0.00000000000E+00 -0.52937684509E+03  0.52937684510E+03  0.25500000920E-02 0.  1.
    10030    2    1    2    0    0  0.00000000000E+00  0.00000000000E+00  0.13409034786E+04  0.23996571688E+04  0.19900583883E+04 0.  0.
        2    1    3    3  502    0 -0.44714888985E+03  0.67915817414E+03  0.13619729540E+04  0.15862434500E+04  0.25500000920E-02 0. -1.
       -2    1    3    3    0  502  0.44714888985E+03 -0.67915817414E+03 -0.21069475372E+02  0.81341371883E+03  0.25500000920E-02 0.  1.
</event>
<event>
 5   0  0.3404261E-04  0.1851661E+04  0.7818609E-02  0.8679299E-01
       -1   -1    0    0    0  501  0.00000000000E+00  0.00000000000E+00  0.12189492614E+04  0.12189492614E+04  0.50400001928E-02 0.  1.
        1   -1    0    0  501    0  0.00000000000E+00  0.00000000000E+00 -0.70319773294E+03  0.70319773295E+03  0.50400001928E-02 0. -1.
    10030    2    1    2    0    0  0.00000000000E+00  0.00000000000E+00  0.51575152843E+03  0.19221469943E+04  0.18516612619E+04 0.  0.
        1    1    3    3  502    0 -0.79537371729E+03 -0.46969731205E+03  0.19282087382E+03  0.94361793354E+03  0.50400001928E-02 0.  1.
       -1    1    3    3    0  502  0.79537371729E+03  0.46969731205E+03  0.32293065461E+03  0.97852906079E+03  0.50400001928E-02 0. -1.
</event>
<event>
 5   0  0.3377273E-04  0.1733925E+04  0.7818609E-02  0.8742249E-01
        1   -1    0    0  501    0  0.00000000000E+00  0.00000000000E+00  0.14796435426E+04  0.14796435426E+04  0.50400001928E-02 0.  1.
       -1   -1    0    0    0  501  0.00000000000E+00  0.00000000000E+00 -0.50797660734E+03  0.50797660736E+03  0.50400001928E-02 0. -1.
    10030    2    1    2    0    0  0.00000000000E+00  0.00000000000E+00  0.97166693530E+03  0.19876201500E+04  0.17339253812E+04 0.  0.
        2    1    3    3  502    0 -0.77833241280E+03 -0.29413936028E+03  0.20667639352E+03  0.85734149539E+03  0.25500000920E-02 0. -1.
       -2    1    3    3    0  502  0.77833241280E+03  0.29413936028E+03  0.76499054178E+03  0.11302786546E+04  0.25500000920E-02 0.  1.
</event>
<event>
 5   0  0.3470962E-04  0.1755903E+04  0.7818609E-02  0.8730108E-01
       -1   -1    0    0    0  501  0.00000000000E+00  0.00000000000E+00  0.71094755866E+03  0.71094755868E+03  0.50400001928E-02 0.  1.
        1   -1    0    0  501    0  0.00000000000E+00  0.00000000000E+00 -0.10841847654E+04  0.10841847654E+04  0.50400001928E-02 0. -1.
    10030    2    1    2    0    0  0.00000000000E+00  0.00000000000E+00 -0.37323720674E+03  0.17951323241E+04  0.17559026307E+04 0.  0.
        4    1    3    3  502    0  0.16610722603E+03 -0.25260158831E+03  0.65605246254E+03  0.72236114199E+03  0.12699999809E+01 0.  1.
       -4    1    3    3    0  502 -0.16610722603E+03  0.25260158831E+03 -0.10292896693E+04  0.10727711821E+04  0.12699999809E+01 0. -1.
</event>
<event>
 5   0  0.3413839E-04  0.1700230E+04  0.7818609E-02  0.8761233E-01
       -1   -1    0    0    0  501  0.00000000000E+00  0.00000000000E+00  0.38125171618E+03  0.38125171622E+03  0.50400001928E-02 0. -1.
        1   -1    0    0  501    0  0.00000000000E+00  0.00000000000E+00 -0.18955869340E+04  0.18955869340E+04  0.50400001928E-02 0.  1.
    10030    2    1    2    0    0  0.00000000000E+00  0.00000000000E+00 -0.15143352178E+04  0.22768386502E+04  0.17002303042E+04 0.  0.
        5    1    3    3  502    0 -0.36603887668E+03  0.97255110750E+02  0.26201094346E+03  0.46055926904E+03  0.46999998093E+01 0. -1.
       -5    1    3    3    0  502  0.36603887668E+03 -0.97255110750E+02 -0.17763461613E+04  0.18162793812E+04  0.46999998093E+01 0.  1.
</event>
<event>
 5   0  0.6929121E-04  0.1784747E+04  0.7818609E-02  0.8714453E-01
        2   -1    0    0  501    0  0.00000000000E+00  0.00000000000E+00  0.25088597142E+04  0.25088597142E+04  0.25500000920E-02 0.  1.
       -2   -1    0    0    0  501  0.00000000000E+00  0.00000000000E+00 -0.31740719990E+03  0.31740719991E+03  0.25500000920E-02 0. -1.
    10030    2    1    2    0    0  0.00000000000E+00  0.00000000000E+00  0.21914525143E+04  0.28262669141E+04  0.17847466339E+04 0.  0.
        3    1    3    3  502    0 -0.80051476000E+03 -0.27308646431E+03  0.64522972725E+03  0.10638240029E+04  0.10100000352E+00 0. -1.
       -3    1    3    3    0  502  0.80051476000E+03  0.27308646431E+03  0.15462227871E+04  0.17624429112E+04  0.10100000352E+00 0.  1.
</event>
<event>
 5   0  0.2467375E-04  0.1809391E+04  0.7818609E-02  0.8701322E-01
       -3   -1    0    0    0  501  0.00000000000E+00  0.00000000000E+00  0.45705314809E+03  0.45705315925E+03  0.10100000352E+00 0. -1.
        3   -1    0    0  501    0  0.00000000000E+00  0.00000000000E+00 -0.17907623536E+04  0.17907623564E+04  0.10100000352E+00 0.  1.
    10030    2    1    2    0    0  0.00000000000E+00  0.00000000000E+00 -0.13337092055E+04  0.22478155157E+04  0.18093906012E+04 0.  0.
        5    1    3    3  502    0  0.35466379125E+03 -0.77232689550E+03 -0.28158719239E+03  0.89531484699E+03  0.46999998093E+01 0. -1.
       -5    1    3    3    0  502 -0.35466379125E+03  0.77232689550E+03 -0.10521220131E+04  0.13525006687E+04  0.46999998093E+01 0.  1.
</event>
<event>
 5   0  0.6929121E-04  0.1839287E+04  0.7818609E-02  0.8685681E-01
        2   -1    0    0  501    0  0.00000000000E+00  0.00000000000E+00  0.11996954553E+04  0.11996954553E+04  0.25500000920E-02 0.  1.
       -2   -1    0    0    0  501  0.00000000000E+00  0.00000000000E+00 -0.70496598359E+03  0.70496598359E+03  0.25500000920E-02 0. -1.
    10030    2    1    2    0    0  0.00000000000E+00  0.00000000000E+00  0.49472947168E+03  0.19046614389E+04  0.18392873475E+04 0.  0.
        3    1    3    3  502    0  0.80882456324E+03 -0.43758041775E+03  0.25607071292E+03  0.95459206801E+03  0.10100000352E+00 0.  1.
       -3    1    3    3    0  502 -0.80882456324E+03  0.43758041775E+03  0.23865875876E+03  0.95006937085E+03  0.10100000352E+00 0. -1.
</event>
<event>
 5   0  0.3308275E-04  0.1700931E+04  0.7818609E-02  0.8760834E-01
       -1   -1    0    0    0  501  0.00000000000E+00  0.00000000000E+00  0.36310561297E+03  0.36310561301E+03  0.50400001928E-02 0. -1.
        1   -1    0    0  501    0  0.00000000000E+00  0.00000000000E+00 -0.19919592359E+04  0.19919592359E+04  0.50400001928E-02 0.  1.
    10030    2    1    2    0    0  0.00000000000E+00  0.00000000000E+00 -0.16288536229E+04  0.23550648489E+04  0.17009310150E+04 0.  0.
        3    1    3    3  502    0  0.59864253975E+03 -0.59637670375E+02 -0.16467412470E+04  0.17531931687E+04  0.10100000352E+00 0.  1.
       -3    1    3    3    0  502 -0.59864253975E+03  0.59637670375E+02  0.17887624048E+02  0.60187168020E+03  0.10100000352E+00 0. -1.
</event>
<event>
 5   0  0.3470962E-04  0.1831351E+04  0.7818609E-02  0.8689803E-01
        1   -1    0    0  501    0  0.00000000000E+00  0.00000000000E+00  0.11676419635E+04  0.11676419635E+04  0.50400001928E-02 0. -1.
       -1   -1    0    0    0  501  0.00000000000E+00  0.00000000000E+00 -0.71808139044E+03  0.71808139046E+03  0.50400001928E-02 0.  1.
    10030    2    1    2    0    0  0.00000000000E+00  0.00000000000E+00  0.44956057308E+03  0.18857233540E+04  0.18313513751E+04 0.  0.
        4    1    3    3  502    0 -0.67193485764E+03 -0.50349859968E+03  0.60093851584E+03  0.10325386218E+04  0.12699999809E+01 0. -1.
       -4    1    3    3    0  502  0.67193485764E+03  0.50349859968E+03 -0.15137794276E+03  0.85318473219E+03  0.12699999809E+01 0.  1.
</event>
<event>
 5   0  0.3413839E-04  0.1664151E+04  0.7818609E-02  0.8782079E-01
        1   -1    0    0  501    0  0.00000000000E+00  0.00000000000E+00  0.15859876907E+04  0.15859876907E+04  0.50400001928E-02 0.  1.
       -1   -1    0    0    0  501  0.00000000000E+00  0.00000000000E+00 -0.43654159666E+03  0.43654159669E+03  0.50400001928E-02 0. -1.
    10030    2    1    2    0    0  0.00000000000E+00  0.00000000000E+00  0.11494460940E+04  0.20225292874E+04  0.16641509533E+04 0.  0.
        5    1    3    3  502    0 -0.41283451550E+03  0.38220057669E+03 -0.17033622970E+03  0.58783172691E+03  0.46999998093E+01 0. -1.
       -5    1    3    3    0  502  0.41283451550E+03 -0.38220057669E+03  0.13197823237E+04  0.14346975605E+04  0.46999998093E+01 0.  1.
</event>
<event>
 5   0  0.6774451E-04  0.1744908E+04  0.7818609E-02  0.8736158E-01
        2   -1    0    0  501    0  0.00000000000E+00  0.00000000000E+00  0.14979163200E+04  0.14979163200E+04  0.25500000920E-02 0.  1.
       -2   -1    0    0    0  501  0.00000000000E+00  0.00000000000E+00 -0.50815639220E+03  0.50815639221E+03  0.25500000920E-02 0. -1.
    10030    2    1    2    0    0  0.00000000000E+00  0.00000000000E+00  0.98975992780E+03  0.20060727122E+04  0.17449077374E+04 0.  0.
        4    1    3    3  502    0  0.69956365369E+03  0.50287166967E+03  0.65295438696E+03  0.10810274123E+04  0.12699999809E+01 0.  1.
       -4    1    3    3    0  502 -0.69956365369E+03 -0.50287166967E+03  0.33680554084E+03  0.92504529995E+03  0.12699999809E+01 0. -1.
</event>
<event>
 5   0  0.6774451E-04  0.1816593E+04  0.7818609E-02  0.8697525E-01
        2   -1    0    0  501    0  0.00000000000E+00  0.00000000000E+00  0.84805048560E+03  0.84805048561E+03  0.25500000920E-02 0.  1.
       -2   -1    0    0    0  501  0.00000000000E+00  0.00000000000E+00 -0.97282255256E+03  0.97282255257E+03  0.25500000920E-02 0. -1.
    10030    2    1    2    0    0  0.00000000000E+00  0.00000000000E+00 -0.12477206696E+03  0.18208730382E+04  0.18165931169E+04 0.  0.
        4    1    3    3  502    0 -0.18554010488E+03 -0.19758844384E+03 -0.93133950044E+03  0.96998000064E+03  0.12699999809E+01 0. -1.
       -4    1    3    3    0  502  0.18554010488E+03  0.19758844384E+03  0.80656743348E+03  0.85089303753E+03  0.12699999809E+01 0.  1.
</event>
<event>
 5   0  0.6929121E-04  0.1816783E+04  0.7818609E-02  0.8697425E-01
       -2   -1    0    0    0  501  0.00000000000E+00  0.00000000000E+00  0.87357443523E+03  0.87357443524E+03  0.25500000920E-02 0.  1.
        2   -1    0    0  501    0  0.00000000000E+00  0.00000000000E+00 -0.94459652332E+03  0.94459652332E+03  0.25500000920E-02 0. -1.
    10030    2    1    2    0    0  0.00000000000E+00  0.00000000000E+00 -0.71022088083E+02  0.18181709586E+04  0.18167832830E+04 0.  0.
        3    1    3    3  502    0 -0.90539286370E+03 -0.54663135686E+02 -0.85057122229E+02  0.91102086710E+03  0.10100000352E+00 0. -1.
       -3    1    3    3    0  502  0.90539286370E+03  0.54663135686E+02  0.14035034146E+02  0.90715009146E+03  0.10100000352E+00 0.  1.
</event>
<event>
 5   0  0.3404261E-04  0.1835343E+04  0.7818609E-02  0.8687727E-01
        1   -1    0    0  501    0  0.00000000000E+00  0.00000000000E+00  0.13078307363E+04  0.13078307363E+04  0.50400001928E-02 0.  1.
       -1   -1    0    0    0  501  0.00000000000E+00  0.00000000000E+00 -0.64390635905E+03  0.64390635907E+03  0.50400001928E-02 0. -1.
    10030    2    1    2    0    0  0.00000000000E+00  0.00000000000E+00  0.66392437727E+03  0.19517370954E+04  0.18353425051E+04 0.  0.
        1    1    3    3  502    0 -0.11865203222E+03 -0.41948979040E+02 -0.63468607006E+03  0.64704283408E+03  0.50400001928E-02 0. -1.
       -1    1    3    3    0  502  0.11865203222E+03  0.41948979040E+02  0.12986104473E+04  0.13046942613E+04  0.50400001928E-02 0.  1.
</event>
<event>
 5   0  0.6774451E-04  0.1842805E+04  0.7818609E-02  0.8683862E-01
        2   -1    0    0  501    0  0.00000000000E+00  0.00000000000E+00  0.17418536642E+04  0.17418536642E+04  0.25500000920E-02 0.  1.
       -2   -1    0    0    0  501  0.00000000000E+00  0.00000000000E+00 -0.48740176362E+03  0.48740176363E+03  0.25500000920E-02 0. -1.
    10030    2    1    2    0    0  0.00000000000E+00  0.00000000000E+00  0.12544519005E+04  0.22292554278E+04  0.18428049793E+04 0.  0.
        4    1    3    3  502    0 -0.29543695086E+03  0.87048951355E+03  0.55123598656E+03  0.10718664613E+04  0.12699999809E+01 0.  1.
       -4    1    3    3    0  502  0.29543695086E+03 -0.87048951355E+03  0.70321591397E+03  0.11573889665E+04  0.12699999809E+01 0. -1.
</event>
<event>
 5   0  0.3470962E-04  0.1814784E+04  0.7818609E-02  0.8698477E-01
        1   -1    0    0  501    0  0.00000000000E+00  0.00000000000E+00  0.15835212291E+04  0.15835212291E+04  0.50400001928E-02 0.  1.
       -1   -1    0    0    0  501  0.00000000000E+00  0.00000000000E+00 -0.51995527447E+03  0.51995527449E+03  0.50400001928E-02 0. -1.
    10030    2    1    2    0    0  0.00000000000E+00  0.00000000000E+00  0.10635659546E+04  0.21034765036E+04  0.18147839710E+04 0.  0.
        4    1    3    3  502    0  0.38735788937E+03 -0.20430866816E+02  0.14825768985E+04  0.15324814608E+04  0.12699999809E+01 0.  1.
       -4    1    3    3    0  502 -0.38735788937E+03  0.20430866816E+02 -0.41901094395E+03  0.57099504274E+03  0.12699999809E+01 0. -1.
</event>
<event>
 5   0  0.6771967E-04  0.1817324E+04  0.7818609E-02  0.8697141E-01
        2   -1    0    0  501    0  0.00000000000E+00  0.00000000000E+00  0.90344872038E+03  0.90344872039E+03  0.25500000920E-02 0.  1.
       -2   -1    0    0    0  501  0.00000000000E+00  0.00000000000E+00 -0.91390489368E+03  0.91390489368E+03  0.25500000920E-02 0. -1.
    10030    2    1    2    0    0  0.00000000000E+00  0.00000000000E+00 -0.10456173294E+02  0.18173536141E+04  0.18173235339E+04 0.  0.
        1    1    3    3  502    0 -0.35562933809E+03  0.53725389184E+03  0.63552602161E+03  0.90499021795E+03  0.50400001928E-02 0. -1.
       -1    1    3    3    0  502  0.35562933809E+03 -0.53725389184E+03 -0.64598219491E+03  0.91236339612E+03  0.50400001928E-02 0.  1.
</event>
<event>
 5   0  0.6547153E-04  0.1800596E+04  0.7818609E-02  0.8705983E-01
        2   -1    0    0  501    0  0.00000000000E+00  0.00000000000E+00  0.21929389427E+04  0.21929389427E+04  0.25500000920E-02 0.  1.
       -2   -1    0    0    0  501  0.00000000000E+00  0.00000000000E+00 -0.36961179171E+03  0.36961179172E+03  0.25500000920E-02 0. -1.
    10030    2    1    2    0    0  0.00000000000E+00  0.00000000000E+00  0.18233271510E+04  0.25625507345E+04  0.18005955590E+04 0.  0.
        5    1    3    3  502    0  0.12982262918E+02 -0.62483592882E+03  0.18339003473E+04  0.19374728516E+04  0.46999998093E+01 0.  1.
       -5    1    3    3    0  502 -0.12982262918E+02  0.62483592882E+03 -0.10573196262E+02  0.62507788281E+03  0.46999998093E+01 0. -1.
</event>
<event>
 5   0  0.3404261E-04  0.1885998E+04  0.7818609E-02  0.8661858E-01
        1   -1    0    0  501    0  0.00000000000E+00  0.00000000000E+00  0.13616435544E+04  0.13616435544E+04  0.50400001928E-02 0. -1.
       -1   -1    0    0    0  501  0.00000000000E+00  0.00000000000E+00 -0.65306867063E+03  0.65306867065E+03  0.50400001928E-02 0.  1.
    10030    2    1    2    0    0  0.00000000000E+00  0.00000000000E+00  0.70857488373E+03  0.20147122250E+04  0.18859976097E+04 0.  0.
        1    1    3    3  502    0  0.54243646012E+03 -0.69985197381E+03  0.77787656100E+01  0.88548890887E+03  0.50400001928E-02 0.  1.
       -1    1    3    3    0  502 -0.54243646012E+03  0.69985197381E+03  0.70079611812E+03  0.11292233161E+04  0.50400001928E-02 0. -1.
</event>
<event>
 5   0  0.3404261E-04  0.1805279E+04  0.7818609E-02  0.8703497E-01
        1   -1    0    0  501    0  0.00000000000E+00  0.00000000000E+00  0.82452503757E+03  0.82452503758E+03  0.50400001928E-02 0.  1.
       -1   -1    0    0    0  501  0.00000000000E+00  0.00000000000E+00 -0.98815433493E+03  0.98815433494E+03  0.50400001928E-02 0. -1.
    10030    2    1    2    0    0  0.00000000000E+00  0.00000000000E+00 -0.16362929736E+03  0.18126793725E+04  0.18052789149E+04 0.  0.
        1    1    3    3  502    0 -0.73167206666E+03  0.42583477352E+03  0.23264439078E+03  0.87795368902E+03  0.50400001928E-02 0. -1.
       -1    1    3    3    0  502  0.73167206666E+03 -0.42583477352E+03 -0.39627368814E+03  0.93472568351E+03  0.50400001928E-02 0.  1.
</event>
<event>
 5   0  0.3470962E-04  0.1828491E+04  0.7818609E-02  0.8691293E-01
       -1   -1    0    0    0  501  0.00000000000E+00  0.00000000000E+00  0.73185429594E+03  0.73185429596E+03  0.50400001928E-02 0. -1.
        1   -1    0    0  501    0  0.00000000000E+00  0.00000000000E+00 -0.11420917576E+04  0.11420917576E+04  0.50400001928E-02 0.  1.
    10030    2    1    2    0    0  0.00000000000E+00  0.00000000000E+00 -0.41023746168E+03  0.18739460536E+04  0.18284909179E+04 0.  0.
        4    1    3    3  502    0 -0.89921401701E+03  0.88168003832E+02 -0.62064731022E+02  0.90565616490E+03  0.12699999809E+01 0. -1.
       -4    1    3    3    0  502  0.89921401701E+03 -0.88168003832E+02 -0.34817273066E+03  0.96828988870E+03  0.12699999809E+01 0.  1.
</event>
<event>
 5   0  0.6774451E-04  0.1811807E+04  0.7818609E-02  0.8700046E-01
        2   -1    0    0  501    0  0.00000000000E+00  0.00000000000E+00  0.21566588913E+04  0.21566588913E+04  0.25500000920E-02 0. -1.
       -2   -1    0    0    0  501  0.00000000000E+00  0.00000000000E+00 -0.38052429067E+03  0.38052429068E+03  0.25500000920E-02 0.  1.
    10030    2    1    2    0    0  0.00000000000E+00  0.00000000000E+00  0.17761346006E+04  0.25371831820E+04  0.18118069377E+04 0.  0.
        4    1    3    3  502    0 -0.90354848806E+03  0.61506121440E+02  0.85749550926E+03  0.12471900555E+04  0.12699999809E+01 0.  1.
       -4    1    3    3    0  502  0.90354848806E+03 -0.61506121440E+02  0.91863909134E+03  0.12899931265E+04  0.12699999809E+01 0. -1.
</event>
<event>
 5   0  0.3404261E-04  0.1427896E+04  0.7818609E-02  0.8933870E-01
        1   -1    0    0  501    0  0.00000000000E+00  0.00000000000E+00  0.73171839383E+03  0.73171839385E+03  0.50400001928E-02 0.  1.
       -1   -1    0    0    0  501  0.00000000000E+00  0.00000000000E+00 -0.69660920622E+03  0.69660920624E+03  0.50400001928E-02 0. -1.
    10030    2    1    2    0    0  0.00000000000E+00  0.00000000000E+00  0.35109187616E+02  0.14283276001E+04  0.14278960320E+04 0.  0.
        1    1    3    3  502    0  0.37813909854E+03 -0.17419659156E+03  0.59771966529E+03  0.72842462112E+03  0.50400001928E-02 0.  1.
       -1    1    3    3    0  502 -0.37813909854E+03  0.17419659156E+03 -0.56261047767E+03  0.69990297897E+03  0.50400001928E-02 0. -1.
</event>
<event>
 5   0  0.6771967E-04  0.1788337E+04  0.7818609E-02  0.8712527E-01
        2   -1    0    0  501    0  0.00000000000E+00  0.00000000000E+00  0.18099171563E+04  0.18099171563E+04  0.25500000920E-02 0. -1.
       -2   -1    0    0    0  501  0.00000000000E+00  0.00000000000E+00 -0.44175335288E+03  0.44175335288E+03  0.25500000920E-02 0.  1.
    10030    2    1    2    0    0  0.00000000000E+00  0.00000000000E+00  0.13681638035E+04  0.22516705092E+04  0.17883366263E+04 0.  0.
        1    1    3    3  502    0 -0.10202032675E+03 -0.48492977349E+03 -0.25304725906E+03  0.55641526545E+03  0.50400001928E-02 0.  1.
       -1    1    3    3    0  502  0.10202032675E+03  0.48492977349E+03  0.16212110625E+04  0.16952552438E+04  0.50400001928E-02 0. -1.
</event>
<event>
 5   0  0.2467375E-04  0.1760071E+04  0.7818609E-02  0.8727826E-01
       -3   -1    0    0    0  501  0.00000000000E+00  0.00000000000E+00  0.14489577900E+04  0.14489577935E+04  0.10100000352E+00 0.  1.
        3   -1    0    0  501    0  0.00000000000E+00  0.00000000000E+00 -0.53449610346E+03  0.53449611300E+03  0.10100000352E+00 0. -1.
    10030    2    1    2    0    0  0.00000000000E+00  0.00000000000E+00  0.91446168650E+03  0.19834539065E+04  0.17600708006E+04 0.  0.
        1    1    3    3  502    0 -0.71415483283E+03  0.26678646413E+03 -0.38190121594E+02  0.76331554950E+03  0.50400001928E-02 0. -1.
       -1    1    3    3    0  502  0.71415483283E+03 -0.26678646413E+03  0.95265180810E+03  0.12201383570E+04  0.50400001928E-02 0.  1.
</event>
<event>
 5   0  0.3413839E-04  0.1837648E+04  0.7818609E-02  0.8686531E-01
        1   -1    0    0  501    0  0.00000000000E+00  0.00000000000E+00  0.88967263844E+03  0.88967263845E+03  0.50400001928E-02 0.  1.
       -1   -1    0    0    0  501  0.00000000000E+00  0.00000000000E+00 -0.94893045296E+03  0.94893045297E+03  0.50400001928E-02 0. -1.
    10030    2    1    2    0    0  0.00000000000E+00  0.00000000000E+00 -0.59257814522E+02  0.18386030914E+04  0.18376479095E+04 0.  0.
        5    1    3    3  502    0  0.65714466138E+03 -0.18610193014E+03  0.58529802103E+03  0.89948257226E+03  0.46999998093E+01 0.  1.
       -5    1    3    3    0  502 -0.65714466138E+03  0.18610193014E+03 -0.64455583555E+03  0.93912051917E+03  0.46999998093E+01 0. -1.
</event>
<event>
 5   0  0.6929121E-04  0.1879963E+04  0.7818609E-02  0.8664895E-01
       -2   -1    0    0    0  501  0.00000000000E+00  0.00000000000E+00  0.72184729502E+03  0.72184729502E+03  0.25500000920E-02 0. -1.
        2   -1    0    0  501    0  0.00000000000E+00  0.00000000000E+00 -0.12240338695E+04  0.12240338695E+04  0.25500000920E-02 0.  1.
    10030    2    1    2    0    0  0.00000000000E+00  0.00000000000E+00 -0.50218657453E+03  0.19458811646E+04  0.18799633377E+04 0.  0.
        3    1    3    3  502    0  0.38011164994E+03 -0.84578368729E+03 -0.91644421164E+02  0.93179054633E+03  0.10100000352E+00 0.  1.
       -3    1    3    3    0  502 -0.38011164994E+03  0.84578368729E+03 -0.41054215336E+03  0.10140906182E+04  0.10100000352E+00 0. -1.
</event>
<event>
 5   0  0.3404261E-04  0.1819328E+04  0.7818609E-02  0.8696088E-01
       -1   -1    0    0    0  501  0.00000000000E+00  0.00000000000E+00  0.48595579138E+03  0.48595579141E+03  0.50400001928E-02 0. -1.
        1   -1    0    0  501    0  0.00000000000E+00  0.00000000000E+00 -0.17028057656E+04  0.17028057656E+04  0.50400001928E-02 0.  1.
    10030    2    1    2    0    0  0.00000000000E+00  0.00000000000E+00 -0.12168499743E+04  0.21887615571E+04  0.18193277038E+04 0.  0.
        1    1    3    3  502    0  0.44893768472E+02 -0.35256586284E+02 -0.17006489180E+04  0.17016066583E+04  0.50400001928E-02 0.  1.
       -1    1    3    3    0  502 -0.44893768472E+02  0.35256586284E+02  0.48379894376E+03  0.48715489871E+03  0.50400001928E-02 0. -1.
</event>
<event>
 5   0  0.3413839E-04  0.1624205E+04  0.7818609E-02  0.8805814E-01
        1   -1    0    0  501    0  0.00000000000E+00  0.00000000000E+00  0.11435389587E+04  0.11435389587E+04  0.50400001928E-02 0.  1.
       -1   -1    0    0    0  501  0.00000000000E+00  0.00000000000E+00 -0.57672782296E+03  0.57672782298E+03  0.50400001928E-02 0. -1.
    10030    2    1    2    0    0  0.00000000000E+00  0.00000000000E+00  0.56681113570E+03  0.17202667816E+04  0.16242053246E+04 0.  0.
        5    1    3    3  502    0  0.68305325789E+03 -0.43773238077E+03  0.32184611937E+03  0.87279917784E+03  0.46999998093E+01 0.  1.
       -5    1    3    3    0  502 -0.68305325789E+03  0.43773238077E+03  0.24496501633E+03  0.84746760381E+03  0.46999998093E+01 0. -1.
</event>
<event>
 5   0  0.6547153E-04  0.1811602E+04  0.7818609E-02  0.8700154E-01
       -2   -1    0    0    0  501  0.00000000000E+00  0.00000000000E+00  0.98321518705E+03  0.98321518705E+03  0.25500000920E-02 0.  1.
        2   -1    0    0  501    0  0.00000000000E+00  0.00000000000E+00 -0.83448228120E+03  0.83448228120E+03  0.25500000920E-02 0. -1.
    10030    2    1    2    0    0  0.00000000000E+00  0.00000000000E+00  0.14873290585E+03  0.18176974683E+04  0.18116022215E+04 0.  0.
        5    1    3    3  502    0 -0.42457417542E+02 -0.15238089257E+03 -0.82050367771E+03  0.83562607897E+03  0.46999998093E+01 0. -1.
       -5    1    3    3    0  502  0.42457417542E+02  0.15238089257E+03  0.96923658356E+03  0.98207138928E+03  0.46999998093E+01 0.  1.
</event>
<event>
 5   0  0.3404261E-04  0.1884132E+04  0.7818609E-02  0.8662795E-01
       -1   -1    0    0    0  501  0.00000000000E+00  0.00000000000E+00  0.11719895439E+04  0.11719895440E+04  0.50400001928E-02 0.  1.
        1   -1    0    0  501    0  0.00000000000E+00  0.00000000000E+00 -0.75724944387E+03  0.75724944389E+03  0.50400001928E-02 0. -1.
    10030    2    1    2    0    0  0.00000000000E+00  0.00000000000E+00  0.41474010008E+03  0.19292389878E+04  0.18841320871E+04 0.  0.
        1    1    3    3  502    0  0.40255286821E+03  0.32798757908E+03 -0.59749125414E+03  0.79159362209E+03  0.50400001928E-02 0. -1.
       -1    1    3    3    0  502 -0.40255286821E+03 -0.32798757908E+03  0.10122313542E+04  0.11376453658E+04  0.50400001928E-02 0.  1.
</event>
<event>
 5   0  0.3413839E-04  0.1671576E+04  0.7818609E-02  0.8777743E-01
       -1   -1    0    0    0  501  0.00000000000E+00  0.00000000000E+00  0.86750783310E+03  0.86750783311E+03  0.50400001928E-02 0.  1.
        1   -1    0    0  501    0  0.00000000000E+00  0.00000000000E+00 -0.80522839110E+03  0.80522839112E+03  0.50400001928E-02 0. -1.
    10030    2    1    2    0    0  0.00000000000E+00  0.00000000000E+00  0.62279441997E+02  0.16727362242E+04  0.16715764257E+04 0.  0.
        5    1    3    3  502    0  0.39277665457E+03  0.55499734516E+02  0.76729007694E+03  0.86377651801E+03  0.46999998093E+01 0.  1.
       -5    1    3    3    0  502 -0.39277665457E+03 -0.55499734516E+02 -0.70501063494E+03  0.80895970622E+03  0.46999998093E+01 0. -1.
</event>
<event>
 5   0  0.3308275E-04  0.1823810E+04  0.7818609E-02  0.8693739E-01
        1   -1    0    0  501    0  0.00000000000E+00  0.00000000000E+00  0.86411354202E+03  0.86411354203E+03  0.50400001928E-02 0.  1.
       -1   -1    0    0    0  501  0.00000000000E+00  0.00000000000E+00 -0.96233965260E+03  0.96233965261E+03  0.50400001928E-02 0. -1.
    10030    2    1    2    0    0  0.00000000000E+00  0.00000000000E+00 -0.98226110583E+02  0.18264531946E+04  0.18238099965E+04 0.  0.
        3    1    3    3  502    0 -0.65142129223E+01  0.69855958715E+03 -0.63608773946E+03  0.94479392158E+03  0.10100000352E+00 0. -1.
       -3    1    3    3    0  502  0.65142129223E+01 -0.69855958715E+03  0.53786162887E+03  0.88165927306E+03  0.10100000352E+00 0.  1.
</event>
<event>
 5   0  0.6774451E-04  0.1779602E+04  0.7818609E-02  0.8717222E-01
        2   -1    0    0  501    0  0.00000000000E+00  0.00000000000E+00  0.12115823567E+04  0.12115823567E+04  0.25500000920E-02 0. -1.
       -2   -1    0    0    0  501  0.00000000000E+00  0.00000000000E+00 -0.65348114579E+03  0.65348114579E+03  0.25500000920E-02 0.  1.
    10030    2    1    2    0    0  0.00000000000E+00  0.00000000000E+00  0.55810121094E+03  0.18650635025E+04  0.17796024575E+04 0.  0.
        4    1    3    3  502    0 -0.80797587878E+03  0.31799431323E+03  0.75293863631E+02  0.87155962661E+03  0.12699999809E+01 0. -1.
       -4    1    3    3    0  502  0.80797587878E+03 -0.31799431323E+03  0.48280734730E+03  0.99350387591E+03  0.12699999809E+01 0.  1.
</event>
<event>
 5   0  0.3377273E-04  0.1601388E+04  0.7818609E-02  0.8819696E-01
        1   -1    0    0  501    0  0.00000000000E+00  0.00000000000E+00  0.12856299557E+04  0.12856299558E+04  0.50400001928E-02 0. -1.
       -1   -1    0    0    0  501  0.00000000000E+00  0.00000000000E+00 -0.49867420298E+03  0.49867420301E+03  0.50400001928E-02 0.  1.
    10030    2    1    2    0    0  0.00000000000E+00  0.00000000000E+00  0.78695575276E+03  0.17843041588E+04  0.16013875153E+04 0.  0.
        2    1    3    3  502    0  0.49069228815E+03 -0.55670996327E+03  0.72849737829E+03  0.10399102534E+04  0.25500000920E-02 0.  1.
       -2    1    3    3    0  502 -0.49069228815E+03  0.55670996327E+03  0.58458374472E+02  0.74439390541E+03  0.25500000920E-02 0. -1.
</event>
<event>
 5   0  0.2467375E-04  0.1757729E+04  0.7818609E-02  0.8729107E-01
       -3   -1    0    0    0  501  0.00000000000E+00  0.00000000000E+00  0.75058700086E+03  0.75058700766E+03  0.10100000352E+00 0.  1.
        3   -1    0    0  501    0  0.00000000000E+00  0.00000000000E+00 -0.10290652097E+04  0.10290652146E+04  0.10100000352E+00 0. -1.
    10030    2    1    2    0    0  0.00000000000E+00  0.00000000000E+00 -0.27847820881E+03  0.17796522223E+04  0.17577291940E+04 0.  0.
        4    1    3    3  502    0 -0.66223157339E+03  0.35130422329E+03 -0.60369368339E+03  0.96250350148E+03  0.12699999809E+01 0.  1.
       -4    1    3    3    0  502  0.66223157339E+03 -0.35130422329E+03  0.32521547459E+03  0.81714872080E+03  0.12699999809E+01 0. -1.
</event>
<event>
 5   0  0.6771967E-04  0.1665525E+04  0.7818609E-02  0.8781275E-01
        2   -1    0    0  501    0  0.00000000000E+00  0.00000000000E+00  0.20654220873E+04  0.20654220873E+04  0.25500000920E-02 0. -1.
       -2   -1    0    0    0  501  0.00000000000E+00  0.00000000000E+00 -0.33576360979E+03  0.33576360980E+03  0.25500000920E-02 0.  1.
    10030    2    1    2    0    0  0.00000000000E+00  0.00000000000E+00  0.17296584775E+04  0.24011856971E+04  0.16655252334E+04 0.  0.
        1    1    3    3  502    0 -0.41751731677E+03  0.26284445800E+03  0.18320422220E+04  0.18973103652E+04  0.50400001928E-02 0. -1.
       -1    1    3    3    0  502  0.41751731677E+03 -0.26284445800E+03 -0.10238374447E+03  0.50387533186E+03  0.50400001928E-02 0.  1.
</event>
<event>
 5   0  0.6774451E-04  0.1786899E+04  0.7818609E-02  0.8713298E-01
        2   -1    0    0  501    0  0.00000000000E+00  0.00000000000E+00  0.19493863358E+04  0.19493863358E+04  0.25500000920E-02 0.  1.
       -2   -1    0    0    0  501  0.00000000000E+00  0.00000000000E+00 -0.40948874940E+03  0.40948874941E+03  0.25500000920E-02 0. -1.
    10030    2    1    2    0    0  0.00000000000E+00  0.00000000000E+00  0.15398975863E+04  0.23588750852E+04  0.17868987355E+04 0.  0.
        4    1    3    3  502    0 -0.20561202789E+03 -0.26050186938E+03 -0.32510326648E+03  0.46457644875E+03  0.12699999809E+01 0. -1.
       -4    1    3    3    0  502  0.20561202789E+03  0.26050186938E+03  0.18650008528E+04  0.18942986364E+04  0.12699999809E+01 0.  1.
</event>
<event>
 5   0  0.6774451E-04  0.1753025E+04  0.7818609E-02  0.8731687E-01
        2   -1    0    0  501    0  0.00000000000E+00  0.00000000000E+00  0.17868475386E+04  0.17868475386E+04  0.25500000920E-02 0.  1.
       -2   -1    0    0    0  501  0.00000000000E+00  0.00000000000E+00 -0.42996046232E+03  0.42996046232E+03  0.25500000920E-02 0. -1.
    10030    2    1    2    0    0  0.00000000000E+00  0.00000000000E+00  0.13568870763E+04  0.22168080010E+04  0.17530245792E+04 0.  0.
        4    1    3    3  502    0 -0.40693877854E+03 -0.66179679294E+03  0.11916407155E+04  0.14225271078E+04  0.12699999809E+01 0.  1.
       -4    1    3    3    0  502  0.40693877854E+03  0.66179679294E+03  0.16524636084E+03  0.79428089320E+03  0.12699999809E+01 0. -1.
</event>
<event>
 5   0  0.6853162E-04  0.1771183E+04  0.7818609E-02  0.8721776E-01
       -2   -1    0    0    0  501  0.00000000000E+00  0.00000000000E+00  0.67521104568E+03  0.67521104568E+03  0.25500000920E-02 0. -1.
        2   -1    0    0  501    0  0.00000000000E+00  0.00000000000E+00 -0.11615219109E+04  0.11615219109E+04  0.25500000920E-02 0.  1.
    10030    2    1    2    0    0  0.00000000000E+00  0.00000000000E+00 -0.48631086526E+03  0.18367329566E+04  0.17711831346E+04 0.  0.
        2    1    3    3  502    0 -0.17411744628E+03  0.25985144993E+03 -0.11023302761E+04  0.11458497714E+04  0.25500000920E-02 0.  1.
       -2    1    3    3    0  502  0.17411744628E+03 -0.25985144993E+03  0.61601941079E+03  0.69088318521E+03  0.25500000920E-02 0. -1.
</event>
<event>
 5   0  0.6929121E-04  0.1864781E+04  0.7818609E-02  0.8672588E-01
       -2   -1    0    0    0  501  0.00000000000E+00  0.00000000000E+00  0.70981613104E+03  0.70981613105E+03  0.25500000920E-02 0.  1.
        2   -1    0    0  501    0  0.00000000000E+00  0.00000000000E+00 -0.12247571510E+04  0.12247571510E+04  0.25500000920E-02 0. -1.
    10030    2    1    2    0    0  0.00000000000E+00  0.00000000000E+00 -0.51494101994E+03  0.19345732820E+04  0.18647813624E+04 0.  0.
        3    1    3    3  502    0 -0.65856976786E+03 -0.56548128274E+03  0.95664828371E+02  0.87328975137E+03  0.10100000352E+00 0.  1.
       -3    1    3    3    0  502  0.65856976786E+03  0.56548128274E+03 -0.61060584831E+03  0.10612835307E+04  0.10100000352E+00 0. -1.
</event>
<event>
 5   0  0.3308275E-04  0.1816478E+04  0.7818609E-02  0.8697586E-01
        1   -1    0    0  501    0  0.00000000000E+00  0.00000000000E+00  0.10889932396E+04  0.10889932396E+04  0.50400001928E-02 0.  1.
       -1   -1    0    0    0  501  0.00000000000E+00  0.00000000000E+00 -0.75748645532E+03  0.75748645533E+03  0.50400001928E-02 0. -1.
    10030    2    1    2    0    0  0.00000000000E+00  0.00000000000E+00  0.33150678424E+03  0.18464796949E+04  0.18164775021E+04 0.  0.
        3    1    3    3  502    0 -0.52359269252E+03  0.38636334730E+03  0.80983658695E+03  0.10388749932E+04  0.10100000352E+00 0.  1.
       -3    1    3    3    0  502  0.52359269252E+03 -0.38636334730E+03 -0.47832980271E+03  0.80760470167E+03  0.10100000352E+00 0. -1.
</event>
<event>
 5   0  0.3470962E-04  0.1894834E+04  0.7818609E-02  0.8657432E-01
        1   -1    0    0  501    0  0.00000000000E+00  0.00000000000E+00  0.10396554312E+04  0.10396554313E+04  0.50400001928E-02 0.  1.
       -1   -1    0    0    0  501  0.00000000000E+00  0.00000000000E+00 -0.86336171335E+03  0.86336171336E+03  0.50400001928E-02 0. -1.
    10030    2    1    2    0    0  0.00000000000E+00  0.00000000000E+00  0.17629371790E+03  0.19030171446E+04  0.18948337071E+04 0.  0.
        4    1    3    3  502    0  0.26653660000E+03 -0.30255780066E+03 -0.77288542271E+03  0.87174335180E+03  0.12699999809E+01 0. -1.
       -4    1    3    3    0  502 -0.26653660000E+03  0.30255780066E+03  0.94917914061E+03  0.10312737928E+04  0.12699999809E+01 0.  1.
</event>
<event>
 5   0  0.6929121E-04  0.1743731E+04  0.7818609E-02  0.8736809E-01
       -2   -1    0    0    0  501  0.00000000000E+00  0.00000000000E+00  0.53905971853E+03  0.53905971854E+03  0.25500000920E-02 0. -1.
        2   -1    0    0  501    0  0.00000000000E+00  0.00000000000E+00 -0.14101388097E+04  0.14101388097E+04  0.25500000920E-02 0.  1.
    10030    2    1    2    0    0  0.00000000000E+00  0.00000000000E+00 -0.87107909116E+03  0.19491985282E+04  0.17437305180E+04 0.  0.
        3    1    3    3  502    0 -0.30527792661E+03 -0.22060043526E+03 -0.13145069432E+04  0.13674017985E+04  0.10100000352E+00 0.  1.
       -3    1    3    3    0  502  0.30527792661E+03  0.22060043526E+03  0.44342785208E+03  0.58179672972E+03  0.10100000352E+00 0. -1.
</event>
<event>
 5   0  0.6853162E-04  0.1703685E+04  0.7818609E-02  0.8759265E-01
        2   -1    0    0  501    0  0.00000000000E+00  0.00000000000E+00  0.11529559735E+04  0.11529559735E+04  0.25500000920E-02 0. -1.
       -2   -1    0    0    0  501  0.00000000000E+00  0.00000000000E+00 -0.62937006986E+03  0.62937006986E+03  0.25500000920E-02 0.  1.
    10030    2    1    2    0    0  0.00000000000E+00  0.00000000000E+00  0.52358590361E+03  0.17823260433E+04  0.17036853953E+04 0.  0.
        2    1    3    3  502    0  0.15345339617E+03  0.34403350953E+03  0.10610811132E+04  0.11259663091E+04  0.25500000920E-02 0. -1.
       -2    1    3    3    0  502 -0.15345339617E+03 -0.34403350953E+03 -0.53749520954E+03  0.65635973426E+03  0.25500000920E-02 0.  1.
</event>
<event>
 5   0  0.3404261E-04  0.1819047E+04  0.7818609E-02  0.8696235E-01
       -1   -1    0    0    0  501  0.00000000000E+00  0.00000000000E+00  0.15446269881E+04  0.15446269881E+04  0.50400001928E-02 0.  1.
        1   -1    0    0  501    0  0.00000000000E+00  0.00000000000E+00 -0.53555547652E+03  0.53555547655E+03  0.50400001928E-02 0. -1.
    10030    2    1    2    0    0  0.00000000000E+00  0.00000000000E+00  0.10090715116E+04  0.20801824647E+04  0.18190474900E+04 0.  0.
        1    1    3    3  502    0  0.36996579977E+03  0.72075969667E+03  0.31838648810E+02  0.81079154715E+03  0.50400001928E-02 0.  1.
       -1    1    3    3    0  502 -0.36996579977E+03 -0.72075969667E+03  0.97723286277E+03  0.12693909175E+04  0.50400001928E-02 0. -1.
</event>
<event>
 5   0  0.6771967E-04  0.1783029E+04  0.7818609E-02  0.8715377E-01
       -2   -1    0    0    0  501  0.00000000000E+00  0.00000000000E+00  0.53201380239E+03  0.53201380240E+03  0.25500000920E-02 0. -1.
        2   -1    0    0  501    0  0.00000000000E+00  0.00000000000E+00 -0.14939429472E+04  0.14939429472E+04  0.25500000920E-02 0.  1.
    10030    2    1    2    0    0  0.00000000000E+00  0.00000000000E+00 -0.96192914486E+03  0.20259567496E+04  0.17830291842E+04 0.  0.
        1    1    3    3  502    0 -0.70736189851E+03 -0.46904252481E+03 -0.17096238698E+03  0.86578859044E+03  0.50400001928E-02 0. -1.
       -1    1    3    3    0  502  0.70736189851E+03  0.46904252481E+03 -0.79096675787E+03  0.11601681592E+04  0.50400001928E-02 0.  1.
</event>
<event>
 5   0  0.3377273E-04  0.1762392E+04  0.7818609E-02  0.8726558E-01
       -1   -1    0    0    0  501  0.00000000000E+00  0.00000000000E+00  0.89996334896E+03  0.89996334898E+03  0.50400001928E-02 0.  1.
        1   -1    0    0  501    0  0.00000000000E+00  0.00000000000E+00 -0.86282036063E+03  0.86282036065E+03  0.50400001928E-02 0. -1.
    10030    2    1    2    0    0  0.00000000000E+00  0.00000000000E+00  0.37142988333E+02  0.17627837096E+04  0.17623923528E+04 0.  0.
        2    1    3    3  502    0  0.64009841293E+03  0.22507666742E+03 -0.54379993843E+03  0.86954232645E+03  0.25500000920E-02 0. -1.
       -2    1    3    3    0  502 -0.64009841293E+03 -0.22507666742E+03  0.58094292676E+03  0.89324138317E+03  0.25500000920E-02 0.  1.
</event>
<event>
 5   0  0.6547153E-04  0.1774865E+04  0.7818609E-02  0.8719781E-01
       -2   -1    0    0    0  501  0.00000000000E+00  0.00000000000E+00  0.14925270749E+04  0.14925270749E+04  0.25500000920E-02 0.  1.
        2   -1    0    0  501    0  0.00000000000E+00  0.00000000000E+00 -0.52765313164E+03  0.52765313165E+03  0.25500000920E-02 0. -1.
    10030    2    1    2    0    0  0.00000000000E+00  0.00000000000E+00  0.96487394326E+03  0.20201802066E+04  0.17748651612E+04 0.  0.
        5    1    3    3  502    0 -0.64271333781E+03 -0.45723514879E+03  0.94530076917E+03  0.12311620730E+04  0.46999998093E+01 0.  1.
       -5    1    3    3    0  502  0.64271333781E+03  0.45723514879E+03  0.19573174099E+02  0.78901813353E+03  0.46999998093E+01 0. -1.
</event>
<event>
 5   0  0.3377273E-04  0.1824141E+04  0.7818609E-02  0.8693566E-01
       -1   -1    0    0    0  501  0.00000000000E+00  0.00000000000E+00  0.21753366126E+04  0.21753366126E+04  0.50400001928E-02 0.  1.
        1   -1    0    0  501    0  0.00000000000E+00  0.00000000000E+00 -0.38241093483E+03  0.38241093486E+03  0.50400001928E-02 0. -1.
    10030    2    1    2    0    0  0.00000000000E+00  0.00000000000E+00  0.17929256777E+04  0.25577475474E+04  0.18241409020E+04 0.  0.
        2    1    3    3  502    0  0.36816434758E+03 -0.55541296181E+03  0.23234516672E+02  0.66675961766E+03  0.25500000920E-02 0. -1.
       -2    1    3    3    0  502 -0.36816434758E+03  0.55541296181E+03  0.17696911611E+04  0.18909879298E+04  0.25500000920E-02 0.  1.
</event>
<event>
 5   0  0.3308275E-04  0.1034207E+04  0.7818609E-02  0.9271802E-01
        1   -1    0    0  501    0  0.00000000000E+00  0.00000000000E+00  0.56164328142E+03  0.56164328144E+03  0.50400001928E-02 0. -1.
       -1   -1    0    0    0  501  0.00000000000E+00  0.00000000000E+00 -0.47609627192E+03  0.47609627195E+03  0.50400001928E-02 0.  1.
    10030    2    1    2    0    0  0.00000000000E+00  0.00000000000E+00  0.85547009499E+02  0.10377395534E+04  0.10342074694E+04 0.  0.
        3    1    3    3  502    0  0.40898676824E+03  0.25310850381E+03  0.23332248725E+03  0.53457785640E+03  0.10100000352E+00 0.  1.
       -3    1    3    3    0  502 -0.40898676824E+03 -0.25310850381E+03 -0.14777547775E+03  0.50316169699E+03  0.10100000352E+00 0. -1.
</event>
<event>
 5   0  0.3413839E-04  0.1928990E+04  0.7818609E-02  0.8640559E-01
       -1   -1    0    0    0  501  0.00000000000E+00  0.00000000000E+00  0.11272354769E+04  0.11272354769E+04  0.50400001928E-02 0.  1.
        1   -1    0    0  501    0  0.00000000000E+00  0.00000000000E+00 -0.82524932326E+03  0.82524932327E+03  0.50400001928E-02 0. -1.
    10030    2    1    2    0    0  0.00000000000E+00  0.00000000000E+00  0.30198615362E+03  0.19524848002E+04  0.19289896988E+04 0.  0.
        5    1    3    3  502    0 -0.49863911574E+03 -0.79929993294E+03 -0.58180414246E+02  0.94389003657E+03  0.46999998093E+01 0.  1.
       -5    1    3    3    0  502  0.49863911574E+03  0.79929993294E+03  0.36016656787E+03  0.10085947636E+04  0.46999998093E+01 0. -1.
</event>
<event>
 5   0  0.6771967E-04  0.1782711E+04  0.7818609E-02  0.8715548E-01
        2   -1    0    0  501    0  0.00000000000E+00  0.00000000000E+00  0.86014200027E+03  0.86014200027E+03  0.25500000920E-02 0. -1.
       -2   -1    0    0    0  501  0.00000000000E+00  0.00000000000E+00 -0.92370154750E+03  0.92370154750E+03  0.25500000920E-02 0.  1.
    10030    2    1    2    0    0  0.00000000000E+00  0.00000000000E+00 -0.63559547228E+02  0.17838435478E+04  0.17827108534E+04 0.  0.
        1    1    3    3  502    0  0.72621881122E+03  0.40196243640E+03 -0.35686607224E+03  0.90350481769E+03  0.50400001928E-02 0.  1.
       -1    1    3    3    0  502 -0.72621881122E+03 -0.40196243640E+03  0.29330652502E+03  0.88033873008E+03  0.50400001928E-02 0. -1.
</event>
<event>
 5   0  0.3308275E-04  0.1517852E+04  0.7818609E-02  0.8872668E-01
       -1   -1    0    0    0  501  0.00000000000E+00  0.00000000000E+00  0.20037816104E+04  0.20037816104E+04  0.50400001928E-02 0. -1.
        1   -1    0    0  501    0  0.00000000000E+00  0.00000000000E+00 -0.28744071878E+03  0.28744071882E+03  0.50400001928E-02 0.  1.
    10030    2    1    2    0    0  0.00000000000E+00  0.00000000000E+00  0.17163408917E+04  0.22912223293E+04  0.15178516745E+04 0.  0.
        3    1    3    3  502    0 -0.12330846176E+03 -0.16352538492E+03  0.19612779387E+04  0.19719423651E+04  0.10100000352E+00 0. -1.
       -3    1    3    3    0  502  0.12330846176E+03  0.16352538492E+03 -0.24493704708E+03  0.31927996412E+03  0.10100000352E+00 0.  1.
</event>
<event>
 5   0  0.6853162E-04  0.1815823E+04  0.7818609E-02  0.8697930E-01
       -2   -1    0    0    0  501  0.00000000000E+00  0.00000000000E+00  0.55133566418E+03  0.55133566418E+03  0.25500000920E-02 0. -1.
        2   -1    0    0  501    0  0.00000000000E+00  0.00000000000E+00 -0.14951016332E+04  0.14951016332E+04  0.25500000920E-02 0.  1.
    10030    2    1    2    0    0  0.00000000000E+00  0.00000000000E+00 -0.94376596903E+03  0.20464372974E+04  0.18158225155E+04 0.  0.
        2    1    3    3  502    0 -0.52812865435E+03 -0.62919589215E+03 -0.90763470839E+03  0.12241765029E+04  0.25500000920E-02 0. -1.
       -2    1    3    3    0  502  0.52812865435E+03  0.62919589215E+03 -0.36131260642E+02  0.82226079455E+03  0.25500000920E-02 0.  1.
</event>
<event>
 5   0  0.3470962E-04  0.1765590E+04  0.7818609E-02  0.8724816E-01
       -1   -1    0    0    0  501  0.00000000000E+00  0.00000000000E+00  0.62037160410E+03  0.62037160412E+03  0.50400001928E-02 0. -1.
        1   -1    0    0  501    0  0.00000000000E+00  0.00000000000E+00 -0.12562255378E+04  0.12562255378E+04  0.50400001928E-02 0.  1.
    10030    2    1    2    0    0  0.00000000000E+00  0.00000000000E+00 -0.63585393374E+03  0.18765971420E+04  0.17655895922E+04 0.  0.
        4    1    3    3  502    0 -0.67486962423E+03  0.54307755479E+03 -0.13710484794E+03  0.87702998378E+03  0.12699999809E+01 0. -1.
       -4    1    3    3    0  502  0.67486962423E+03 -0.54307755479E+03 -0.49874908581E+03  0.99956715818E+03  0.12699999809E+01 0.  1.
</event>
<event>
 5   0  0.3413839E-04  0.1615873E+04  0.7818609E-02  0.8810856E-01
        1   -1    0    0  501    0  0.00000000000E+00  0.00000000000E+00  0.64274020373E+03  0.64274020375E+03  0.50400001928E-02 0. -1.
       -1   -1    0    0    0  501  0.00000000000E+00  0.00000000000E+00 -0.10155911274E+04  0.10155911274E+04  0.50400001928E-02 0.  1.
    10030    2    1    2    0    0  0.00000000000E+00  0.00000000000E+00 -0.37285092367E+03  0.16583313312E+04  0.16158728269E+04 0.  0.
        5    1    3    3  502    0 -0.30804905935E+03  0.66686733170E+03  0.15876483758E+03  0.75155480485E+03  0.46999998093E+01 0. -1.
       -5    1    3    3    0  502  0.30804905935E+03 -0.66686733170E+03 -0.53161576125E+03  0.90677652630E+03  0.46999998093E+01 0.  1.
</event>
<event>
 5   0  0.6547153E-04  0.1743125E+04  0.7818609E-02  0.8737144E-01
        2   -1    0    0  501    0  0.00000000000E+00  0.00000000000E+00  0.59444240903E+03  0.59444240904E+03  0.25500000920E-02 0.  1.
       -2   -1    0    0    0  501  0.00000000000E+00  0.00000000000E+00 -0.12778722053E+04  0.12778722053E+04  0.25500000920E-02 0. -1.
    10030    2    1    2    0    0  0.00000000000E+00  0.00000000000E+00 -0.68342979626E+03  0.18723146143E+04  0.17431252762E+04 0.  0.
        5    1    3    3  502    0 -0.45232522536E+03 -0.72332539138E+03 -0.53326164749E+03  0.10060754475E+04  0.46999998093E+01 0. -1.
       -5    1    3    3    0  502  0.45232522536E+03  0.72332539138E+03 -0.15016814876E+03  0.86623916687E+03  0.46999998093E+01 0.  1.
</event>
<event>
 5   0  0.3413839E-04  0.1813153E+04  0.7818609E-02  0.8699336E-01
       -1   -1    0    0    0  501  0.00000000000E+00  0.00000000000E+00  0.16093389798E+04  0.16093389798E+04  0.50400001928E-02 0.  1.
        1   -1    0    0  501    0  0.00000000000E+00  0.00000000000E+00 -0.51069499789E+03  0.51069499791E+03  0.50400001928E-02 0. -1.
    10030    2    1    2    0    0  0.00000000000E+00  0.00000000000E+00  0.10986439819E+04  0.21200339777E+04  0.18131534595E+04 0.  0.
        5    1    3    3  502    0 -0.51084341311E+03  0.11544822091E+03  0.14145450366E+04  0.15083928649E+04  0.46999998093E+01 0.  1.
       -5    1    3    3    0  502  0.51084341311E+03 -0.11544822091E+03 -0.31590105472E+03  0.61164111275E+03  0.46999998093E+01 0. -1.
</event>
<event>
 5   0  0.3377273E-04  0.1598925E+04  0.7818609E-02  0.8821209E-01
       -1   -1    0    0    0  501  0.00000000000E+00  0.00000000000E+00  0.95670252253E+03  0.95670252255E+03  0.50400001928E-02 0. -1.
        1   -1    0    0  501    0  0.00000000000E+00  0.00000000000E+00 -0.66806547271E+03  0.66806547273E+03  0.50400001928E-02 0.  1.
    10030    2    1    2    0    0  0.00000000000E+00  0.00000000000E+00  0.28863704982E+03  0.16247679953E+04  0.15989245423E+04 0.  0.
        2    1    3    3  502    0 -0.61585473826E+03 -0.98635549647E+02  0.65253607464E+03  0.90266791180E+03  0.25500000920E-02 0. -1.
       -2    1    3    3    0  502  0.61585473826E+03  0.98635549647E+02 -0.36389902481E+03  0.72210008348E+03  0.25500000920E-02 0.  1.
</event>
<event>
 5   0  0.6771967E-04  0.1810959E+04  0.7818609E-02  0.8700493E-01
       -2   -1    0    0    0  501  0.00000000000E+00  0.00000000000E+00  0.45171507591E+03  0.45171507592E+03  0.25500000920E-02 0. -1.
        2   -1    0    0  501    0  0.00000000000E+00  0.00000000000E+00 -0.18150664913E+04  0.18150664913E+04  0.25500000920E-02 0.  1.
    10030    2    1    2    0    0  0.00000000000E+00  0.00000000000E+00 -0.13633514154E+04  0.22667815672E+04  0.18109587493E+04 0.  0.
        1    1    3    3  502    0  0.24377816097E+03 -0.64172948901E+02  0.40690752654E+03  0.47866449034E+03  0.50400001928E-02 0. -1.
       -1    1    3    3    0  502 -0.24377816097E+03  0.64172948901E+02 -0.17702589419E+04  0.17881170769E+04  0.50400001928E-02 0.  1.
</event>
<event>
 5   0  0.3470962E-04  0.1734832E+04  0.7818609E-02  0.8741744E-01
       -1   -1    0    0    0  501  0.00000000000E+00  0.00000000000E+00  0.49051626490E+03  0.49051626493E+03  0.50400001928E-02 0.  1.
        1   -1    0    0  501    0  0.00000000000E+00  0.00000000000E+00 -0.15339163110E+04  0.15339163110E+04  0.50400001928E-02 0. -1.
    10030    2    1    2    0    0  0.00000000000E+00  0.00000000000E+00 -0.10434000461E+04  0.20244325760E+04  0.17348324410E+04 0.  0.
        4    1    3    3  502    0 -0.34952379300E+03 -0.23327228924E+03  0.36380613341E+03  0.55582313591E+03  0.12699999809E+01 0.  1.
       -4    1    3    3    0  502  0.34952379300E+03  0.23327228924E+03 -0.14072061795E+04  0.14686094400E+04  0.12699999809E+01 0. -1.
</event>
<event>
 5   0  0.6771967E-04  0.1849519E+04  0.7818609E-02  0.8680400E-01
       -2   -1    0    0    0  501  0.00000000000E+00  0.00000000000E+00  0.73474632364E+03  0.73474632364E+03  0.25500000920E-02 0.  1.
        2   -1    0    0  501    0  0.00000000000E+00  0.00000000000E+00 -0.11639126197E+04  0.11639126197E+04  0.25500000920E-02 0. -1.
    10030    2    1    2    0    0  0.00000000000E+00  0.00000000000E+00 -0.42916629606E+03  0.18986589433E+04  0.18495194169E+04 0.  0.
        1    1    3    3  502    0 -0.31051276105E+03  0.80812101567E+03 -0.54834080929E+03  0.10247708982E+04  0.50400001928E-02 0. -1.
       -1    1    3    3    0  502  0.31051276105E+03 -0.80812101567E+03  0.11917451323E+03  0.87388804510E+03  0.50400001928E-02 0.  1.
</event>
<event>
 5   0  0.6771967E-04  0.1874170E+04  0.7818609E-02  0.8667821E-01
       -2   -1    0    0    0  501  0.00000000000E+00  0.00000000000E+00  0.40056512924E+03  0.40056512925E+03  0.25500000920E-02 0.  1.
        2   -1    0    0  501    0  0.00000000000E+00  0.00000000000E+00 -0.21922235977E+04  0.21922235977E+04  0.25500000920E-02 0. -1.
    10030    2    1    2    0    0  0.00000000000E+00  0.00000000000E+00 -0.17916584684E+04  0.25927887269E+04  0.18741700336E+04 0.  0.
        1    1    3    3  502    0 -0.20565734573E+03  0.48449293060E+03 -0.19684136900E+04  0.20375673728E+04  0.50400001928E-02 0. -1.
       -1    1    3    3    0  502  0.20565734573E+03 -0.48449293060E+03  0.17675522161E+03  0.55522135410E+03  0.50400001928E-02 0.  1.
</event>
<event>
 5   0  0.3470962E-04  0.1771595E+04  0.7818609E-02  0.8721552E-01
       -1   -1    0    0    0  501  0.00000000000E+00  0.00000000000E+00  0.57417398245E+03  0.57417398247E+03  0.50400001928E-02 0.  1.
        1   -1    0    0  501    0  0.00000000000E+00  0.00000000000E+00 -0.13665503179E+04  0.13665503179E+04  0.50400001928E-02 0. -1.
    10030    2    1    2    0    0  0.00000000000E+00  0.00000000000E+00 -0.79237633548E+03  0.19407243004E+04  0.17715954824E+04 0.  0.
        4    1    3    3  502    0 -0.39320026800E+03  0.21980476848E+03  0.43932745449E+03  0.62923033316E+03  0.12699999809E+01 0. -1.
       -4    1    3    3    0  502  0.39320026800E+03 -0.21980476848E+03 -0.12317037900E+04  0.13114939672E+04  0.12699999809E+01 0.  1.
</event>
<event>
 5   0  0.3308275E-04  0.1758100E+04  0.7818609E-02  0.8728904E-01
        1   -1    0    0  501    0  0.00000000000E+00  0.00000000000E+00  0.91461540856E+03  0.91461540857E+03  0.50400001928E-02 0.  1.
       -1   -1    0    0    0  501  0.00000000000E+00  0.00000000000E+00 -0.84486740743E+03  0.84486740744E+03  0.50400001928E-02 0. -1.
    10030    2    1    2    0    0  0.00000000000E+00  0.00000000000E+00  0.69748001129E+02  0.17594828160E+04  0.17580998254E+04 0.  0.
        3    1    3    3  502    0  0.38708789761E+03  0.41749656804E+03 -0.63542022298E+03  0.85317014409E+03  0.10100000352E+00 0. -1.
       -3    1    3    3    0  502 -0.38708789761E+03 -0.41749656804E+03  0.70516822411E+03  0.90631267192E+03  0.10100000352E+00 0.  1.
</event>
<event>
 5   0  0.6774451E-04  0.1840372E+04  0.7818609E-02  0.8685120E-01
       -2   -1    0    0    0  501  0.00000000000E+00  0.00000000000E+00  0.59290861903E+03  0.59290861904E+03  0.25500000920E-02 0.  1.
        2   -1    0    0  501    0  0.00000000000E+00  0.00000000000E+00 -0.14281154927E+04  0.14281154927E+04  0.25500000920E-02 0. -1.
    10030    2    1    2    0    0  0.00000000000E+00  0.00000000000E+00 -0.83520687370E+03  0.20210241118E+04  0.18403716849E+04 0.  0.
        4    1    3    3  502    0 -0.36079435590E+03  0.68005617953E+03  0.13595176051E+03  0.78175025977E+03  0.12699999809E+01 0. -1.
       -4    1    3    3    0  502  0.36079435590E+03 -0.68005617953E+03 -0.97115863421E+03  0.12392738520E+04  0.12699999809E+01 0.  1.
</event>
<event>
 5   0  0.3470962E-04  0.1795663E+04  0.7818609E-02  0.8708609E-01
       -1   -1    0    0    0  501  0.00000000000E+00  0.00000000000E+00  0.50870627936E+03  0.50870627938E+03  0.50400001928E-02 0.  1.
        1   -1    0    0  501    0  0.00000000000E+00  0.00000000000E+00 -0.15846115462E+04  0.15846115462E+04  0.50400001928E-02 0. -1.
    10030    2    1    2    0    0  0.00000000000E+00  0.00000000000E+00 -0.10759052668E+04  0.20933178256E+04  0.17956634918E+04 0.  0.
        4    1    3    3  502    0 -0.60476899127E+02 -0.56697471660E+03 -0.13464429678E+04  0.14621997343E+04  0.12699999809E+01 0. -1.
       -4    1    3    3    0  502  0.60476899127E+02  0.56697471660E+03  0.27053770096E+03  0.63111809127E+03  0.12699999809E+01 0.  1.
</event>
<event>
 5   0  0.3404261E-04  0.1771998E+04  0.7818609E-02  0.8721334E-01
       -1   -1    0    0    0  501  0.00000000000E+00  0.00000000000E+00  0.65747128560E+03  0.65747128562E+03  0.50400001928E-02 0. -1.
        1   -1    0    0  501    0  0.00000000000E+00  0.00000000000E+00 -0.11939596296E+04  0.11939596297E+04  0.50400001928E-02 0.  1.
    10030    2    1    2    0    0  0.00000000000E+00  0.00000000000E+00 -0.53648834405E+03  0.18514309153E+04  0.17719979376E+04 0.  0.
        1    1    3    3  502    0 -0.50435807559E+02  0.79342253123E+03  0.14035002058E+03  0.80731729329E+03  0.50400001928E-02 0.  1.
       -1    1    3    3    0  502  0.50435807559E+02 -0.79342253123E+03 -0.67683836464E+03  0.10441136220E+04  0.50400001928E-02 0. -1.
</event>
<event>
 5   0  0.3413839E-04  0.1772392E+04  0.7818609E-02  0.8721120E-01
        1   -1    0    0  501    0  0.00000000000E+00  0.00000000000E+00  0.10021701252E+04  0.10021701252E+04  0.50400001928E-02 0. -1.
       -1   -1    0    0    0  501  0.00000000000E+00  0.00000000000E+00 -0.78364303846E+03  0.78364303848E+03  0.50400001928E-02 0.  1.
    10030    2    1    2    0    0  0.00000000000E+00  0.00000000000E+00  0.21852708675E+03  0.17858131637E+04  0.17723923290E+04 0.  0.
        5    1    3    3  502    0  0.63567297073E+03  0.48452961211E+03 -0.27635168607E+03  0.84571946597E+03  0.46999998093E+01 0.  1.
       -5    1    3    3    0  502 -0.63567297073E+03 -0.48452961211E+03  0.49487877282E+03  0.94009369773E+03  0.46999998093E+01 0. -1.
</event>
<event>
 5   0  0.6774451E-04  0.1881189E+04  0.7818609E-02  0.8664277E-01
       -2   -1    0    0    0  501  0.00000000000E+00  0.00000000000E+00  0.12131342324E+04  0.12131342324E+04  0.25500000920E-02 0. -1.
        2   -1    0    0  501    0  0.00000000000E+00  0.00000000000E+00 -0.72928308586E+03  0.72928308587E+03  0.25500000920E-02 0.  1.
    10030    2    1    2    0    0  0.00000000000E+00  0.00000000000E+00  0.48385114650E+03  0.19424173182E+04  0.18811892797E+04 0.  0.
        4    1    3    3  502    0 -0.12811361083E+03 -0.45514992101E+03  0.10814966292E+04  0.11803436448E+04  0.12699999809E+01 0. -1.
       -4    1    3    3    0  502  0.12811361083E+03  0.45514992101E+03 -0.59764548270E+03  0.76207367346E+03  0.12699999809E+01 0.  1.
</event>
<event>
 5   0  0.6853162E-04  0.1680992E+04  0.7818609E-02  0.8772280E-01
        2   -1    0    0  501    0  0.00000000000E+00  0.00000000000E+00  0.73643031940E+03  0.73643031941E+03  0.25500000920E-02 0.  1.
       -2   -1    0    0    0  501  0.00000000000E+00  0.00000000000E+00 -0.95926755513E+03  0.95926755513E+03  0.25500000920E-02 0. -1.
    10030    2    1    2    0    0  0.00000000000E+00  0.00000000000E+00 -0.22283723573E+03  0.16956978745E+04  0.16809922213E+04 0.  0.
        2    1    3    3  502    0  0.45049535472E+03 -0.59847915130E+03  0.27311211062E+03  0.79731648932E+03  0.25500000920E-02 0.  1.
       -2    1    3    3    0  502 -0.45049535472E+03  0.59847915130E+03 -0.49594934635E+03  0.89838138522E+03  0.25500000920E-02 0. -1.
</event>
<event>
 5   0  0.3413839E-04  0.1798447E+04  0.7818609E-02  0.8707126E-01
        1   -1    0    0  501    0  0.00000000000E+00  0.00000000000E+00  0.66196882165E+03  0.66196882167E+03  0.50400001928E-02 0. -1.
       -1   -1    0    0    0  501  0.00000000000E+00  0.00000000000E+00 -0.12215115357E+04  0.12215115357E+04  0.50400001928E-02 0.  1.
    10030    2    1    2    0    0  0.00000000000E+00  0.00000000000E+00 -0.55954271400E+03  0.18834803573E+04  0.17984466096E+04 0.  0.
        5    1    3    3  502    0 -0.83351679282E+02  0.67053909062E+03  0.34158568373E+03  0.75714796693E+03  0.46999998093E+01 0. -1.
       -5    1    3    3    0  502  0.83351679282E+02 -0.67053909062E+03 -0.90112839773E+03  0.11263323904E+04  0.46999998093E+01 0.  1.
</event>
<event>
 5   0  0.3404261E-04  0.1783915E+04  0.7818609E-02  0.8714900E-01
       -1   -1    0    0    0  501  0.00000000000E+00  0.00000000000E+00  0.65504605623E+03  0.65504605625E+03  0.50400001928E-02 0. -1.
        1   -1    0    0  501    0  0.00000000000E+00  0.00000000000E+00 -0.12145530953E+04  0.12145530953E+04  0.50400001928E-02 0.  1.
    10030    2    1    2    0    0  0.00000000000E+00  0.00000000000E+00 -0.55950703906E+03  0.18695991516E+04  0.17839150374E+04 0.  0.
        1    1    3    3  502    0 -0.23225761421E+03  0.85191073118E+03 -0.14763202492E+03  0.89526013430E+03  0.50400001928E-02 0. -1.
       -1    1    3    3    0  502  0.23225761421E+03 -0.85191073118E+03 -0.41187501413E+03  0.97433901725E+03  0.50400001928E-02 0.  1.
</event>
<event>
 5   0  0.6929121E-04  0.1771445E+04  0.7818609E-02  0.8721634E-01
       -2   -1    0    0    0  501  0.00000000000E+00  0.00000000000E+00  0.10009802474E+04  0.10009802474E+04  0.25500000920E-02 0.  1.
        2   -1    0    0  501    0  0.00000000000E+00  0.00000000000E+00 -0.78373576117E+03  0.78373576117E+03  0.25500000920E-02 0. -1.
    10030    2    1    2    0    0  0.00000000000E+00  0.00000000000E+00  0.21724448624E+03  0.17847160086E+04  0.17714446264E+04 0.  0.
        3    1    3    3  502    0 -0.76606686276E+02  0.72708271025E+03 -0.39510972764E+03  0.83104124988E+03  0.10100000352E+00 0.  1.
       -3    1    3    3    0  502  0.76606686276E+02 -0.72708271025E+03  0.61235421388E+03  0.95367475870E+03  0.10100000352E+00 0. -1.
</event>
<event>
 5   0  0.6774451E-04  0.9800666E+03  0.7818609E-02  0.9330682E-01
        2   -1    0    0  501    0  0.00000000000E+00  0.00000000000E+00  0.26957501576E+03  0.26957501577E+03  0.25500000920E-02 0.  1.
       -2   -1    0    0    0  501  0.00000000000E+00  0.00000000000E+00 -0.89078230222E+03  0.89078230223E+03  0.25500000920E-02 0. -1.
    10030    2    1    2    0    0  0.00000000000E+00  0.00000000000E+00 -0.62120728646E+03  0.11603573180E+04  0.98006663686E+03 0.  0.
        4    1    3    3  502    0 -0.92668561895E+02  0.29296942018E+03 -0.76254755482E+03  0.82213072549E+03  0.12699999809E+01 0. -1.
       -4    1    3    3    0  502  0.92668561895E+02 -0.29296942018E+03  0.14134026836E+03  0.33822659251E+03  0.12699999809E+01 0.  1.
</event>
<event>
 5   0  0.6774451E-04  0.1817381E+04  0.7818609E-02  0.8697111E-01
        2   -1    0    0  501    0  0.00000000000E+00  0.00000000000E+00  0.27506496542E+04  0.27506496542E+04  0.25500000920E-02 0.  1.
       -2   -1    0    0    0  501  0.00000000000E+00  0.00000000000E+00 -0.30019027105E+03  0.30019027106E+03  0.25500000920E-02 0. -1.
    10030    2    1    2    0    0  0.00000000000E+00  0.00000000000E+00  0.24504593832E+04  0.30508399253E+04  0.18173808245E+04 0.  0.
        4    1    3    3  502    0  0.71083428837E+02 -0.61027226342E+03  0.23491219953E+04  0.24281393805E+04  0.12699999809E+01 0.  1.
       -4    1    3    3    0  502 -0.71083428837E+02  0.61027226342E+03  0.10133738782E+03  0.62270054475E+03  0.12699999809E+01 0. -1.
</event>
<event>
 5   0  0.3308275E-04  0.1800027E+04  0.7818609E-02  0.8706285E-01
        1   -1    0    0  501    0  0.00000000000E+00  0.00000000000E+00  0.14483404434E+04  0.14483404434E+04  0.50400001928E-02 0. -1.
       -1   -1    0    0    0  501  0.00000000000E+00  0.00000000000E+00 -0.55927746634E+03  0.55927746636E+03  0.50400001928E-02 0.  1.
    10030    2    1    2    0    0  0.00000000000E+00  0.00000000000E+00  0.88906297707E+03  0.20076179098E+04  0.18000268594E+04 0.  0.
        3    1    3    3  502    0  0.53808820103E+03 -0.49239891657E+03 -0.14356255354E+03  0.74337461761E+03  0.10100000352E+00 0.  1.
       -3    1    3    3    0  502 -0.53808820103E+03  0.49239891657E+03  0.10326255306E+04  0.12642432922E+04  0.10100000352E+00 0. -1.
</event>
<event>
 5   0  0.3308275E-04  0.1861909E+04  0.7818609E-02  0.8674052E-01
        1   -1    0    0  501    0  0.00000000000E+00  0.00000000000E+00  0.10244854870E+04  0.10244854870E+04  0.50400001928E-02 0.  1.
       -1   -1    0    0    0  501  0.00000000000E+00  0.00000000000E+00 -0.84596251456E+03  0.84596251457E+03  0.50400001928E-02 0. -1.
    10030    2    1    2    0    0  0.00000000000E+00  0.00000000000E+00  0.17852297248E+03  0.18704480016E+04  0.18619090405E+04 0.  0.
        3    1    3    3  502    0 -0.37575666398E+03 -0.26456029318E+03 -0.72407559866E+03  0.85759588503E+03  0.10100000352E+00 0. -1.
       -3    1    3    3    0  502  0.37575666398E+03  0.26456029318E+03  0.90259857114E+03  0.10128521166E+04  0.10100000352E+00 0.  1.
</event>
<event>
 5   0  0.3404261E-04  0.1812157E+04  0.7818609E-02  0.8699861E-01
       -1   -1    0    0    0  501  0.00000000000E+00  0.00000000000E+00  0.73734786393E+03  0.73734786395E+03  0.50400001928E-02 0.  1.
        1   -1    0    0  501    0  0.00000000000E+00  0.00000000000E+00 -0.11134201712E+04  0.11134201712E+04  0.50400001928E-02 0. -1.
    10030    2    1    2    0    0  0.00000000000E+00  0.00000000000E+00 -0.37607230727E+03  0.18507680352E+04  0.18121567095E+04 0.  0.
        1    1    3    3  502    0  0.67072735749E+03 -0.41158278865E+03  0.27064593027E+03  0.83218074936E+03  0.50400001928E-02 0.  1.
       -1    1    3    3    0  502 -0.67072735749E+03  0.41158278865E+03 -0.64671823754E+03  0.10185872858E+04  0.50400001928E-02 0. -1.
</event>
<event>
 5   0  0.3377273E-04  0.1562790E+04  0.7818609E-02  0.8843740E-01
       -1   -1    0    0    0  501  0.00000000000E+00  0.00000000000E+00  0.37543402179E+03  0.37543402182E+03  0.50400001928E-02 0. -1.
        1   -1    0    0  501    0  0.00000000000E+00  0.00000000000E+00 -0.16263251565E+04  0.16263251566E+04  0.50400001928E-02 0.  1.
    10030    2    1    2    0    0  0.00000000000E+00  0.00000000000E+00 -0.12508911348E+04  0.20017591784E+04  0.15627895499E+04 0.  0.
        2    1    3    3  502    0  0.48027253034E+03  0.41406571101E+03 -0.12102741785E+04  0.13663365996E+04  0.25500000920E-02 0.  1.
       -2    1    3    3    0  502 -0.48027253034E+03 -0.41406571101E+03 -0.40616956294E+02  0.63542257875E+03  0.25500000920E-02 0. -1.
</event>
<event>
 5   0  0.6929121E-04  0.1842187E+04  0.7818609E-02  0.8684181E-01
        2   -1    0    0  501    0  0.00000000000E+00  0.00000000000E+00  0.85225940725E+03  0.85225940725E+03  0.25500000920E-02 0. -1.
       -2   -1    0    0    0  501  0.00000000000E+00  0.00000000000E+00 -0.99548730562E+03  0.99548730562E+03  0.25500000920E-02 0.  1.
    10030    2    1    2    0    0  0.00000000000E+00  0.00000000000E+00 -0.14322789837E+03  0.18477467129E+04  0.18421872011E+04 0.  0.
        3    1    3    3  502    0 -0.70814692830E+02  0.64539684758E+03 -0.72693213646E+03  0.97467027902E+03  0.10100000352E+00 0.  1.
       -3    1    3    3    0  502  0.70814692830E+02 -0.64539684758E+03  0.58370423809E+03  0.87307643385E+03  0.10100000352E+00 0. -1.
</event>
<event>
 5   0  0.6929121E-04  0.1830282E+04  0.7818609E-02  0.8690359E-01
        2   -1    0    0  501    0  0.00000000000E+00  0.00000000000E+00  0.17693476933E+04  0.17693476933E+04  0.25500000920E-02 0.  1.
       -2   -1    0    0    0  501  0.00000000000E+00  0.00000000000E+00 -0.47332890362E+03  0.47332890363E+03  0.25500000920E-02 0. -1.
    10030    2    1    2    0    0  0.00000000000E+00  0.00000000000E+00  0.12960187897E+04  0.22426765969E+04  0.18302823867E+04 0.  0.
        3    1    3    3  502    0  0.75350868600E+03  0.17596890331E+02  0.12839932036E+04  0.14888665311E+04  0.10100000352E+00 0.  1.
       -3    1    3    3    0  502 -0.75350868600E+03 -0.17596890331E+02  0.12025586109E+02  0.75381006583E+03  0.10100000352E+00 0. -1.
</event>
<event>
 5   0  0.3308275E-04  0.1816066E+04  0.7818609E-02  0.8697802E-01
       -1   -1    0    0    0  501  0.00000000000E+00  0.00000000000E+00  0.61952150545E+03  0.61952150547E+03  0.50400001928E-02 0.  1.
        1   -1    0    0  501    0  0.00000000000E+00  0.00000000000E+00 -0.13309044020E+04  0.13309044020E+04  0.50400001928E-02 0. -1.
    10030    2    1    2    0    0  0.00000000000E+00  0.00000000000E+00 -0.71138289659E+03  0.19504259075E+04  0.18160659666E+04 0.  0.
        3    1    3    3  502    0  0.41276210402E+02  0.16855725210E+03  0.60154628596E+03  0.62607764465E+03  0.10100000352E+00 0.  1.
       -3    1    3    3    0  502 -0.41276210402E+02 -0.16855725210E+03 -0.13129291825E+04  0.13243482629E+04  0.10100000352E+00 0. -1.
</event>
<event>
 5   0  0.6853162E-04  0.1796727E+04  0.7818609E-02  0.8708042E-01
       -2   -1    0    0    0  501  0.00000000000E+00  0.00000000000E+00  0.39312606994E+03  0.39312606995E+03  0.25500000920E-02 0. -1.
        2   -1    0    0  501    0  0.00000000000E+00  0.00000000000E+00 -0.20529215503E+04  0.20529215504E+04  0.25500000920E-02 0.  1.
    10030    2    1    2    0    0  0.00000000000E+00  0.00000000000E+00 -0.16597954804E+04  0.24460476203E+04  0.17967270032E+04 0.  0.
        2    1    3    3  502    0 -0.39954000826E+03  0.23245353855E+03  0.21880636139E+03  0.51141283673E+03  0.25500000920E-02 0. -1.
       -2    1    3    3    0  502  0.39954000826E+03 -0.23245353855E+03 -0.18786018418E+04  0.19346347836E+04  0.25500000920E-02 0.  1.
</event>
<event>
 5   0  0.6771967E-04  0.1126720E+04  0.7818609E-02  0.9179533E-01
        2   -1    0    0  501    0  0.00000000000E+00  0.00000000000E+00  0.58782303332E+03  0.58782303333E+03  0.25500000920E-02 0. -1.
       -2   -1    0    0    0  501  0.00000000000E+00  0.00000000000E+00 -0.53991486216E+03  0.53991486216E+03  0.25500000920E-02 0.  1.
    10030    2    1    2    0    0  0.00000000000E+00  0.00000000000E+00  0.47908171166E+02  0.11277378955E+04  0.11267198268E+04 0.  0.
        1    1    3    3  502    0  0.11220188727E+03 -0.21751412817E+03  0.53183028242E+03  0.58544436865E+03  0.50400001928E-02 0. -1.
       -1    1    3    3    0  502 -0.11220188727E+03  0.21751412817E+03 -0.48392211126E+03  0.54229352684E+03  0.50400001928E-02 0.  1.
</event>
<event>
 5   0  0.6774451E-04  0.1774015E+04  0.7818609E-02  0.8720241E-01
       -2   -1    0    0    0  501  0.00000000000E+00  0.00000000000E+00  0.60045110709E+03  0.60045110710E+03  0.25500000920E-02 0.  1.
        2   -1    0    0  501    0  0.00000000000E+00  0.00000000000E+00 -0.13103183986E+04  0.13103183986E+04  0.25500000920E-02 0. -1.
    10030    2    1    2    0    0  0.00000000000E+00  0.00000000000E+00 -0.70986729150E+03  0.19107695057E+04  0.17740148061E+04 0.  0.
        4    1    3    3  502    0 -0.87762671938E+02 -0.85312298213E+03 -0.11107516315E+03  0.86478923097E+03  0.12699999809E+01 0.  1.
       -4    1    3    3    0  502  0.87762671938E+02  0.85312298213E+03 -0.59879212835E+03  0.10459802747E+04  0.12699999809E+01 0. -1.
</event>
<event>
 5   0  0.3413839E-04  0.1803453E+04  0.7818609E-02  0.8704466E-01
       -1   -1    0    0    0  501  0.00000000000E+00  0.00000000000E+00  0.54618982165E+03  0.54618982167E+03  0.50400001928E-02 0.  1.
        1   -1    0    0  501    0  0.00000000000E+00  0.00000000000E+00 -0.14886956561E+04  0.14886956561E+04  0.50400001928E-02 0. -1.
    10030    2    1    2    0    0  0.00000000000E+00  0.00000000000E+00 -0.94250583447E+03  0.20348854778E+04  0.18034527052E+04 0.  0.
        5    1    3    3  502    0 -0.75879995168E+02  0.41407722704E+03 -0.13709982199E+04  0.14341812761E+04  0.46999998093E+01 0. -1.
       -5    1    3    3    0  502  0.75879995168E+02 -0.41407722704E+03  0.42849238543E+03  0.60070420174E+03  0.46999998093E+01 0.  1.
</event>
<event>
 5   0  0.6771967E-04  0.1823564E+04  0.7818609E-02  0.8693868E-01
        2   -1    0    0  501    0  0.00000000000E+00  0.00000000000E+00  0.10645489899E+04  0.10645489899E+04  0.25500000920E-02 0. -1.
       -2   -1    0    0    0  501  0.00000000000E+00  0.00000000000E+00 -0.78093730720E+03  0.78093730720E+03  0.25500000920E-02 0.  1.
    10030    2    1    2    0    0  0.00000000000E+00  0.00000000000E+00  0.28361168266E+03  0.18454862971E+04  0.18235635679E+04 0.  0.
        1    1    3    3  502    0 -0.66630303103E+03  0.31099774851E+03 -0.40381073035E+03  0.83889357770E+03  0.50400001928E-02 0.  1.
       -1    1    3    3    0  502  0.66630303103E+03 -0.31099774851E+03  0.68742241301E+03  0.10065927194E+04  0.50400001928E-02 0. -1.
</event>
<event>
 5   0  0.6929121E-04  0.1784775E+04  0.7818609E-02  0.8714438E-01
        2   -1    0    0  501    0  0.00000000000E+00  0.00000000000E+00  0.10526695567E+04  0.10526695567E+04  0.25500000920E-02 0. -1.
       -2   -1    0    0    0  501  0.00000000000E+00  0.00000000000E+00 -0.75651054304E+03  0.75651054305E+03  0.25500000920E-02 0.  1.
    10030    2    1    2    0    0  0.00000000000E+00  0.00000000000E+00  0.29615901366E+03  0.18091800998E+04  0.17847751881E+04 0.  0.
        3    1    3    3  502    0 -0.59947840607E+03  0.65536633743E+03  0.23572691784E+03  0.91893774848E+03  0.10100000352E+00 0.  1.
       -3    1    3    3    0  502  0.59947840607E+03 -0.65536633743E+03  0.60432095821E+02  0.89024235127E+03  0.10100000352E+00 0. -1.
</event>
<event>
 5   0  0.3470962E-04  0.1758468E+04  0.7818609E-02  0.8728703E-01
       -1   -1    0    0    0  501  0.00000000000E+00  0.00000000000E+00  0.60512973602E+03  0.60512973604E+03  0.50400001928E-02 0. -1.
        1   -1    0    0  501    0  0.00000000000E+00  0.00000000000E+00 -0.12774990301E+04  0.12774990301E+04  0.50400001928E-02 0.  1.
    10030    2    1    2    0    0  0.00000000000E+00  0.00000000000E+00 -0.67236929409E+03  0.18826287662E+04  0.17584682549E+04 0.  0.
        4    1    3    3  502    0  0.48538206096E+03 -0.51129158315E+03  0.22630325439E+03  0.74042528587E+03  0.12699999809E+01 0. -1.
       -4    1    3    3    0  502 -0.48538206096E+03  0.51129158315E+03 -0.89867254848E+03  0.11422034803E+04  0.12699999809E+01 0.  1.
</event>
<event>
 5   0  0.6547153E-04  0.1787359E+04  0.7818609E-02  0.8713051E-01
        2   -1    0    0  501    0  0.00000000000E+00  0.00000000000E+00  0.16265408654E+04  0.16265408654E+04  0.25500000920E-02 0.  1.
       -2   -1    0    0    0  501  0.00000000000E+00  0.00000000000E+00 -0.49101910397E+03  0.49101910398E+03  0.25500000920E-02 0. -1.
    10030    2    1    2    0    0  0.00000000000E+00  0.00000000000E+00  0.11355217614E+04  0.21175599694E+04  0.17873585408E+04 0.  0.
        5    1    3    3  502    0 -0.64976748706E+03 -0.35229796553E+03  0.11628849834E+04  0.13779097279E+04  0.46999998093E+01 0.  1.
       -5    1    3    3    0  502  0.64976748706E+03  0.35229796553E+03 -0.27363221961E+02  0.73965024144E+03  0.46999998093E+01 0. -1.
</event>
<event>
 5   0  0.6853162E-04  0.1625114E+04  0.7818609E-02  0.8805266E-01
       -2   -1    0    0    0  501  0.00000000000E+00  0.00000000000E+00  0.61502048361E+03  0.61502048361E+03  0.25500000920E-02 0. -1.
        2   -1    0    0  501    0  0.00000000000E+00  0.00000000000E+00 -0.10735394490E+04  0.10735394490E+04  0.25500000920E-02 0.  1.
    10030    2    1    2    0    0  0.00000000000E+00  0.00000000000E+00 -0.45851896537E+03  0.16885599326E+04  0.16251138435E+04 0.  0.
        2    1    3    3  502    0  0.30917242660E+03 -0.72955097150E+03 -0.42184363538E+02  0.79348076846E+03  0.25500000920E-02 0. -1.
       -2    1    3    3    0  502 -0.30917242660E+03  0.72955097150E+03 -0.41633460183E+03  0.89507916414E+03  0.25500000920E-02 0.  1.
</event>
<event>
 5   0  0.6853162E-04  0.1763544E+04  0.7818609E-02  0.8725930E-01
       -2   -1    0    0    0  501  0.00000000000E+00  0.00000000000E+00  0.35840476475E+03  0.35840476476E+03  0.25500000920E-02 0.  1.
        2   -1    0    0  501    0  0.00000000000E+00  0.00000000000E+00 -0.21693968062E+04  0.21693968062E+04  0.25500000920E-02 0. -1.
    10030    2    1    2    0    0  0.00000000000E+00  0.00000000000E+00 -0.18109920414E+04  0.25278015709E+04  0.17635443311E+04 0.  0.
        2    1    3    3  502    0  0.61977544684E+02  0.23846169078E+03  0.30806252734E+03  0.39447143721E+03  0.25500000920E-02 0.  1.
       -2    1    3    3    0  502 -0.61977544684E+02 -0.23846169078E+03 -0.21190545688E+04  0.21333301337E+04  0.25500000920E-02 0. -1.
</event>
<event>
 5   0  0.3308275E-04  0.1750158E+04  0.7818609E-02  0.8733264E-01
       -1   -1    0    0    0  501  0.00000000000E+00  0.00000000000E+00  0.44361650762E+03  0.44361650765E+03  0.50400001928E-02 0.  1.
        1   -1    0    0  501    0  0.00000000000E+00  0.00000000000E+00 -0.17261821473E+04  0.17261821473E+04  0.50400001928E-02 0. -1.
    10030    2    1    2    0    0  0.00000000000E+00  0.00000000000E+00 -0.12825656397E+04  0.21697986550E+04  0.17501575880E+04 0.  0.
        3    1    3    3  502    0 -0.14679256620E+03 -0.10601894369E+03 -0.17027016932E+04  0.17123028763E+04  0.10100000352E+00 0. -1.
       -3    1    3    3    0  502  0.14679256620E+03  0.10601894369E+03  0.42013605347E+03  0.45749577871E+03  0.10100000352E+00 0.  1.
</event>
<event>
 5   0  0.3377273E-04  0.1815052E+04  0.7818609E-02  0.8698336E-01
        1   -1    0    0  501    0  0.00000000000E+00  0.00000000000E+00  0.13443572076E+04  0.13443572076E+04  0.50400001928E-02 0.  1.
       -1   -1    0    0    0  501  0.00000000000E+00  0.00000000000E+00 -0.61263714194E+03  0.61263714196E+03  0.50400001928E-02 0. -1.
    10030    2    1    2    0    0  0.00000000000E+00  0.00000000000E+00  0.73172006562E+03  0.19569943495E+04  0.18150516879E+04 0.  0.
        2    1    3    3  502    0 -0.72299818435E+02 -0.43040264615E+03  0.12237801156E+04  0.12992734404E+04  0.25500000920E-02 0.  1.
       -2    1    3    3    0  502  0.72299818435E+02  0.43040264615E+03 -0.49206004996E+03  0.65772090915E+03  0.25500000920E-02 0. -1.
</event>
<event>
 5   0  0.6771967E-04  0.1736805E+04  0.7818609E-02  0.8740647E-01
       -2   -1    0    0    0  501  0.00000000000E+00  0.00000000000E+00  0.80657633820E+03  0.80657633820E+03  0.25500000920E-02 0. -1.
        2   -1    0    0  501    0  0.00000000000E+00  0.00000000000E+00 -0.93496727508E+03  0.93496727509E+03  0.25500000920E-02 0.  1.
    10030    2    1    2    0    0  0.00000000000E+00  0.00000000000E+00 -0.12839093689E+03  0.17415436133E+04  0.17368045153E+04 0.  0.
        1    1    3    3  502    0  0.78871161119E+03  0.31063764074E+03 -0.25328555426E+03  0.88471199918E+03  0.50400001928E-02 0.  1.
       -1    1    3    3    0  502 -0.78871161119E+03 -0.31063764074E+03  0.12489461738E+03  0.85683161411E+03  0.50400001928E-02 0. -1.
</event>
<event>
 5   0  0.3377273E-04  0.1815008E+04  0.7818609E-02  0.8698359E-01
       -1   -1    0    0    0  501  0.00000000000E+00  0.00000000000E+00  0.75724702790E+03  0.75724702792E+03  0.50400001928E-02 0.  1.
        1   -1    0    0  501    0  0.00000000000E+00  0.00000000000E+00 -0.10875757658E+04  0.10875757658E+04  0.50400001928E-02 0. -1.
    10030    2    1    2    0    0  0.00000000000E+00  0.00000000000E+00 -0.33032873790E+03  0.18448227937E+04  0.18150080069E+04 0.  0.
        2    1    3    3  502    0  0.48186978433E+03 -0.26962829419E+03  0.56685038980E+03  0.79133891001E+03  0.25500000920E-02 0.  1.
       -2    1    3    3    0  502 -0.48186978433E+03  0.26962829419E+03 -0.89717912770E+03  0.10534838837E+04  0.25500000920E-02 0. -1.
</event>
<event>
 5   0  0.3413839E-04  0.1802554E+04  0.7818609E-02  0.8704942E-01
       -1   -1    0    0    0  501  0.00000000000E+00  0.00000000000E+00  0.14793091160E+04  0.14793091160E+04  0.50400001928E-02 0. -1.
        1   -1    0    0  501    0  0.00000000000E+00  0.00000000000E+00 -0.54910799031E+03  0.54910799033E+03  0.50400001928E-02 0.  1.
    10030    2    1    2    0    0  0.00000000000E+00  0.00000000000E+00  0.93020112566E+03  0.20284171063E+04  0.18025542497E+04 0.  0.
        5    1    3    3  502    0 -0.49413888442E+03 -0.68029388505E+03  0.99931349394E+02  0.84674752537E+03  0.46999998093E+01 0.  1.
       -5    1    3    3    0  502  0.49413888442E+03  0.68029388505E+03  0.83026977626E+03  0.11816695809E+04  0.46999998093E+01 0. -1.
</event>
<event>
 5   0  0.6547153E-04  0.1834349E+04  0.7818609E-02  0.8688243E-01
       -2   -1    0    0    0  501  0.00000000000E+00  0.00000000000E+00  0.10855470750E+04  0.10855470750E+04  0.25500000920E-02 0. -1.
        2   -1    0    0  501    0  0.00000000000E+00  0.00000000000E+00 -0.77491716890E+03  0.77491716890E+03  0.25500000920E-02 0.  1.
    10030    2    1    2    0    0  0.00000000000E+00  0.00000000000E+00  0.31062990608E+03  0.18604642439E+04  0.18343490028E+04 0.  0.
        5    1    3    3  502    0 -0.28269068971E+03 -0.13644589224E+03  0.10293584611E+04  0.10761656188E+04  0.46999998093E+01 0. -1.
       -5    1    3    3    0  502  0.28269068971E+03  0.13644589224E+03 -0.71872855503E+03  0.78429862512E+03  0.46999998093E+01 0.  1.
</event>
<event>
 5   0  0.3377273E-04  0.1692588E+04  0.7818609E-02  0.8765603E-01
       -1   -1    0    0    0  501  0.00000000000E+00  0.00000000000E+00  0.70688896529E+03  0.70688896531E+03  0.50400001928E-02 0.  1.
        1   -1    0    0  501    0  0.00000000000E+00  0.00000000000E+00 -0.10131904450E+04  0.10131904450E+04  0.50400001928E-02 0. -1.
    10030    2    1    2    0    0  0.00000000000E+00  0.00000000000E+00 -0.30630147970E+03  0.17200794103E+04  0.16925875402E+04 0.  0.
        2    1    3    3  502    0  0.18003818570E+03 -0.20195820612E+02 -0.99325299851E+03  0.10096401035E+04  0.25500000920E-02 0. -1.
       -2    1    3    3    0  502 -0.18003818570E+03  0.20195820612E+02  0.68695151882E+03  0.71043930683E+03  0.25500000920E-02 0.  1.
</event>
<event>
 5   0  0.3308275E-04  0.1638057E+04  0.7818609E-02  0.8797503E-01
        1   -1    0    0  501    0  0.00000000000E+00  0.00000000000E+00  0.11121713351E+04  0.11121713351E+04  0.50400001928E-02 0. -1.
       -1   -1    0    0    0  501  0.00000000000E+00  0.00000000000E+00 -0.60315137256E+03  0.60315137258E+03  0.50400001928E-02 0.  1.
    10030    2    1    2    0    0  0.00000000000E+00  0.00000000000E+00  0.50901996251E+03  0.17153227077E+04  0.16380569798E+04 0.  0.
        3    1    3    3  502    0 -0.14676333169E+03 -0.28216363468E+03 -0.53584390661E+03  0.62312478262E+03  0.10100000352E+00 0.  1.
       -3    1    3    3    0  502  0.14676333169E+03  0.28216363468E+03  0.10448638691E+04  0.10921979250E+04  0.10100000352E+00 0. -1.
</event>
<event>
 5   0  0.3413839E-04  0.1711170E+04  0.7818609E-02  0.8755019E-01
        1   -1    0    0  501    0  0.00000000000E+00  0.00000000000E+00  0.75450277451E+03  0.75450277453E+03  0.50400001928E-02 0.  1.
       -1   -1    0    0    0  501  0.00000000000E+00  0.00000000000E+00 -0.97020900031E+03  0.97020900033E+03  0.50400001928E-02 0. -1.
    10030    2    1    2    0    0  0.00000000000E+00  0.00000000000E+00 -0.21570622580E+03  0.17247117749E+04  0.17111696381E+04 0.  0.
        5    1    3    3  502    0  0.56237610404E+03  0.39051701109E+02  0.54083280954E+03  0.78122604643E+03  0.46999998093E+01 0.  1.
       -5    1    3    3    0  502 -0.56237610404E+03 -0.39051701109E+02 -0.75653903534E+03  0.94348572843E+03  0.46999998093E+01 0. -1.
</event>
<event>
 5   0  0.6853162E-04  0.1802270E+04  0.7818609E-02  0.8705093E-01
        2   -1    0    0  501    0  0.00000000000E+00  0.00000000000E+00  0.10874008566E+04  0.10874008566E+04  0.25500000920E-02 0.  1.
       -2   -1    0    0    0  501  0.00000000000E+00  0.00000000000E+00 -0.74677529615E+03  0.74677529616E+03  0.25500000920E-02 0. -1.
    10030    2    1    2    0    0  0.00000000000E+00  0.00000000000E+00  0.34062556040E+03  0.18341761527E+04  0.18022697875E+04 0.  0.
        2    1    3    3  502    0  0.46853260671E+03 -0.42313482147E+03 -0.48409364852E+03  0.79555800620E+03  0.25500000920E-02 0. -1.
       -2    1    3    3    0  502 -0.46853260671E+03  0.42313482147E+03  0.82471920893E+03  0.10386181465E+04  0.25500000920E-02 0.  1.
</event>
<event>
 5   0  0.6771967E-04  0.1873581E+04  0.7818609E-02  0.8668119E-01
        2   -1    0    0  501    0  0.00000000000E+00  0.00000000000E+00  0.85408654147E+03  0.85408654148E+03  0.25500000920E-02 0. -1.
       -2   -1    0    0    0  501  0.00000000000E+00  0.00000000000E+00 -0.10275034307E+04  0.10275034308E+04  0.25500000920E-02 0.  1.
    10030    2    1    2    0    0  0.00000000000E+00  0.00000000000E+00 -0.17341688927E+03  0.18815899722E+04  0.18735814383E+04 0.  0.
        1    1    3    3  502    0  0.91708419668E+03 -0.18713473952E+03 -0.47631753089E+02  0.93719347973E+03  0.50400001928E-02 0.  1.
       -1    1    3    3    0  502 -0.91708419668E+03  0.18713473952E+03 -0.12578513619E+03  0.94439649250E+03  0.50400001928E-02 0. -1.
</event>
<event>
 5   0  0.3308275E-04  0.1781551E+04  0.7818609E-02  0.8716172E-01
       -1   -1    0    0    0  501  0.00000000000E+00  0.00000000000E+00  0.74567908217E+03  0.74567908218E+03  0.50400001928E-02 0. -1.
        1   -1    0    0  501    0  0.00000000000E+00  0.00000000000E+00 -0.10641055786E+04  0.10641055786E+04  0.50400001928E-02 0.  1.
    10030    2    1    2    0    0  0.00000000000E+00  0.00000000000E+00 -0.31842649638E+03  0.18097846607E+04  0.17815513141E+04 0.  0.
        3    1    3    3  502    0 -0.58343695452E+03  0.62452572814E+03 -0.41429053415E+03  0.94977245796E+03  0.10100000352E+00 0.  1.
       -3    1    3    3    0  502  0.58343695452E+03 -0.62452572814E+03  0.95864037767E+02  0.86001220279E+03  0.10100000352E+00 0. -1.
</event>
<event>
 5   0  0.6771967E-04  0.1039900E+04  0.7818609E-02  0.9265834E-01
       -2   -1    0    0    0  501  0.00000000000E+00  0.00000000000E+00  0.47519126424E+03  0.47519126425E+03  0.25500000920E-02 0. -1.
        2   -1    0    0  501    0  0.00000000000E+00  0.00000000000E+00 -0.56892435732E+03  0.56892435733E+03  0.25500000920E-02 0.  1.
    10030    2    1    2    0    0  0.00000000000E+00  0.00000000000E+00 -0.93733093082E+02  0.10441156216E+04  0.10398997733E+04 0.  0.
        1    1    3    3  502    0  0.47917275146E+03 -0.19998139127E+03 -0.19391362749E+02  0.51959128897E+03  0.50400001928E-02 0.  1.
       -1    1    3    3    0  502 -0.47917275146E+03  0.19998139127E+03 -0.74341730333E+02  0.52452433260E+03  0.50400001928E-02 0. -1.
</event>
<event>
 5   0  0.6771967E-04  0.1786153E+04  0.7818609E-02  0.8713698E-01
        2   -1    0    0  501    0  0.00000000000E+00  0.00000000000E+00  0.48768243214E+03  0.48768243215E+03  0.25500000920E-02 0.  1.
       -2   -1    0    0    0  501  0.00000000000E+00  0.00000000000E+00 -0.16354610745E+04  0.16354610745E+04  0.25500000920E-02 0. -1.
    10030    2    1    2    0    0  0.00000000000E+00  0.00000000000E+00 -0.11477786424E+04  0.21231435067E+04  0.17861529996E+04 0.  0.
        1    1    3    3  502    0  0.88850368139E+03 -0.83005088833E+02 -0.61603256532E+03  0.10843545353E+04  0.50400001928E-02 0.  1.
       -1    1    3    3    0  502 -0.88850368139E+03  0.83005088833E+02 -0.53174607707E+03  0.10387889714E+04  0.50400001928E-02 0. -1.
</event>
<event>
 5   0  0.6547153E-04  0.1790159E+04  0.7818609E-02  0.8711550E-01
        2   -1    0    0  501    0  0.00000000000E+00  0.00000000000E+00  0.51596833550E+03  0.51596833551E+03  0.25500000920E-02 0.  1.
       -2   -1    0    0    0  501  0.00000000000E+00  0.00000000000E+00 -0.15527450688E+04  0.15527450688E+04  0.25500000920E-02 0. -1.
    10030    2    1    2    0    0  0.00000000000E+00  0.00000000000E+00 -0.10367767333E+04  0.20687134043E+04  0.17901589746E+04 0.  0.
        5    1    3    3  502    0  0.70664808632E+03 -0.54337946661E+03 -0.61178824465E+03  0.10811659026E+04  0.46999998093E+01 0. -1.
       -5    1    3    3    0  502 -0.70664808632E+03  0.54337946661E+03 -0.42498848863E+03  0.98754750170E+03  0.46999998093E+01 0.  1.
</event>
<event>
 5   0  0.6929121E-04  0.1877035E+04  0.7818609E-02  0.8666373E-01
        2   -1    0    0  501    0  0.00000000000E+00  0.00000000000E+00  0.16911621045E+04  0.16911621045E+04  0.25500000920E-02 0.  1.
       -2   -1    0    0    0  501  0.00000000000E+00  0.00000000000E+00 -0.52083422287E+03  0.52083422288E+03  0.25500000920E-02 0. -1.
    10030    2    1    2    0    0  0.00000000000E+00  0.00000000000E+00  0.11703278816E+04  0.22119963274E+04  0.18770350028E+04 0.  0.
        3    1    3    3  502    0  0.14407516242E+03 -0.72121026326E+03 -0.10189823654E+03  0.74248579587E+03  0.10100000352E+00 0. -1.
       -3    1    3    3    0  502 -0.14407516242E+03  0.72121026326E+03  0.12722261182E+04  0.14695105315E+04  0.10100000352E+00 0.  1.
</event>
<event>
 5   0  0.3404261E-04  0.1752887E+04  0.7818609E-02  0.8731763E-01
        1   -1    0    0  501    0  0.00000000000E+00  0.00000000000E+00  0.13834696298E+04  0.13834696298E+04  0.50400001928E-02 0.  1.
       -1   -1    0    0    0  501  0.00000000000E+00  0.00000000000E+00 -0.55523649006E+03  0.55523649008E+03  0.50400001928E-02 0. -1.
    10030    2    1    2    0    0  0.00000000000E+00  0.00000000000E+00  0.82823313978E+03  0.19387061199E+04  0.17528865581E+04 0.  0.
        1    1    3    3  502    0 -0.57822909990E+03  0.64712389086E+03  0.54973043669E+03  0.10272885550E+04  0.50400001928E-02 0.  1.
       -1    1    3    3    0  502  0.57822909990E+03 -0.64712389086E+03  0.27850270309E+03  0.91141756498E+03  0.50400001928E-02 0. -1.
</event>
<event>
 5   0  0.3404261E-04  0.1808588E+04  0.7818609E-02  0.8701746E-01
        1   -1    0    0  501    0  0.00000000000E+00  0.00000000000E+00  0.17613073565E+04  0.17613073565E+04  0.50400001928E-02 0. -1.
       -1   -1    0    0    0  501  0.00000000000E+00  0.00000000000E+00 -0.46428453523E+03  0.46428453526E+03  0.50400001928E-02 0.  1.
    10030    2    1    2    0    0  0.00000000000E+00  0.00000000000E+00  0.12970228213E+04  0.22255918918E+04  0.18085881427E+04 0.  0.
        1    1    3    3  502    0 -0.20258188446E+03 -0.38908280302E+03  0.16216126480E+04  0.16798965526E+04  0.50400001928E-02 0. -1.
       -1    1    3    3    0  502  0.20258188446E+03  0.38908280302E+03 -0.32458982669E+03  0.54569533912E+03  0.50400001928E-02 0.  1.
</event>
<event>
 5   0  0.3404261E-04  0.1778682E+04  0.7818609E-02  0.8717719E-01
       -1   -1    0    0    0  501  0.00000000000E+00  0.00000000000E+00  0.62265862603E+03  0.62265862605E+03  0.50400001928E-02 0.  1.
        1   -1    0    0  501    0  0.00000000000E+00  0.00000000000E+00 -0.12702418558E+04  0.12702418558E+04  0.50400001928E-02 0. -1.
    10030    2    1    2    0    0  0.00000000000E+00  0.00000000000E+00 -0.64758322974E+03  0.18929004818E+04  0.17786815889E+04 0.  0.
        1    1    3    3  502    0 -0.86860381612E+03 -0.16172015746E+03 -0.21578003506E+03  0.90949822554E+03  0.50400001928E-02 0.  1.
       -1    1    3    3    0  502  0.86860381612E+03  0.16172015746E+03 -0.43180319469E+03  0.98340225629E+03  0.50400001928E-02 0. -1.
</event>
<event>
 5   0  0.6547153E-04  0.1610044E+04  0.7818609E-02  0.8814401E-01
       -2   -1    0    0    0  501  0.00000000000E+00  0.00000000000E+00  0.55599557301E+03  0.55599557301E+03  0.25500000920E-02 0.  1.
        2   -1    0    0  501    0  0.00000000000E+00  0.00000000000E+00 -0.11655852312E+04  0.11655852312E+04  0.25500000920E-02 0. -1.
    10030    2    1    2    0    0  0.00000000000E+00  0.00000000000E+00 -0.60958965817E+03  0.17215808042E+04  0.16100437615E+04 0.  0.
        5    1    3    3  502    0  0.11133030893E+03 -0.31441079356E+03  0.47861994762E+03  0.58339328848E+03  0.46999998093E+01 0.  1.
       -5    1    3    3    0  502 -0.11133030893E+03  0.31441079356E+03 -0.10882096058E+04  0.11381875157E+04  0.46999998093E+01 0. -1.
</event>
<event>
 5   0  0.6771967E-04  0.1833956E+04  0.7818609E-02  0.8688447E-01
       -2   -1    0    0    0  501  0.00000000000E+00  0.00000000000E+00  0.10224272695E+04  0.10224272695E+04  0.25500000920E-02 0. -1.
        2   -1    0    0  501    0  0.00000000000E+00  0.00000000000E+00 -0.82240464288E+03  0.82240464288E+03  0.25500000920E-02 0.  1.
    10030    2    1    2    0    0  0.00000000000E+00  0.00000000000E+00  0.20002262659E+03  0.18448319124E+04  0.18339563064E+04 0.  0.
        1    1    3    3  502    0 -0.32361292615E+03  0.84455367403E+03 -0.52056243683E+02  0.90592830114E+03  0.50400001928E-02 0.  1.
       -1    1    3    3    0  502  0.32361292615E+03 -0.84455367403E+03  0.25207887028E+03  0.93890361121E+03  0.50400001928E-02 0. -1.
</event>
<event>
 5   0  0.3413839E-04  0.1773691E+04  0.7818609E-02  0.8720417E-01
       -1   -1    0    0    0  501  0.00000000000E+00  0.00000000000E+00  0.49581233137E+03  0.49581233140E+03  0.50400001928E-02 0. -1.
        1   -1    0    0  501    0  0.00000000000E+00  0.00000000000E+00 -0.15862754507E+04  0.15862754508E+04  0.50400001928E-02 0.  1.
    10030    2    1    2    0    0  0.00000000000E+00  0.00000000000E+00 -0.10904631194E+04  0.20820877822E+04  0.17736909871E+04 0.  0.
        5    1    3    3  502    0 -0.83889292180E+03  0.33271690677E+02 -0.88060706730E+03  0.12166919235E+04  0.46999998093E+01 0.  1.
       -5    1    3    3    0  502  0.83889292180E+03 -0.33271690677E+02 -0.20985605208E+03  0.86539585869E+03  0.46999998093E+01 0. -1.
</event>
<event>
 5   0  0.3308275E-04  0.1812474E+04  0.7818609E-02  0.8699694E-01
       -1   -1    0    0    0  501  0.00000000000E+00  0.00000000000E+00  0.92332266400E+03  0.92332266401E+03  0.50400001928E-02 0.  1.
        1   -1    0    0  501    0  0.00000000000E+00  0.00000000000E+00 -0.88946738545E+03  0.88946738546E+03  0.50400001928E-02 0. -1.
    10030    2    1    2    0    0  0.00000000000E+00  0.00000000000E+00  0.33855278550E+02  0.18127900495E+04  0.18124738849E+04 0.  0.
        3    1    3    3  502    0 -0.72796877407E+01  0.89301018144E+03  0.17104932025E+03  0.90927336823E+03  0.10100000352E+00 0. -1.
       -3    1    3    3    0  502  0.72796877407E+01 -0.89301018144E+03 -0.13719404170E+03  0.90351668124E+03  0.10100000352E+00 0.  1.
</event>
<event>
 5   0  0.6771967E-04  0.1957542E+04  0.7818609E-02  0.8626733E-01
       -2   -1    0    0    0  501  0.00000000000E+00  0.00000000000E+00  0.12905151592E+04  0.12905151592E+04  0.25500000920E-02 0. -1.
        2   -1    0    0  501    0  0.00000000000E+00  0.00000000000E+00 -0.74233350572E+03  0.74233350572E+03  0.25500000920E-02 0.  1.
    10030    2    1    2    0    0  0.00000000000E+00  0.00000000000E+00  0.54818165347E+03  0.20328486649E+04  0.19575419713E+04 0.  0.
        1    1    3    3  502    0  0.19900299959E+03 -0.71670943022E+03  0.93473901537E+03  0.11945759198E+04  0.50400001928E-02 0. -1.
       -1    1    3    3    0  502 -0.19900299959E+03  0.71670943022E+03 -0.38655736190E+03  0.83827274515E+03  0.50400001928E-02 0.  1.
</event>
<event>
 5   0  0.3404261E-04  0.1818762E+04  0.7818609E-02  0.8696385E-01
        1   -1    0    0  501    0  0.00000000000E+00  0.00000000000E+00  0.12778381642E+04  0.12778381642E+04  0.50400001928E-02 0.  1.
       -1   -1    0    0    0  501  0.00000000000E+00  0.00000000000E+00 -0.64716660194E+03  0.64716660196E+03  0.50400001928E-02 0. -1.
    10030    2    1    2    0    0  0.00000000000E+00  0.00000000000E+00  0.63067156225E+03  0.19250047662E+04  0.18187624172E+04 0.  0.
        1    1    3    3  502    0  0.77874258983E+02 -0.76344277798E+03  0.83175634592E+03  0.11316924911E+04  0.50400001928E-02 0.  1.
       -1    1    3    3    0  502 -0.77874258983E+02  0.76344277798E+03 -0.20108478367E+03  0.79331227503E+03  0.50400001928E-02 0. -1.
</event>
<event>
 5   0  0.3377273E-04  0.1826170E+04  0.7818609E-02  0.8692505E-01
        1   -1    0    0  501    0  0.00000000000E+00  0.00000000000E+00  0.94028694551E+03  0.94028694552E+03  0.50400001928E-02 0. -1.
       -1   -1    0    0    0  501  0.00000000000E+00  0.00000000000E+00 -0.88666972301E+03  0.88666972303E+03  0.50400001928E-02 0.  1.
    10030    2    1    2    0    0  0.00000000000E+00  0.00000000000E+00  0.53617222495E+02  0.18269566685E+04  0.18261697244E+04 0.  0.
        2    1    3    3  502    0 -0.45578951238E+03 -0.41567339129E+03  0.70029668792E+03  0.93324375109E+03  0.25500000920E-02 0. -1.
       -2    1    3    3    0  502  0.45578951238E+03  0.41567339129E+03 -0.64667946542E+03  0.89371291746E+03  0.25500000920E-02 0.  1.
</event>
<event>
 5   0  0.3470962E-04  0.1819602E+04  0.7818609E-02  0.8695944E-01
        1   -1    0    0  501    0  0.00000000000E+00  0.00000000000E+00  0.62481113902E+03  0.62481113904E+03  0.50400001928E-02 0. -1.
       -1   -1    0    0    0  501  0.00000000000E+00  0.00000000000E+00 -0.13247805489E+04  0.13247805489E+04  0.50400001928E-02 0.  1.
    10030    2    1    2    0    0  0.00000000000E+00  0.00000000000E+00 -0.69996940987E+03  0.19495916879E+04  0.18196017627E+04 0.  0.
        4    1    3    3  502    0  0.81352698676E+03 -0.96653064195E+02  0.73969451925E+02  0.82258195076E+03  0.12699999809E+01 0. -1.
       -4    1    3    3    0  502 -0.81352698676E+03  0.96653064195E+02 -0.77393886179E+03  0.11270097372E+04  0.12699999809E+01 0.  1.
</event>
<event>
 5   0  0.3470962E-04  0.1859122E+04  0.7818609E-02  0.8675476E-01
        1   -1    0    0  501    0  0.00000000000E+00  0.00000000000E+00  0.12301323018E+04  0.12301323018E+04  0.50400001928E-02 0. -1.
       -1   -1    0    0    0  501  0.00000000000E+00  0.00000000000E+00 -0.70243142783E+03  0.70243142785E+03  0.50400001928E-02 0.  1.
    10030    2    1    2    0    0  0.00000000000E+00  0.00000000000E+00  0.52770087397E+03  0.19325637297E+04  0.18591219317E+04 0.  0.
        4    1    3    3  502    0 -0.81101288281E+03  0.16816304457E+03  0.70249291300E+03  0.10860564494E+04  0.12699999809E+01 0. -1.
       -4    1    3    3    0  502  0.81101288281E+03 -0.16816304457E+03 -0.17479203903E+03  0.84650728022E+03  0.12699999809E+01 0.  1.
</event>
<event>
 5   0  0.3404261E-04  0.1214711E+04  0.7818609E-02  0.9100077E-01
        1   -1    0    0  501    0  0.00000000000E+00  0.00000000000E+00  0.17362951240E+04  0.17362951240E+04  0.50400001928E-02 0. -1.
       -1   -1    0    0    0  501  0.00000000000E+00  0.00000000000E+00 -0.21245279576E+03  0.21245279582E+03  0.50400001928E-02 0.  1.
    10030    2    1    2    0    0  0.00000000000E+00  0.00000000000E+00  0.15238423282E+04  0.19487479198E+04  0.12147110824E+04 0.  0.
        1    1    3    3  502    0  0.14355290686E+03 -0.51601339705E+02  0.17050612615E+04  0.17118715024E+04  0.50400001928E-02 0. -1.
       -1    1    3    3    0  502 -0.14355290686E+03  0.51601339705E+02 -0.18121893325E+03  0.23687641741E+03  0.50400001928E-02 0.  1.
</event>
<event>
 5   0  0.3308275E-04  0.2164781E+04  0.7818609E-02  0.8533232E-01
        1   -1    0    0  501    0  0.00000000000E+00  0.00000000000E+00  0.93853696300E+03  0.93853696301E+03  0.50400001928E-02 0. -1.
       -1   -1    0    0    0  501  0.00000000000E+00  0.00000000000E+00 -0.12482934024E+04  0.12482934024E+04  0.50400001928E-02 0.  1.
    10030    2    1    2    0    0  0.00000000000E+00  0.00000000000E+00 -0.30975643941E+03  0.21868303654E+04  0.21647812812E+04 0.  0.
        3    1    3    3  502    0 -0.39892850690E+03  0.88989078018E+03 -0.62925672138E+03  0.11606091443E+04  0.10100000352E+00 0.  1.
       -3    1    3    3    0  502  0.39892850690E+03 -0.88989078018E+03  0.31950028197E+03  0.10262212211E+04  0.10100000352E+00 0. -1.
</event>
<event>
 5   0  0.3470962E-04  0.1748250E+04  0.7818609E-02  0.8734314E-01
       -1   -1    0    0    0  501  0.00000000000E+00  0.00000000000E+00  0.43905187355E+03  0.43905187358E+03  0.50400001928E-02 0.  1.
        1   -1    0    0  501    0  0.00000000000E+00  0.00000000000E+00 -0.17403277373E+04  0.17403277373E+04  0.50400001928E-02 0. -1.
    10030    2    1    2    0    0  0.00000000000E+00  0.00000000000E+00 -0.13012758638E+04  0.21793796109E+04  0.17482495860E+04 0.  0.
        4    1    3    3  502    0  0.50991164523E+03 -0.36084655609E+03  0.11160106298E+03  0.63456798938E+03  0.12699999809E+01 0.  1.
       -4    1    3    3    0  502 -0.50991164523E+03  0.36084655609E+03 -0.14128769268E+04  0.15448116215E+04  0.12699999809E+01 0. -1.
</event>
<event>
 5   0  0.6547153E-04  0.1835295E+04  0.7818609E-02  0.8687752E-01
        2   -1    0    0  501    0  0.00000000000E+00  0.00000000000E+00  0.27295178814E+04  0.27295178814E+04  0.25500000920E-02 0. -1.
       -2   -1    0    0    0  501  0.00000000000E+00  0.00000000000E+00 -0.30850741896E+03  0.30850741897E+03  0.25500000920E-02 0.  1.
    10030    2    1    2    0    0  0.00000000000E+00  0.00000000000E+00  0.24210104625E+04  0.30380253004E+04  0.18352945449E+04 0.  0.
        5    1    3    3  502    0 -0.86968259037E+03  0.25260741301E+03  0.96555991995E+03  0.13238150785E+04  0.46999998093E+01 0.  1.
       -5    1    3    3    0  502  0.86968259037E+03 -0.25260741301E+03  0.14554505425E+04  0.17142102219E+04  0.46999998093E+01 0. -1.
</event>
<event>
 5   0  0.3377273E-04  0.1838727E+04  0.7818609E-02  0.8685972E-01
        1   -1    0    0  501    0  0.00000000000E+00  0.00000000000E+00  0.13373077680E+04  0.13373077680E+04  0.50400001928E-02 0.  1.
       -1   -1    0    0    0  501  0.00000000000E+00  0.00000000000E+00 -0.63203781110E+03  0.63203781112E+03  0.50400001928E-02 0. -1.
    10030    2    1    2    0    0  0.00000000000E+00  0.00000000000E+00  0.70526995692E+03  0.19693455792E+04  0.18387268144E+04 0.  0.
        2    1    3    3  502    0  0.21973225119E+03  0.29253713959E+03  0.12559768482E+04  0.13081812120E+04  0.25500000920E-02 0.  1.
       -2    1    3    3    0  502 -0.21973225119E+03 -0.29253713959E+03 -0.55070689128E+03  0.66116436713E+03  0.25500000920E-02 0. -1.
</event>
<event>
 5   0  0.3308275E-04  0.1763164E+04  0.7818609E-02  0.8726137E-01
        1   -1    0    0  501    0  0.00000000000E+00  0.00000000000E+00  0.12108036615E+04  0.12108036615E+04  0.50400001928E-02 0.  1.
       -1   -1    0    0    0  501  0.00000000000E+00  0.00000000000E+00 -0.64187692132E+03  0.64187692134E+03  0.50400001928E-02 0. -1.
    10030    2    1    2    0    0  0.00000000000E+00  0.00000000000E+00  0.56892674014E+03  0.18526805828E+04  0.17631641178E+04 0.  0.
        3    1    3    3  502    0 -0.40373161713E+03  0.46588796305E+03 -0.37771882051E+03  0.72299538751E+03  0.10100000352E+00 0. -1.
       -3    1    3    3    0  502  0.40373161713E+03 -0.46588796305E+03  0.94664556065E+03  0.11296851953E+04  0.10100000352E+00 0.  1.
</event>
<event>
 5   0  0.3377273E-04  0.1714083E+04  0.7818609E-02  0.8753373E-01
        1   -1    0    0  501    0  0.00000000000E+00  0.00000000000E+00  0.26735145915E+04  0.26735145915E+04  0.50400001928E-02 0. -1.
       -1   -1    0    0    0  501  0.00000000000E+00  0.00000000000E+00 -0.27473949754E+03  0.27473949758E+03  0.50400001928E-02 0.  1.
    10030    2    1    2    0    0  0.00000000000E+00  0.00000000000E+00  0.23987750940E+04  0.29482540891E+04  0.17140829100E+04 0.  0.
        2    1    3    3  502    0  0.91760455522E+02 -0.83141282392E+03  0.87827900156E+03  0.12128649016E+04  0.25500000920E-02 0. -1.
       -2    1    3    3    0  502 -0.91760455522E+02  0.83141282392E+03  0.15204960924E+04  0.17353891875E+04  0.25500000920E-02 0.  1.
</event>
<event>
 5   0  0.6771967E-04  0.1780668E+04  0.7818609E-02  0.8716648E-01
        2   -1    0    0  501    0  0.00000000000E+00  0.00000000000E+00  0.74663226391E+03  0.74663226392E+03  0.25500000920E-02 0. -1.
       -2   -1    0    0    0  501  0.00000000000E+00  0.00000000000E+00 -0.10616930121E+04  0.10616930121E+04  0.25500000920E-02 0.  1.
    10030    2    1    2    0    0  0.00000000000E+00  0.00000000000E+00 -0.31506074821E+03  0.18083252760E+04  0.17806675796E+04 0.  0.
        1    1    3    3  502    0 -0.25980647171E+02 -0.31172702073E+03  0.68899081712E+03  0.75667501319E+03  0.50400001928E-02 0. -1.
       -1    1    3    3    0  502  0.25980647171E+02  0.31172702073E+03 -0.10040515653E+04  0.10516502629E+04  0.50400001928E-02 0.  1.
</event>
<event>
 5   0  0.3404261E-04  0.1826417E+04  0.7818609E-02  0.8692376E-01
        1   -1    0    0  501    0  0.00000000000E+00  0.00000000000E+00  0.11485898186E+04  0.11485898186E+04  0.50400001928E-02 0. -1.
       -1   -1    0    0    0  501  0.00000000000E+00  0.00000000000E+00 -0.72606395916E+03  0.72606395918E+03  0.50400001928E-02 0.  1.
    10030    2    1    2    0    0  0.00000000000E+00  0.00000000000E+00  0.42252585941E+03  0.18746537778E+04  0.18264168978E+04 0.  0.
        1    1    3    3  502    0 -0.57338126255E+03  0.32874254279E+02 -0.51749072393E+03  0.77307401859E+03  0.50400001928E-02 0.  1.
       -1    1    3    3    0  502  0.57338126255E+03 -0.32874254279E+02  0.94001658334E+03  0.11015797592E+04  0.50400001928E-02 0. -1.
</event>
<event>
 5   0  0.6853162E-04  0.1683939E+04  0.7818609E-02  0.8770578E-01
       -2   -1    0    0    0  501  0.00000000000E+00  0.00000000000E+00  0.53821499510E+03  0.53821499510E+03  0.25500000920E-02 0.  1.
        2   -1    0    0  501    0  0.00000000000E+00  0.00000000000E+00 -0.13171544931E+04  0.13171544931E+04  0.25500000920E-02 0. -1.
    10030    2    1    2    0    0  0.00000000000E+00  0.00000000000E+00 -0.77893949805E+03  0.18553694882E+04  0.16839385964E+04 0.  0.
        2    1    3    3  502    0  0.75545193816E+03  0.36044442187E+03 -0.48975497744E+03  0.96978747675E+03  0.25500000920E-02 0. -1.
       -2    1    3    3    0  502 -0.75545193816E+03 -0.36044442187E+03 -0.28918452061E+03  0.88558201150E+03  0.25500000920E-02 0.  1.
</event>
<event>
 5   0  0.3413839E-04  0.1794269E+04  0.7818609E-02  0.8709353E-01
        1   -1    0    0  501    0  0.00000000000E+00  0.00000000000E+00  0.47814281988E+03  0.47814281991E+03  0.50400001928E-02 0.  1.
       -1   -1    0    0    0  501  0.00000000000E+00  0.00000000000E+00 -0.16832843475E+04  0.16832843475E+04  0.50400001928E-02 0. -1.
    10030    2    1    2    0    0  0.00000000000E+00  0.00000000000E+00 -0.12051415276E+04  0.21614271674E+04  0.17942690151E+04 0.  0.
        5    1    3    3  502    0  0.19797326734E+02  0.67897569156E+03  0.10337460792E+03  0.68710139240E+03  0.46999998093E+01 0.  1.
       -5    1    3    3    0  502 -0.19797326734E+02 -0.67897569156E+03 -0.13085161355E+04  0.14743257750E+04  0.46999998093E+01 0. -1.
</event>
<event>
 5   0  0.3404261E-04  0.1763905E+04  0.7818609E-02  0.8725733E-01
       -1   -1    0    0    0  501  0.00000000000E+00  0.00000000000E+00  0.57313229934E+03  0.57313229937E+03  0.50400001928E-02 0. -1.
        1   -1    0    0  501    0  0.00000000000E+00  0.00000000000E+00 -0.13571744550E+04  0.13571744550E+04  0.50400001928E-02 0.  1.
    10030    2    1    2    0    0  0.00000000000E+00  0.00000000000E+00 -0.78404215565E+03  0.19303067544E+04  0.17639053444E+04 0.  0.
        1    1    3    3  502    0 -0.63596447953E+02 -0.87898707754E+03 -0.42957653565E+03  0.98040746156E+03  0.50400001928E-02 0. -1.
       -1    1    3    3    0  502  0.63596447953E+02  0.87898707754E+03 -0.35446562000E+03  0.94989929280E+03  0.50400001928E-02 0.  1.
</event>
<event>
 5   0  0.3308275E-04  0.1784929E+04  0.7818609E-02  0.8714356E-01
       -1   -1    0    0    0  501  0.00000000000E+00  0.00000000000E+00  0.13487747221E+04  0.13487747221E+04  0.50400001928E-02 0. -1.
        1   -1    0    0  501    0  0.00000000000E+00  0.00000000000E+00 -0.59053037140E+03  0.59053037142E+03  0.50400001928E-02 0.  1.
    10030    2    1    2    0    0  0.00000000000E+00  0.00000000000E+00  0.75824435066E+03  0.19393050935E+04  0.17849285001E+04 0.  0.
        3    1    3    3  502    0  0.66006855110E+03  0.26885394451E+02  0.10310871694E+04  0.12245628109E+04  0.10100000352E+00 0. -1.
       -3    1    3    3    0  502 -0.66006855110E+03 -0.26885394451E+02 -0.27284281878E+03  0.71474228261E+03  0.10100000352E+00 0.  1.
</event>
<event>
 5   0  0.6929121E-04  0.1583039E+04  0.7818609E-02  0.8831036E-01
       -2   -1    0    0    0  501  0.00000000000E+00  0.00000000000E+00  0.30947553052E+03  0.30947553053E+03  0.25500000920E-02 0.  1.
        2   -1    0    0  501    0  0.00000000000E+00  0.00000000000E+00 -0.20244028769E+04  0.20244028769E+04  0.25500000920E-02 0. -1.
    10030    2    1    2    0    0  0.00000000000E+00  0.00000000000E+00 -0.17149273463E+04  0.23338784074E+04  0.15830390448E+04 0.  0.
        3    1    3    3  502    0  0.17803286263E+03 -0.69644414181E+03 -0.13459297055E+04  0.15258626823E+04  0.10100000352E+00 0. -1.
       -3    1    3    3    0  502 -0.17803286263E+03  0.69644414181E+03 -0.36899764079E+03  0.80801572506E+03  0.10100000352E+00 0.  1.
</event>
<event>
 5   0  0.6774451E-04  0.1802881E+04  0.7818609E-02  0.8704769E-01
        2   -1    0    0  501    0  0.00000000000E+00  0.00000000000E+00  0.13662008227E+04  0.13662008227E+04  0.25500000920E-02 0.  1.
       -2   -1    0    0    0  501  0.00000000000E+00  0.00000000000E+00 -0.59478471880E+03  0.59478471880E+03  0.25500000920E-02 0. -1.
    10030    2    1    2    0    0  0.00000000000E+00  0.00000000000E+00  0.77141610388E+03  0.19609855415E+04  0.18028814405E+04 0.  0.
        4    1    3    3  502    0  0.28699975704E+03 -0.15767644705E+03  0.12992186126E+04  0.13398512375E+04  0.12699999809E+01 0.  1.
       -4    1    3    3    0  502 -0.28699975704E+03  0.15767644705E+03 -0.52780250869E+03  0.62113430398E+03  0.12699999809E+01 0. -1.
</event>
<event>
 5   0  0.3404261E-04  0.1204939E+04  0.7818609E-02  0.9108545E-01
        1   -1    0    0  501    0  0.00000000000E+00  0.00000000000E+00  0.39475466067E+03  0.39475466070E+03  0.50400001928E-02 0. -1.
       -1   -1    0    0    0  501  0.00000000000E+00  0.00000000000E+00 -0.91948087302E+03  0.91948087304E+03  0.50400001928E-02 0.  1.
    10030    2    1    2    0    0  0.00000000000E+00  0.00000000000E+00 -0.52472621235E+03  0.13142355337E+04  0.12049387703E+04 0.  0.
        1    1    3    3  502    0  0.39316390582E+03  0.11684227993E+03 -0.74368445337E+03  0.84929178816E+03  0.50400001928E-02 0.  1.
       -1    1    3    3    0  502 -0.39316390582E+03 -0.11684227993E+03  0.21895824102E+03  0.46494374558E+03  0.50400001928E-02 0. -1.
</event>
<event>
 5   0  0.3413839E-04  0.1824265E+04  0.7818609E-02  0.8693501E-01
        1   -1    0    0  501    0  0.00000000000E+00  0.00000000000E+00  0.89356462442E+03  0.89356462443E+03  0.50400001928E-02 0. -1.
       -1   -1    0    0    0  501  0.00000000000E+00  0.00000000000E+00 -0.93108589497E+03  0.93108589499E+03  0.50400001928E-02 0.  1.
    10030    2    1    2    0    0  0.00000000000E+00  0.00000000000E+00 -0.37521270553E+02  0.18246505194E+04  0.18242646936E+04 0.  0.
        5    1    3    3  502    0  0.67772838149E+03 -0.55483708203E+03 -0.27337955776E+03  0.91756112563E+03  0.46999998093E+01 0.  1.
       -5    1    3    3    0  502 -0.67772838149E+03  0.55483708203E+03  0.23585828721E+03  0.90708939379E+03  0.46999998093E+01 0. -1.
</event>
<event>
 5   0  0.6929121E-04  0.1841284E+04  0.7818609E-02  0.8684648E-01
        2   -1    0    0  501    0  0.00000000000E+00  0.00000000000E+00  0.12650515445E+04  0.12650515445E+04  0.25500000920E-02 0.  1.
       -2   -1    0    0    0  501  0.00000000000E+00  0.00000000000E+00 -0.66999798274E+03  0.66999798274E+03  0.25500000920E-02 0. -1.
    10030    2    1    2    0    0  0.00000000000E+00  0.00000000000E+00  0.59505356179E+03  0.19350495273E+04  0.18412843158E+04 0.  0.
        3    1    3    3  502    0  0.43741195698E+03  0.35625517963E+03 -0.46707716789E+03  0.73239884222E+03  0.10100000352E+00 0.  1.
       -3    1    3    3    0  502 -0.43741195698E+03 -0.35625517963E+03  0.10621307297E+04  0.12026506851E+04  0.10100000352E+00 0. -1.
</event>
<event>
 5   0  0.3470962E-04  0.1785864E+04  0.7818609E-02  0.8713853E-01
        1   -1    0    0  501    0  0.00000000000E+00  0.00000000000E+00  0.66171359921E+03  0.66171359923E+03  0.50400001928E-02 0. -1.
       -1   -1    0    0    0  501  0.00000000000E+00  0.00000000000E+00 -0.12049436999E+04  0.12049436999E+04  0.50400001928E-02 0.  1.
    10030    2    1    2    0    0  0.00000000000E+00  0.00000000000E+00 -0.54323010071E+03  0.18666572992E+04  0.17858640850E+04 0.  0.
        4    1    3    3  502    0  0.50918815982E+03  0.72844617856E+03 -0.36164904274E+03  0.95953012468E+03  0.12699999809E+01 0. -1.
       -4    1    3    3    0  502 -0.50918815982E+03 -0.72844617856E+03 -0.18158105797E+03  0.90712717448E+03  0.12699999809E+01 0.  1.
</event>
<event>
 5   0  0.6929121E-04  0.1812924E+04  0.7818609E-02  0.8699457E-01
        2   -1    0    0  501    0  0.00000000000E+00  0.00000000000E+00  0.10020305562E+04  0.10020305562E+04  0.25500000920E-02 0. -1.
       -2   -1    0    0    0  501  0.00000000000E+00  0.00000000000E+00 -0.82000846988E+03  0.82000846989E+03  0.25500000920E-02 0.  1.
    10030    2    1    2    0    0  0.00000000000E+00  0.00000000000E+00  0.18202208634E+03  0.18220390261E+04  0.18129242049E+04 0.  0.
        3    1    3    3  502    0 -0.44167770184E+03  0.12296321782E+03 -0.69488872902E+03  0.83250795862E+03  0.10100000352E+00 0.  1.
       -3    1    3    3    0  502  0.44167770184E+03 -0.12296321782E+03  0.87691081537E+03  0.98953106750E+03  0.10100000352E+00 0. -1.
</event>
<event>
 5   0  0.3413839E-04  0.1693863E+04  0.7818609E-02  0.8764872E-01
        1   -1    0    0  501    0  0.00000000000E+00  0.00000000000E+00  0.63167829241E+03  0.63167829243E+03  0.50400001928E-02 0. -1.
       -1   -1    0    0    0  501  0.00000000000E+00  0.00000000000E+00 -0.11355349089E+04  0.11355349089E+04  0.50400001928E-02 0.  1.
    10030    2    1    2    0    0  0.00000000000E+00  0.00000000000E+00 -0.50385661651E+03  0.17672132014E+04  0.16938627480E+04 0.  0.
        5    1    3    3  502    0 -0.26093792617E+03  0.59237421702E+03 -0.82172384972E+03  0.10460630906E+04  0.46999998093E+01 0.  1.
       -5    1    3    3    0  502  0.26093792617E+03 -0.59237421702E+03  0.31786723322E+03  0.72115011076E+03  0.46999998093E+01 0. -1.
</event>
<event>
 5   0  0.3377273E-04  0.1564350E+04  0.7818609E-02  0.8842753E-01
        1   -1    0    0  501    0  0.00000000000E+00  0.00000000000E+00  0.24505909780E+04  0.24505909780E+04  0.50400001928E-02 0. -1.
       -1   -1    0    0    0  501  0.00000000000E+00  0.00000000000E+00 -0.24965324070E+03  0.24965324075E+03  0.50400001928E-02 0.  1.
    10030    2    1    2    0    0  0.00000000000E+00  0.00000000000E+00  0.22009377373E+04  0.27002442188E+04  0.15643503180E+04 0.  0.
        2    1    3    3  502    0  0.26372791528E+03  0.50125771618E+03  0.20315880588E+04  0.21090665594E+04  0.25500000920E-02 0. -1.
       -2    1    3    3    0  502 -0.26372791528E+03 -0.50125771618E+03  0.16934967852E+03  0.59117765938E+03  0.25500000920E-02 0.  1.
</event>
<event>
 5   0  0.6547153E-04  0.1792641E+04  0.7818609E-02  0.8710223E-01
        2   -1    0    0  501    0  0.00000000000E+00  0.00000000000E+00  0.87410446053E+03  0.87410446053E+03  0.25500000920E-02 0. -1.
       -2   -1    0    0    0  501  0.00000000000E+00  0.00000000000E+00 -0.91910075694E+03  0.91910075694E+03  0.25500000920E-02 0.  1.
    10030    2    1    2    0    0  0.00000000000E+00  0.00000000000E+00 -0.44996296410E+02  0.17932052175E+04  0.17926405901E+04 0.  0.
        5    1    3    3  502    0  0.60722295711E+03 -0.65827759490E+03  0.13829536460E+02  0.89569105034E+03  0.46999998093E+01 0.  1.
       -5    1    3    3    0  502 -0.60722295711E+03  0.65827759490E+03 -0.58825832871E+02  0.89751416713E+03  0.46999998093E+01 0. -1.
</event>
<event>
 5   0  0.3404261E-04  0.1687225E+04  0.7818609E-02  0.8768684E-01
       -1   -1    0    0    0  501  0.00000000000E+00  0.00000000000E+00  0.78148847479E+03  0.78148847480E+03  0.50400001928E-02 0. -1.
        1   -1    0    0  501    0  0.00000000000E+00  0.00000000000E+00 -0.91067461892E+03  0.91067461893E+03  0.50400001928E-02 0.  1.
    10030    2    1    2    0    0  0.00000000000E+00  0.00000000000E+00 -0.12918614413E+03  0.16921630937E+04  0.16872246074E+04 0.  0.
        1    1    3    3  502    0  0.41196925143E+03 -0.52728832682E+03  0.45065189565E+03  0.80674579317E+03  0.50400001928E-02 0. -1.
       -1    1    3    3    0  502 -0.41196925143E+03  0.52728832682E+03 -0.57983803978E+03  0.88541730056E+03  0.50400001928E-02 0.  1.
</event>
<event>
 5   0  0.3404261E-04  0.1809339E+04  0.7818609E-02  0.8701349E-01
        1   -1    0    0  501    0  0.00000000000E+00  0.00000000000E+00  0.15011511036E+04  0.15011511036E+04  0.50400001928E-02 0. -1.
       -1   -1    0    0    0  501  0.00000000000E+00  0.00000000000E+00 -0.54519931563E+03  0.54519931565E+03  0.50400001928E-02 0.  1.
    10030    2    1    2    0    0  0.00000000000E+00  0.00000000000E+00  0.95595178800E+03  0.20463504193E+04  0.18093386133E+04 0.  0.
        1    1    3    3  502    0  0.26769604010E+03  0.15464809678E+02  0.14551741593E+04  0.14796729923E+04  0.50400001928E-02 0. -1.
       -1    1    3    3    0  502 -0.26769604010E+03 -0.15464809678E+02 -0.49922237130E+03  0.56667742699E+03  0.50400001928E-02 0.  1.
</event>
<event>
 5   0  0.6929121E-04  0.1607965E+04  0.7818609E-02  0.8815670E-01
       -2   -1    0    0    0  501  0.00000000000E+00  0.00000000000E+00  0.62607265269E+03  0.62607265270E+03  0.25500000920E-02 0.  1.
        2   -1    0    0  501    0  0.00000000000E+00  0.00000000000E+00 -0.10324480287E+04  0.10324480288E+04  0.25500000920E-02 0. -1.
    10030    2    1    2    0    0  0.00000000000E+00  0.00000000000E+00 -0.40637537606E+03  0.16585206815E+04  0.16079645222E+04 0.  0.
        3    1    3    3  502    0 -0.53379144446E+03 -0.45604317238E+03  0.20089347447E+03  0.73025124412E+03  0.10100000352E+00 0.  1.
       -3    1    3    3    0  502  0.53379144446E+03  0.45604317238E+03 -0.60726885052E+03  0.92826943733E+03  0.10100000352E+00 0. -1.
</event>
<event>
 5   0  0.3470962E-04  0.1810951E+04  0.7818609E-02  0.8700498E-01
        1   -1    0    0  501    0  0.00000000000E+00  0.00000000000E+00  0.11944448595E+04  0.11944448596E+04  0.50400001928E-02 0.  1.
       -1   -1    0    0    0  501  0.00000000000E+00  0.00000000000E+00 -0.68641564971E+03  0.68641564973E+03  0.50400001928E-02 0. -1.
    10030    2    1    2    0    0  0.00000000000E+00  0.00000000000E+00  0.50802920984E+03  0.18808605093E+04  0.18109507385E+04 0.  0.
        4    1    3    3  502    0 -0.18026844650E+02 -0.27445129966E+03  0.11500087183E+04  0.11824424502E+04  0.12699999809E+01 0.  1.
       -4    1    3    3    0  502  0.18026844650E+02  0.27445129966E+03 -0.64197950847E+03  0.69841805905E+03  0.12699999809E+01 0. -1.
</event>
<event>
 5   0  0.3404261E-04  0.1788324E+04  0.7818609E-02  0.8712533E-01
        1   -1    0    0  501    0  0.00000000000E+00  0.00000000000E+00  0.30187221016E+04  0.30187221016E+04  0.50400001928E-02 0. -1.
       -1   -1    0    0    0  501  0.00000000000E+00  0.00000000000E+00 -0.26485563540E+03  0.26485563545E+03  0.50400001928E-02 0.  1.
    10030    2    1    2    0    0  0.00000000000E+00  0.00000000000E+00  0.27538664662E+04  0.32835777370E+04  0.17883238637E+04 0.  0.
        1    1    3    3  502    0  0.74416623919E+03  0.22013463861E+03  0.56139211384E+03  0.95781196285E+03  0.50400001928E-02 0.  1.
       -1    1    3    3    0  502 -0.74416623919E+03 -0.22013463861E+03  0.21924743523E+04  0.23257657742E+04  0.50400001928E-02 0. -1.
</event>
<event>
 5   0  0.6547153E-04  0.1704911E+04  0.7818609E-02  0.8758569E-01
        2   -1    0    0  501    0  0.00000000000E+00  0.00000000000E+00  0.18258295089E+04  0.18258295089E+04  0.25500000920E-02 0.  1.
       -2   -1    0    0    0  501  0.00000000000E+00  0.00000000000E+00 -0.39799991028E+03  0.39799991029E+03  0.25500000920E-02 0. -1.
    10030    2    1    2    0    0  0.00000000000E+00  0.00000000000E+00  0.14278295986E+04  0.22238294192E+04  0.17049105323E+04 0.  0.
        5    1    3    3  502    0  0.57765227434E+03 -0.42492289519E+03  0.11274968468E+03  0.72593126279E+03  0.46999998093E+01 0. -1.
       -5    1    3    3    0  502 -0.57765227434E+03  0.42492289519E+03  0.13150799140E+04  0.14978981564E+04  0.46999998093E+01 0.  1.
</event>
<event>
 5   0  0.3413839E-04  0.1856121E+04  0.7818609E-02  0.8677011E-01
        1   -1    0    0  501    0  0.00000000000E+00  0.00000000000E+00  0.13074871411E+04  0.13074871411E+04  0.50400001928E-02 0.  1.
       -1   -1    0    0    0  501  0.00000000000E+00  0.00000000000E+00 -0.65874186889E+03  0.65874186891E+03  0.50400001928E-02 0. -1.
    10030    2    1    2    0    0  0.00000000000E+00  0.00000000000E+00  0.64874527220E+03  0.19662290100E+04  0.18561212492E+04 0.  0.
        5    1    3    3  502    0  0.13682072651E+03 -0.14814939862E+03 -0.63523826803E+03  0.66649673869E+03  0.46999998093E+01 0. -1.
       -5    1    3    3    0  502 -0.13682072651E+03  0.14814939862E+03  0.12839835402E+04  0.12997322713E+04  0.46999998093E+01 0.  1.
</event>
<event>
 5   0  0.6929121E-04  0.1079973E+04  0.7818609E-02  0.9224934E-01
        2   -1    0    0  501    0  0.00000000000E+00  0.00000000000E+00  0.42509949905E+03  0.42509949906E+03  0.25500000920E-02 0.  1.
       -2   -1    0    0    0  501  0.00000000000E+00  0.00000000000E+00 -0.68592272195E+03  0.68592272195E+03  0.25500000920E-02 0. -1.
    10030    2    1    2    0    0  0.00000000000E+00  0.00000000000E+00 -0.26082322289E+03  0.11110222210E+04  0.10799729728E+04 0.  0.
        3    1    3    3  502    0 -0.19089762222E+03  0.40099143073E+03  0.18558276242E+03  0.48132837190E+03  0.10100000352E+00 0.  1.
       -3    1    3    3    0  502  0.19089762222E+03 -0.40099143073E+03 -0.44640598531E+03  0.62969384911E+03  0.10100000352E+00 0. -1.
</event>
<event>
 5   0  0.3377273E-04  0.1715109E+04  0.7818609E-02  0.8752794E-01
       -1   -1    0    0    0  501  0.00000000000E+00  0.00000000000E+00  0.57093046499E+03  0.57093046501E+03  0.50400001928E-02 0. -1.
        1   -1    0    0  501    0  0.00000000000E+00  0.00000000000E+00 -0.12880715886E+04  0.12880715886E+04  0.50400001928E-02 0.  1.
    10030    2    1    2    0    0  0.00000000000E+00  0.00000000000E+00 -0.71714112364E+03  0.18590020536E+04  0.17151085226E+04 0.  0.
        2    1    3    3  502    0  0.47606219277E+03  0.13172946772E+03 -0.11183908733E+04  0.12226144157E+04  0.25500000920E-02 0.  1.
       -2    1    3    3    0  502 -0.47606219277E+03 -0.13172946772E+03  0.40124974968E+03  0.63638763790E+03  0.25500000920E-02 0. -1.
</event>
<event>
 5   0  0.3470962E-04  0.1773489E+04  0.7818609E-02  0.8720526E-01
       -1   -1    0    0    0  501  0.00000000000E+00  0.00000000000E+00  0.12848255966E+04  0.12848255966E+04  0.50400001928E-02 0. -1.
        1   -1    0    0  501    0  0.00000000000E+00  0.00000000000E+00 -0.61200178392E+03  0.61200178394E+03  0.50400001928E-02 0.  1.
    10030    2    1    2    0    0  0.00000000000E+00  0.00000000000E+00  0.67282381267E+03  0.18968273805E+04  0.17734887168E+04 0.  0.
        4    1    3    3  502    0  0.95240944665E+02  0.53071473528E+03  0.10893485720E+04  0.12154879234E+04  0.12699999809E+01 0. -1.
       -4    1    3    3    0  502 -0.95240944665E+02 -0.53071473528E+03 -0.41652475933E+03  0.68133945711E+03  0.12699999809E+01 0.  1.
</event>
<event>
 5   0  0.3404261E-04  0.1723015E+04  0.7818609E-02  0.8748346E-01
        1   -1    0    0  501    0  0.00000000000E+00  0.00000000000E+00  0.11986230718E+04  0.11986230718E+04  0.50400001928E-02 0. -1.
       -1   -1    0    0    0  501  0.00000000000E+00  0.00000000000E+00 -0.61920636037E+03  0.61920636039E+03  0.50400001928E-02 0.  1.
    10030    2    1    2    0    0  0.00000000000E+00  0.00000000000E+00  0.57941671144E+03  0.18178294322E+04  0.17230148343E+04 0.  0.
        1    1    3    3  502    0 -0.28555866392E+03 -0.76693657056E+03  0.57124962468E+01  0.81839360117E+03  0.50400001928E-02 0. -1.
       -1    1    3    3    0  502  0.28555866392E+03  0.76693657056E+03  0.57370421519E+03  0.99943583103E+03  0.50400001928E-02 0.  1.
</event>
<event>
 5   0  0.3470962E-04  0.1704747E+04  0.7818609E-02  0.8758662E-01
        1   -1    0    0  501    0  0.00000000000E+00  0.00000000000E+00  0.10340413208E+04  0.10340413208E+04  0.50400001928E-02 0. -1.
       -1   -1    0    0    0  501  0.00000000000E+00  0.00000000000E+00 -0.70262214851E+03  0.70262214853E+03  0.50400001928E-02 0.  1.
    10030    2    1    2    0    0  0.00000000000E+00  0.00000000000E+00  0.33141917225E+03  0.17366634693E+04  0.17047467078E+04 0.  0.
        4    1    3    3  502    0  0.23701102396E+03 -0.55429884756E+03 -0.44816445544E+03  0.75118202182E+03  0.12699999809E+01 0.  1.
       -4    1    3    3    0  502 -0.23701102396E+03  0.55429884756E+03  0.77958362769E+03  0.98548144749E+03  0.12699999809E+01 0. -1.
</event>
<event>
 5   0  0.6853162E-04  0.1801776E+04  0.7818609E-02  0.8705356E-01
        2   -1    0    0  501    0  0.00000000000E+00  0.00000000000E+00  0.12230219493E+04  0.12230219493E+04  0.25500000920E-02 0. -1.
       -2   -1    0    0    0  501  0.00000000000E+00  0.00000000000E+00 -0.66360123798E+03  0.66360123799E+03  0.25500000920E-02 0.  1.
    10030    2    1    2    0    0  0.00000000000E+00  0.00000000000E+00  0.55942071129E+03  0.18866231873E+04  0.18017756571E+04 0.  0.
        2    1    3    3  502    0  0.35758807988E+03 -0.27539970263E+02  0.11450480981E+04  0.11999011758E+04  0.25500000920E-02 0. -1.
       -2    1    3    3    0  502 -0.35758807988E+03  0.27539970263E+02 -0.58562738678E+03  0.68672201144E+03  0.25500000920E-02 0.  1.
</event>
<event>
 5   0  0.6771967E-04  0.1816866E+04  0.7818609E-02  0.8697381E-01
        2   -1    0    0  501    0  0.00000000000E+00  0.00000000000E+00  0.19433804394E+04  0.19433804394E+04  0.25500000920E-02 0.  1.
       -2   -1    0    0    0  501  0.00000000000E+00  0.00000000000E+00 -0.42464701114E+03  0.42464701115E+03  0.25500000920E-02 0. -1.
    10030    2    1    2    0    0  0.00000000000E+00  0.00000000000E+00  0.15187334283E+04  0.23680274506E+04  0.18168661977E+04 0.  0.
        1    1    3    3  502    0 -0.67847535841E+03  0.47646085628E+03  0.27535392027E+03  0.87359231966E+03  0.50400001928E-02 0. -1.
       -1    1    3    3    0  502  0.67847535841E+03 -0.47646085628E+03  0.12433795080E+04  0.14944351309E+04  0.50400001928E-02 0.  1.
</event>
<event>
 5   0  0.6929121E-04  0.1749055E+04  0.7818609E-02  0.8733871E-01
       -2   -1    0    0    0  501  0.00000000000E+00  0.00000000000E+00  0.78574397423E+03  0.78574397424E+03  0.25500000920E-02 0. -1.
        2   -1    0    0  501    0  0.00000000000E+00  0.00000000000E+00 -0.97334270747E+03  0.97334270748E+03  0.25500000920E-02 0.  1.
    10030    2    1    2    0    0  0.00000000000E+00  0.00000000000E+00 -0.18759873324E+03  0.17590866817E+04  0.17490547930E+04 0.  0.
        3    1    3    3  502    0 -0.27575650151E+03 -0.18094963316E+03  0.72079291944E+03  0.79267071397E+03  0.10100000352E+00 0. -1.
       -3    1    3    3    0  502  0.27575650151E+03  0.18094963316E+03 -0.90839165268E+03  0.96641596775E+03  0.10100000352E+00 0.  1.
</event>
<event>
 5   0  0.6771967E-04  0.1776665E+04  0.7818609E-02  0.8718808E-01
       -2   -1    0    0    0  501  0.00000000000E+00  0.00000000000E+00  0.58639436804E+03  0.58639436804E+03  0.25500000920E-02 0.  1.
        2   -1    0    0  501    0  0.00000000000E+00  0.00000000000E+00 -0.13457411168E+04  0.13457411168E+04  0.25500000920E-02 0. -1.
    10030    2    1    2    0    0  0.00000000000E+00  0.00000000000E+00 -0.75934674881E+03  0.19321354849E+04  0.17766654291E+04 0.  0.
        1    1    3    3  502    0  0.11689779812E+03  0.43770584498E+03 -0.12106619054E+04  0.12926537631E+04  0.50400001928E-02 0. -1.
       -1    1    3    3    0  502 -0.11689779812E+03 -0.43770584498E+03  0.45131515661E+03  0.63948172182E+03  0.50400001928E-02 0.  1.
</event>
<event>
 5   0  0.6774451E-04  0.1772168E+04  0.7818609E-02  0.8721242E-01
       -2   -1    0    0    0  501  0.00000000000E+00  0.00000000000E+00  0.56753029257E+03  0.56753029257E+03  0.25500000920E-02 0.  1.
        2   -1    0    0  501    0  0.00000000000E+00  0.00000000000E+00 -0.13834420166E+04  0.13834420166E+04  0.25500000920E-02 0. -1.
    10030    2    1    2    0    0  0.00000000000E+00  0.00000000000E+00 -0.81591172406E+03  0.19509723092E+04  0.17721684485E+04 0.  0.
        4    1    3    3  502    0  0.14873413483E+02 -0.37883254982E+03 -0.12896407556E+04  0.13442136031E+04  0.12699999809E+01 0. -1.
       -4    1    3    3    0  502 -0.14873413483E+02  0.37883254982E+03  0.47372903156E+03  0.60675870613E+03  0.12699999809E+01 0.  1.
</event>
<event>
 5   0  0.3308275E-04  0.1752215E+04  0.7818609E-02  0.8732132E-01
       -1   -1    0    0    0  501  0.00000000000E+00  0.00000000000E+00  0.42836828485E+03  0.42836828488E+03  0.50400001928E-02 0. -1.
        1   -1    0    0  501    0  0.00000000000E+00  0.00000000000E+00 -0.17918323759E+04  0.17918323760E+04  0.50400001928E-02 0.  1.
    10030    2    1    2    0    0  0.00000000000E+00  0.00000000000E+00 -0.13634640911E+04  0.22202006608E+04  0.17522147832E+04 0.  0.
        3    1    3    3  502    0 -0.78487786440E+03 -0.11726911512E+03 -0.21140911215E+03  0.82126678387E+03  0.10100000352E+00 0. -1.
       -3    1    3    3    0  502  0.78487786440E+03  0.11726911512E+03 -0.11520549789E+04  0.13989338770E+04  0.10100000352E+00 0.  1.
</event>
<event>
 5   0  0.3404261E-04  0.1825951E+04  0.7818609E-02  0.8692620E-01
        1   -1    0    0  501    0  0.00000000000E+00  0.00000000000E+00  0.10128933608E+04  0.10128933608E+04  0.50400001928E-02 0. -1.
       -1   -1    0    0    0  501  0.00000000000E+00  0.00000000000E+00 -0.82291395260E+03  0.82291395261E+03  0.50400001928E-02 0.  1.
    10030    2    1    2    0    0  0.00000000000E+00  0.00000000000E+00  0.18997940818E+03  0.18358073134E+04  0.18259507979E+04 0.  0.
        1    1    3    3  502    0 -0.16566484995E+02 -0.90210996427E+03 -0.45216439909E+02  0.90339435604E+03  0.50400001928E-02 0. -1.
       -1    1    3    3    0  502  0.16566484995E+02  0.90210996427E+03  0.23519584809E+03  0.93241295736E+03  0.50400001928E-02 0.  1.
</event>
<event>
 5   0  0.3413839E-04  0.1426623E+04  0.7818609E-02  0.8934770E-01
        1   -1    0    0  501    0  0.00000000000E+00  0.00000000000E+00  0.24008877826E+04  0.24008877826E+04  0.50400001928E-02 0. -1.
       -1   -1    0    0    0  501  0.00000000000E+00  0.00000000000E+00 -0.21192711564E+03  0.21192711570E+03  0.50400001928E-02 0.  1.
    10030    2    1    2    0    0  0.00000000000E+00  0.00000000000E+00  0.21889606669E+04  0.26128148983E+04  0.14266228974E+04 0.  0.
        5    1    3    3  502    0  0.29885264608E+03  0.36905240628E+03  0.20692596356E+04  0.21230567850E+04  0.46999998093E+01 0. -1.
       -5    1    3    3    0  502 -0.29885264608E+03 -0.36905240628E+03  0.11970103132E+03  0.48975811330E+03  0.46999998093E+01 0.  1.
</event>
<event>
 5   0  0.3404261E-04  0.1739466E+04  0.7818609E-02  0.8739170E-01
       -1   -1    0    0    0  501  0.00000000000E+00  0.00000000000E+00  0.37043930621E+03  0.37043930624E+03  0.50400001928E-02 0.  1.
        1   -1    0    0  501    0  0.00000000000E+00  0.00000000000E+00 -0.20419958728E+04  0.20419958728E+04  0.50400001928E-02 0. -1.
    10030    2    1    2    0    0  0.00000000000E+00  0.00000000000E+00 -0.16715565666E+04  0.24124351791E+04  0.17394660496E+04 0.  0.
        1    1    3    3  502    0 -0.66157670252E+03 -0.26401219500E+03 -0.15278998990E+04  0.16857829854E+04  0.50400001928E-02 0. -1.
       -1    1    3    3    0  502  0.66157670252E+03  0.26401219500E+03 -0.14365666763E+03  0.72665219369E+03  0.50400001928E-02 0.  1.
</event>
<event>
 5   0  0.3470962E-04  0.1811339E+04  0.7818609E-02  0.8700293E-01
        1   -1    0    0  501    0  0.00000000000E+00  0.00000000000E+00  0.13283628137E+04  0.13283628138E+04  0.50400001928E-02 0. -1.
       -1   -1    0    0    0  501  0.00000000000E+00  0.00000000000E+00 -0.61747973920E+03  0.61747973922E+03  0.50400001928E-02 0.  1.
    10030    2    1    2    0    0  0.00000000000E+00  0.00000000000E+00  0.71088307454E+03  0.19458425530E+04  0.18113388682E+04 0.  0.
        4    1    3    3  502    0 -0.71036228151E+02  0.50832687185E+03  0.11570364173E+04  0.12657714004E+04  0.12699999809E+01 0. -1.
       -4    1    3    3    0  502  0.71036228151E+02 -0.50832687185E+03 -0.44615334275E+03  0.68007115253E+03  0.12699999809E+01 0.  1.
</event>
<event>
 5   0  0.3308275E-04  0.1730234E+04  0.7818609E-02  0.8744306E-01
        1   -1    0    0  501    0  0.00000000000E+00  0.00000000000E+00  0.95520424217E+03  0.95520424218E+03  0.50400001928E-02 0.  1.
       -1   -1    0    0    0  501  0.00000000000E+00  0.00000000000E+00 -0.78352596947E+03  0.78352596948E+03  0.50400001928E-02 0. -1.
    10030    2    1    2    0    0  0.00000000000E+00  0.00000000000E+00  0.17167827270E+03  0.17387302117E+04  0.17302338916E+04 0.  0.
        3    1    3    3  502    0 -0.50176656463E+02  0.53170742490E+02  0.95209442885E+03  0.95489718627E+03  0.10100000352E+00 0.  1.
       -3    1    3    3    0  502  0.50176656463E+02 -0.53170742490E+02 -0.78041615615E+03  0.78383302539E+03  0.10100000352E+00 0. -1.
</event>
<event>
 5   0  0.6774451E-04  0.1816671E+04  0.7818609E-02  0.8697484E-01
       -2   -1    0    0    0  501  0.00000000000E+00  0.00000000000E+00  0.52217829060E+03  0.52217829060E+03  0.25500000920E-02 0.  1.
        2   -1    0    0  501    0  0.00000000000E+00  0.00000000000E+00 -0.15800604365E+04  0.15800604365E+04  0.25500000920E-02 0. -1.
    10030    2    1    2    0    0  0.00000000000E+00  0.00000000000E+00 -0.10578821459E+04  0.21022387271E+04  0.18166708648E+04 0.  0.
        4    1    3    3  502    0  0.69665154429E+03  0.49585062806E+01 -0.12034204786E+04  0.13905288282E+04  0.12699999809E+01 0. -1.
       -4    1    3    3    0  502 -0.69665154429E+03 -0.49585062806E+01  0.14553833270E+03  0.71170989886E+03  0.12699999809E+01 0.  1.
</event>
<event>
 5   0  0.3377273E-04  0.1776034E+04  0.7818609E-02  0.8719149E-01
       -1   -1    0    0    0  501  0.00000000000E+00  0.00000000000E+00  0.83319485922E+03  0.83319485923E+03  0.50400001928E-02 0.  1.
        1   -1    0    0  501    0  0.00000000000E+00  0.00000000000E+00 -0.94644677850E+03  0.94644677851E+03  0.50400001928E-02 0. -1.
    10030    2    1    2    0    0  0.00000000000E+00  0.00000000000E+00 -0.11325191928E+03  0.17796416377E+04  0.17760344483E+04 0.  0.
        2    1    3    3  502    0 -0.41553234977E+03  0.19004955086E+03 -0.81961099188E+03  0.93837526795E+03  0.25500000920E-02 0. -1.
       -2    1    3    3    0  502  0.41553234977E+03 -0.19004955086E+03  0.70635907260E+03  0.84126636979E+03  0.25500000920E-02 0.  1.
</event>
<event>
 5   0  0.3308275E-04  0.1755289E+04  0.7818609E-02  0.8730445E-01
       -1   -1    0    0    0  501  0.00000000000E+00  0.00000000000E+00  0.48724917632E+03  0.48724917635E+03  0.50400001928E-02 0. -1.
        1   -1    0    0  501    0  0.00000000000E+00  0.00000000000E+00 -0.15808328208E+04  0.15808328208E+04  0.50400001928E-02 0.  1.
    10030    2    1    2    0    0  0.00000000000E+00  0.00000000000E+00 -0.10935836445E+04  0.20680819972E+04  0.17552885687E+04 0.  0.
        3    1    3    3  502    0  0.78835885001E+03 -0.33391802716E+03 -0.31940047176E+03  0.91379844431E+03  0.10100000352E+00 0. -1.
       -3    1    3    3    0  502 -0.78835885001E+03  0.33391802716E+03 -0.77418317273E+03  0.11542835529E+04  0.10100000352E+00 0.  1.
</event>
<event>
 5   0  0.6547153E-04  0.1314421E+04  0.7818609E-02  0.9018207E-01
        2   -1    0    0  501    0  0.00000000000E+00  0.00000000000E+00  0.17551162065E+04  0.17551162065E+04  0.25500000920E-02 0. -1.
       -2   -1    0    0    0  501  0.00000000000E+00  0.00000000000E+00 -0.24609507386E+03  0.24609507388E+03  0.25500000920E-02 0.  1.
    10030    2    1    2    0    0  0.00000000000E+00  0.00000000000E+00  0.15090211326E+04  0.20012112804E+04  0.13144207127E+04 0.  0.
        5    1    3    3  502    0 -0.48979991373E+03 -0.31974569577E+03  0.12106577977E+04  0.13445652303E+04  0.46999998093E+01 0. -1.
       -5    1    3    3    0  502  0.48979991373E+03  0.31974569577E+03  0.29836333498E+03  0.65664605010E+03  0.46999998093E+01 0.  1.
</event>
<event>
 5   0  0.3377273E-04  0.1821715E+04  0.7818609E-02  0.8694836E-01
       -1   -1    0    0    0  501  0.00000000000E+00  0.00000000000E+00  0.51453213430E+03  0.51453213432E+03  0.50400001928E-02 0.  1.
        1   -1    0    0  501    0  0.00000000000E+00  0.00000000000E+00 -0.16124585181E+04  0.16124585181E+04  0.50400001928E-02 0. -1.
    10030    2    1    2    0    0  0.00000000000E+00  0.00000000000E+00 -0.10979263838E+04  0.21269906524E+04  0.18217153705E+04 0.  0.
        2    1    3    3  502    0  0.21695293367E+03 -0.27330220215E+03 -0.15313233142E+04  0.15705775249E+04  0.25500000920E-02 0. -1.
       -2    1    3    3    0  502 -0.21695293367E+03  0.27330220215E+03  0.43339693043E+03  0.55641312749E+03  0.25500000920E-02 0.  1.
</event>
<event>
 5   0  0.3413839E-04  0.1786972E+04  0.7818609E-02  0.8713258E-01
       -1   -1    0    0    0  501  0.00000000000E+00  0.00000000000E+00  0.10252236638E+04  0.10252236638E+04  0.50400001928E-02 0.  1.
        1   -1    0    0  501    0  0.00000000000E+00  0.00000000000E+00 -0.77867630357E+03  0.77867630359E+03  0.50400001928E-02 0. -1.
    10030    2    1    2    0    0  0.00000000000E+00  0.00000000000E+00  0.24654736021E+03  0.18038999674E+04  0.17869721574E+04 0.  0.
        5    1    3    3  502    0  0.34633627548E+03 -0.24136114755E+03  0.91819193631E+03  0.10105951421E+04  0.46999998093E+01 0.  1.
       -5    1    3    3    0  502 -0.34633627548E+03  0.24136114755E+03 -0.67164457610E+03  0.79330482531E+03  0.46999998093E+01 0. -1.
</event>
<event>
 5   0  0.3413839E-04  0.1700717E+04  0.7818609E-02  0.8760956E-01
        1   -1    0    0  501    0  0.00000000000E+00  0.00000000000E+00  0.18026923494E+04  0.18026923494E+04  0.50400001928E-02 0.  1.
       -1   -1    0    0    0  501  0.00000000000E+00  0.00000000000E+00 -0.40112753922E+03  0.40112753926E+03  0.50400001928E-02 0. -1.
    10030    2    1    2    0    0  0.00000000000E+00  0.00000000000E+00  0.14015648102E+04  0.22038198887E+04  0.17007169619E+04 0.  0.
        5    1    3    3  502    0  0.82682274915E+03 -0.19474849218E+03  0.65018535379E+03  0.10697317037E+04  0.46999998093E+01 0. -1.
       -5    1    3    3    0  502 -0.82682274915E+03  0.19474849218E+03  0.75137945643E+03  0.11340881850E+04  0.46999998093E+01 0.  1.
</event>
<event>
 5   0  0.6853162E-04  0.1813384E+04  0.7818609E-02  0.8699214E-01
        2   -1    0    0  501    0  0.00000000000E+00  0.00000000000E+00  0.78533898400E+03  0.78533898400E+03  0.25500000920E-02 0. -1.
       -2   -1    0    0    0  501  0.00000000000E+00  0.00000000000E+00 -0.10467974247E+04  0.10467974247E+04  0.25500000920E-02 0.  1.
    10030    2    1    2    0    0  0.00000000000E+00  0.00000000000E+00 -0.26145844071E+03  0.18321364087E+04  0.18133844887E+04 0.  0.
        2    1    3    3  502    0 -0.64336475023E+03 -0.46595680698E+03  0.31089130214E+03  0.85304592465E+03  0.25500000920E-02 0.  1.
       -2    1    3    3    0  502  0.64336475023E+03  0.46595680698E+03 -0.57234974285E+03  0.97909048405E+03  0.25500000920E-02 0. -1.
</event>
<event>
 5   0  0.6853162E-04  0.1839846E+04  0.7818609E-02  0.8685392E-01
        2   -1    0    0  501    0  0.00000000000E+00  0.00000000000E+00  0.11733461747E+04  0.11733461747E+04  0.25500000920E-02 0.  1.
       -2   -1    0    0    0  501  0.00000000000E+00  0.00000000000E+00 -0.72123514984E+03  0.72123514985E+03  0.25500000920E-02 0. -1.
    10030    2    1    2    0    0  0.00000000000E+00  0.00000000000E+00  0.45211102490E+03  0.18945813246E+04  0.18398461938E+04 0.  0.
        2    1    3    3  502    0 -0.72835288693E+03  0.22237277282E+02 -0.35213419529E+03  0.80931509062E+03  0.25500000920E-02 0. -1.
       -2    1    3    3    0  502  0.72835288693E+03 -0.22237277282E+02  0.80424522019E+03  0.10852662340E+04  0.25500000920E-02 0.  1.
</event>
<event>
 5   0  0.6547153E-04  0.1677201E+04  0.7818609E-02  0.8774475E-01
       -2   -1    0    0    0  501  0.00000000000E+00  0.00000000000E+00  0.14437239042E+04  0.14437239042E+04  0.25500000920E-02 0.  1.
        2   -1    0    0  501    0  0.00000000000E+00  0.00000000000E+00 -0.48710877878E+03  0.48710877879E+03  0.25500000920E-02 0. -1.
    10030    2    1    2    0    0  0.00000000000E+00  0.00000000000E+00  0.95661512540E+03  0.19308326830E+04  0.16772007487E+04 0.  0.
        5    1    3    3  502    0  0.55031950092E+03 -0.34355141171E+03 -0.13341289830E+03  0.66234448515E+03  0.46999998093E+01 0. -1.
       -5    1    3    3    0  502 -0.55031950092E+03  0.34355141171E+03  0.10900280237E+04  0.12684881978E+04  0.46999998093E+01 0.  1.
</event>
<event>
 5   0  0.6774451E-04  0.1810202E+04  0.7818609E-02  0.8700893E-01
       -2   -1    0    0    0  501  0.00000000000E+00  0.00000000000E+00  0.16335973794E+04  0.16335973794E+04  0.25500000920E-02 0.  1.
        2   -1    0    0  501    0  0.00000000000E+00  0.00000000000E+00 -0.50147462433E+03  0.50147462434E+03  0.25500000920E-02 0. -1.
    10030    2    1    2    0    0  0.00000000000E+00  0.00000000000E+00  0.11321227550E+04  0.21350720037E+04  0.18102017922E+04 0.  0.
        4    1    3    3  502    0  0.63349954081E+03  0.37001103149E+03  0.11912632831E+04  0.13990495539E+04  0.12699999809E+01 0.  1.
       -4    1    3    3    0  502 -0.63349954081E+03 -0.37001103149E+03 -0.59140528111E+02  0.73602244979E+03  0.12699999809E+01 0. -1.
</event>
<event>
 5   0  0.3404261E-04  0.1819447E+04  0.7818609E-02  0.8696025E-01
        1   -1    0    0  501    0  0.00000000000E+00  0.00000000000E+00  0.45508234217E+03  0.45508234220E+03  0.50400001928E-02 0.  1.
       -1   -1    0    0    0  501  0.00000000000E+00  0.00000000000E+00 -0.18185656457E+04  0.18185656457E+04  0.50400001928E-02 0. -1.
    10030    2    1    2    0    0  0.00000000000E+00  0.00000000000E+00 -0.13634833036E+04  0.22736479879E+04  0.18194472935E+04 0.  0.
        1    1    3    3  502    0 -0.77653519106E+03 -0.25343637398E+02 -0.90374421508E+02  0.78218715088E+03  0.50400001928E-02 0.  1.
       -1    1    3    3    0  502  0.77653519106E+03  0.25343637398E+02 -0.12731088821E+04  0.14914608371E+04  0.50400001928E-02 0. -1.
</event>
<event>
 5   0  0.6774451E-04  0.1202959E+04  0.7818609E-02  0.9110270E-01
       -2   -1    0    0    0  501  0.00000000000E+00  0.00000000000E+00  0.44964894082E+03  0.44964894083E+03  0.25500000920E-02 0.  1.
        2   -1    0    0  501    0  0.00000000000E+00  0.00000000000E+00 -0.80457841086E+03  0.80457841086E+03  0.25500000920E-02 0. -1.
    10030    2    1    2    0    0  0.00000000000E+00  0.00000000000E+00 -0.35492947004E+03  0.12542273517E+04  0.12029594012E+04 0.  0.
        4    1    3    3  502    0  0.12798435721E+03 -0.57739611668E+03 -0.29172515768E+03  0.65944783855E+03  0.12699999809E+01 0. -1.
       -4    1    3    3    0  502 -0.12798435721E+03  0.57739611668E+03 -0.63204312355E+02  0.59477951314E+03  0.12699999809E+01 0.  1.
</event>
<event>
 5   0  0.3470962E-04  0.1777161E+04  0.7818609E-02  0.8718540E-01
        1   -1    0    0  501    0  0.00000000000E+00  0.00000000000E+00  0.11999662073E+04  0.11999662073E+04  0.50400001928E-02 0. -1.
       -1   -1    0    0    0  501  0.00000000000E+00  0.00000000000E+00 -0.65799813733E+03  0.65799813735E+03  0.50400001928E-02 0.  1.
    10030    2    1    2    0    0  0.00000000000E+00  0.00000000000E+00  0.54196806998E+03  0.18579643447E+04  0.17771612524E+04 0.  0.
        4    1    3    3  502    0 -0.68127576081E+02  0.40458651672E+02  0.11962645065E+04  0.11988864214E+04  0.12699999809E+01 0. -1.
       -4    1    3    3    0  502  0.68127576081E+02 -0.40458651672E+02 -0.65429643652E+03  0.65907792321E+03  0.12699999809E+01 0.  1.
</event>
<event>
 5   0  0.6771967E-04  0.1747963E+04  0.7818609E-02  0.8734472E-01
        2   -1    0    0  501    0  0.00000000000E+00  0.00000000000E+00  0.28160927302E+04  0.28160927302E+04  0.25500000920E-02 0.  1.
       -2   -1    0    0    0  501  0.00000000000E+00  0.00000000000E+00 -0.27124230461E+03  0.27124230462E+03  0.25500000920E-02 0. -1.
    10030    2    1    2    0    0  0.00000000000E+00  0.00000000000E+00  0.25448504256E+04  0.30873350348E+04  0.17479627938E+04 0.  0.
        1    1    3    3  502    0 -0.72220435572E+03 -0.48192733968E+03  0.14491417020E+04  0.16893326389E+04  0.50400001928E-02 0.  1.
       -1    1    3    3    0  502  0.72220435572E+03  0.48192733968E+03  0.10957087235E+04  0.13980023959E+04  0.50400001928E-02 0. -1.
</event>
<event>
 5   0  0.3308275E-04  0.1771385E+04  0.7818609E-02  0.8721666E-01
        1   -1    0    0  501    0  0.00000000000E+00  0.00000000000E+00  0.16268877159E+04  0.16268877159E+04  0.50400001928E-02 0. -1.
       -1   -1    0    0    0  501  0.00000000000E+00  0.00000000000E+00 -0.48217896813E+03  0.48217896816E+03  0.50400001928E-02 0.  1.
    10030    2    1    2    0    0  0.00000000000E+00  0.00000000000E+00  0.11447087478E+04  0.21090666841E+04  0.17713848144E+04 0.  0.
        3    1    3    3  502    0 -0.22131745938E+03  0.10575468355E+03  0.15856409921E+04  0.16045008062E+04  0.10100000352E+00 0. -1.
       -3    1    3    3    0  502  0.22131745938E+03 -0.10575468355E+03 -0.44093224430E+03  0.50456587795E+03  0.10100000352E+00 0.  1.
</event>
<event>
 5   0  0.6929121E-04  0.1794853E+04  0.7818609E-02  0.8709041E-01
        2   -1    0    0  501    0  0.00000000000E+00  0.00000000000E+00  0.17931889547E+04  0.17931889547E+04  0.25500000920E-02 0. -1.
       -2   -1    0    0    0  501  0.00000000000E+00  0.00000000000E+00 -0.44912984397E+03  0.44912984398E+03  0.25500000920E-02 0.  1.
    10030    2    1    2    0    0  0.00000000000E+00  0.00000000000E+00  0.13440591107E+04  0.22423187986E+04  0.17948533928E+04 0.  0.
        3    1    3    3  502    0 -0.62738485989E+03 -0.82759040449E+02  0.14669976342E+04  0.15976679536E+04  0.10100000352E+00 0. -1.
       -3    1    3    3    0  502  0.62738485989E+03  0.82759040449E+02 -0.12293852349E+03  0.64465084499E+03  0.10100000352E+00 0.  1.
</event>
<event>
 5   0  0.3413839E-04  0.1657615E+04  0.7818609E-02  0.8785915E-01
        1   -1    0    0  501    0  0.00000000000E+00  0.00000000000E+00  0.51925882841E+03  0.51925882844E+03  0.50400001928E-02 0. -1.
       -1   -1    0    0    0  501  0.00000000000E+00  0.00000000000E+00 -0.13228883618E+04  0.13228883618E+04  0.50400001928E-02 0.  1.
    10030    2    1    2    0    0  0.00000000000E+00  0.00000000000E+00 -0.80362953336E+03  0.18421471902E+04  0.16576145039E+04 0.  0.
        5    1    3    3  502    0  0.34715200734E+03 -0.59630587609E+03  0.10843213366E+03  0.69848037314E+03  0.46999998093E+01 0.  1.
       -5    1    3    3    0  502 -0.34715200734E+03  0.59630587609E+03 -0.91206166702E+03  0.11436668171E+04  0.46999998093E+01 0. -1.
</event>
<event>
 5   0  0.6771967E-04  0.1815908E+04  0.7818609E-02  0.8697885E-01
        2   -1    0    0  501    0  0.00000000000E+00  0.00000000000E+00  0.32928516065E+04  0.32928516065E+04  0.25500000920E-02 0. -1.
       -2   -1    0    0    0  501  0.00000000000E+00  0.00000000000E+00 -0.25035468513E+03  0.25035468514E+03  0.25500000920E-02 0.  1.
    10030    2    1    2    0    0  0.00000000000E+00  0.00000000000E+00  0.30424969214E+04  0.35432062917E+04  0.18159083976E+04 0.  0.
        1    1    3    3  502    0 -0.82190783256E+03  0.37135222853E+03  0.13171087332E+04  0.15963114915E+04  0.50400001928E-02 0.  1.
       -1    1    3    3    0  502  0.82190783256E+03 -0.37135222853E+03  0.17253881882E+04  0.19468948002E+04  0.50400001928E-02 0. -1.
</event>
<event>
 5   0  0.6929121E-04  0.1808458E+04  0.7818609E-02  0.8701815E-01
        2   -1    0    0  501    0  0.00000000000E+00  0.00000000000E+00  0.10056112511E+04  0.10056112511E+04  0.25500000920E-02 0.  1.
       -2   -1    0    0    0  501  0.00000000000E+00  0.00000000000E+00 -0.81306750685E+03  0.81306750686E+03  0.25500000920E-02 0. -1.
    10030    2    1    2    0    0  0.00000000000E+00  0.00000000000E+00  0.19254374425E+03  0.18186787580E+04  0.18084577217E+04 0.  0.
        3    1    3    3  502    0 -0.17339356908E+01 -0.50449870866E+03 -0.65837440210E+03  0.82944488492E+03  0.10100000352E+00 0. -1.
       -3    1    3    3    0  502  0.17339356908E+01  0.50449870866E+03  0.85091814635E+03  0.98923387304E+03  0.10100000352E+00 0.  1.
</event>
<event>
 5   0  0.3413839E-04  0.1864523E+04  0.7818609E-02  0.8672720E-01
       -1   -1    0    0    0  501  0.00000000000E+00  0.00000000000E+00  0.80258738283E+03  0.80258738285E+03  0.50400001928E-02 0. -1.
        1   -1    0    0  501    0  0.00000000000E+00  0.00000000000E+00 -0.10828872867E+04  0.10828872867E+04  0.50400001928E-02 0.  1.
    10030    2    1    2    0    0  0.00000000000E+00  0.00000000000E+00 -0.28029990385E+03  0.18854746695E+04  0.18645231812E+04 0.  0.
        5    1    3    3  502    0  0.43260183417E+03  0.77521459423E+03 -0.42793093868E+03  0.98551965597E+03  0.46999998093E+01 0.  1.
       -5    1    3    3    0  502 -0.43260183417E+03 -0.77521459423E+03  0.14763103482E+03  0.89995501358E+03  0.46999998093E+01 0. -1.
</event>
<event>
 5   0  0.3470962E-04  0.1695106E+04  0.7818609E-02  0.8764161E-01
       -1   -1    0    0    0  501  0.00000000000E+00  0.00000000000E+00  0.78798958031E+03  0.78798958033E+03  0.50400001928E-02 0.  1.
        1   -1    0    0  501    0  0.00000000000E+00  0.00000000000E+00 -0.91161847915E+03  0.91161847916E+03  0.50400001928E-02 0. -1.
    10030    2    1    2    0    0  0.00000000000E+00  0.00000000000E+00 -0.12362889884E+03  0.16996080595E+04  0.16951057345E+04 0.  0.
        4    1    3    3  502    0 -0.19756556547E+01  0.44106275062E+03 -0.78747981000E+03  0.90258867556E+03  0.12699999809E+01 0. -1.
       -4    1    3    3    0  502  0.19756556547E+01 -0.44106275062E+03  0.66385091116E+03  0.79701938392E+03  0.12699999809E+01 0.  1.
</event>
<event>
 5   0  0.3377273E-04  0.1750091E+04  0.7818609E-02  0.8733300E-01
       -1   -1    0    0    0  501  0.00000000000E+00  0.00000000000E+00  0.15072103386E+04  0.15072103386E+04  0.50400001928E-02 0.  1.
        1   -1    0    0  501    0  0.00000000000E+00  0.00000000000E+00 -0.50802754378E+03  0.50802754381E+03  0.50400001928E-02 0. -1.
    10030    2    1    2    0    0  0.00000000000E+00  0.00000000000E+00  0.99918279479E+03  0.20152378824E+04  0.17500907020E+04 0.  0.
        2    1    3    3  502    0  0.19145354997E+03  0.46275424331E+03 -0.32669528973E+03  0.59793458157E+03  0.25500000920E-02 0.  1.
       -2    1    3    3    0  502 -0.19145354997E+03 -0.46275424331E+03  0.13258780845E+04  0.14173033008E+04  0.25500000920E-02 0. -1.
</event>
<event>
 5   0  0.6774451E-04  0.1786146E+04  0.7818609E-02  0.8713702E-01
        2   -1    0    0  501    0  0.00000000000E+00  0.00000000000E+00  0.14430088989E+04  0.14430088989E+04  0.25500000920E-02 0.  1.
       -2   -1    0    0    0  501  0.00000000000E+00  0.00000000000E+00 -0.55271968244E+03  0.55271968245E+03  0.25500000920E-02 0. -1.
    10030    2    1    2    0    0  0.00000000000E+00  0.00000000000E+00  0.89028921650E+03  0.19957285814E+04  0.17861460415E+04 0.  0.
        4    1    3    3  502    0 -0.32324086073E+03 -0.62663728973E+03 -0.16727362023E+03  0.72466614647E+03  0.12699999809E+01 0. -1.
       -4    1    3    3    0  502  0.32324086073E+03  0.62663728973E+03  0.10575628367E+04  0.12710624349E+04  0.12699999809E+01 0.  1.
</event>
<event>
 5   0  0.6771967E-04  0.1851247E+04  0.7818609E-02  0.8679512E-01
        2   -1    0    0  501    0  0.00000000000E+00  0.00000000000E+00  0.93608075374E+03  0.93608075374E+03  0.25500000920E-02 0.  1.
       -2   -1    0    0    0  501  0.00000000000E+00  0.00000000000E+00 -0.91528338568E+03  0.91528338568E+03  0.25500000920E-02 0. -1.
    10030    2    1    2    0    0  0.00000000000E+00  0.00000000000E+00  0.20797368061E+02  0.18513641394E+04  0.18512473217E+04 0.  0.
        1    1    3    3  502    0  0.14294409059E+03  0.29638888208E+03 -0.85481472661E+03  0.91596266262E+03  0.50400001928E-02 0. -1.
       -1    1    3    3    0  502 -0.14294409059E+03 -0.29638888208E+03  0.87561209467E+03  0.93540147681E+03  0.50400001928E-02 0.  1.
</event>
<event>
 5   0  0.3404261E-04  0.1674729E+04  0.7818609E-02  0.8775910E-01
        1   -1    0    0  501    0  0.00000000000E+00  0.00000000000E+00  0.91405066238E+03  0.91405066240E+03  0.50400001928E-02 0.  1.
       -1   -1    0    0    0  501  0.00000000000E+00  0.00000000000E+00 -0.76711241057E+03  0.76711241059E+03  0.50400001928E-02 0. -1.
    10030    2    1    2    0    0  0.00000000000E+00  0.00000000000E+00  0.14693825181E+03  0.16811630730E+04  0.16747293597E+04 0.  0.
        1    1    3    3  502    0  0.51387719451E+03  0.14651469363E+03 -0.57371162270E+03  0.78401616854E+03  0.50400001928E-02 0. -1.
       -1    1    3    3    0  502 -0.51387719451E+03 -0.14651469363E+03  0.72064987451E+03  0.89714690444E+03  0.50400001928E-02 0.  1.
</event>
<event>
 5   0  0.6547153E-04  0.1882549E+04  0.7818609E-02  0.8663592E-01
       -2   -1    0    0    0  501  0.00000000000E+00  0.00000000000E+00  0.13990532894E+04  0.13990532894E+04  0.25500000920E-02 0.  1.
        2   -1    0    0  501    0  0.00000000000E+00  0.00000000000E+00 -0.63328379551E+03  0.63328379552E+03  0.25500000920E-02 0. -1.
    10030    2    1    2    0    0  0.00000000000E+00  0.00000000000E+00  0.76576949392E+03  0.20323370850E+04  0.18825490987E+04 0.  0.
        5    1    3    3  502    0 -0.47080198642E+03 -0.50649502199E+03 -0.30650449953E+03  0.75641180315E+03  0.46999998093E+01 0. -1.
       -5    1    3    3    0  502  0.47080198642E+03  0.50649502199E+03  0.10722739934E+04  0.12759252818E+04  0.46999998093E+01 0.  1.
</event>
<event>
 5   0  0.3470962E-04  0.1741662E+04  0.7818609E-02  0.8737953E-01
        1   -1    0    0  501    0  0.00000000000E+00  0.00000000000E+00  0.13581522201E+04  0.13581522201E+04  0.50400001928E-02 0. -1.
       -1   -1    0    0    0  501  0.00000000000E+00  0.00000000000E+00 -0.55836625237E+03  0.55836625239E+03  0.50400001928E-02 0.  1.
    10030    2    1    2    0    0  0.00000000000E+00  0.00000000000E+00  0.79978596769E+03  0.19165184724E+04  0.17416616954E+04 0.  0.
        4    1    3    3  502    0  0.33168603136E+03 -0.95247976752E+02  0.12796990235E+04  0.13254127674E+04  0.12699999809E+01 0. -1.
       -4    1    3    3    0  502 -0.33168603136E+03  0.95247976752E+02 -0.47991305580E+03  0.59110570501E+03  0.12699999809E+01 0.  1.
</event>
<event>
 5   0  0.3308275E-04  0.1861691E+04  0.7818609E-02  0.8674164E-01
        1   -1    0    0  501    0  0.00000000000E+00  0.00000000000E+00  0.89492864157E+03  0.89492864158E+03  0.50400001928E-02 0. -1.
       -1   -1    0    0    0  501  0.00000000000E+00  0.00000000000E+00 -0.96820414530E+03  0.96820414531E+03  0.50400001928E-02 0.  1.
    10030    2    1    2    0    0  0.00000000000E+00  0.00000000000E+00 -0.73275503733E+02  0.18631327869E+04  0.18616912961E+04 0.  0.
        3    1    3    3  502    0  0.18314353825E+03  0.39069254738E+03  0.78879866783E+03  0.89910264750E+03  0.10100000352E+00 0. -1.
       -3    1    3    3    0  502 -0.18314353825E+03 -0.39069254738E+03 -0.86207417156E+03  0.96403013939E+03  0.10100000352E+00 0.  1.
</event>
<event>
 5   0  0.3377273E-04  0.1829203E+04  0.7818609E-02  0.8690922E-01
       -1   -1    0    0    0  501  0.00000000000E+00  0.00000000000E+00  0.16142931281E+04  0.16142931281E+04  0.50400001928E-02 0. -1.
        1   -1    0    0  501    0  0.00000000000E+00  0.00000000000E+00 -0.51818101770E+03  0.51818101773E+03  0.50400001928E-02 0.  1.
    10030    2    1    2    0    0  0.00000000000E+00  0.00000000000E+00  0.10961121104E+04  0.21324741458E+04  0.18292031664E+04 0.  0.
        2    1    3    3  502    0 -0.10547173625E+03  0.42739342115E+03 -0.38654920455E+03  0.58584102889E+03  0.25500000920E-02 0.  1.
       -2    1    3    3    0  502  0.10547173625E+03 -0.42739342115E+03  0.14826613149E+04  0.15466331169E+04  0.25500000920E-02 0. -1.
</event>
<event>
 5   0  0.6774451E-04  0.1820792E+04  0.7818609E-02  0.8695320E-01
       -2   -1    0    0    0  501  0.00000000000E+00  0.00000000000E+00  0.71749802277E+03  0.71749802277E+03  0.25500000920E-02 0.  1.
        2   -1    0    0  501    0  0.00000000000E+00  0.00000000000E+00 -0.11551544874E+04  0.11551544874E+04  0.25500000920E-02 0. -1.
    10030    2    1    2    0    0  0.00000000000E+00  0.00000000000E+00 -0.43765646462E+03  0.18726525102E+04  0.18207922020E+04 0.  0.
        4    1    3    3  502    0 -0.87282923050E+03  0.15646396773E+03 -0.43087426472E+03  0.98588340270E+03  0.12699999809E+01 0. -1.
       -4    1    3    3    0  502  0.87282923050E+03 -0.15646396773E+03 -0.67821999022E+01  0.88676910746E+03  0.12699999809E+01 0.  1.
</event>
<event>
 5   0  0.3404261E-04  0.1770383E+04  0.7818609E-02  0.8722210E-01
       -1   -1    0    0    0  501  0.00000000000E+00  0.00000000000E+00  0.40350076079E+03  0.40350076082E+03  0.50400001928E-02 0. -1.
        1   -1    0    0  501    0  0.00000000000E+00  0.00000000000E+00 -0.19419138460E+04  0.19419138461E+04  0.50400001928E-02 0.  1.
    10030    2    1    2    0    0  0.00000000000E+00  0.00000000000E+00 -0.15384130853E+04  0.23454146069E+04  0.17703826867E+04 0.  0.
        1    1    3    3  502    0  0.14908200982E+03 -0.11132348815E+03  0.37730263620E+03  0.42068473228E+03  0.50400001928E-02 0. -1.
       -1    1    3    3    0  502 -0.14908200982E+03  0.11132348815E+03 -0.19157157215E+04  0.19247298746E+04  0.50400001928E-02 0.  1.
</event>
<event>
 5   0  0.3308275E-04  0.1816643E+04  0.7818609E-02  0.8697499E-01
       -1   -1    0    0    0  501  0.00000000000E+00  0.00000000000E+00  0.56219065104E+03  0.56219065106E+03  0.50400001928E-02 0.  1.
        1   -1    0    0  501    0  0.00000000000E+00  0.00000000000E+00 -0.14675585486E+04  0.14675585486E+04  0.50400001928E-02 0. -1.
    10030    2    1    2    0    0  0.00000000000E+00  0.00000000000E+00 -0.90536789758E+03  0.20297491997E+04  0.18166427232E+04 0.  0.
        3    1    3    3  502    0  0.22042644285E+03  0.58789462909E+03 -0.11860667991E+04  0.13419993941E+04  0.10100000352E+00 0. -1.
       -3    1    3    3    0  502 -0.22042644285E+03 -0.58789462909E+03  0.28069890150E+03  0.68774980561E+03  0.10100000352E+00 0.  1.
</event>
<event>
 5   0  0.6853162E-04  0.1810974E+04  0.7818609E-02  0.8700485E-01
        2   -1    0    0  501    0  0.00000000000E+00  0.00000000000E+00  0.10481335226E+04  0.10481335227E+04  0.25500000920E-02 0.  1.
       -2   -1    0    0    0  501  0.00000000000E+00  0.00000000000E+00 -0.78225409122E+03  0.78225409122E+03  0.25500000920E-02 0. -1.
    10030    2    1    2    0    0  0.00000000000E+00  0.00000000000E+00  0.26587943143E+03  0.18303876139E+04  0.18109740321E+04 0.  0.
        2    1    3    3  502    0  0.40756623811E+03  0.48872355437E+02  0.94869028619E+03  0.10336885434E+04  0.25500000920E-02 0.  1.
       -2    1    3    3    0  502 -0.40756623811E+03 -0.48872355437E+02 -0.68281085476E+03  0.79669907051E+03  0.25500000920E-02 0. -1.
</event>
<event>
 5   0  0.6774451E-04  0.1156050E+04  0.7818609E-02  0.9152220E-01
       -2   -1    0    0    0  501  0.00000000000E+00  0.00000000000E+00  0.24620059827E+03  0.24620059828E+03  0.25500000920E-02 0.  1.
        2   -1    0    0  501    0  0.00000000000E+00  0.00000000000E+00 -0.13570767279E+04  0.13570767279E+04  0.25500000920E-02 0. -1.
    10030    2    1    2    0    0  0.00000000000E+00  0.00000000000E+00 -0.11108761296E+04  0.16032773262E+04  0.11560503489E+04 0.  0.
        4    1    3    3  502    0 -0.15018175330E+03 -0.46827151370E+03 -0.13414657909E+03  0.50973491851E+03  0.12699999809E+01 0.  1.
       -4    1    3    3    0  502  0.15018175330E+03  0.46827151370E+03 -0.97672955055E+03  0.10935424077E+04  0.12699999809E+01 0. -1.
</event>
<event>
 5   0  0.3413839E-04  0.1788766E+04  0.7818609E-02  0.8712296E-01
       -1   -1    0    0    0  501  0.00000000000E+00  0.00000000000E+00  0.15621829332E+04  0.15621829332E+04  0.50400001928E-02 0.  1.
        1   -1    0    0  501    0  0.00000000000E+00  0.00000000000E+00 -0.51205333217E+03  0.51205333220E+03  0.50400001928E-02 0. -1.
    10030    2    1    2    0    0  0.00000000000E+00  0.00000000000E+00  0.10501296011E+04  0.20742362654E+04  0.17887660288E+04 0.  0.
        5    1    3    3  502    0 -0.19087768007E+03 -0.36148314523E+03 -0.39737077502E+03  0.57011400252E+03  0.46999998093E+01 0. -1.
       -5    1    3    3    0  502  0.19087768007E+03  0.36148314523E+03  0.14475003761E+04  0.15041222629E+04  0.46999998093E+01 0.  1.
</event>
<event>
 5   0  0.6774451E-04  0.1800816E+04  0.7818609E-02  0.8705866E-01
       -2   -1    0    0    0  501  0.00000000000E+00  0.00000000000E+00  0.55634514631E+03  0.55634514632E+03  0.25500000920E-02 0. -1.
        2   -1    0    0  501    0  0.00000000000E+00  0.00000000000E+00 -0.14572509285E+04  0.14572509285E+04  0.25500000920E-02 0.  1.
    10030    2    1    2    0    0  0.00000000000E+00  0.00000000000E+00 -0.90090578219E+03  0.20135960748E+04  0.18008159051E+04 0.  0.
        4    1    3    3  502    0 -0.20909288218E+03 -0.19192678922E+03 -0.14059231098E+04  0.14342862787E+04  0.12699999809E+01 0.  1.
       -4    1    3    3    0  502  0.20909288218E+03  0.19192678922E+03  0.50501732759E+03  0.57930979611E+03  0.12699999809E+01 0. -1.
</event>
<event>
 5   0  0.3377273E-04  0.1792668E+04  0.7818609E-02  0.8710208E-01
        1   -1    0    0  501    0  0.00000000000E+00  0.00000000000E+00  0.15936611506E+04  0.15936611507E+04  0.50400001928E-02 0. -1.
       -1   -1    0    0    0  501  0.00000000000E+00  0.00000000000E+00 -0.50413137909E+03  0.50413137912E+03  0.50400001928E-02 0.  1.
    10030    2    1    2    0    0  0.00000000000E+00  0.00000000000E+00  0.10895297716E+04  0.20977925298E+04  0.17926679489E+04 0.  0.
        2    1    3    3  502    0  0.55643602722E+03 -0.68858681534E+03  0.70876820937E+03  0.11340746136E+04  0.25500000920E-02 0. -1.
       -2    1    3    3    0  502 -0.55643602722E+03  0.68858681534E+03  0.38076156218E+03  0.96371791614E+03  0.25500000920E-02 0.  1.
</event>
<event>
 5   0  0.6547153E-04  0.1811445E+04  0.7818609E-02  0.8700237E-01
        2   -1    0    0  501    0  0.00000000000E+00  0.00000000000E+00  0.52073323541E+03  0.52073323542E+03  0.25500000920E-02 0. -1.
       -2   -1    0    0    0  501  0.00000000000E+00  0.00000000000E+00 -0.15753420410E+04  0.15753420410E+04  0.25500000920E-02 0.  1.
    10030    2    1    2    0    0  0.00000000000E+00  0.00000000000E+00 -0.10546088056E+04  0.20960752764E+04  0.18114446808E+04 0.  0.
        5    1    3    3  502    0  0.42958132858E+03 -0.49077985117E+03 -0.12544620973E+04  0.14138961149E+04  0.46999998093E+01 0.  1.
       -5    1    3    3    0  502 -0.42958132858E+03  0.49077985117E+03  0.19985329172E+03  0.68217916151E+03  0.46999998093E+01 0. -1.
</event>
<event>
 5   0  0.3470962E-04  0.1797759E+04  0.7818609E-02  0.8707492E-01
        1   -1    0    0  501    0  0.00000000000E+00  0.00000000000E+00  0.51689209761E+03  0.51689209764E+03  0.50400001928E-02 0. -1.
       -1   -1    0    0    0  501  0.00000000000E+00  0.00000000000E+00 -0.15631589076E+04  0.15631589076E+04  0.50400001928E-02 0.  1.
    10030    2    1    2    0    0  0.00000000000E+00  0.00000000000E+00 -0.10462668100E+04  0.20800510053E+04  0.17977591459E+04 0.  0.
        4    1    3    3  502    0  0.86701823071E+03 -0.22118695933E+03 -0.42401625570E+03  0.99016952153E+03  0.12699999809E+01 0.  1.
       -4    1    3    3    0  502 -0.86701823071E+03  0.22118695933E+03 -0.62225055431E+03  0.10898814837E+04  0.12699999809E+01 0. -1.
</event>
<event>
 5   0  0.6929121E-04  0.2000377E+04  0.7818609E-02  0.8606444E-01
       -2   -1    0    0    0  501  0.00000000000E+00  0.00000000000E+00  0.15057173566E+04  0.15057173566E+04  0.25500000920E-02 0. -1.
        2   -1    0    0  501    0  0.00000000000E+00  0.00000000000E+00 -0.66438573781E+03  0.66438573781E+03  0.25500000920E-02 0.  1.
    10030    2    1    2    0    0  0.00000000000E+00  0.00000000000E+00  0.84133161875E+03  0.21701030944E+04  0.20003771013E+04 0.  0.
        3    1    3    3  502    0 -0.27960016092E+03  0.73720967233E+03 -0.24695398330E+03  0.82622069148E+03  0.10100000352E+00 0.  1.
       -3    1    3    3    0  502  0.27960016092E+03 -0.73720967233E+03  0.10882856020E+04  0.13438824029E+04  0.10100000352E+00 0. -1.
</event>
<event>
 5   0  0.2467375E-04  0.1203626E+04  0.7818609E-02  0.9109688E-01
       -4   -1    0    0    0  501  0.00000000000E+00  0.00000000000E+00  0.57697970362E+03  0.57698110133E+03  0.12699999809E+01 0.  1.
        4   -1    0    0  501    0  0.00000000000E+00  0.00000000000E+00 -0.62771282534E+03  0.62771411008E+03  0.12699999809E+01 0. -1.
    10030    2    1    2    0    0  0.00000000000E+00  0.00000000000E+00 -0.50733121712E+02  0.12046952114E+04  0.12036264797E+04 0.  0.
        3    1    3    3  502    0  0.27088990824E+03  0.28685743990E+03 -0.48020447435E+03  0.62150211633E+03  0.10100000352E+00 0. -1.
       -3    1    3    3    0  502 -0.27088990824E+03 -0.28685743990E+03  0.42947135264E+03  0.58319309508E+03  0.10100000352E+00 0.  1.
</event>
<event>
 5   0  0.6853162E-04  0.1826221E+04  0.7818609E-02  0.8692478E-01
       -2   -1    0    0    0  501  0.00000000000E+00  0.00000000000E+00  0.12228853582E+04  0.12228853582E+04  0.25500000920E-02 0. -1.
        2   -1    0    0  501    0  0.00000000000E+00  0.00000000000E+00 -0.68180622928E+03  0.68180622928E+03  0.25500000920E-02 0.  1.
    10030    2    1    2    0    0  0.00000000000E+00  0.00000000000E+00  0.54107912893E+03  0.19046915875E+04  0.18262210764E+04 0.  0.
        2    1    3    3  502    0  0.50739648036E+03  0.34725957820E+03 -0.43354583351E+03  0.75233130514E+03  0.25500000920E-02 0.  1.
       -2    1    3    3    0  502 -0.50739648036E+03 -0.34725957820E+03  0.97462496244E+03  0.11523602824E+04  0.25500000920E-02 0. -1.
</event>
<event>
 5   0  0.2467375E-04  0.1562555E+04  0.7818609E-02  0.8843888E-01
        3   -1    0    0  501    0  0.00000000000E+00  0.00000000000E+00  0.10165254732E+04  0.10165254782E+04  0.10100000352E+00 0.  1.
       -3   -1    0    0    0  501  0.00000000000E+00  0.00000000000E+00 -0.60047157984E+03  0.60047158834E+03  0.10100000352E+00 0. -1.
    10030    2    1    2    0    0  0.00000000000E+00  0.00000000000E+00  0.41605389333E+03  0.16169970665E+04  0.15625551737E+04 0.  0.
        4    1    3    3  502    0 -0.61807269469E+03 -0.15712955128E+03 -0.25901748130E+03  0.68832784363E+03  0.12699999809E+01 0. -1.
       -4    1    3    3    0  502  0.61807269469E+03  0.15712955128E+03  0.67507137463E+03  0.92866922290E+03  0.12699999809E+01 0.  1.
</event>
<event>
 5   0  0.6774451E-04  0.1752886E+04  0.7818609E-02  0.8731763E-01
        2   -1    0    0  501    0  0.00000000000E+00  0.00000000000E+00  0.21976473534E+04  0.21976473534E+04  0.25500000920E-02 0. -1.
       -2   -1    0    0    0  501  0.00000000000E+00  0.00000000000E+00 -0.34953405375E+03  0.34953405376E+03  0.25500000920E-02 0.  1.
    10030    2    1    2    0    0  0.00000000000E+00  0.00000000000E+00  0.18481132997E+04  0.25471814072E+04  0.17528862920E+04 0.  0.
        4    1    3    3  502    0  0.44713279934E+03 -0.15569415327E+03  0.19958193086E+04  0.20512105536E+04  0.12699999809E+01 0. -1.
       -4    1    3    3    0  502 -0.44713279934E+03  0.15569415327E+03 -0.14770600896E+03  0.49597085357E+03  0.12699999809E+01 0.  1.
</event>
<event>
 5   0  0.6547153E-04  0.1878113E+04  0.7818609E-02  0.8665828E-01
       -2   -1    0    0    0  501  0.00000000000E+00  0.00000000000E+00  0.69673673174E+03  0.69673673174E+03  0.25500000920E-02 0. -1.
        2   -1    0    0  501    0  0.00000000000E+00  0.00000000000E+00 -0.12656529394E+04  0.12656529394E+04  0.25500000920E-02 0.  1.
    10030    2    1    2    0    0  0.00000000000E+00  0.00000000000E+00 -0.56891620766E+03  0.19623896711E+04  0.18781127682E+04 0.  0.
        5    1    3    3  502    0 -0.18234505034E+03 -0.13757295047E+03 -0.12361699734E+04  0.12571055355E+04  0.46999998093E+01 0.  1.
       -5    1    3    3    0  502  0.18234505034E+03  0.13757295047E+03  0.66725376578E+03  0.70528413567E+03  0.46999998093E+01 0. -1.
</event>
<event>
 5   0  0.3470962E-04  0.1833597E+04  0.7818609E-02  0.8688634E-01
       -1   -1    0    0    0  501  0.00000000000E+00  0.00000000000E+00  0.53538071225E+03  0.53538071227E+03  0.50400001928E-02 0. -1.
        1   -1    0    0  501    0  0.00000000000E+00  0.00000000000E+00 -0.15699468024E+04  0.15699468024E+04  0.50400001928E-02 0.  1.
    10030    2    1    2    0    0  0.00000000000E+00  0.00000000000E+00 -0.10345660901E+04  0.21053275147E+04  0.18335967248E+04 0.  0.
        4    1    3    3  502    0  0.54281819970E+03  0.55255122725E+03  0.45863445379E+02  0.77593139206E+03  0.12699999809E+01 0. -1.
       -4    1    3    3    0  502 -0.54281819970E+03 -0.55255122725E+03 -0.10804295355E+04  0.13293961226E+04  0.12699999809E+01 0.  1.
</event>
<event>
 5   0  0.3377273E-04  0.1818403E+04  0.7818609E-02  0.8696574E-01
        1   -1    0    0  501    0  0.00000000000E+00  0.00000000000E+00  0.12977620129E+04  0.12977620129E+04  0.50400001928E-02 0.  1.
       -1   -1    0    0    0  501  0.00000000000E+00  0.00000000000E+00 -0.63697884627E+03  0.63697884629E+03  0.50400001928E-02 0. -1.
    10030    2    1    2    0    0  0.00000000000E+00  0.00000000000E+00  0.66078316667E+03  0.19347408592E+04  0.18184025404E+04 0.  0.
        2    1    3    3  502    0 -0.16388263047E+03 -0.25446058946E+03 -0.58180415039E+03  0.65582297732E+03  0.25500000920E-02 0. -1.
       -2    1    3    3    0  502  0.16388263047E+03  0.25446058946E+03  0.12425873171E+04  0.12789178819E+04  0.25500000920E-02 0.  1.
</event>
<event>
 5   0  0.6547153E-04  0.1795055E+04  0.7818609E-02  0.8708934E-01
        2   -1    0    0  501    0  0.00000000000E+00  0.00000000000E+00  0.40139983266E+03  0.40139983266E+03  0.25500000920E-02 0.  1.
       -2   -1    0    0    0  501  0.00000000000E+00  0.00000000000E+00 -0.20068648167E+04  0.20068648167E+04  0.25500000920E-02 0. -1.
    10030    2    1    2    0    0  0.00000000000E+00  0.00000000000E+00 -0.16054649841E+04  0.24082646494E+04  0.17950545414E+04 0.  0.
        5    1    3    3  502    0  0.69332779952E+03 -0.33454574055E+03 -0.14217791595E+04  0.16168185917E+04  0.46999998093E+01 0. -1.
       -5    1    3    3    0  502 -0.69332779952E+03  0.33454574055E+03 -0.18368582459E+03  0.79144605770E+03  0.46999998093E+01 0.  1.
</event>
<event>
 5   0  0.3308275E-04  0.1796711E+04  0.7818609E-02  0.8708051E-01
       -1   -1    0    0    0  501  0.00000000000E+00  0.00000000000E+00  0.40635309339E+03  0.40635309342E+03  0.50400001928E-02 0.  1.
        1   -1    0    0  501    0  0.00000000000E+00  0.00000000000E+00 -0.19860618536E+04  0.19860618536E+04  0.50400001928E-02 0. -1.
    10030    2    1    2    0    0  0.00000000000E+00  0.00000000000E+00 -0.15797087602E+04  0.23924149470E+04  0.17967107479E+04 0.  0.
        3    1    3    3  502    0  0.70329302328E+03 -0.35323356125E+03 -0.21304867109E+03  0.81534334599E+03  0.10100000352E+00 0.  1.
       -3    1    3    3    0  502 -0.70329302328E+03  0.35323356125E+03 -0.13666600891E+04  0.15770716010E+04  0.10100000352E+00 0. -1.
</event>
<event>
 5   0  0.6771967E-04  0.1816336E+04  0.7818609E-02  0.8697660E-01
        2   -1    0    0  501    0  0.00000000000E+00  0.00000000000E+00  0.20610946982E+04  0.20610946982E+04  0.25500000920E-02 0. -1.
       -2   -1    0    0    0  501  0.00000000000E+00  0.00000000000E+00 -0.40016070543E+03  0.40016070544E+03  0.25500000920E-02 0.  1.
    10030    2    1    2    0    0  0.00000000000E+00  0.00000000000E+00  0.16609339928E+04  0.24612554037E+04  0.18163359914E+04 0.  0.
        1    1    3    3  502    0  0.70474942801E+03  0.28937971455E+03  0.15003094189E+04  0.16826588270E+04  0.50400001928E-02 0. -1.
       -1    1    3    3    0  502 -0.70474942801E+03 -0.28937971455E+03  0.16062457388E+03  0.77859657669E+03  0.50400001928E-02 0.  1.
</event>
<event>
 5   0  0.3404261E-04  0.1642147E+04  0.7818609E-02  0.8795066E-01
        1   -1    0    0  501    0  0.00000000000E+00  0.00000000000E+00  0.66715795088E+03  0.66715795090E+03  0.50400001928E-02 0.  1.
       -1   -1    0    0    0  501  0.00000000000E+00  0.00000000000E+00 -0.10104981881E+04  0.10104981881E+04  0.50400001928E-02 0. -1.
    10030    2    1    2    0    0  0.00000000000E+00  0.00000000000E+00 -0.34334023725E+03  0.16776561390E+04  0.16421472535E+04 0.  0.
        1    1    3    3  502    0 -0.20103363054E+03  0.58708137522E+02  0.63941187265E+03  0.67283631660E+03  0.50400001928E-02 0.  1.
       -1    1    3    3    0  502  0.20103363054E+03 -0.58708137522E+02 -0.98275210991E+03  0.10048198224E+04  0.50400001928E-02 0. -1.
</event>
<event>
 5   0  0.6771967E-04  0.1820120E+04  0.7818609E-02  0.8695672E-01
       -2   -1    0    0    0  501  0.00000000000E+00  0.00000000000E+00  0.10988121132E+04  0.10988121132E+04  0.25500000920E-02 0. -1.
        2   -1    0    0  501    0  0.00000000000E+00  0.00000000000E+00 -0.75373172530E+03  0.75373172530E+03  0.25500000920E-02 0.  1.
    10030    2    1    2    0    0  0.00000000000E+00  0.00000000000E+00  0.34508038786E+03  0.18525438385E+04  0.18201203804E+04 0.  0.
        1    1    3    3  502    0 -0.26864307654E+03  0.68913772645E+03  0.71220202232E+03  0.10267967809E+04  0.50400001928E-02 0. -1.
       -1    1    3    3    0  502  0.26864307654E+03 -0.68913772645E+03 -0.36712163446E+03  0.82574705758E+03  0.50400001928E-02 0.  1.
</event>
<event>
 5   0  0.6771967E-04  0.1080727E+04  0.7818609E-02  0.9224183E-01
        2   -1    0    0  501    0  0.00000000000E+00  0.00000000000E+00  0.94878982354E+03  0.94878982354E+03  0.25500000920E-02 0.  1.
       -2   -1    0    0    0  501  0.00000000000E+00  0.00000000000E+00 -0.30775275310E+03  0.30775275311E+03  0.25500000920E-02 0. -1.
    10030    2    1    2    0    0  0.00000000000E+00  0.00000000000E+00  0.64103707044E+03  0.12565425767E+04  0.10807269411E+04 0.  0.
        1    1    3    3  502    0 -0.12194826580E+01  0.48781514727E+03  0.59077056795E+03  0.76614291684E+03  0.50400001928E-02 0.  1.
       -1    1    3    3    0  502  0.12194826580E+01 -0.48781514727E+03  0.50266502492E+02  0.49039965981E+03  0.50400001928E-02 0. -1.
</event>
<event>
 5   0  0.6547153E-04  0.1776112E+04  0.7818609E-02  0.8719107E-01
        2   -1    0    0  501    0  0.00000000000E+00  0.00000000000E+00  0.16028676361E+04  0.16028676361E+04  0.25500000920E-02 0. -1.
       -2   -1    0    0    0  501  0.00000000000E+00  0.00000000000E+00 -0.49202046754E+03  0.49202046755E+03  0.25500000920E-02 0.  1.
    10030    2    1    2    0    0  0.00000000000E+00  0.00000000000E+00  0.11108471685E+04  0.20948881036E+04  0.17761122529E+04 0.  0.
        5    1    3    3  502    0 -0.37453467234E+02 -0.22250655291E+03  0.15684788935E+04  0.15846324677E+04  0.46999998093E+01 0. -1.
       -5    1    3    3    0  502  0.37453467234E+02  0.22250655291E+03 -0.45763172497E+03  0.51025563593E+03  0.46999998093E+01 0.  1.
</event>
<event>
 5   0  0.6929121E-04  0.1782878E+04  0.7818609E-02  0.8715458E-01
        2   -1    0    0  501    0  0.00000000000E+00  0.00000000000E+00  0.90860649558E+03  0.90860649558E+03  0.25500000920E-02 0.  1.
       -2   -1    0    0    0  501  0.00000000000E+00  0.00000000000E+00 -0.87459574559E+03  0.87459574560E+03  0.25500000920E-02 0. -1.
    10030    2    1    2    0    0  0.00000000000E+00  0.00000000000E+00  0.34010749986E+02  0.17832022412E+04  0.17828778707E+04 0.  0.
        3    1    3    3  502    0  0.61872553906E+03  0.59024976539E+03 -0.23492790164E+03  0.88679603484E+03  0.10100000352E+00 0. -1.
       -3    1    3    3    0  502 -0.61872553906E+03 -0.59024976539E+03  0.26893865163E+03  0.89640620634E+03  0.10100000352E+00 0.  1.
</event>
<event>
 5   0  0.3377273E-04  0.1201518E+04  0.7818609E-02  0.9111529E-01
       -1   -1    0    0    0  501  0.00000000000E+00  0.00000000000E+00  0.36483703001E+03  0.36483703004E+03  0.50400001928E-02 0.  1.
        1   -1    0    0  501    0  0.00000000000E+00  0.00000000000E+00 -0.98924013587E+03  0.98924013588E+03  0.50400001928E-02 0. -1.
    10030    2    1    2    0    0  0.00000000000E+00  0.00000000000E+00 -0.62440310586E+03  0.13540771659E+04  0.12015180950E+04 0.  0.
        2    1    3    3  502    0  0.18377986722E+03 -0.11423282042E+03 -0.94379593262E+03  0.96828453426E+03  0.25500000920E-02 0. -1.
       -2    1    3    3    0  502 -0.18377986722E+03  0.11423282042E+03  0.31939282676E+03  0.38579263166E+03  0.25500000920E-02 0.  1.
</event>
<event>
 5   0  0.3308275E-04  0.1835245E+04  0.7818609E-02  0.8687778E-01
       -1   -1    0    0    0  501  0.00000000000E+00  0.00000000000E+00  0.84738352548E+03  0.84738352550E+03  0.50400001928E-02 0.  1.
        1   -1    0    0  501    0  0.00000000000E+00  0.00000000000E+00 -0.99368314062E+03  0.99368314063E+03  0.50400001928E-02 0. -1.
    10030    2    1    2    0    0  0.00000000000E+00  0.00000000000E+00 -0.14629961514E+03  0.18410666661E+04  0.18352446408E+04 0.  0.
        3    1    3    3  502    0 -0.21204456287E+03 -0.21279196838E+03 -0.94295715111E+03  0.98965222047E+03  0.10100000352E+00 0. -1.
       -3    1    3    3    0  502  0.21204456287E+03  0.21279196838E+03  0.79665753598E+03  0.85141444566E+03  0.10100000352E+00 0.  1.
</event>
<event>
 5   0  0.2467375E-04  0.1802842E+04  0.7818609E-02  0.8704790E-01
       -3   -1    0    0    0  501  0.00000000000E+00  0.00000000000E+00  0.79482122136E+03  0.79482122778E+03  0.10100000352E+00 0.  1.
        3   -1    0    0  501    0  0.00000000000E+00  0.00000000000E+00 -0.10223174655E+04  0.10223174705E+04  0.10100000352E+00 0. -1.
    10030    2    1    2    0    0  0.00000000000E+00  0.00000000000E+00 -0.22749624417E+03  0.18171386983E+04  0.18028417867E+04 0.  0.
        1    1    3    3  502    0 -0.36843041317E+03  0.15154453035E+03 -0.92877230126E+03  0.10106061061E+04  0.50400001928E-02 0. -1.
       -1    1    3    3    0  502  0.36843041317E+03 -0.15154453035E+03  0.70127605709E+03  0.80653259221E+03  0.50400001928E-02 0.  1.
</event>
<event>
 5   0  0.3377273E-04  0.1774801E+04  0.7818609E-02  0.8719816E-01
        1   -1    0    0  501    0  0.00000000000E+00  0.00000000000E+00  0.11577795376E+04  0.11577795376E+04  0.50400001928E-02 0.  1.
       -1   -1    0    0    0  501  0.00000000000E+00  0.00000000000E+00 -0.68016353194E+03  0.68016353196E+03  0.50400001928E-02 0. -1.
    10030    2    1    2    0    0  0.00000000000E+00  0.00000000000E+00  0.47761600563E+03  0.18379430695E+04  0.17748007432E+04 0.  0.
        2    1    3    3  502    0 -0.56452565972E+03 -0.35594859125E+03 -0.36688582763E+03  0.76157326018E+03  0.25500000920E-02 0. -1.
       -2    1    3    3    0  502  0.56452565972E+03  0.35594859125E+03  0.84450183326E+03  0.10763698093E+04  0.25500000920E-02 0.  1.
</event>
<event>
 5   0  0.3404261E-04  0.1511097E+04  0.7818609E-02  0.8877107E-01
        1   -1    0    0  501    0  0.00000000000E+00  0.00000000000E+00  0.63817498906E+03  0.63817498908E+03  0.50400001928E-02 0.  1.
       -1   -1    0    0    0  501  0.00000000000E+00  0.00000000000E+00 -0.89450884308E+03  0.89450884310E+03  0.50400001928E-02 0. -1.
    10030    2    1    2    0    0  0.00000000000E+00  0.00000000000E+00 -0.25633385402E+03  0.15326838322E+04  0.15110965173E+04 0.  0.
        1    1    3    3  502    0 -0.73230016242E+02 -0.72264009778E+03 -0.33918184221E+03  0.80163312575E+03  0.50400001928E-02 0. -1.
       -1    1    3    3    0  502  0.73230016242E+02  0.72264009778E+03  0.82847988193E+02  0.73105070643E+03  0.50400001928E-02 0.  1.
</event>
<event>
 5   0  0.6771967E-04  0.1736409E+04  0.7818609E-02  0.8740867E-01
        2   -1    0    0  501    0  0.00000000000E+00  0.00000000000E+00  0.17947505735E+04  0.17947505735E+04  0.25500000920E-02 0. -1.
       -2   -1    0    0    0  501  0.00000000000E+00  0.00000000000E+00 -0.41999119666E+03  0.41999119667E+03  0.25500000920E-02 0.  1.
    10030    2    1    2    0    0  0.00000000000E+00  0.00000000000E+00  0.13747593768E+04  0.22147417701E+04  0.17364094460E+04 0.  0.
        1    1    3    3  502    0 -0.54875887725E+03 -0.62062009900E+03  0.35606656941E+03  0.90171448614E+03  0.50400001928E-02 0.  1.
       -1    1    3    3    0  502  0.54875887725E+03  0.62062009900E+03  0.10186928074E+04  0.13130272840E+04  0.50400001928E-02 0. -1.
</event>
<event>
 5   0  0.3308275E-04  0.1785953E+04  0.7818609E-02  0.8713805E-01
        1   -1    0    0  501    0  0.00000000000E+00  0.00000000000E+00  0.17571037007E+04  0.17571037007E+04  0.50400001928E-02 0. -1.
       -1   -1    0    0    0  501  0.00000000000E+00  0.00000000000E+00 -0.45381888776E+03  0.45381888779E+03  0.50400001928E-02 0.  1.
    10030    2    1    2    0    0  0.00000000000E+00  0.00000000000E+00  0.13032848129E+04  0.22109225885E+04  0.17859527958E+04 0.  0.
        3    1    3    3  502    0 -0.26238458694E+03 -0.43680404764E+03  0.15594612165E+04  0.16405982883E+04  0.10100000352E+00 0. -1.
       -3    1    3    3    0  502  0.26238458694E+03  0.43680404764E+03 -0.25617640355E+03  0.57032430023E+03  0.10100000352E+00 0.  1.
</event>
<event>
 5   0  0.6853162E-04  0.1190388E+04  0.7818609E-02  0.9121312E-01
        2   -1    0    0  501    0  0.00000000000E+00  0.00000000000E+00  0.20909540819E+04  0.20909540819E+04  0.25500000920E-02 0. -1.
       -2   -1    0    0    0  501  0.00000000000E+00  0.00000000000E+00 -0.16942303950E+03  0.16942303952E+03  0.25500000920E-02 0.  1.
    10030    2    1    2    0    0  0.00000000000E+00  0.00000000000E+00  0.19215310424E+04  0.22603771214E+04  0.11903878293E+04 0.  0.
        2    1    3    3  502    0 -0.39008925842E+03  0.38890082562E+03  0.53260651808E+03  0.76621353735E+03  0.25500000920E-02 0.  1.
       -2    1    3    3    0  502  0.39008925842E+03 -0.38890082562E+03  0.13889245243E+04  0.14941635841E+04  0.25500000920E-02 0. -1.
</event>
<event>
 5   0  0.3413839E-04  0.2060205E+04  0.7818609E-02  0.8578979E-01
       -1   -1    0    0    0  501  0.00000000000E+00  0.00000000000E+00  0.73037124204E+03  0.73037124206E+03  0.50400001928E-02 0. -1.
        1   -1    0    0  501    0  0.00000000000E+00  0.00000000000E+00 -0.14528383284E+04  0.14528383284E+04  0.50400001928E-02 0.  1.
    10030    2    1    2    0    0  0.00000000000E+00  0.00000000000E+00 -0.72246708639E+03  0.21832095705E+04  0.20602051689E+04 0.  0.
        5    1    3    3  502    0  0.83070389878E+03 -0.11476212082E+03  0.27268787278E+03  0.88182769166E+03  0.46999998093E+01 0. -1.
       -5    1    3    3    0  502 -0.83070389878E+03  0.11476212082E+03 -0.99515495917E+03  0.13013818788E+04  0.46999998093E+01 0.  1.
</event>
<event>
 5   0  0.6774451E-04  0.1756625E+04  0.7818609E-02  0.8729712E-01
        2   -1    0    0  501    0  0.00000000000E+00  0.00000000000E+00  0.11870519767E+04  0.11870519767E+04  0.25500000920E-02 0.  1.
       -2   -1    0    0    0  501  0.00000000000E+00  0.00000000000E+00 -0.64987292133E+03  0.64987292134E+03  0.25500000920E-02 0. -1.
    10030    2    1    2    0    0  0.00000000000E+00  0.00000000000E+00  0.53717905539E+03  0.18369248981E+04  0.17566251005E+04 0.  0.
        4    1    3    3  502    0 -0.20095954293E+03 -0.68194142590E+03 -0.27074119056E+03  0.76074388031E+03  0.12699999809E+01 0. -1.
       -4    1    3    3    0  502  0.20095954293E+03  0.68194142590E+03  0.80792024595E+03  0.10761810178E+04  0.12699999809E+01 0.  1.
</event>
<event>
 5   0  0.6771967E-04  0.1792411E+04  0.7818609E-02  0.8710345E-01
       -2   -1    0    0    0  501  0.00000000000E+00  0.00000000000E+00  0.64404761728E+03  0.64404761729E+03  0.25500000920E-02 0. -1.
        2   -1    0    0  501    0  0.00000000000E+00  0.00000000000E+00 -0.12470889883E+04  0.12470889883E+04  0.25500000920E-02 0.  1.
    10030    2    1    2    0    0  0.00000000000E+00  0.00000000000E+00 -0.60304137105E+03  0.18911366056E+04  0.17924114388E+04 0.  0.
        1    1    3    3  502    0 -0.80829928187E+03 -0.17052138807E+01  0.10688375953E+03  0.81533721546E+03  0.50400001928E-02 0. -1.
       -1    1    3    3    0  502  0.80829928187E+03  0.17052138807E+01 -0.70992513058E+03  0.10757993902E+04  0.50400001928E-02 0.  1.
</event>
<event>
 5   0  0.6771967E-04  0.1775175E+04  0.7818609E-02  0.8719614E-01
       -2   -1    0    0    0  501  0.00000000000E+00  0.00000000000E+00  0.65933501142E+03  0.65933501143E+03  0.25500000920E-02 0. -1.
        2   -1    0    0  501    0  0.00000000000E+00  0.00000000000E+00 -0.11948571238E+04  0.11948571238E+04  0.25500000920E-02 0.  1.
    10030    2    1    2    0    0  0.00000000000E+00  0.00000000000E+00 -0.53552211236E+03  0.18541921352E+04  0.17751745101E+04 0.  0.
        1    1    3    3  502    0  0.85948417312E+03  0.48469119314E+02 -0.41921983358E+02  0.86186991599E+03  0.50400001928E-02 0. -1.
       -1    1    3    3    0  502 -0.85948417312E+03 -0.48469119314E+02 -0.49360012900E+03  0.99232221922E+03  0.50400001928E-02 0.  1.
</event>
<event>
 5   0  0.3470962E-04  0.1996400E+04  0.7818609E-02  0.8608305E-01
       -1   -1    0    0    0  501  0.00000000000E+00  0.00000000000E+00  0.50651473130E+03  0.50651473132E+03  0.50400001928E-02 0.  1.
        1   -1    0    0  501    0  0.00000000000E+00  0.00000000000E+00 -0.19671758488E+04  0.19671758488E+04  0.50400001928E-02 0. -1.
    10030    2    1    2    0    0  0.00000000000E+00  0.00000000000E+00 -0.14606611175E+04  0.24736905801E+04  0.19964003070E+04 0.  0.
        4    1    3    3  502    0 -0.39093966462E+03 -0.91556131988E+03 -0.63999200194E+03  0.11835023140E+04  0.12699999809E+01 0. -1.
       -4    1    3    3    0  502  0.39093966462E+03  0.91556131988E+03 -0.82066911552E+03  0.12901882661E+04  0.12699999809E+01 0.  1.
</event>
<event>
 5   0  0.6774451E-04  0.1068899E+04  0.7818609E-02  0.9236047E-01
       -2   -1    0    0    0  501  0.00000000000E+00  0.00000000000E+00  0.78963513178E+03  0.78963513178E+03  0.25500000920E-02 0.  1.
        2   -1    0    0  501    0  0.00000000000E+00  0.00000000000E+00 -0.36173175032E+03  0.36173175033E+03  0.25500000920E-02 0. -1.
    10030    2    1    2    0    0  0.00000000000E+00  0.00000000000E+00  0.42790338145E+03  0.11513668821E+04  0.10688986825E+04 0.  0.
        4    1    3    3  502    0  0.33804207987E+03 -0.40074969566E+03  0.32569409658E+03  0.61721230042E+03  0.12699999809E+01 0.  1.
       -4    1    3    3    0  502 -0.33804207987E+03  0.40074969566E+03  0.10220928487E+03  0.53415458170E+03  0.12699999809E+01 0. -1.
</event>
<event>
 5   0  0.6774451E-04  0.1785729E+04  0.7818609E-02  0.8713926E-01
        2   -1    0    0  501    0  0.00000000000E+00  0.00000000000E+00  0.20785179753E+04  0.20785179753E+04  0.25500000920E-02 0.  1.
       -2   -1    0    0    0  501  0.00000000000E+00  0.00000000000E+00 -0.38354592621E+03  0.38354592621E+03  0.25500000920E-02 0. -1.
    10030    2    1    2    0    0  0.00000000000E+00  0.00000000000E+00  0.16949720491E+04  0.24620639015E+04  0.17857290970E+04 0.  0.
        4    1    3    3  502    0 -0.51450760079E+02  0.82704751831E+02 -0.37619772960E+03  0.38860468519E+03  0.12699999809E+01 0. -1.
       -4    1    3    3    0  502  0.51450760079E+02 -0.82704751831E+02  0.20711697787E+04  0.20734592164E+04  0.12699999809E+01 0.  1.
</event>
<event>
 5   0  0.3377273E-04  0.9464378E+03  0.7818609E-02  0.9369324E-01
        1   -1    0    0  501    0  0.00000000000E+00  0.00000000000E+00  0.33259281811E+03  0.33259281815E+03  0.50400001928E-02 0. -1.
       -1   -1    0    0    0  501  0.00000000000E+00  0.00000000000E+00 -0.67330411906E+03  0.67330411908E+03  0.50400001928E-02 0.  1.
    10030    2    1    2    0    0  0.00000000000E+00  0.00000000000E+00 -0.34071130095E+03  0.10058969372E+04  0.94643777278E+03 0.  0.
        2    1    3    3  502    0  0.86954235339E+01  0.74612091189E+02 -0.66692723334E+03  0.67114417908E+03  0.25500000920E-02 0.  1.
       -2    1    3    3    0  502 -0.86954235339E+01 -0.74612091189E+02  0.32621593238E+03  0.33475275815E+03  0.25500000920E-02 0. -1.
</event>
<event>
 5   0  0.6771967E-04  0.1454747E+04  0.7818609E-02  0.8915116E-01
        2   -1    0    0  501    0  0.00000000000E+00  0.00000000000E+00  0.85389568447E+03  0.85389568447E+03  0.25500000920E-02 0. -1.
       -2   -1    0    0    0  501  0.00000000000E+00  0.00000000000E+00 -0.61959818353E+03  0.61959818353E+03  0.25500000920E-02 0.  1.
    10030    2    1    2    0    0  0.00000000000E+00  0.00000000000E+00  0.23429750094E+03  0.14734938680E+04  0.14547470090E+04 0.  0.
        1    1    3    3  502    0  0.21599833959E+03 -0.52153419700E+03  0.58177458074E+03  0.81062621730E+03  0.50400001928E-02 0. -1.
       -1    1    3    3    0  502 -0.21599833959E+03  0.52153419700E+03 -0.34747707979E+03  0.66286765071E+03  0.50400001928E-02 0.  1.
</event>
<event>
 5   0  0.3413839E-04  0.1885332E+04  0.7818609E-02  0.8662192E-01
       -1   -1    0    0    0  501  0.00000000000E+00  0.00000000000E+00  0.67497924862E+03  0.67497924864E+03  0.50400001928E-02 0. -1.
        1   -1    0    0  501    0  0.00000000000E+00  0.00000000000E+00 -0.13165128383E+04  0.13165128383E+04  0.50400001928E-02 0.  1.
    10030    2    1    2    0    0  0.00000000000E+00  0.00000000000E+00 -0.64153358964E+03  0.19914920869E+04  0.18853316381E+04 0.  0.
        5    1    3    3  502    0 -0.95191748219E+02  0.17058371778E+03 -0.12948852489E+04  0.13095457882E+04  0.46999998093E+01 0.  1.
       -5    1    3    3    0  502  0.95191748219E+02 -0.17058371778E+03  0.65335165923E+03  0.68194629870E+03  0.46999998093E+01 0. -1.
</event>
<event>
 5   0  0.3413839E-04  0.1801322E+04  0.7818609E-02  0.8705597E-01
       -1   -1    0    0    0  501  0.00000000000E+00  0.00000000000E+00  0.58226781800E+03  0.58226781802E+03  0.50400001928E-02 0.  1.
        1   -1    0    0  501    0  0.00000000000E+00  0.00000000000E+00 -0.13931566523E+04  0.13931566523E+04  0.50400001928E-02 0. -1.
    10030    2    1    2    0    0  0.00000000000E+00  0.00000000000E+00 -0.81088883432E+03  0.19754244703E+04  0.18013220524E+04 0.  0.
        5    1    3    3  502    0 -0.73569159122E+03  0.28279460337E+03 -0.88340542945E+03  0.11839096874E+04  0.46999998093E+01 0. -1.
       -5    1    3    3    0  502  0.73569159122E+03 -0.28279460337E+03  0.72516595127E+02  0.79151478297E+03  0.46999998093E+01 0.  1.
</event>
<event>
 5   0  0.3413839E-04  0.1922175E+04  0.7818609E-02  0.8643897E-01
        1   -1    0    0  501    0  0.00000000000E+00  0.00000000000E+00  0.53667958467E+03  0.53667958469E+03  0.50400001928E-02 0.  1.
       -1   -1    0    0    0  501  0.00000000000E+00  0.00000000000E+00 -0.17211178364E+04  0.17211178364E+04  0.50400001928E-02 0. -1.
    10030    2    1    2    0    0  0.00000000000E+00  0.00000000000E+00 -0.11844382517E+04  0.22577974211E+04  0.19221746077E+04 0.  0.
        5    1    3    3  502    0  0.91729720424E+03  0.24198892766E+03 -0.41149040869E+03  0.10340886076E+04  0.46999998093E+01 0. -1.
       -5    1    3    3    0  502 -0.91729720424E+03 -0.24198892766E+03 -0.77294784301E+03  0.12237088134E+04  0.46999998093E+01 0.  1.
</event>
<event>
 5   0  0.3377273E-04  0.1816960E+04  0.7818609E-02  0.8697332E-01
        1   -1    0    0  501    0  0.00000000000E+00  0.00000000000E+00  0.26812444041E+04  0.26812444041E+04  0.50400001928E-02 0. -1.
       -1   -1    0    0    0  501  0.00000000000E+00  0.00000000000E+00 -0.30781831067E+03  0.30781831071E+03  0.50400001928E-02 0.  1.
    10030    2    1    2    0    0  0.00000000000E+00  0.00000000000E+00  0.23734260934E+04  0.29890627148E+04  0.18169602340E+04 0.  0.
        2    1    3    3  502    0  0.61833021455E+03  0.25153789511E+03  0.22004575704E+04  0.22994819169E+04  0.25500000920E-02 0. -1.
       -2    1    3    3    0  502 -0.61833021455E+03 -0.25153789511E+03  0.17296852303E+03  0.68958079793E+03  0.25500000920E-02 0.  1.
</event>
<event>
 5   0  0.6929121E-04  0.1784190E+04  0.7818609E-02  0.8714753E-01
       -2   -1    0    0    0  501  0.00000000000E+00  0.00000000000E+00  0.61661078296E+03  0.61661078297E+03  0.25500000920E-02 0.  1.
        2   -1    0    0  501    0  0.00000000000E+00  0.00000000000E+00 -0.12906573669E+04  0.12906573669E+04  0.25500000920E-02 0. -1.
    10030    2    1    2    0    0  0.00000000000E+00  0.00000000000E+00 -0.67404658391E+03  0.19072681498E+04  0.17841897315E+04 0.  0.
        3    1    3    3  502    0 -0.71068965911E+03 -0.52380381393E+03 -0.47384896695E+03  0.10019895612E+04  0.10100000352E+00 0. -1.
       -3    1    3    3    0  502  0.71068965911E+03  0.52380381393E+03 -0.20019761696E+03  0.90527858866E+03  0.10100000352E+00 0.  1.
</event>
<event>
 5   0  0.6547153E-04  0.1818661E+04  0.7818609E-02  0.8696439E-01
        2   -1    0    0  501    0  0.00000000000E+00  0.00000000000E+00  0.11709607378E+04  0.11709607378E+04  0.25500000920E-02 0.  1.
       -2   -1    0    0    0  501  0.00000000000E+00  0.00000000000E+00 -0.70615648386E+03  0.70615648386E+03  0.25500000920E-02 0. -1.
    10030    2    1    2    0    0  0.00000000000E+00  0.00000000000E+00  0.46480425389E+03  0.18771172216E+04  0.18186605151E+04 0.  0.
        5    1    3    3  502    0 -0.48204447317E+02 -0.20237359973E+03  0.11460558268E+04  0.11647938834E+04  0.46999998093E+01 0.  1.
       -5    1    3    3    0  502  0.48204447317E+02  0.20237359973E+03 -0.68125157291E+03  0.71232333824E+03  0.46999998093E+01 0. -1.
</event>
<event>
 5   0  0.6853162E-04  0.1783296E+04  0.7818609E-02  0.8715233E-01
       -2   -1    0    0    0  501  0.00000000000E+00  0.00000000000E+00  0.13870148180E+04  0.13870148180E+04  0.25500000920E-02 0. -1.
        2   -1    0    0  501    0  0.00000000000E+00  0.00000000000E+00 -0.57319914921E+03  0.57319914922E+03  0.25500000920E-02 0.  1.
    10030    2    1    2    0    0  0.00000000000E+00  0.00000000000E+00  0.81381566882E+03  0.19602139673E+04  0.17832955040E+04 0.  0.
        2    1    3    3  502    0 -0.15602613867E+03 -0.56591272236E+03  0.11446352364E+04  0.12863868740E+04  0.25500000920E-02 0. -1.
       -2    1    3    3    0  502  0.15602613867E+03  0.56591272236E+03 -0.33081956757E+03  0.67382709323E+03  0.25500000920E-02 0.  1.
</event>
<event>
 5   0  0.3377273E-04  0.1686290E+04  0.7818609E-02  0.8769222E-01
       -1   -1    0    0    0  501  0.00000000000E+00  0.00000000000E+00  0.39055139673E+03  0.39055139676E+03  0.50400001928E-02 0.  1.
        1   -1    0    0  501    0  0.00000000000E+00  0.00000000000E+00 -0.18202305324E+04  0.18202305325E+04  0.50400001928E-02 0. -1.
    10030    2    1    2    0    0  0.00000000000E+00  0.00000000000E+00 -0.14296791357E+04  0.22107819292E+04  0.16862901018E+04 0.  0.
        2    1    3    3  502    0  0.49382385838E+03 -0.26175477989E+03  0.11279095958E+03  0.57017485780E+03  0.25500000920E-02 0.  1.
       -2    1    3    3    0  502 -0.49382385838E+03  0.26175477989E+03 -0.15424700953E+04  0.16406070714E+04  0.25500000920E-02 0. -1.
</event>
<event>
 5   0  0.6771967E-04  0.1792257E+04  0.7818609E-02  0.8710428E-01
        2   -1    0    0  501    0  0.00000000000E+00  0.00000000000E+00  0.14900174685E+04  0.14900174685E+04  0.25500000920E-02 0.  1.
       -2   -1    0    0    0  501  0.00000000000E+00  0.00000000000E+00 -0.53895063165E+03  0.53895063166E+03  0.25500000920E-02 0. -1.
    10030    2    1    2    0    0  0.00000000000E+00  0.00000000000E+00  0.95106683684E+03  0.20289681001E+04  0.17922565172E+04 0.  0.
        1    1    3    3  502    0 -0.11873872769E+03  0.31560307881E+03 -0.46438966557E+03  0.57390064499E+03  0.50400001928E-02 0. -1.
       -1    1    3    3    0  502  0.11873872769E+03 -0.31560307881E+03  0.14154565024E+04  0.14550674552E+04  0.50400001928E-02 0.  1.
</event>
<event>
 5   0  0.2467375E-04  0.1581681E+04  0.7818609E-02  0.8831882E-01
       -3   -1    0    0    0  501  0.00000000000E+00  0.00000000000E+00  0.10450815720E+04  0.10450815769E+04  0.10100000352E+00 0.  1.
        3   -1    0    0  501    0  0.00000000000E+00  0.00000000000E+00 -0.59844936578E+03  0.59844937430E+03  0.10100000352E+00 0. -1.
    10030    2    1    2    0    0  0.00000000000E+00  0.00000000000E+00  0.44663220627E+03  0.16435309512E+04  0.15816806441E+04 0.  0.
        3    1    3    3  502    0  0.55016611622E+03 -0.14319501777E+03 -0.34794632083E+03  0.66652398376E+03  0.10100000352E+00 0. -1.
       -3    1    3    3    0  502 -0.55016611622E+03  0.14319501777E+03  0.79457852710E+03  0.97700696747E+03  0.10100000352E+00 0.  1.
</event>
<event>
 5   0  0.2467375E-04  0.1814026E+04  0.7818609E-02  0.8698876E-01
        4   -1    0    0  501    0  0.00000000000E+00  0.00000000000E+00  0.10697761758E+04  0.10697769296E+04  0.12699999809E+01 0. -1.
       -4   -1    0    0    0  501  0.00000000000E+00  0.00000000000E+00 -0.76901242098E+03  0.76901346966E+03  0.12699999809E+01 0.  1.
    10030    2    1    2    0    0  0.00000000000E+00  0.00000000000E+00  0.30076375479E+03  0.18387903993E+04  0.18140262667E+04 0.  0.
        5    1    3    3  502    0  0.23607864993E+03  0.19227769592E+03 -0.71565081821E+03  0.77774161834E+03  0.46999998093E+01 0.  1.
       -5    1    3    3    0  502 -0.23607864993E+03 -0.19227769592E+03  0.10164145730E+04  0.10610487809E+04  0.46999998093E+01 0. -1.
</event>
<event>
 5   0  0.3404261E-04  0.1763278E+04  0.7818609E-02  0.8726075E-01
       -1   -1    0    0    0  501  0.00000000000E+00  0.00000000000E+00  0.10490060762E+04  0.10490060762E+04  0.50400001928E-02 0. -1.
        1   -1    0    0  501    0  0.00000000000E+00  0.00000000000E+00 -0.74097498872E+03  0.74097498873E+03  0.50400001928E-02 0.  1.
    10030    2    1    2    0    0  0.00000000000E+00  0.00000000000E+00  0.30803108746E+03  0.17899810649E+04  0.17632779310E+04 0.  0.
        1    1    3    3  502    0  0.70178524485E+03  0.29008073351E+03  0.60872517759E+03  0.97323979763E+03  0.50400001928E-02 0. -1.
       -1    1    3    3    0  502 -0.70178524485E+03 -0.29008073351E+03 -0.30069409013E+03  0.81674126729E+03  0.50400001928E-02 0.  1.
</event>
<event>
 5   0  0.3308275E-04  0.1797769E+04  0.7818609E-02  0.8707487E-01
        1   -1    0    0  501    0  0.00000000000E+00  0.00000000000E+00  0.50389491735E+03  0.50389491738E+03  0.50400001928E-02 0.  1.
       -1   -1    0    0    0  501  0.00000000000E+00  0.00000000000E+00 -0.16034964384E+04  0.16034964384E+04  0.50400001928E-02 0. -1.
    10030    2    1    2    0    0  0.00000000000E+00  0.00000000000E+00 -0.10996015211E+04  0.21073913558E+04  0.17977694016E+04 0.  0.
        3    1    3    3  502    0  0.26924904484E+02 -0.73266229153E+03  0.59840767344E+02  0.73559493714E+03  0.10100000352E+00 0.  1.
       -3    1    3    3    0  502 -0.26924904484E+02  0.73266229153E+03 -0.11594422884E+04  0.13717964187E+04  0.10100000352E+00 0. -1.
</event>
<event>
 5   0  0.3377273E-04  0.1816342E+04  0.7818609E-02  0.8697657E-01
        1   -1    0    0  501    0  0.00000000000E+00  0.00000000000E+00  0.15418660903E+04  0.15418660903E+04  0.50400001928E-02 0. -1.
       -1   -1    0    0    0  501  0.00000000000E+00  0.00000000000E+00 -0.53491956516E+03  0.53491956519E+03  0.50400001928E-02 0.  1.
    10030    2    1    2    0    0  0.00000000000E+00  0.00000000000E+00  0.10069465252E+04  0.20767856555E+04  0.18163417505E+04 0.  0.
        2    1    3    3  502    0 -0.82542192299E+03  0.37780704434E+03  0.47290336771E+03  0.10235707640E+04  0.25500000920E-02 0. -1.
       -2    1    3    3    0  502  0.82542192299E+03 -0.37780704434E+03  0.53404315746E+03  0.10532148915E+04  0.25500000920E-02 0.  1.
</event>
<event>
 5   0  0.3308275E-04  0.1810565E+04  0.7818609E-02  0.8700701E-01
        1   -1    0    0  501    0  0.00000000000E+00  0.00000000000E+00  0.11120392726E+04  0.11120392726E+04  0.50400001928E-02 0. -1.
       -1   -1    0    0    0  501  0.00000000000E+00  0.00000000000E+00 -0.73696680012E+03  0.73696680014E+03  0.50400001928E-02 0.  1.
    10030    2    1    2    0    0  0.00000000000E+00  0.00000000000E+00  0.37507247246E+03  0.18490060727E+04  0.18105645797E+04 0.  0.
        3    1    3    3  502    0 -0.22641600320E+03  0.62385425957E+03  0.81630132348E+03  0.10520485752E+04  0.10100000352E+00 0. -1.
       -3    1    3    3    0  502  0.22641600320E+03 -0.62385425957E+03 -0.44122885102E+03  0.79695749752E+03  0.10100000352E+00 0.  1.
</event>
<event>
 5   0  0.3470962E-04  0.1722074E+04  0.7818609E-02  0.8748874E-01
       -1   -1    0    0    0  501  0.00000000000E+00  0.00000000000E+00  0.45776461319E+03  0.45776461322E+03  0.50400001928E-02 0. -1.
        1   -1    0    0  501    0  0.00000000000E+00  0.00000000000E+00 -0.16195771772E+04  0.16195771772E+04  0.50400001928E-02 0.  1.
    10030    2    1    2    0    0  0.00000000000E+00  0.00000000000E+00 -0.11618125640E+04  0.20773417905E+04  0.17220744701E+04 0.  0.
        4    1    3    3  502    0 -0.26340819840E+03  0.17599692897E+03  0.38490753656E+03  0.49851200847E+03  0.12699999809E+01 0. -1.
       -4    1    3    3    0  502  0.26340819840E+03 -0.17599692897E+03 -0.15467201006E+04  0.15788297820E+04  0.12699999809E+01 0.  1.
</event>
<event>
 5   0  0.3377273E-04  0.1636121E+04  0.7818609E-02  0.8798660E-01
       -1   -1    0    0    0  501  0.00000000000E+00  0.00000000000E+00  0.26327188366E+03  0.26327188371E+03  0.50400001928E-02 0.  1.
        1   -1    0    0  501    0  0.00000000000E+00  0.00000000000E+00 -0.25419454606E+04  0.25419454606E+04  0.50400001928E-02 0. -1.
    10030    2    1    2    0    0  0.00000000000E+00  0.00000000000E+00 -0.22786735769E+04  0.28052173443E+04  0.16361207408E+04 0.  0.
        2    1    3    3  502    0  0.15742608207E+03  0.23112403549E+03  0.17877667883E+03  0.33190720389E+03  0.25500000920E-02 0.  1.
       -2    1    3    3    0  502 -0.15742608207E+03 -0.23112403549E+03 -0.24574502557E+04  0.24733101404E+04  0.25500000920E-02 0. -1.
</event>
<event>
 5   0  0.6853162E-04  0.1748117E+04  0.7818609E-02  0.8734388E-01
        2   -1    0    0  501    0  0.00000000000E+00  0.00000000000E+00  0.11759376427E+04  0.11759376427E+04  0.25500000920E-02 0.  1.
       -2   -1    0    0    0  501  0.00000000000E+00  0.00000000000E+00 -0.64967555699E+03  0.64967555699E+03  0.25500000920E-02 0. -1.
    10030    2    1    2    0    0  0.00000000000E+00  0.00000000000E+00  0.52626208574E+03  0.18256131997E+04  0.17481166357E+04 0.  0.
        2    1    3    3  502    0 -0.63222216802E+03 -0.17896717507E+03 -0.33882782880E+03  0.73928236626E+03  0.25500000920E-02 0. -1.
       -2    1    3    3    0  502  0.63222216802E+03  0.17896717507E+03  0.86508991454E+03  0.10863308335E+04  0.25500000920E-02 0.  1.
</event>
<event>
 5   0  0.3377273E-04  0.1515615E+04  0.7818609E-02  0.8874135E-01
        1   -1    0    0  501    0  0.00000000000E+00  0.00000000000E+00  0.11199683257E+04  0.11199683257E+04  0.50400001928E-02 0.  1.
       -1   -1    0    0    0  501  0.00000000000E+00  0.00000000000E+00 -0.51275744084E+03  0.51275744087E+03  0.50400001928E-02 0. -1.
    10030    2    1    2    0    0  0.00000000000E+00  0.00000000000E+00  0.60721088488E+03  0.16327257666E+04  0.15156148489E+04 0.  0.
        2    1    3    3  502    0 -0.40293521165E+03  0.30315098317E+03 -0.30580433760E+03  0.58972332180E+03  0.25500000920E-02 0. -1.
       -2    1    3    3    0  502  0.40293521165E+03 -0.30315098317E+03  0.91301522248E+03  0.10430024448E+04  0.25500000920E-02 0.  1.
</event>
<event>
 5   0  0.3413839E-04  0.1790318E+04  0.7818609E-02  0.8711465E-01
        1   -1    0    0  501    0  0.00000000000E+00  0.00000000000E+00  0.20474465893E+04  0.20474465893E+04  0.50400001928E-02 0. -1.
       -1   -1    0    0    0  501  0.00000000000E+00  0.00000000000E+00 -0.39137012946E+03  0.39137012949E+03  0.50400001928E-02 0.  1.
    10030    2    1    2    0    0  0.00000000000E+00  0.00000000000E+00  0.16560764598E+04  0.24388167188E+04  0.17903177782E+04 0.  0.
        5    1    3    3  502    0 -0.28970456633E+03  0.15063880328E+03 -0.30733130432E+03  0.44843662364E+03  0.46999998093E+01 0.  1.
       -5    1    3    3    0  502  0.28970456633E+03 -0.15063880328E+03  0.19634077642E+04  0.19903800951E+04  0.46999998093E+01 0. -1.
</event>
<event>
 5   0  0.2467375E-04  0.1813456E+04  0.7818609E-02  0.8699176E-01
       -3   -1    0    0    0  501  0.00000000000E+00  0.00000000000E+00  0.10935987758E+04  0.10935987804E+04  0.10100000352E+00 0.  1.
        3   -1    0    0  501    0  0.00000000000E+00  0.00000000000E+00 -0.75178912766E+03  0.75178913444E+03  0.10100000352E+00 0. -1.
    10030    2    1    2    0    0  0.00000000000E+00  0.00000000000E+00  0.34180964809E+03  0.18453879149E+04  0.18134560157E+04 0.  0.
        1    1    3    3  502    0  0.30292897147E+03  0.51223031555E+03 -0.52525367500E+03  0.79374887783E+03  0.50400001928E-02 0. -1.
       -1    1    3    3    0  502 -0.30292897147E+03 -0.51223031555E+03  0.86706332309E+03  0.10516390370E+04  0.50400001928E-02 0.  1.
</event>
<event>
 5   0  0.6929121E-04  0.1768653E+04  0.7818609E-02  0.8723149E-01
        2   -1    0    0  501    0  0.00000000000E+00  0.00000000000E+00  0.10381907600E+04  0.10381907600E+04  0.25500000920E-02 0. -1.
       -2   -1    0    0    0  501  0.00000000000E+00  0.00000000000E+00 -0.75326576874E+03  0.75326576874E+03  0.25500000920E-02 0.  1.
    10030    2    1    2    0    0  0.00000000000E+00  0.00000000000E+00  0.28492499125E+03  0.17914565287E+04  0.17686532288E+04 0.  0.
        3    1    3    3  502    0  0.20369800411E+03  0.81732550742E+03  0.41522932066E+03  0.93911088850E+03  0.10100000352E+00 0. -1.
       -3    1    3    3    0  502 -0.20369800411E+03 -0.81732550742E+03 -0.13030432942E+03  0.85234564023E+03  0.10100000352E+00 0.  1.
</event>
<event>
 5   0  0.6929121E-04  0.1779551E+04  0.7818609E-02  0.8717250E-01
       -2   -1    0    0    0  501  0.00000000000E+00  0.00000000000E+00  0.71976090744E+03  0.71976090745E+03  0.25500000920E-02 0. -1.
        2   -1    0    0  501    0  0.00000000000E+00  0.00000000000E+00 -0.10999495099E+04  0.10999495099E+04  0.25500000920E-02 0.  1.
    10030    2    1    2    0    0  0.00000000000E+00  0.00000000000E+00 -0.38018860247E+03  0.18197104174E+04  0.17795512439E+04 0.  0.
        3    1    3    3  502    0 -0.69319820540E+03 -0.49836919359E+03 -0.44635914959E+03  0.96339613125E+03  0.10100000352E+00 0. -1.
       -3    1    3    3    0  502  0.69319820540E+03  0.49836919359E+03  0.66170547117E+02  0.85631428611E+03  0.10100000352E+00 0.  1.
</event>
<event>
 5   0  0.6774451E-04  0.1831815E+04  0.7818609E-02  0.8689561E-01
        2   -1    0    0  501    0  0.00000000000E+00  0.00000000000E+00  0.10454758612E+04  0.10454758612E+04  0.25500000920E-02 0.  1.
       -2   -1    0    0    0  501  0.00000000000E+00  0.00000000000E+00 -0.80239726183E+03  0.80239726184E+03  0.25500000920E-02 0. -1.
    10030    2    1    2    0    0  0.00000000000E+00  0.00000000000E+00  0.24307859941E+03  0.18478731231E+04  0.18318154584E+04 0.  0.
        4    1    3    3  502    0  0.51362892375E+02 -0.30241314531E+03 -0.74904006235E+03  0.80941613838E+03  0.12699999809E+01 0. -1.
       -4    1    3    3    0  502 -0.51362892375E+02  0.30241314531E+03  0.99211866176E+03  0.10384569847E+04  0.12699999809E+01 0.  1.
</event>
<event>
 5   0  0.6929121E-04  0.1775272E+04  0.7818609E-02  0.8719561E-01
        2   -1    0    0  501    0  0.00000000000E+00  0.00000000000E+00  0.21591467412E+04  0.21591467412E+04  0.25500000920E-02 0.  1.
       -2   -1    0    0    0  501  0.00000000000E+00  0.00000000000E+00 -0.36491150742E+03  0.36491150743E+03  0.25500000920E-02 0. -1.
    10030    2    1    2    0    0  0.00000000000E+00  0.00000000000E+00  0.17942352338E+04  0.25240582486E+04  0.17752718013E+04 0.  0.
        3    1    3    3  502    0  0.32369025365E+03  0.43426884961E+03  0.18969610789E+04  0.19727711877E+04  0.10100000352E+00 0.  1.
       -3    1    3    3    0  502 -0.32369025365E+03 -0.43426884961E+03 -0.10272584513E+03  0.55128706090E+03  0.10100000352E+00 0. -1.
</event>
<event>
 5   0  0.6771967E-04  0.1842225E+04  0.7818609E-02  0.8684162E-01
       -2   -1    0    0    0  501  0.00000000000E+00  0.00000000000E+00  0.68193988527E+03  0.68193988528E+03  0.25500000920E-02 0.  1.
        2   -1    0    0  501    0  0.00000000000E+00  0.00000000000E+00 -0.12441682369E+04  0.12441682369E+04  0.25500000920E-02 0. -1.
    10030    2    1    2    0    0  0.00000000000E+00  0.00000000000E+00 -0.56222835162E+03  0.19261081222E+04  0.18422246820E+04 0.  0.
        1    1    3    3  502    0  0.69159961355E+02  0.81169533274E+03 -0.73059099462E+03  0.10942557356E+04  0.50400001928E-02 0. -1.
       -1    1    3    3    0  502 -0.69159961355E+02 -0.81169533274E+03  0.16836264300E+03  0.83185238657E+03  0.50400001928E-02 0.  1.
</event>
<event>
 5   0  0.6547153E-04  0.1746247E+04  0.7818609E-02  0.8735419E-01
        2   -1    0    0  501    0  0.00000000000E+00  0.00000000000E+00  0.13729530378E+04  0.13729530378E+04  0.25500000920E-02 0. -1.
       -2   -1    0    0    0  501  0.00000000000E+00  0.00000000000E+00 -0.55525887188E+03  0.55525887189E+03  0.25500000920E-02 0.  1.
    10030    2    1    2    0    0  0.00000000000E+00  0.00000000000E+00  0.81769416593E+03  0.19282119097E+04  0.17462466663E+04 0.  0.
        5    1    3    3  502    0  0.89673963669E+02  0.86077230209E+03  0.28125593947E+03  0.90999855455E+03  0.46999998093E+01 0.  1.
       -5    1    3    3    0  502 -0.89673963669E+02 -0.86077230209E+03  0.53643822647E+03  0.10182133552E+04  0.46999998093E+01 0. -1.
</event>
<event>
 5   0  0.6547153E-04  0.1787622E+04  0.7818609E-02  0.8712910E-01
       -2   -1    0    0    0  501  0.00000000000E+00  0.00000000000E+00  0.11092144523E+04  0.11092144524E+04  0.25500000920E-02 0. -1.
        2   -1    0    0  501    0  0.00000000000E+00  0.00000000000E+00 -0.72023796694E+03  0.72023796694E+03  0.25500000920E-02 0.  1.
    10030    2    1    2    0    0  0.00000000000E+00  0.00000000000E+00  0.38897648541E+03  0.18294524193E+04  0.17876222890E+04 0.  0.
        5    1    3    3  502    0 -0.34862064352E+03 -0.37328973453E+01  0.10367444613E+04  0.10938059497E+04  0.46999998093E+01 0. -1.
       -5    1    3    3    0  502  0.34862064352E+03  0.37328973453E+01 -0.64776797589E+03  0.73564646957E+03  0.46999998093E+01 0.  1.
</event>
<event>
 5   0  0.3308275E-04  0.1805158E+04  0.7818609E-02  0.8703561E-01
       -1   -1    0    0    0  501  0.00000000000E+00  0.00000000000E+00  0.43323437319E+03  0.43323437322E+03  0.50400001928E-02 0.  1.
        1   -1    0    0  501    0  0.00000000000E+00  0.00000000000E+00 -0.18803886669E+04  0.18803886669E+04  0.50400001928E-02 0. -1.
    10030    2    1    2    0    0  0.00000000000E+00  0.00000000000E+00 -0.14471542937E+04  0.23136230401E+04  0.18051581709E+04 0.  0.
        3    1    3    3  502    0 -0.36641827603E+03 -0.56827120665E+03  0.42703240411E+02  0.67750874109E+03  0.10100000352E+00 0.  1.
       -3    1    3    3    0  502  0.36641827603E+03  0.56827120665E+03 -0.14898575341E+04  0.16361142990E+04  0.10100000352E+00 0. -1.
</event>
<event>
 5   0  0.3404261E-04  0.1533883E+04  0.7818609E-02  0.8862228E-01
        1   -1    0    0  501    0  0.00000000000E+00  0.00000000000E+00  0.13995264067E+04  0.13995264067E+04  0.50400001928E-02 0.  1.
       -1   -1    0    0    0  501  0.00000000000E+00  0.00000000000E+00 -0.42028466512E+03  0.42028466515E+03  0.50400001928E-02 0. -1.
    10030    2    1    2    0    0  0.00000000000E+00  0.00000000000E+00  0.97924174153E+03  0.18198110718E+04  0.15338832905E+04 0.  0.
        1    1    3    3  502    0  0.75985084358E+03  0.47693758802E+02  0.37990869370E+03  0.85086932880E+03  0.50400001928E-02 0. -1.
       -1    1    3    3    0  502 -0.75985084358E+03 -0.47693758802E+02  0.59933304783E+03  0.96894174302E+03  0.50400001928E-02 0.  1.
</event>
<event>
 5   0  0.3308275E-04  0.1785273E+04  0.7818609E-02  0.8714171E-01
       -1   -1    0    0    0  501  0.00000000000E+00  0.00000000000E+00  0.42606260395E+03  0.42606260398E+03  0.50400001928E-02 0.  1.
        1   -1    0    0  501    0  0.00000000000E+00  0.00000000000E+00 -0.18701465322E+04  0.18701465322E+04  0.50400001928E-02 0. -1.
    10030    2    1    2    0    0  0.00000000000E+00  0.00000000000E+00 -0.14440839282E+04  0.22962091362E+04  0.17852725297E+04 0.  0.
        3    1    3    3  502    0 -0.12640531330E+03  0.12329717462E+03  0.40337450924E+03  0.44033112700E+03  0.10100000352E+00 0.  1.
       -3    1    3    3    0  502  0.12640531330E+03 -0.12329717462E+03 -0.18474584375E+04  0.18558780092E+04  0.10100000352E+00 0. -1.
</event>
<event>
 5   0  0.3404261E-04  0.1815937E+04  0.7818609E-02  0.8697870E-01
        1   -1    0    0  501    0  0.00000000000E+00  0.00000000000E+00  0.21397175964E+04  0.21397175964E+04  0.50400001928E-02 0.  1.
       -1   -1    0    0    0  501  0.00000000000E+00  0.00000000000E+00 -0.38528766472E+03  0.38528766475E+03  0.50400001928E-02 0. -1.
    10030    2    1    2    0    0  0.00000000000E+00  0.00000000000E+00  0.17544299316E+04  0.25250052611E+04  0.18159369988E+04 0.  0.
        1    1    3    3  502    0 -0.30914967825E+03  0.85333406987E+03  0.84164944036E+03  0.12377909108E+04  0.50400001928E-02 0. -1.
       -1    1    3    3    0  502  0.30914967825E+03 -0.85333406987E+03  0.91278049128E+03  0.12872143503E+04  0.50400001928E-02 0.  1.
</event>
<event>
 5   0  0.3470962E-04  0.1828353E+04  0.7818609E-02  0.8691365E-01
       -1   -1    0    0    0  501  0.00000000000E+00  0.00000000000E+00  0.53365993545E+03  0.53365993547E+03  0.50400001928E-02 0. -1.
        1   -1    0    0  501    0  0.00000000000E+00  0.00000000000E+00 -0.15660140634E+04  0.15660140634E+04  0.50400001928E-02 0.  1.
    10030    2    1    2    0    0  0.00000000000E+00  0.00000000000E+00 -0.10323541280E+04  0.20996739989E+04  0.18283533182E+04 0.  0.
        4    1    3    3  502    0 -0.89270146057E+03  0.17505260837E+03 -0.61990234037E+03  0.11008359723E+04  0.12699999809E+01 0.  1.
       -4    1    3    3    0  502  0.89270146057E+03 -0.17505260837E+03 -0.41245178761E+03  0.99883802661E+03  0.12699999809E+01 0. -1.
</event>
<event>
 5   0  0.6774451E-04  0.1820254E+04  0.7818609E-02  0.8695602E-01
       -2   -1    0    0    0  501  0.00000000000E+00  0.00000000000E+00  0.11184503967E+04  0.11184503967E+04  0.25500000920E-02 0.  1.
        2   -1    0    0  501    0  0.00000000000E+00  0.00000000000E+00 -0.74060634428E+03  0.74060634429E+03  0.25500000920E-02 0. -1.
    10030    2    1    2    0    0  0.00000000000E+00  0.00000000000E+00  0.37784405240E+03  0.18590567410E+04  0.18202543334E+04 0.  0.
        4    1    3    3  502    0 -0.67305092425E+02  0.55205653978E+03 -0.54687536656E+03  0.77998120364E+03  0.12699999809E+01 0. -1.
       -4    1    3    3    0  502  0.67305092425E+02 -0.55205653978E+03  0.92471941896E+03  0.10790755373E+04  0.12699999809E+01 0.  1.
</event>
<event>
 5   0  0.6547153E-04  0.1780866E+04  0.7818609E-02  0.8716541E-01
        2   -1    0    0  501    0  0.00000000000E+00  0.00000000000E+00  0.83345619746E+03  0.83345619747E+03  0.25500000920E-02 0. -1.
       -2   -1    0    0    0  501  0.00000000000E+00  0.00000000000E+00 -0.95130467818E+03  0.95130467818E+03  0.25500000920E-02 0.  1.
    10030    2    1    2    0    0  0.00000000000E+00  0.00000000000E+00 -0.11784848072E+03  0.17847608757E+04  0.17808658340E+04 0.  0.
        5    1    3    3  502    0  0.33468433208E+03 -0.69059217058E+03 -0.51148420133E+03  0.92226315464E+03  0.46999998093E+01 0.  1.
       -5    1    3    3    0  502 -0.33468433208E+03  0.69059217058E+03  0.39363572061E+03  0.86249772101E+03  0.46999998093E+01 0. -1.
</event>
<event>
 5   0  0.3404261E-04  0.1784329E+04  0.7818609E-02  0.8714678E-01
       -1   -1    0    0    0  501  0.00000000000E+00  0.00000000000E+00  0.12868035041E+04  0.12868035041E+04  0.50400001928E-02 0. -1.
        1   -1    0    0  501    0  0.00000000000E+00  0.00000000000E+00 -0.61855425552E+03  0.61855425554E+03  0.50400001928E-02 0.  1.
    10030    2    1    2    0    0  0.00000000000E+00  0.00000000000E+00  0.66824924860E+03  0.19053577597E+04  0.17843293233E+04 0.  0.
        1    1    3    3  502    0 -0.53206309308E+02  0.64392325784E+03  0.99106893951E+03  0.11830831400E+04  0.50400001928E-02 0. -1.
       -1    1    3    3    0  502  0.53206309308E+02 -0.64392325784E+03 -0.32281969090E+03  0.72227461965E+03  0.50400001928E-02 0.  1.
</event>
<event>
 5   0  0.6929121E-04  0.1776142E+04  0.7818609E-02  0.8719091E-01
       -2   -1    0    0    0  501  0.00000000000E+00  0.00000000000E+00  0.77962271658E+03  0.77962271659E+03  0.25500000920E-02 0. -1.
        2   -1    0    0  501    0  0.00000000000E+00  0.00000000000E+00 -0.10116051616E+04  0.10116051616E+04  0.25500000920E-02 0.  1.
    10030    2    1    2    0    0  0.00000000000E+00  0.00000000000E+00 -0.23198244503E+03  0.17912278782E+04  0.17761422963E+04 0.  0.
        3    1    3    3  502    0  0.62759802986E+03 -0.42571448161E+03 -0.58203987550E+03  0.95597203610E+03  0.10100000352E+00 0.  1.
       -3    1    3    3    0  502 -0.62759802986E+03  0.42571448161E+03  0.35005743047E+03  0.83525584210E+03  0.10100000352E+00 0. -1.
</event>
<event>
 5   0  0.6771967E-04  0.1743921E+04  0.7818609E-02  0.8736703E-01
        2   -1    0    0  501    0  0.00000000000E+00  0.00000000000E+00  0.15773725484E+04  0.15773725484E+04  0.25500000920E-02 0.  1.
       -2   -1    0    0    0  501  0.00000000000E+00  0.00000000000E+00 -0.48201377079E+03  0.48201377080E+03  0.25500000920E-02 0. -1.
    10030    2    1    2    0    0  0.00000000000E+00  0.00000000000E+00  0.10953587776E+04  0.20593863192E+04  0.17439212024E+04 0.  0.
        1    1    3    3  502    0 -0.61530005574E+03 -0.61746504564E+03  0.57295297354E+03  0.10431358258E+04  0.50400001928E-02 0.  1.
       -1    1    3    3    0  502  0.61530005574E+03  0.61746504564E+03  0.52240580407E+03  0.10162504934E+04  0.50400001928E-02 0. -1.
</event>
<event>
 5   0  0.6853162E-04  0.1805222E+04  0.7818609E-02  0.8703527E-01
       -2   -1    0    0    0  501  0.00000000000E+00  0.00000000000E+00  0.16396367507E+04  0.16396367507E+04  0.25500000920E-02 0.  1.
        2   -1    0    0  501    0  0.00000000000E+00  0.00000000000E+00 -0.49688251317E+03  0.49688251317E+03  0.25500000920E-02 0. -1.
    10030    2    1    2    0    0  0.00000000000E+00  0.00000000000E+00  0.11427542375E+04  0.21365192639E+04  0.18052222349E+04 0.  0.
        2    1    3    3  502    0 -0.12873151184E+03  0.17589756955E+02 -0.48575709824E+03  0.50283313354E+03  0.25500000920E-02 0. -1.
       -2    1    3    3    0  502  0.12873151184E+03 -0.17589756955E+02  0.16285113358E+04  0.16336861303E+04  0.25500000920E-02 0.  1.
</event>
<event>
 5   0  0.3377273E-04  0.1821471E+04  0.7818609E-02  0.8694964E-01
        1   -1    0    0  501    0  0.00000000000E+00  0.00000000000E+00  0.15777688097E+04  0.15777688097E+04  0.50400001928E-02 0. -1.
       -1   -1    0    0    0  501  0.00000000000E+00  0.00000000000E+00 -0.52570358643E+03  0.52570358645E+03  0.50400001928E-02 0.  1.
    10030    2    1    2    0    0  0.00000000000E+00  0.00000000000E+00  0.10520652232E+04  0.21034723961E+04  0.18214705288E+04 0.  0.
        2    1    3    3  502    0  0.66932937259E+03 -0.43083105770E+03  0.10370608143E+04  0.13073302344E+04  0.25500000920E-02 0. -1.
       -2    1    3    3    0  502 -0.66932937259E+03  0.43083105770E+03  0.15004408906E+02  0.79614216167E+03  0.25500000920E-02 0.  1.
</event>
<event>
 5   0  0.3470962E-04  0.1812422E+04  0.7818609E-02  0.8699722E-01
       -1   -1    0    0    0  501  0.00000000000E+00  0.00000000000E+00  0.61349487708E+03  0.61349487710E+03  0.50400001928E-02 0.  1.
        1   -1    0    0  501    0  0.00000000000E+00  0.00000000000E+00 -0.13385899217E+04  0.13385899217E+04  0.50400001928E-02 0. -1.
    10030    2    1    2    0    0  0.00000000000E+00  0.00000000000E+00 -0.72509504463E+03  0.19520847988E+04  0.18124216502E+04 0.  0.
        4    1    3    3  502    0 -0.48413008133E+02  0.65315696603E+03 -0.10371154331E+04  0.12266082814E+04  0.12699999809E+01 0. -1.
       -4    1    3    3    0  502  0.48413008133E+02 -0.65315696603E+03  0.31202038842E+03  0.72547651742E+03  0.12699999809E+01 0.  1.
</event>
<event>
 5   0  0.6547153E-04  0.1778855E+04  0.7818609E-02  0.8717625E-01
       -2   -1    0    0    0  501  0.00000000000E+00  0.00000000000E+00  0.76828248347E+03  0.76828248348E+03  0.25500000920E-02 0. -1.
        2   -1    0    0  501    0  0.00000000000E+00  0.00000000000E+00 -0.10296755728E+04  0.10296755728E+04  0.25500000920E-02 0.  1.
    10030    2    1    2    0    0  0.00000000000E+00  0.00000000000E+00 -0.26139308929E+03  0.17979580562E+04  0.17788554817E+04 0.  0.
        5    1    3    3  502    0  0.81261487133E+03  0.21035850832E+03  0.16651216793E+03  0.85576984242E+03  0.46999998093E+01 0.  1.
       -5    1    3    3    0  502 -0.81261487133E+03 -0.21035850832E+03 -0.42790525721E+03  0.94218821383E+03  0.46999998093E+01 0. -1.
</event>
<event>
 5   0  0.2467375E-04  0.1774654E+04  0.7818609E-02  0.8719895E-01
        4   -1    0    0  501    0  0.00000000000E+00  0.00000000000E+00  0.13443345710E+04  0.13443351709E+04  0.12699999809E+01 0. -1.
       -4   -1    0    0    0  501  0.00000000000E+00  0.00000000000E+00 -0.58567809798E+03  0.58567947493E+03  0.12699999809E+01 0.  1.
    10030    2    1    2    0    0  0.00000000000E+00  0.00000000000E+00  0.75865647303E+03  0.19300146458E+04  0.17746540195E+04 0.  0.
        3    1    3    3  502    0 -0.12008548826E+03  0.53104703458E+02  0.13337116610E+04  0.13401594827E+04  0.10100000352E+00 0. -1.
       -3    1    3    3    0  502  0.12008548826E+03 -0.53104703458E+02 -0.57505518802E+03  0.58985516314E+03  0.10100000352E+00 0.  1.
</event>
<event>
 5   0  0.3413839E-04  0.1784309E+04  0.7818609E-02  0.8714689E-01
        1   -1    0    0  501    0  0.00000000000E+00  0.00000000000E+00  0.14645245445E+04  0.14645245445E+04  0.50400001928E-02 0. -1.
       -1   -1    0    0    0  501  0.00000000000E+00  0.00000000000E+00 -0.54347970179E+03  0.54347970181E+03  0.50400001928E-02 0.  1.
    10030    2    1    2    0    0  0.00000000000E+00  0.00000000000E+00  0.92104484266E+03  0.20080042463E+04  0.17843086759E+04 0.  0.
        5    1    3    3  502    0 -0.55092321750E+03 -0.91197701586E+02 -0.32246528149E+03  0.64485607706E+03  0.46999998093E+01 0.  1.
       -5    1    3    3    0  502  0.55092321750E+03  0.91197701586E+02  0.12435101242E+04  0.13631481692E+04  0.46999998093E+01 0. -1.
</event>
<event>
 5   0  0.3470962E-04  0.1888642E+04  0.7818609E-02  0.8660531E-01
       -1   -1    0    0    0  501  0.00000000000E+00  0.00000000000E+00  0.20371545559E+04  0.20371545559E+04  0.50400001928E-02 0. -1.
        1   -1    0    0  501    0  0.00000000000E+00  0.00000000000E+00 -0.43773905811E+03  0.43773905814E+03  0.50400001928E-02 0.  1.
    10030    2    1    2    0    0  0.00000000000E+00  0.00000000000E+00  0.15994154978E+04  0.24748936141E+04  0.18886419635E+04 0.  0.
        4    1    3    3  502    0 -0.63498022237E+03  0.35575638486E+03  0.11305240366E+02  0.72793674830E+03  0.12699999809E+01 0.  1.
       -4    1    3    3    0  502  0.63498022237E+03 -0.35575638486E+03  0.15881102574E+04  0.17469568658E+04  0.12699999809E+01 0. -1.
</event>
<event>
 5   0  0.3308275E-04  0.1806378E+04  0.7818609E-02  0.8702915E-01
        1   -1    0    0  501    0  0.00000000000E+00  0.00000000000E+00  0.11782138303E+04  0.11782138303E+04  0.50400001928E-02 0. -1.
       -1   -1    0    0    0  501  0.00000000000E+00  0.00000000000E+00 -0.69236166969E+03  0.69236166971E+03  0.50400001928E-02 0.  1.
    10030    2    1    2    0    0  0.00000000000E+00  0.00000000000E+00  0.48585216064E+03  0.18705755001E+04  0.18063776957E+04 0.  0.
        3    1    3    3  502    0 -0.80463408409E+03  0.33953947928E+03  0.44662230390E+01  0.87335160423E+03  0.10100000352E+00 0.  1.
       -3    1    3    3    0  502  0.80463408409E+03 -0.33953947928E+03  0.48138593761E+03  0.99722389582E+03  0.10100000352E+00 0. -1.
</event>
<event>
 5   0  0.3413839E-04  0.1899420E+04  0.7818609E-02  0.8655145E-01
        1   -1    0    0  501    0  0.00000000000E+00  0.00000000000E+00  0.10986178843E+04  0.10986178844E+04  0.50400001928E-02 0.  1.
       -1   -1    0    0    0  501  0.00000000000E+00  0.00000000000E+00 -0.82098505776E+03  0.82098505777E+03  0.50400001928E-02 0. -1.
    10030    2    1    2    0    0  0.00000000000E+00  0.00000000000E+00  0.27763282659E+03  0.19196029421E+04  0.18994197717E+04 0.  0.
        5    1    3    3  502    0 -0.48415092582E+03 -0.16772152171E+03 -0.66930158893E+03  0.84292308947E+03  0.46999998093E+01 0. -1.
       -5    1    3    3    0  502  0.48415092582E+03  0.16772152171E+03  0.94693441553E+03  0.10766798527E+04  0.46999998093E+01 0.  1.
</event>
<event>
 5   0  0.3404261E-04  0.1763846E+04  0.7818609E-02  0.8725766E-01
       -1   -1    0    0    0  501  0.00000000000E+00  0.00000000000E+00  0.39344942519E+03  0.39344942523E+03  0.50400001928E-02 0.  1.
        1   -1    0    0  501    0  0.00000000000E+00  0.00000000000E+00 -0.19768433644E+04  0.19768433644E+04  0.50400001928E-02 0. -1.
    10030    2    1    2    0    0  0.00000000000E+00  0.00000000000E+00 -0.15833939392E+04  0.23702927896E+04  0.17638456684E+04 0.  0.
        1    1    3    3  502    0  0.25038172648E+02  0.40207643552E+03  0.26257791082E+03  0.48087371457E+03  0.50400001928E-02 0.  1.
       -1    1    3    3    0  502 -0.25038172648E+02 -0.40207643552E+03 -0.18459718500E+04  0.18894190750E+04  0.50400001928E-02 0. -1.
</event>
<event>
 5   0  0.2467375E-04  0.1808332E+04  0.7818609E-02  0.8701881E-01
        3   -1    0    0  501    0  0.00000000000E+00  0.00000000000E+00  0.12783731901E+04  0.12783731941E+04  0.10100000352E+00 0.  1.
       -3   -1    0    0    0  501  0.00000000000E+00  0.00000000000E+00 -0.63949713998E+03  0.63949714796E+03  0.10100000352E+00 0. -1.
    10030    2    1    2    0    0  0.00000000000E+00  0.00000000000E+00  0.63887605013E+03  0.19178703421E+04  0.18083318394E+04 0.  0.
        1    1    3    3  502    0 -0.67591504556E+03 -0.58944561497E+03  0.44132901988E+03  0.99953918665E+03  0.50400001928E-02 0. -1.
       -1    1    3    3    0  502  0.67591504556E+03  0.58944561497E+03  0.19754703025E+03  0.91833115542E+03  0.50400001928E-02 0.  1.
</event>
<event>
 5   0  0.6771967E-04  0.1746028E+04  0.7818609E-02  0.8735540E-01
       -2   -1    0    0    0  501  0.00000000000E+00  0.00000000000E+00  0.34720434962E+03  0.34720434962E+03  0.25500000920E-02 0.  1.
        2   -1    0    0  501    0  0.00000000000E+00  0.00000000000E+00 -0.21951136936E+04  0.21951136936E+04  0.25500000920E-02 0. -1.
    10030    2    1    2    0    0  0.00000000000E+00  0.00000000000E+00 -0.18479093440E+04  0.25423180433E+04  0.17460275168E+04 0.  0.
        1    1    3    3  502    0  0.72928982616E+03  0.47960126748E+03 -0.89994091785E+03  0.12537043838E+04  0.50400001928E-02 0. -1.
       -1    1    3    3    0  502 -0.72928982616E+03 -0.47960126748E+03 -0.94796842618E+03  0.12886136595E+04  0.50400001928E-02 0.  1.
</event>
<event>
 5   0  0.3404261E-04  0.1834676E+04  0.7818609E-02  0.8688073E-01
       -1   -1    0    0    0  501  0.00000000000E+00  0.00000000000E+00  0.90059502083E+03  0.90059502084E+03  0.50400001928E-02 0.  1.
        1   -1    0    0  501    0  0.00000000000E+00  0.00000000000E+00 -0.93439222462E+03  0.93439222463E+03  0.50400001928E-02 0. -1.
    10030    2    1    2    0    0  0.00000000000E+00  0.00000000000E+00 -0.33797203794E+02  0.18349872455E+04  0.18346759769E+04 0.  0.
        1    1    3    3  502    0 -0.23118351758E+03  0.94164552471E+02  0.86597206836E+03  0.90123271409E+03  0.50400001928E-02 0.  1.
       -1    1    3    3    0  502  0.23118351758E+03 -0.94164552471E+02 -0.89976927215E+03  0.93375453138E+03  0.50400001928E-02 0. -1.
</event>
<event>
 5   0  0.6774451E-04  0.2643872E+04  0.7818609E-02  0.8353450E-01
       -2   -1    0    0    0  501  0.00000000000E+00  0.00000000000E+00  0.11872352055E+04  0.11872352055E+04  0.25500000920E-02 0.  1.
        2   -1    0    0  501    0  0.00000000000E+00  0.00000000000E+00 -0.14719201552E+04  0.14719201552E+04  0.25500000920E-02 0. -1.
    10030    2    1    2    0    0  0.00000000000E+00  0.00000000000E+00 -0.28468494967E+03  0.26591553607E+04  0.26438724841E+04 0.  0.
        4    1    3    3  502    0 -0.50790216823E+03 -0.12136526090E+04 -0.27191474867E+03  0.13434494822E+04  0.12699999809E+01 0.  1.
       -4    1    3    3    0  502  0.50790216823E+03  0.12136526090E+04 -0.12770200998E+02  0.13157058785E+04  0.12699999809E+01 0. -1.
</event>
<event>
 5   0  0.6547153E-04  0.1831226E+04  0.7818609E-02  0.8689868E-01
       -2   -1    0    0    0  501  0.00000000000E+00  0.00000000000E+00  0.26755001146E+03  0.26755001147E+03  0.25500000920E-02 0. -1.
        2   -1    0    0  501    0  0.00000000000E+00  0.00000000000E+00 -0.31334218082E+04  0.31334218082E+04  0.25500000920E-02 0.  1.
    10030    2    1    2    0    0  0.00000000000E+00  0.00000000000E+00 -0.28658717967E+04  0.34009718196E+04  0.18312258634E+04 0.  0.
        5    1    3    3  502    0  0.89108551877E+03 -0.17888019297E+03 -0.16388554468E+04  0.18740066143E+04  0.46999998093E+01 0. -1.
       -5    1    3    3    0  502 -0.89108551877E+03  0.17888019297E+03 -0.12270163499E+04  0.15269652053E+04  0.46999998093E+01 0.  1.
</event>
<event>
 5   0  0.3377273E-04  0.1410202E+04  0.7818609E-02  0.8946467E-01
        1   -1    0    0  501    0  0.00000000000E+00  0.00000000000E+00  0.26385125272E+04  0.26385125272E+04  0.50400001928E-02 0.  1.
       -1   -1    0    0    0  501  0.00000000000E+00  0.00000000000E+00 -0.18842724747E+03  0.18842724754E+03  0.50400001928E-02 0. -1.
    10030    2    1    2    0    0  0.00000000000E+00  0.00000000000E+00  0.24500852797E+04  0.28269397747E+04  0.14102023302E+04 0.  0.
        2    1    3    3  502    0 -0.14882782100E+03  0.63778340218E+03  0.70133694302E+03  0.95957849916E+03  0.25500000920E-02 0. -1.
       -2    1    3    3    0  502  0.14882782100E+03 -0.63778340218E+03  0.17487483367E+04  0.18673612756E+04  0.25500000920E-02 0.  1.
</event>
<event>
 5   0  0.3404261E-04  0.1795525E+04  0.7818609E-02  0.8708683E-01
       -1   -1    0    0    0  501  0.00000000000E+00  0.00000000000E+00  0.12748235788E+04  0.12748235788E+04  0.50400001928E-02 0.  1.
        1   -1    0    0  501    0  0.00000000000E+00  0.00000000000E+00 -0.63222676912E+03  0.63222676914E+03  0.50400001928E-02 0. -1.
    10030    2    1    2    0    0  0.00000000000E+00  0.00000000000E+00  0.64259680964E+03  0.19070503479E+04  0.17955250958E+04 0.  0.
        1    1    3    3  502    0  0.50453812825E+03 -0.56381826179E+03  0.83456146385E+03  0.11264735204E+04  0.50400001928E-02 0.  1.
       -1    1    3    3    0  502 -0.50453812825E+03  0.56381826179E+03 -0.19196465421E+03  0.78057682752E+03  0.50400001928E-02 0. -1.
</event>
<event>
 5   0  0.6853162E-04  0.1537407E+04  0.7818609E-02  0.8859952E-01
        2   -1    0    0  501    0  0.00000000000E+00  0.00000000000E+00  0.55812616778E+03  0.55812616779E+03  0.25500000920E-02 0. -1.
       -2   -1    0    0    0  501  0.00000000000E+00  0.00000000000E+00 -0.10587300705E+04  0.10587300705E+04  0.25500000920E-02 0.  1.
    10030    2    1    2    0    0  0.00000000000E+00  0.00000000000E+00 -0.50060390267E+03  0.16168562383E+04  0.15374068517E+04 0.  0.
        2    1    3    3  502    0  0.13841470630E+03 -0.38712610292E+02  0.54386964464E+03  0.56254020966E+03  0.25500000920E-02 0. -1.
       -2    1    3    3    0  502 -0.13841470630E+03  0.38712610292E+02 -0.10444735473E+04  0.10543160286E+04  0.25500000920E-02 0.  1.
</event>
<event>
 5   0  0.3308275E-04  0.1821001E+04  0.7818609E-02  0.8695210E-01
       -1   -1    0    0    0  501  0.00000000000E+00  0.00000000000E+00  0.52525876394E+03  0.52525876396E+03  0.50400001928E-02 0. -1.
        1   -1    0    0  501    0  0.00000000000E+00  0.00000000000E+00 -0.15782916762E+04  0.15782916762E+04  0.50400001928E-02 0.  1.
    10030    2    1    2    0    0  0.00000000000E+00  0.00000000000E+00 -0.10530329122E+04  0.21035504401E+04  0.18210014113E+04 0.  0.
        3    1    3    3  502    0  0.37658464787E+03 -0.18365324549E+03 -0.14603177741E+04  0.15192341897E+04  0.10100000352E+00 0.  1.
       -3    1    3    3    0  502 -0.37658464787E+03  0.18365324549E+03  0.40728486189E+03  0.58431625043E+03  0.10100000352E+00 0. -1.
</event>
<event>
 5   0  0.3308275E-04  0.1858148E+04  0.7818609E-02  0.8675974E-01
       -1   -1    0    0    0  501  0.00000000000E+00  0.00000000000E+00  0.52600407702E+03  0.52600407705E+03  0.50400001928E-02 0.  1.
        1   -1    0    0  501    0  0.00000000000E+00  0.00000000000E+00 -0.16410106551E+04  0.16410106551E+04  0.50400001928E-02 0. -1.
    10030    2    1    2    0    0  0.00000000000E+00  0.00000000000E+00 -0.11150065780E+04  0.21670147321E+04  0.18581477821E+04 0.  0.
        3    1    3    3  502    0  0.42574931763E+03 -0.19087163511E+03  0.37946370715E+03  0.60140433803E+03  0.10100000352E+00 0.  1.
       -3    1    3    3    0  502 -0.42574931763E+03  0.19087163511E+03 -0.14944702852E+04  0.15656103941E+04  0.10100000352E+00 0. -1.
</event>
<event>
 5   0  0.6853162E-04  0.1845415E+04  0.7818609E-02  0.8682514E-01
       -2   -1    0    0    0  501  0.00000000000E+00  0.00000000000E+00  0.86520172545E+03  0.86520172545E+03  0.25500000920E-02 0.  1.
        2   -1    0    0  501    0  0.00000000000E+00  0.00000000000E+00 -0.98403529368E+03  0.98403529369E+03  0.25500000920E-02 0. -1.
    10030    2    1    2    0    0  0.00000000000E+00  0.00000000000E+00 -0.11883356823E+03  0.18492370191E+04  0.18454148954E+04 0.  0.
        2    1    3    3  502    0 -0.50570789674E+03 -0.83745923975E+02  0.70939788879E+03  0.87521381458E+03  0.25500000920E-02 0.  1.
       -2    1    3    3    0  502  0.50570789674E+03  0.83745923975E+02 -0.82823145703E+03  0.97402320456E+03  0.25500000920E-02 0. -1.
</event>
<event>
 5   0  0.3413839E-04  0.1831846E+04  0.7818609E-02  0.8689545E-01
       -1   -1    0    0    0  501  0.00000000000E+00  0.00000000000E+00  0.40564630729E+03  0.40564630733E+03  0.50400001928E-02 0.  1.
        1   -1    0    0  501    0  0.00000000000E+00  0.00000000000E+00 -0.20680941225E+04  0.20680941225E+04  0.50400001928E-02 0. -1.
    10030    2    1    2    0    0  0.00000000000E+00  0.00000000000E+00 -0.16624478152E+04  0.24737404299E+04  0.18318457839E+04 0.  0.
        5    1    3    3  502    0  0.33639902852E+03  0.43728647694E+03 -0.18185092334E+04  0.19003635682E+04  0.46999998093E+01 0. -1.
       -5    1    3    3    0  502 -0.33639902852E+03 -0.43728647694E+03  0.15606141814E+03  0.57337686170E+03  0.46999998093E+01 0.  1.
</event>
<event>
 5   0  0.6929121E-04  0.1769576E+04  0.7818609E-02  0.8722648E-01
        2   -1    0    0  501    0  0.00000000000E+00  0.00000000000E+00  0.12184289086E+04  0.12184289086E+04  0.25500000920E-02 0.  1.
       -2   -1    0    0    0  501  0.00000000000E+00  0.00000000000E+00 -0.64250760201E+03  0.64250760202E+03  0.25500000920E-02 0. -1.
    10030    2    1    2    0    0  0.00000000000E+00  0.00000000000E+00  0.57592130662E+03  0.18609365107E+04  0.17695760355E+04 0.  0.
        3    1    3    3  502    0  0.74973001982E+03 -0.46921228871E+03  0.26231834530E+03  0.92253249209E+03  0.10100000352E+00 0.  1.
       -3    1    3    3    0  502 -0.74973001982E+03  0.46921228871E+03  0.31360296133E+03  0.93840401856E+03  0.10100000352E+00 0. -1.
</event>
<event>
 5   0  0.6929121E-04  0.1790337E+04  0.7818609E-02  0.8711455E-01
       -2   -1    0    0    0  501  0.00000000000E+00  0.00000000000E+00  0.82520355377E+03  0.82520355378E+03  0.25500000920E-02 0.  1.
        2   -1    0    0  501    0  0.00000000000E+00  0.00000000000E+00 -0.97106580300E+03  0.97106580301E+03  0.25500000920E-02 0. -1.
    10030    2    1    2    0    0  0.00000000000E+00  0.00000000000E+00 -0.14586224923E+03  0.17962693568E+04  0.17903373443E+04 0.  0.
        3    1    3    3  502    0  0.13949186977E+03 -0.36621367900E+03  0.73456878186E+03  0.83256335849E+03  0.10100000352E+00 0.  1.
       -3    1    3    3    0  502 -0.13949186977E+03  0.36621367900E+03 -0.88043103109E+03  0.96370599829E+03  0.10100000352E+00 0. -1.
</event>
<event>
 5   0  0.6853162E-04  0.1744745E+04  0.7818609E-02  0.8736248E-01
       -2   -1    0    0    0  501  0.00000000000E+00  0.00000000000E+00  0.85279591872E+03  0.85279591873E+03  0.25500000920E-02 0. -1.
        2   -1    0    0  501    0  0.00000000000E+00  0.00000000000E+00 -0.89239840251E+03  0.89239840251E+03  0.25500000920E-02 0.  1.
    10030    2    1    2    0    0  0.00000000000E+00  0.00000000000E+00 -0.39602483782E+02  0.17451943212E+04  0.17447449275E+04 0.  0.
        2    1    3    3  502    0  0.59625993806E+03 -0.51139979845E+02  0.61510038586E+03  0.85818977852E+03  0.25500000920E-02 0. -1.
       -2    1    3    3    0  502 -0.59625993806E+03  0.51139979845E+02 -0.65470286964E+03  0.88700454271E+03  0.25500000920E-02 0.  1.
</event>
<event>
 5   0  0.3470962E-04  0.1781272E+04  0.7818609E-02  0.8716323E-01
        1   -1    0    0  501    0  0.00000000000E+00  0.00000000000E+00  0.13148442881E+04  0.13148442881E+04  0.50400001928E-02 0.  1.
       -1   -1    0    0    0  501  0.00000000000E+00  0.00000000000E+00 -0.60329020914E+03  0.60329020916E+03  0.50400001928E-02 0. -1.
    10030    2    1    2    0    0  0.00000000000E+00  0.00000000000E+00  0.71155407898E+03  0.19181344973E+04  0.17812722258E+04 0.  0.
        4    1    3    3  502    0  0.27216942454E+03  0.38611110056E+03 -0.45726692862E+03  0.65745922652E+03  0.12699999809E+01 0. -1.
       -4    1    3    3    0  502 -0.27216942454E+03 -0.38611110056E+03  0.11688210076E+04  0.12606752708E+04  0.12699999809E+01 0.  1.
</event>
<event>
 5   0  0.6771967E-04  0.1811558E+04  0.7818609E-02  0.8700177E-01
       -2   -1    0    0    0  501  0.00000000000E+00  0.00000000000E+00  0.42036138353E+03  0.42036138353E+03  0.25500000920E-02 0. -1.
        2   -1    0    0  501    0  0.00000000000E+00  0.00000000000E+00 -0.19517394179E+04  0.19517394179E+04  0.25500000920E-02 0.  1.
    10030    2    1    2    0    0  0.00000000000E+00  0.00000000000E+00 -0.15313780344E+04  0.23721008015E+04  0.18115583148E+04 0.  0.
        1    1    3    3  502    0 -0.29221603319E+03 -0.28561951159E+03  0.29281547922E+03  0.50270231783E+03  0.50400001928E-02 0. -1.
       -1    1    3    3    0  502  0.29221603319E+03  0.28561951159E+03 -0.18241935136E+04  0.18693984836E+04  0.50400001928E-02 0.  1.
</event>
<event>
 5   0  0.6853162E-04  0.1744765E+04  0.7818609E-02  0.8736237E-01
       -2   -1    0    0    0  501  0.00000000000E+00  0.00000000000E+00  0.47284462020E+03  0.47284462020E+03  0.25500000920E-02 0.  1.
        2   -1    0    0  501    0  0.00000000000E+00  0.00000000000E+00 -0.16095167761E+04  0.16095167761E+04  0.25500000920E-02 0. -1.
    10030    2    1    2    0    0  0.00000000000E+00  0.00000000000E+00 -0.11366721559E+04  0.20823613963E+04  0.17447651403E+04 0.  0.
        2    1    3    3  502    0 -0.68217493076E+03 -0.18171949221E+03  0.43340244127E+02  0.70729271648E+03  0.25500000920E-02 0.  1.
       -2    1    3    3    0  502  0.68217493076E+03  0.18171949221E+03 -0.11800124000E+04  0.13750686798E+04  0.25500000920E-02 0. -1.
</event>
<event>
 5   0  0.6771967E-04  0.1480578E+04  0.7818609E-02  0.8897472E-01
        2   -1    0    0  501    0  0.00000000000E+00  0.00000000000E+00  0.11363115117E+04  0.11363115117E+04  0.25500000920E-02 0.  1.
       -2   -1    0    0    0  501  0.00000000000E+00  0.00000000000E+00 -0.48228688026E+03  0.48228688027E+03  0.25500000920E-02 0. -1.
    10030    2    1    2    0    0  0.00000000000E+00  0.00000000000E+00  0.65402463147E+03  0.16185983920E+04  0.14805784464E+04 0.  0.
        1    1    3    3  502    0 -0.20900004259E+03 -0.64295380882E+02  0.11002005996E+04  0.11217202295E+04  0.50400001928E-02 0.  1.
       -1    1    3    3    0  502  0.20900004259E+03  0.64295380882E+02 -0.44617596815E+03  0.49687816252E+03  0.50400001928E-02 0. -1.
</event>
<event>
 5   0  0.6929121E-04  0.1367541E+04  0.7818609E-02  0.8977655E-01
        2   -1    0    0  501    0  0.00000000000E+00  0.00000000000E+00  0.85339798223E+03  0.85339798223E+03  0.25500000920E-02 0.  1.
       -2   -1    0    0    0  501  0.00000000000E+00  0.00000000000E+00 -0.54785960156E+03  0.54785960157E+03  0.25500000920E-02 0. -1.
    10030    2    1    2    0    0  0.00000000000E+00  0.00000000000E+00  0.30553838067E+03  0.14012575838E+04  0.13675412660E+04 0.  0.
        3    1    3    3  502    0 -0.63504899301E+03 -0.44079083794E+02 -0.10300908651E+03  0.64485740381E+03  0.10100000352E+00 0. -1.
       -3    1    3    3    0  502  0.63504899301E+03  0.44079083794E+02  0.40854746718E+03  0.75640017999E+03  0.10100000352E+00 0.  1.
</event>
<event>
 5   0  0.3377273E-04  0.1842663E+04  0.7818609E-02  0.8683935E-01
       -1   -1    0    0    0  501  0.00000000000E+00  0.00000000000E+00  0.39896660532E+03  0.39896660535E+03  0.50400001928E-02 0.  1.
        1   -1    0    0  501    0  0.00000000000E+00  0.00000000000E+00 -0.21276250761E+04  0.21276250761E+04  0.50400001928E-02 0. -1.
    10030    2    1    2    0    0  0.00000000000E+00  0.00000000000E+00 -0.17286584708E+04  0.25265916815E+04  0.18426625888E+04 0.  0.
        2    1    3    3  502    0  0.12290732793E+03  0.43570419566E+03 -0.19646031467E+04  0.20160877663E+04  0.25500000920E-02 0. -1.
       -2    1    3    3    0  502 -0.12290732793E+03 -0.43570419566E+03  0.23594467587E+03  0.51050391521E+03  0.25500000920E-02 0.  1.
</event>
<event>
 5   0  0.6771967E-04  0.1818416E+04  0.7818609E-02  0.8696567E-01
       -2   -1    0    0    0  501  0.00000000000E+00  0.00000000000E+00  0.47449063683E+03  0.47449063684E+03  0.25500000920E-02 0. -1.
        2   -1    0    0  501    0  0.00000000000E+00  0.00000000000E+00 -0.17422036065E+04  0.17422036065E+04  0.25500000920E-02 0.  1.
    10030    2    1    2    0    0  0.00000000000E+00  0.00000000000E+00 -0.12677129697E+04  0.22166942433E+04  0.18184161226E+04 0.  0.
        1    1    3    3  502    0  0.38533581887E+03  0.71844265928E+03 -0.11245283301E+04  0.13889591474E+04  0.50400001928E-02 0.  1.
       -1    1    3    3    0  502 -0.38533581887E+03 -0.71844265928E+03 -0.14318463956E+03  0.82773509592E+03  0.50400001928E-02 0. -1.
</event>
<event>
 5   0  0.6774451E-04  0.1773368E+04  0.7818609E-02  0.8720592E-01
       -2   -1    0    0    0  501  0.00000000000E+00  0.00000000000E+00  0.84850665788E+03  0.84850665789E+03  0.25500000920E-02 0.  1.
        2   -1    0    0  501    0  0.00000000000E+00  0.00000000000E+00 -0.92657910271E+03  0.92657910271E+03  0.25500000920E-02 0. -1.
    10030    2    1    2    0    0  0.00000000000E+00  0.00000000000E+00 -0.78072444829E+02  0.17750857606E+04  0.17733680246E+04 0.  0.
        4    1    3    3  502    0 -0.88585791412E+02  0.37155819666E+03  0.76192883539E+03  0.85231455406E+03  0.12699999809E+01 0.  1.
       -4    1    3    3    0  502  0.88585791412E+02 -0.37155819666E+03 -0.84000128022E+03  0.92277120654E+03  0.12699999809E+01 0. -1.
</event>
<event>
 5   0  0.3404261E-04  0.1791322E+04  0.7818609E-02  0.8710928E-01
       -1   -1    0    0    0  501  0.00000000000E+00  0.00000000000E+00  0.69624479874E+03  0.69624479875E+03  0.50400001928E-02 0.  1.
        1   -1    0    0  501    0  0.00000000000E+00  0.00000000000E+00 -0.11521927636E+04  0.11521927636E+04  0.50400001928E-02 0. -1.
    10030    2    1    2    0    0  0.00000000000E+00  0.00000000000E+00 -0.45594796487E+03  0.18484375624E+04  0.17913215444E+04 0.  0.
        1    1    3    3  502    0 -0.72445262604E+03 -0.43796751675E+03 -0.52980879526E+03  0.99867137371E+03  0.50400001928E-02 0. -1.
       -1    1    3    3    0  502  0.72445262604E+03  0.43796751675E+03  0.73860830390E+02  0.84976618866E+03  0.50400001928E-02 0.  1.
</event>
<event>
 5   0  0.3377273E-04  0.1787800E+04  0.7818609E-02  0.8712814E-01
        1   -1    0    0  501    0  0.00000000000E+00  0.00000000000E+00  0.14230392675E+04  0.14230392675E+04  0.50400001928E-02 0. -1.
       -1   -1    0    0    0  501  0.00000000000E+00  0.00000000000E+00 -0.56151435838E+03  0.56151435840E+03  0.50400001928E-02 0.  1.
    10030    2    1    2    0    0  0.00000000000E+00  0.00000000000E+00  0.86152490907E+03  0.19845536259E+04  0.17877997441E+04 0.  0.
        2    1    3    3  502    0  0.19646721734E+03  0.31213561784E+03 -0.47311638680E+03  0.59988926218E+03  0.25500000920E-02 0.  1.
       -2    1    3    3    0  502 -0.19646721734E+03 -0.31213561784E+03  0.13346412959E+04  0.13846643637E+04  0.25500000920E-02 0. -1.
</event>
<event>
 5   0  0.3413839E-04  0.1077086E+04  0.7818609E-02  0.9227818E-01
       -1   -1    0    0    0  501  0.00000000000E+00  0.00000000000E+00  0.64293720761E+03  0.64293720763E+03  0.50400001928E-02 0. -1.
        1   -1    0    0  501    0  0.00000000000E+00  0.00000000000E+00 -0.45109908840E+03  0.45109908843E+03  0.50400001928E-02 0.  1.
    10030    2    1    2    0    0  0.00000000000E+00  0.00000000000E+00  0.19183811922E+03  0.10940362961E+04  0.10770856758E+04 0.  0.
        5    1    3    3  502    0 -0.19772857259E+02  0.10614969858E+02 -0.45060307458E+03  0.45118606393E+03  0.46999998093E+01 0.  1.
       -5    1    3    3    0  502  0.19772857259E+02 -0.10614969858E+02  0.64244119379E+03  0.64285023213E+03  0.46999998093E+01 0. -1.
</event>
<event>
 5   0  0.2467375E-04  0.1840687E+04  0.7818609E-02  0.8684957E-01
        3   -1    0    0  501    0  0.00000000000E+00  0.00000000000E+00  0.70750971516E+03  0.70750972236E+03  0.10100000352E+00 0.  1.
       -3   -1    0    0    0  501  0.00000000000E+00  0.00000000000E+00 -0.11972021015E+04  0.11972021057E+04  0.10100000352E+00 0. -1.
    10030    2    1    2    0    0  0.00000000000E+00  0.00000000000E+00 -0.48969238632E+03  0.19047118281E+04  0.18406869682E+04 0.  0.
        4    1    3    3  502    0 -0.21193811654E+03 -0.69499080213E+03  0.33969228921E+03  0.80207383983E+03  0.12699999809E+01 0.  1.
       -4    1    3    3    0  502  0.21193811654E+03  0.69499080213E+03 -0.82938467553E+03  0.11026379883E+04  0.12699999809E+01 0. -1.
</event>
<event>
 5   0  0.3308275E-04  0.1272966E+04  0.7818609E-02  0.9051282E-01
       -1   -1    0    0    0  501  0.00000000000E+00  0.00000000000E+00  0.27128342733E+03  0.27128342738E+03  0.50400001928E-02 0.  1.
        1   -1    0    0  501    0  0.00000000000E+00  0.00000000000E+00 -0.14933115438E+04  0.14933115438E+04  0.50400001928E-02 0. -1.
    10030    2    1    2    0    0  0.00000000000E+00  0.00000000000E+00 -0.12220281164E+04  0.17645949711E+04  0.12729661012E+04 0.  0.
        3    1    3    3  502    0 -0.62025932718E+03 -0.12188478223E+03 -0.50790100372E+03  0.81088900158E+03  0.10100000352E+00 0.  1.
       -3    1    3    3    0  502  0.62025932718E+03  0.12188478223E+03 -0.71412711269E+03  0.95370596956E+03  0.10100000352E+00 0. -1.
</event>
<event>
 5   0  0.6774451E-04  0.1805513E+04  0.7818609E-02  0.8703373E-01
        2   -1    0    0  501    0  0.00000000000E+00  0.00000000000E+00  0.13586290114E+04  0.13586290114E+04  0.25500000920E-02 0. -1.
       -2   -1    0    0    0  501  0.00000000000E+00  0.00000000000E+00 -0.59984684380E+03  0.59984684381E+03  0.25500000920E-02 0.  1.
    10030    2    1    2    0    0  0.00000000000E+00  0.00000000000E+00  0.75878216755E+03  0.19584758552E+04  0.18055130289E+04 0.  0.
        4    1    3    3  502    0  0.42797244765E+03 -0.74816792590E+03  0.67055715499E+03  0.10920458655E+04  0.12699999809E+01 0. -1.
       -4    1    3    3    0  502 -0.42797244765E+03  0.74816792590E+03  0.88225012566E+02  0.86642998969E+03  0.12699999809E+01 0.  1.
</event>
<event>
 5   0  0.3404261E-04  0.1876572E+04  0.7818609E-02  0.8666607E-01
       -1   -1    0    0    0  501  0.00000000000E+00  0.00000000000E+00  0.24173768615E+04  0.24173768615E+04  0.50400001928E-02 0.  1.
        1   -1    0    0  501    0  0.00000000000E+00  0.00000000000E+00 -0.36418830595E+03  0.36418830599E+03  0.50400001928E-02 0. -1.
    10030    2    1    2    0    0  0.00000000000E+00  0.00000000000E+00  0.20531885556E+04  0.27815651675E+04  0.18765717509E+04 0.  0.
        1    1    3    3  502    0 -0.18462043208E+00 -0.27893068474E+03  0.23545013885E+04  0.23709658685E+04  0.50400001928E-02 0.  1.
       -1    1    3    3    0  502  0.18462043208E+00  0.27893068474E+03 -0.30131283299E+03  0.41059929898E+03  0.50400001928E-02 0. -1.
</event>
<event>
 5   0  0.6547153E-04  0.1676706E+04  0.7818609E-02  0.8774762E-01
       -2   -1    0    0    0  501  0.00000000000E+00  0.00000000000E+00  0.44649312356E+03  0.44649312356E+03  0.25500000920E-02 0.  1.
        2   -1    0    0  501    0  0.00000000000E+00  0.00000000000E+00 -0.15741247149E+04  0.15741247149E+04  0.25500000920E-02 0. -1.
    10030    2    1    2    0    0  0.00000000000E+00  0.00000000000E+00 -0.11276315914E+04  0.20206178385E+04  0.16767061291E+04 0.  0.
        5    1    3    3  502    0 -0.85128251097E+02 -0.43980112733E+03 -0.14177815801E+04  0.14868754318E+04  0.46999998093E+01 0. -1.
       -5    1    3    3    0  502  0.85128251097E+02  0.43980112733E+03  0.29014998876E+03  0.53374240670E+03  0.46999998093E+01 0.  1.
</event>
<event>
 5   0  0.6547153E-04  0.1267478E+04  0.7818609E-02  0.9055761E-01
       -2   -1    0    0    0  501  0.00000000000E+00  0.00000000000E+00  0.43888622761E+03  0.43888622762E+03  0.25500000920E-02 0. -1.
        2   -1    0    0  501    0  0.00000000000E+00  0.00000000000E+00 -0.91510067624E+03  0.91510067624E+03  0.25500000920E-02 0.  1.
    10030    2    1    2    0    0  0.00000000000E+00  0.00000000000E+00 -0.47621444863E+03  0.13539869039E+04  0.12674779425E+04 0.  0.
        5    1    3    3  502    0  0.32401595216E+03 -0.75740839649E+02 -0.81425112767E+03  0.87963060483E+03  0.46999998093E+01 0.  1.
       -5    1    3    3    0  502 -0.32401595216E+03  0.75740839649E+02  0.33803667905E+03  0.47435629903E+03  0.46999998093E+01 0. -1.
</event>
<event>
 5   0  0.6547153E-04  0.1789475E+04  0.7818609E-02  0.8711917E-01
       -2   -1    0    0    0  501  0.00000000000E+00  0.00000000000E+00  0.93459404351E+03  0.93459404351E+03  0.25500000920E-02 0.  1.
        2   -1    0    0  501    0  0.00000000000E+00  0.00000000000E+00 -0.85658045098E+03  0.85658045098E+03  0.25500000920E-02 0. -1.
    10030    2    1    2    0    0  0.00000000000E+00  0.00000000000E+00  0.78013592527E+02  0.17911744945E+04  0.17894747691E+04 0.  0.
        5    1    3    3  502    0  0.59121725444E+03  0.65139270746E+03  0.20251003410E+03  0.90270853834E+03  0.46999998093E+01 0.  1.
       -5    1    3    3    0  502 -0.59121725444E+03 -0.65139270746E+03 -0.12449644157E+03  0.88846595615E+03  0.46999998093E+01 0. -1.
</event>
<event>
 5   0  0.6853162E-04  0.1796832E+04  0.7818609E-02  0.8707986E-01
        2   -1    0    0  501    0  0.00000000000E+00  0.00000000000E+00  0.94959201589E+03  0.94959201590E+03  0.25500000920E-02 0. -1.
       -2   -1    0    0    0  501  0.00000000000E+00  0.00000000000E+00 -0.84999808760E+03  0.84999808760E+03  0.25500000920E-02 0.  1.
    10030    2    1    2    0    0  0.00000000000E+00  0.00000000000E+00  0.99593928298E+02  0.17995901035E+04  0.17968320985E+04 0.  0.
        2    1    3    3  502    0 -0.75070602628E+03  0.40196124033E+03  0.33662618241E+03  0.91566891577E+03  0.25500000920E-02 0. -1.
       -2    1    3    3    0  502  0.75070602628E+03 -0.40196124033E+03 -0.23703225411E+03  0.88392118773E+03  0.25500000920E-02 0.  1.
</event>
<event>
 5   0  0.3470962E-04  0.1837297E+04  0.7818609E-02  0.8686713E-01
       -1   -1    0    0    0  501  0.00000000000E+00  0.00000000000E+00  0.78624806649E+03  0.78624806651E+03  0.50400001928E-02 0. -1.
        1   -1    0    0  501    0  0.00000000000E+00  0.00000000000E+00 -0.10733445765E+04  0.10733445765E+04  0.50400001928E-02 0.  1.
    10030    2    1    2    0    0  0.00000000000E+00  0.00000000000E+00 -0.28709650999E+03  0.18595926430E+04  0.18372970342E+04 0.  0.
        4    1    3    3  502    0  0.70246999369E+03 -0.54987785565E+03  0.78392751614E+02  0.89553156537E+03  0.12699999809E+01 0. -1.
       -4    1    3    3    0  502 -0.70246999369E+03  0.54987785565E+03 -0.36548926161E+03  0.96406107764E+03  0.12699999809E+01 0.  1.
</event>
<event>
 5   0  0.6771967E-04  0.1789071E+04  0.7818609E-02  0.8712133E-01
        2   -1    0    0  501    0  0.00000000000E+00  0.00000000000E+00  0.14074562279E+04  0.14074562279E+04  0.25500000920E-02 0.  1.
       -2   -1    0    0    0  501  0.00000000000E+00  0.00000000000E+00 -0.56853908316E+03  0.56853908316E+03  0.25500000920E-02 0. -1.
    10030    2    1    2    0    0  0.00000000000E+00  0.00000000000E+00  0.83891714471E+03  0.19759953110E+04  0.17890711259E+04 0.  0.
        1    1    3    3  502    0  0.46735226471E+03 -0.71688185694E+03  0.13174995513E+03  0.86584974842E+03  0.50400001928E-02 0. -1.
       -1    1    3    3    0  502 -0.46735226471E+03  0.71688185694E+03  0.70716718957E+03  0.11101455626E+04  0.50400001928E-02 0.  1.
</event>
<event>
 5   0  0.6547153E-04  0.1790933E+04  0.7818609E-02  0.8711136E-01
        2   -1    0    0  501    0  0.00000000000E+00  0.00000000000E+00  0.63233168073E+03  0.63233168074E+03  0.25500000920E-02 0.  1.
       -2   -1    0    0    0  501  0.00000000000E+00  0.00000000000E+00 -0.12681009092E+04  0.12681009092E+04  0.25500000920E-02 0. -1.
    10030    2    1    2    0    0  0.00000000000E+00  0.00000000000E+00 -0.63576922842E+03  0.19004325899E+04  0.17909331414E+04 0.  0.
        5    1    3    3  502    0 -0.68675095405E+03  0.56308690232E+03 -0.19622510234E+03  0.90951641724E+03  0.46999998093E+01 0. -1.
       -5    1    3    3    0  502  0.68675095405E+03 -0.56308690232E+03 -0.43954412608E+03  0.99091617265E+03  0.46999998093E+01 0.  1.
</event>
<event>
 5   0  0.6774451E-04  0.1753120E+04  0.7818609E-02  0.8731635E-01
        2   -1    0    0  501    0  0.00000000000E+00  0.00000000000E+00  0.21044641383E+04  0.21044641383E+04  0.25500000920E-02 0. -1.
       -2   -1    0    0    0  501  0.00000000000E+00  0.00000000000E+00 -0.36510827350E+03  0.36510827351E+03  0.25500000920E-02 0.  1.
    10030    2    1    2    0    0  0.00000000000E+00  0.00000000000E+00  0.17393558648E+04  0.24695724119E+04  0.17531198113E+04 0.  0.
        4    1    3    3  502    0 -0.83045042670E+03  0.18874837871E+03  0.11620642565E+04  0.14407181580E+04  0.12699999809E+01 0. -1.
       -4    1    3    3    0  502  0.83045042670E+03 -0.18874837871E+03  0.57729160829E+03  0.10288542538E+04  0.12699999809E+01 0.  1.
</event>
<event>
 5   0  0.6929121E-04  0.1807519E+04  0.7818609E-02  0.8702311E-01
       -2   -1    0    0    0  501  0.00000000000E+00  0.00000000000E+00  0.34827267567E+03  0.34827267568E+03  0.25500000920E-02 0.  1.
        2   -1    0    0  501    0  0.00000000000E+00  0.00000000000E+00 -0.23452344395E+04  0.23452344395E+04  0.25500000920E-02 0. -1.
    10030    2    1    2    0    0  0.00000000000E+00  0.00000000000E+00 -0.19969617638E+04  0.26935071152E+04  0.18075188224E+04 0.  0.
        3    1    3    3  502    0  0.25355743142E+03 -0.32195200428E+03 -0.21988172599E+04  0.22366809824E+04  0.10100000352E+00 0. -1.
       -3    1    3    3    0  502 -0.25355743142E+03  0.32195200428E+03  0.20185549612E+03  0.45682613280E+03  0.10100000352E+00 0.  1.
</event>
<event>
 5   0  0.6547153E-04  0.1865125E+04  0.7818609E-02  0.8672414E-01
        2   -1    0    0  501    0  0.00000000000E+00  0.00000000000E+00  0.16373360308E+04  0.16373360308E+04  0.25500000920E-02 0.  1.
       -2   -1    0    0    0  501  0.00000000000E+00  0.00000000000E+00 -0.53115081919E+03  0.53115081919E+03  0.25500000920E-02 0. -1.
    10030    2    1    2    0    0  0.00000000000E+00  0.00000000000E+00  0.11061852116E+04  0.21684868499E+04  0.18651245256E+04 0.  0.
        5    1    3    3  502    0 -0.92658640684E+03  0.10225878456E+03  0.58229932647E+03  0.10991423129E+04  0.46999998093E+01 0. -1.
       -5    1    3    3    0  502  0.92658640684E+03 -0.10225878456E+03  0.52388588509E+03  0.10693445371E+04  0.46999998093E+01 0.  1.
</event>
<event>
 5   0  0.3470962E-04  0.1757017E+04  0.7818609E-02  0.8729497E-01
       -1   -1    0    0    0  501  0.00000000000E+00  0.00000000000E+00  0.64343803812E+03  0.64343803814E+03  0.50400001928E-02 0.  1.
        1   -1    0    0  501    0  0.00000000000E+00  0.00000000000E+00 -0.11994579903E+04  0.11994579904E+04  0.50400001928E-02 0. -1.
    10030    2    1    2    0    0  0.00000000000E+00  0.00000000000E+00 -0.55601995222E+03  0.18428960285E+04  0.17570166717E+04 0.  0.
        4    1    3    3  502    0  0.70724685483E+02  0.66817800396E+03  0.31561366482E+03  0.74234589271E+03  0.12699999809E+01 0.  1.
       -4    1    3    3    0  502 -0.70724685483E+02 -0.66817800396E+03 -0.87163361704E+03  0.11005501358E+04  0.12699999809E+01 0. -1.
</event>
<event>
 5   0  0.3308275E-04  0.1783002E+04  0.7818609E-02  0.8715392E-01
       -1   -1    0    0    0  501  0.00000000000E+00  0.00000000000E+00  0.53763590013E+03  0.53763590016E+03  0.50400001928E-02 0.  1.
        1   -1    0    0  501    0  0.00000000000E+00  0.00000000000E+00 -0.14782752016E+04  0.14782752016E+04  0.50400001928E-02 0. -1.
    10030    2    1    2    0    0  0.00000000000E+00  0.00000000000E+00 -0.94063930143E+03  0.20159111017E+04  0.17830017596E+04 0.  0.
        3    1    3    3  502    0 -0.22170848576E+02  0.86537827267E+03 -0.71123278561E+03  0.11203674339E+04  0.10100000352E+00 0. -1.
       -3    1    3    3    0  502  0.22170848576E+02 -0.86537827267E+03 -0.22940651582E+03  0.89554366786E+03  0.10100000352E+00 0.  1.
</event>
<event>
 5   0  0.3413839E-04  0.1832308E+04  0.7818609E-02  0.8689304E-01
        1   -1    0    0  501    0  0.00000000000E+00  0.00000000000E+00  0.67973988401E+03  0.67973988403E+03  0.50400001928E-02 0. -1.
       -1   -1    0    0    0  501  0.00000000000E+00  0.00000000000E+00 -0.12347936165E+04  0.12347936165E+04  0.50400001928E-02 0.  1.
    10030    2    1    2    0    0  0.00000000000E+00  0.00000000000E+00 -0.55505373248E+03  0.19145335005E+04  0.18323083471E+04 0.  0.
        5    1    3    3  502    0  0.81723487437E+03 -0.23650151314E+03 -0.63264698818E+03  0.10602217255E+04  0.46999998093E+01 0.  1.
       -5    1    3    3    0  502 -0.81723487437E+03  0.23650151314E+03  0.77593255693E+02  0.85431177502E+03  0.46999998093E+01 0. -1.
</event>
<event>
 5   0  0.6771967E-04  0.1694161E+04  0.7818609E-02  0.8764701E-01
        2   -1    0    0  501    0  0.00000000000E+00  0.00000000000E+00  0.71042595397E+03  0.71042595398E+03  0.25500000920E-02 0.  1.
       -2   -1    0    0    0  501  0.00000000000E+00  0.00000000000E+00 -0.10100216592E+04  0.10100216592E+04  0.25500000920E-02 0. -1.
    10030    2    1    2    0    0  0.00000000000E+00  0.00000000000E+00 -0.29959570518E+03  0.17204476131E+04  0.16941612683E+04 0.  0.
        1    1    3    3  502    0  0.19789276370E+03 -0.16711543196E+03 -0.96882034558E+03  0.10028469353E+04  0.50400001928E-02 0. -1.
       -1    1    3    3    0  502 -0.19789276370E+03  0.16711543196E+03  0.66922464041E+03  0.71760067787E+03  0.50400001928E-02 0.  1.
</event>
<event>
 5   0  0.6547153E-04  0.1847957E+04  0.7818609E-02  0.8681204E-01
       -2   -1    0    0    0  501  0.00000000000E+00  0.00000000000E+00  0.33095201599E+03  0.33095201600E+03  0.25500000920E-02 0. -1.
        2   -1    0    0  501    0  0.00000000000E+00  0.00000000000E+00 -0.25796364769E+04  0.25796364769E+04  0.25500000920E-02 0.  1.
    10030    2    1    2    0    0  0.00000000000E+00  0.00000000000E+00 -0.22486844609E+04  0.29105884929E+04  0.18479565932E+04 0.  0.
        5    1    3    3  502    0 -0.28038218885E+03 -0.11330812848E+03  0.25077860837E+03  0.39289299334E+03  0.46999998093E+01 0. -1.
       -5    1    3    3    0  502  0.28038218885E+03  0.11330812848E+03 -0.24994630693E+04  0.25176954996E+04  0.46999998093E+01 0.  1.
</event>
<event>
 5   0  0.3413839E-04  0.1754945E+04  0.7818609E-02  0.8730633E-01
       -1   -1    0    0    0  501  0.00000000000E+00  0.00000000000E+00  0.71114104798E+03  0.71114104800E+03  0.50400001928E-02 0. -1.
        1   -1    0    0  501    0  0.00000000000E+00  0.00000000000E+00 -0.10827072838E+04  0.10827072838E+04  0.50400001928E-02 0.  1.
    10030    2    1    2    0    0  0.00000000000E+00  0.00000000000E+00 -0.37156623580E+03  0.17938483318E+04  0.17549445489E+04 0.  0.
        5    1    3    3  502    0  0.81529991447E+03 -0.32348674101E+03 -0.21035516163E+03  0.90201386140E+03  0.46999998093E+01 0. -1.
       -5    1    3    3    0  502 -0.81529991447E+03  0.32348674101E+03 -0.16121107416E+03  0.89183447039E+03  0.46999998093E+01 0.  1.
</event>
<event>
 5   0  0.3404261E-04  0.1654140E+04  0.7818609E-02  0.8787961E-01
        1   -1    0    0  501    0  0.00000000000E+00  0.00000000000E+00  0.10219803871E+04  0.10219803871E+04  0.50400001928E-02 0.  1.
       -1   -1    0    0    0  501  0.00000000000E+00  0.00000000000E+00 -0.66933268260E+03  0.66933268262E+03  0.50400001928E-02 0. -1.
    10030    2    1    2    0    0  0.00000000000E+00  0.00000000000E+00  0.35264770448E+03  0.16913130697E+04  0.16541401078E+04 0.  0.
        1    1    3    3  502    0 -0.51720317378E+03 -0.63875777373E+02  0.83299146747E+03  0.98257519957E+03  0.50400001928E-02 0.  1.
       -1    1    3    3    0  502  0.51720317378E+03  0.63875777373E+02 -0.48034376300E+03  0.70873787014E+03  0.50400001928E-02 0. -1.
</event>
<event>
 5   0  0.6774451E-04  0.1804703E+04  0.7818609E-02  0.8703803E-01
       -2   -1    0    0    0  501  0.00000000000E+00  0.00000000000E+00  0.20413620824E+04  0.20413620824E+04  0.25500000920E-02 0. -1.
        2   -1    0    0  501    0  0.00000000000E+00  0.00000000000E+00 -0.39886998127E+03  0.39886998128E+03  0.25500000920E-02 0.  1.
    10030    2    1    2    0    0  0.00000000000E+00  0.00000000000E+00  0.16424921012E+04  0.24402320637E+04  0.18047028072E+04 0.  0.
        4    1    3    3  502    0  0.16031486496E+03 -0.42507430087E+03 -0.23295325601E+03  0.51054661841E+03  0.12699999809E+01 0.  1.
       -4    1    3    3    0  502 -0.16031486496E+03  0.42507430087E+03  0.18754453572E+04  0.19296854453E+04  0.12699999809E+01 0. -1.
</event>
<event>
 5   0  0.3404261E-04  0.1800034E+04  0.7818609E-02  0.8706282E-01
       -1   -1    0    0    0  501  0.00000000000E+00  0.00000000000E+00  0.86048708805E+03  0.86048708806E+03  0.50400001928E-02 0.  1.
        1   -1    0    0  501    0  0.00000000000E+00  0.00000000000E+00 -0.94136247627E+03  0.94136247628E+03  0.50400001928E-02 0. -1.
    10030    2    1    2    0    0  0.00000000000E+00  0.00000000000E+00 -0.80875388224E+02  0.18018495643E+04  0.18000336175E+04 0.  0.
        1    1    3    3  502    0 -0.76626493413E+03 -0.10241427031E+03 -0.50174925309E+03  0.92163059034E+03  0.50400001928E-02 0.  1.
       -1    1    3    3    0  502  0.76626493413E+03  0.10241427031E+03  0.42087386487E+03  0.88021897401E+03  0.50400001928E-02 0. -1.
</event>
<event>
 5   0  0.6774451E-04  0.1792653E+04  0.7818609E-02  0.8710216E-01
       -2   -1    0    0    0  501  0.00000000000E+00  0.00000000000E+00  0.12873116424E+04  0.12873116424E+04  0.25500000920E-02 0.  1.
        2   -1    0    0  501    0  0.00000000000E+00  0.00000000000E+00 -0.62409203686E+03  0.62409203686E+03  0.25500000920E-02 0. -1.
    10030    2    1    2    0    0  0.00000000000E+00  0.00000000000E+00  0.66321960559E+03  0.19114036793E+04  0.17926527215E+04 0.  0.
        4    1    3    3  502    0 -0.24629147809E+03 -0.85824063083E+03  0.24790557635E+03  0.92665811401E+03  0.12699999809E+01 0. -1.
       -4    1    3    3    0  502  0.24629147809E+03  0.85824063083E+03  0.41531402924E+03  0.98474556530E+03  0.12699999809E+01 0.  1.
</event>
<event>
 5   0  0.6771967E-04  0.1787770E+04  0.7818609E-02  0.8712830E-01
        2   -1    0    0  501    0  0.00000000000E+00  0.00000000000E+00  0.17691080652E+04  0.17691080652E+04  0.25500000920E-02 0. -1.
       -2   -1    0    0    0  501  0.00000000000E+00  0.00000000000E+00 -0.45165716644E+03  0.45165716645E+03  0.25500000920E-02 0.  1.
    10030    2    1    2    0    0  0.00000000000E+00  0.00000000000E+00  0.13174508988E+04  0.22207652317E+04  0.17877699359E+04 0.  0.
        1    1    3    3  502    0 -0.57824591158E+03 -0.31275105150E+03  0.14111008026E+04  0.15567231705E+04  0.50400001928E-02 0. -1.
       -1    1    3    3    0  502  0.57824591158E+03  0.31275105150E+03 -0.93649903830E+02  0.66404206116E+03  0.50400001928E-02 0.  1.
</event>
<event>
 5   0  0.2467375E-04  0.1731023E+04  0.7818609E-02  0.8743866E-01
        4   -1    0    0  501    0  0.00000000000E+00  0.00000000000E+00  0.57541458552E+03  0.57541598703E+03  0.12699999809E+01 0.  1.
       -4   -1    0    0    0  501  0.00000000000E+00  0.00000000000E+00 -0.13018590116E+04  0.13018596310E+04  0.12699999809E+01 0. -1.
    10030    2    1    2    0    0  0.00000000000E+00  0.00000000000E+00 -0.72644442604E+03  0.18772756180E+04  0.17310234666E+04 0.  0.
        4    1    3    3  502    0  0.50106043912E+03  0.64077411960E+03 -0.68393750628E+03  0.10627441655E+04  0.12699999809E+01 0. -1.
       -4    1    3    3    0  502 -0.50106043912E+03 -0.64077411960E+03 -0.42506919766E+02  0.81453145251E+03  0.12699999809E+01 0.  1.
</event>
<event>
 5   0  0.3404261E-04  0.1806341E+04  0.7818609E-02  0.8702935E-01
        1   -1    0    0  501    0  0.00000000000E+00  0.00000000000E+00  0.13232771034E+04  0.13232771034E+04  0.50400001928E-02 0. -1.
       -1   -1    0    0    0  501  0.00000000000E+00  0.00000000000E+00 -0.61643666508E+03  0.61643666510E+03  0.50400001928E-02 0.  1.
    10030    2    1    2    0    0  0.00000000000E+00  0.00000000000E+00  0.70684043833E+03  0.19397137685E+04  0.18063405267E+04 0.  0.
        1    1    3    3  502    0  0.66506434636E+03 -0.55355359579E+03  0.63134336515E+03  0.10711333311E+04  0.50400001928E-02 0. -1.
       -1    1    3    3    0  502 -0.66506434636E+03  0.55355359579E+03  0.75497073177E+02  0.86858043744E+03  0.50400001928E-02 0.  1.
</event>
<event>
 5   0  0.2467375E-04  0.1940518E+04  0.7818609E-02  0.8634947E-01
        3   -1    0    0  501    0  0.00000000000E+00  0.00000000000E+00  0.17349052332E+04  0.17349052362E+04  0.10100000352E+00 0. -1.
       -3   -1    0    0    0  501  0.00000000000E+00  0.00000000000E+00 -0.54262488452E+03  0.54262489392E+03  0.10100000352E+00 0.  1.
    10030    2    1    2    0    0  0.00000000000E+00  0.00000000000E+00  0.11922803487E+04  0.22775301301E+04  0.19405182461E+04 0.  0.
        2    1    3    3  502    0 -0.15317103563E+03  0.24292497964E+02 -0.52798386356E+03  0.55028942549E+03  0.25500000920E-02 0.  1.
       -2    1    3    3    0  502  0.15317103563E+03 -0.24292497964E+02  0.17202642123E+04  0.17272407046E+04  0.25500000920E-02 0. -1.
</event>
<event>
 5   0  0.6774451E-04  0.1883504E+04  0.7818609E-02  0.8663111E-01
       -2   -1    0    0    0  501  0.00000000000E+00  0.00000000000E+00  0.76445055893E+03  0.76445055894E+03  0.25500000920E-02 0.  1.
        2   -1    0    0  501    0  0.00000000000E+00  0.00000000000E+00 -0.11601752365E+04  0.11601752365E+04  0.25500000920E-02 0. -1.
    10030    2    1    2    0    0  0.00000000000E+00  0.00000000000E+00 -0.39572467753E+03  0.19246257954E+04  0.18835037648E+04 0.  0.
        4    1    3    3  502    0 -0.87350680799E+03  0.32318334567E+03 -0.55415130326E+02  0.93302415193E+03  0.12699999809E+01 0.  1.
       -4    1    3    3    0  502  0.87350680799E+03 -0.32318334567E+03 -0.34030954721E+03  0.99160164347E+03  0.12699999809E+01 0. -1.
</event>
<event>
 5   0  0.3470962E-04  0.1742264E+04  0.7818609E-02  0.8737620E-01
       -1   -1    0    0    0  501  0.00000000000E+00  0.00000000000E+00  0.14149066032E+04  0.14149066032E+04  0.50400001928E-02 0.  1.
        1   -1    0    0  501    0  0.00000000000E+00  0.00000000000E+00 -0.53634018907E+03  0.53634018909E+03  0.50400001928E-02 0. -1.
    10030    2    1    2    0    0  0.00000000000E+00  0.00000000000E+00  0.87856641413E+03  0.19512467923E+04  0.17422643601E+04 0.  0.
        4    1    3    3  502    0 -0.48311035710E+03  0.41059126533E+03  0.11083425568E+04  0.12768733847E+04  0.12699999809E+01 0.  1.
       -4    1    3    3    0  502  0.48311035710E+03 -0.41059126533E+03 -0.22977614268E+03  0.67437340765E+03  0.12699999809E+01 0. -1.
</event>
<event>
 5   0  0.6774451E-04  0.1914418E+04  0.7818609E-02  0.8647713E-01
       -2   -1    0    0    0  501  0.00000000000E+00  0.00000000000E+00  0.46079132583E+03  0.46079132584E+03  0.25500000920E-02 0. -1.
        2   -1    0    0  501    0  0.00000000000E+00  0.00000000000E+00 -0.19884251767E+04  0.19884251767E+04  0.25500000920E-02 0.  1.
    10030    2    1    2    0    0  0.00000000000E+00  0.00000000000E+00 -0.15276338509E+04  0.24492165026E+04  0.19144180040E+04 0.  0.
        4    1    3    3  502    0  0.85432360387E+03 -0.22120014843E+03 -0.28950787423E+03  0.92877055720E+03  0.12699999809E+01 0. -1.
       -4    1    3    3    0  502 -0.85432360387E+03  0.22120014843E+03 -0.12381259766E+04  0.15204459453E+04  0.12699999809E+01 0.  1.
</event>
<event>
 5   0  0.3377273E-04  0.1786683E+04  0.7818609E-02  0.8713414E-01
       -1   -1    0    0    0  501  0.00000000000E+00  0.00000000000E+00  0.68885730494E+03  0.68885730495E+03  0.50400001928E-02 0. -1.
        1   -1    0    0  501    0  0.00000000000E+00  0.00000000000E+00 -0.11585253885E+04  0.11585253885E+04  0.50400001928E-02 0.  1.
    10030    2    1    2    0    0  0.00000000000E+00  0.00000000000E+00 -0.46966808358E+03  0.18473826935E+04  0.17866825984E+04 0.  0.
        2    1    3    3  502    0  0.21831800141E+03  0.60027567540E+03  0.41093612482E+03  0.75951440730E+03  0.25500000920E-02 0. -1.
       -2    1    3    3    0  502 -0.21831800141E+03 -0.60027567540E+03 -0.88060420840E+03  0.10878682862E+04  0.25500000920E-02 0.  1.
</event>
<event>
 5   0  0.6771967E-04  0.1815008E+04  0.7818609E-02  0.8698359E-01
       -2   -1    0    0    0  501  0.00000000000E+00  0.00000000000E+00  0.10003302353E+04  0.10003302353E+04  0.25500000920E-02 0.  1.
        2   -1    0    0  501    0  0.00000000000E+00  0.00000000000E+00 -0.82329181075E+03  0.82329181076E+03  0.25500000920E-02 0. -1.
    10030    2    1    2    0    0  0.00000000000E+00  0.00000000000E+00  0.17703842453E+03  0.18236220460E+04  0.18150081992E+04 0.  0.
        1    1    3    3  502    0  0.87911888878E+02 -0.92137006751E+01  0.99599461692E+03  0.99990933061E+03  0.50400001928E-02 0.  1.
       -1    1    3    3    0  502 -0.87911888878E+02  0.92137006751E+01 -0.81895619239E+03  0.82371271543E+03  0.50400001928E-02 0. -1.
</event>
<event>
 5   0  0.3308275E-04  0.1707429E+04  0.7818609E-02  0.8757138E-01
       -1   -1    0    0    0  501  0.00000000000E+00  0.00000000000E+00  0.50567245623E+03  0.50567245625E+03  0.50400001928E-02 0.  1.
        1   -1    0    0  501    0  0.00000000000E+00  0.00000000000E+00 -0.14413062131E+04  0.14413062131E+04  0.50400001928E-02 0. -1.
    10030    2    1    2    0    0  0.00000000000E+00  0.00000000000E+00 -0.93563375684E+03  0.19469786693E+04  0.17074294749E+04 0.  0.
        3    1    3    3  502    0  0.29610461495E+03 -0.59806916467E+02 -0.13783248019E+04  0.14110400703E+04  0.10100000352E+00 0. -1.
       -3    1    3    3    0  502 -0.29610461495E+03  0.59806916467E+02  0.44269104511E+03  0.53593859898E+03  0.10100000352E+00 0.  1.
</event>
<event>
 5   0  0.3404261E-04  0.1784739E+04  0.7818609E-02  0.8714457E-01
        1   -1    0    0  501    0  0.00000000000E+00  0.00000000000E+00  0.10010439902E+04  0.10010439902E+04  0.50400001928E-02 0. -1.
       -1   -1    0    0    0  501  0.00000000000E+00  0.00000000000E+00 -0.79549313584E+03  0.79549313586E+03  0.50400001928E-02 0.  1.
    10030    2    1    2    0    0  0.00000000000E+00  0.00000000000E+00  0.20555085431E+03  0.17965371260E+04  0.17847393343E+04 0.  0.
        1    1    3    3  502    0  0.52724287537E+03  0.54490954351E+03  0.57643044020E+03  0.95246181689E+03  0.50400001928E-02 0. -1.
       -1    1    3    3    0  502 -0.52724287537E+03 -0.54490954351E+03 -0.37087958589E+03  0.84407530913E+03  0.50400001928E-02 0.  1.
</event>
<event>
 5   0  0.3308275E-04  0.1867277E+04  0.7818609E-02  0.8671318E-01
       -1   -1    0    0    0  501  0.00000000000E+00  0.00000000000E+00  0.64375178655E+03  0.64375178657E+03  0.50400001928E-02 0. -1.
        1   -1    0    0  501    0  0.00000000000E+00  0.00000000000E+00 -0.13540632321E+04  0.13540632321E+04  0.50400001928E-02 0.  1.
    10030    2    1    2    0    0  0.00000000000E+00  0.00000000000E+00 -0.71031144553E+03  0.19978150187E+04  0.18672767602E+04 0.  0.
        3    1    3    3  502    0  0.33307671550E+03  0.11197962096E+03 -0.12806116624E+04  0.13279479561E+04  0.10100000352E+00 0.  1.
       -3    1    3    3    0  502 -0.33307671550E+03 -0.11197962096E+03  0.57030021690E+03  0.66986706257E+03  0.10100000352E+00 0. -1.
</event>
<event>
 5   0  0.6929121E-04  0.1815994E+04  0.7818609E-02  0.8697840E-01
       -2   -1    0    0    0  501  0.00000000000E+00  0.00000000000E+00  0.68402854888E+03  0.68402854889E+03  0.25500000920E-02 0.  1.
        2   -1    0    0  501    0  0.00000000000E+00  0.00000000000E+00 -0.12052981725E+04  0.12052981725E+04  0.25500000920E-02 0. -1.
    10030    2    1    2    0    0  0.00000000000E+00  0.00000000000E+00 -0.52126962364E+03  0.18893267214E+04  0.18159937885E+04 0.  0.
        3    1    3    3  502    0 -0.22796069688E+03  0.31150778810E+03  0.59441412801E+03  0.70875337541E+03  0.10100000352E+00 0.  1.
       -3    1    3    3    0  502  0.22796069688E+03 -0.31150778810E+03 -0.11156837517E+04  0.11805733460E+04  0.10100000352E+00 0. -1.
</event>
<event>
 5   0  0.6853162E-04  0.1809215E+04  0.7818609E-02  0.8701414E-01
        2   -1    0    0  501    0  0.00000000000E+00  0.00000000000E+00  0.86735872479E+03  0.86735872479E+03  0.25500000920E-02 0.  1.
       -2   -1    0    0    0  501  0.00000000000E+00  0.00000000000E+00 -0.94345596756E+03  0.94345596756E+03  0.25500000920E-02 0. -1.
    10030    2    1    2    0    0  0.00000000000E+00  0.00000000000E+00 -0.76097242771E+02  0.18108146924E+04  0.18092150397E+04 0.  0.
        2    1    3    3  502    0 -0.87389051524E+03 -0.16559237903E+03  0.12704963068E+03  0.89846929679E+03  0.25500000920E-02 0. -1.
       -2    1    3    3    0  502  0.87389051524E+03  0.16559237903E+03 -0.20314687345E+03  0.91234539557E+03  0.25500000920E-02 0.  1.
</event>
<event>
 5   0  0.3470962E-04  0.1531451E+04  0.7818609E-02  0.8863804E-01
        1   -1    0    0  501    0  0.00000000000E+00  0.00000000000E+00  0.81658082936E+03  0.81658082938E+03  0.50400001928E-02 0.  1.
       -1   -1    0    0    0  501  0.00000000000E+00  0.00000000000E+00 -0.71803706144E+03  0.71803706146E+03  0.50400001928E-02 0. -1.
    10030    2    1    2    0    0  0.00000000000E+00  0.00000000000E+00  0.98543767921E+02  0.15346178908E+04  0.15314506837E+04 0.  0.
        4    1    3    3  502    0 -0.52037635632E+03 -0.19043277811E+03 -0.48028815816E+03  0.73330384082E+03  0.12699999809E+01 0. -1.
       -4    1    3    3    0  502  0.52037635632E+03  0.19043277811E+03  0.57883192608E+03  0.80131405001E+03  0.12699999809E+01 0.  1.
</event>
<event>
 5   0  0.6771967E-04  0.1807924E+04  0.7818609E-02  0.8702097E-01
        2   -1    0    0  501    0  0.00000000000E+00  0.00000000000E+00  0.11040098006E+04  0.11040098006E+04  0.25500000920E-02 0.  1.
       -2   -1    0    0    0  501  0.00000000000E+00  0.00000000000E+00 -0.74016327907E+03  0.74016327908E+03  0.25500000920E-02 0. -1.
    10030    2    1    2    0    0  0.00000000000E+00  0.00000000000E+00  0.36384652151E+03  0.18441730797E+04  0.18079242397E+04 0.  0.
        1    1    3    3  502    0  0.75161628564E+03 -0.31419812489E+03 -0.21772291065E+03  0.84323826311E+03  0.50400001928E-02 0.  1.
       -1    1    3    3    0  502 -0.75161628564E+03  0.31419812489E+03  0.58156943216E+03  0.10009348165E+04  0.50400001928E-02 0. -1.
</event>
<event>
 5   0  0.6547153E-04  0.1803641E+04  0.7818609E-02  0.8704365E-01
        2   -1    0    0  501    0  0.00000000000E+00  0.00000000000E+00  0.13480789111E+04  0.13480789111E+04  0.25500000920E-02 0.  1.
       -2   -1    0    0    0  501  0.00000000000E+00  0.00000000000E+00 -0.60328844947E+03  0.60328844947E+03  0.25500000920E-02 0. -1.
    10030    2    1    2    0    0  0.00000000000E+00  0.00000000000E+00  0.74479046163E+03  0.19513673606E+04  0.18036412460E+04 0.  0.
        5    1    3    3  502    0  0.13407494386E+03 -0.31969085510E+03  0.12730960662E+04  0.13194597445E+04  0.46999998093E+01 0.  1.
       -5    1    3    3    0  502 -0.13407494386E+03  0.31969085510E+03 -0.52830560462E+03  0.63190761609E+03  0.46999998093E+01 0. -1.
</event>
<event>
 5   0  0.3470962E-04  0.1826915E+04  0.7818609E-02  0.8692116E-01
       -1   -1    0    0    0  501  0.00000000000E+00  0.00000000000E+00  0.11130787909E+04  0.11130787909E+04  0.50400001928E-02 0.  1.
        1   -1    0    0  501    0  0.00000000000E+00  0.00000000000E+00 -0.74963625951E+03  0.74963625952E+03  0.50400001928E-02 0. -1.
    10030    2    1    2    0    0  0.00000000000E+00  0.00000000000E+00  0.36344253136E+03  0.18627150504E+04  0.18269145808E+04 0.  0.
        4    1    3    3  502    0 -0.16921293528E+03 -0.72508878295E+03  0.72125609729E+03  0.10366285407E+04  0.12699999809E+01 0.  1.
       -4    1    3    3    0  502  0.16921293528E+03  0.72508878295E+03 -0.35781356593E+03  0.82608650969E+03  0.12699999809E+01 0. -1.
</event>
<event>
 5   0  0.6771967E-04  0.1780364E+04  0.7818609E-02  0.8716812E-01
       -2   -1    0    0    0  501  0.00000000000E+00  0.00000000000E+00  0.95683684424E+03  0.95683684425E+03  0.25500000920E-02 0. -1.
        2   -1    0    0  501    0  0.00000000000E+00  0.00000000000E+00 -0.82817021596E+03  0.82817021596E+03  0.25500000920E-02 0.  1.
    10030    2    1    2    0    0  0.00000000000E+00  0.00000000000E+00  0.12866662828E+03  0.17850070602E+04  0.17803637560E+04 0.  0.
        1    1    3    3  502    0  0.22422006781E+03  0.34624539684E+03 -0.72656067423E+03  0.83549442068E+03  0.50400001928E-02 0.  1.
       -1    1    3    3    0  502 -0.22422006781E+03 -0.34624539684E+03  0.85522730251E+03  0.94951263953E+03  0.50400001928E-02 0. -1.
</event>
<event>
 5   0  0.3404261E-04  0.1822870E+04  0.7818609E-02  0.8694231E-01
       -1   -1    0    0    0  501  0.00000000000E+00  0.00000000000E+00  0.76900278359E+03  0.76900278360E+03  0.50400001928E-02 0. -1.
        1   -1    0    0  501    0  0.00000000000E+00  0.00000000000E+00 -0.10802480740E+04  0.10802480741E+04  0.50400001928E-02 0.  1.
    10030    2    1    2    0    0  0.00000000000E+00  0.00000000000E+00 -0.31124529046E+03  0.18492508577E+04  0.18228700183E+04 0.  0.
        1    1    3    3  502    0 -0.62187434005E+02 -0.44614675054E+03 -0.95942752032E+03  0.10599129053E+04  0.50400001928E-02 0.  1.
       -1    1    3    3    0  502  0.62187434005E+02  0.44614675054E+03  0.64818222986E+03  0.78933795240E+03  0.50400001928E-02 0. -1.
</event>
<event>
 5   0  0.6771967E-04  0.1764421E+04  0.7818609E-02  0.8725452E-01
       -2   -1    0    0    0  501  0.00000000000E+00  0.00000000000E+00  0.60895359148E+03  0.60895359149E+03  0.25500000920E-02 0. -1.
        2   -1    0    0  501    0  0.00000000000E+00  0.00000000000E+00 -0.12780864085E+04  0.12780864085E+04  0.25500000920E-02 0.  1.
    10030    2    1    2    0    0  0.00000000000E+00  0.00000000000E+00 -0.66913281699E+03  0.18870400000E+04  0.17644209347E+04 0.  0.
        1    1    3    3  502    0 -0.20330555383E+03  0.84487306405E+03 -0.17183550755E+03  0.88581662000E+03  0.50400001928E-02 0. -1.
       -1    1    3    3    0  502  0.20330555383E+03 -0.84487306405E+03 -0.49729730944E+03  0.10012233800E+04  0.50400001928E-02 0.  1.
</event>
<event>
 5   0  0.3470962E-04  0.1816439E+04  0.7818609E-02  0.8697606E-01
        1   -1    0    0  501    0  0.00000000000E+00  0.00000000000E+00  0.94644186912E+03  0.94644186913E+03  0.50400001928E-02 0.  1.
       -1   -1    0    0    0  501  0.00000000000E+00  0.00000000000E+00 -0.87154092987E+03  0.87154092988E+03  0.50400001928E-02 0. -1.
    10030    2    1    2    0    0  0.00000000000E+00  0.00000000000E+00  0.74900939251E+02  0.18179827990E+04  0.18164391833E+04 0.  0.
        4    1    3    3  502    0  0.97784648657E+02 -0.84071087200E+03 -0.29222982922E+03  0.89540856250E+03  0.12699999809E+01 0. -1.
       -4    1    3    3    0  502 -0.97784648657E+02  0.84071087200E+03  0.36713076848E+03  0.92257423651E+03  0.12699999809E+01 0.  1.
</event>
<event>
 5   0  0.6853162E-04  0.1741300E+04  0.7818609E-02  0.8738154E-01
        2   -1    0    0  501    0  0.00000000000E+00  0.00000000000E+00  0.14075165018E+04  0.14075165018E+04  0.25500000920E-02 0. -1.
       -2   -1    0    0    0  501  0.00000000000E+00  0.00000000000E+00 -0.53855942144E+03  0.53855942144E+03  0.25500000920E-02 0.  1.
    10030    2    1    2    0    0  0.00000000000E+00  0.00000000000E+00  0.86895708036E+03  0.19460759232E+04  0.17412998281E+04 0.  0.
        2    1    3    3  502    0  0.34155803211E+01  0.85177623351E+03  0.63594691670E+03  0.10629971303E+04  0.25500000920E-02 0. -1.
       -2    1    3    3    0  502 -0.34155803211E+01 -0.85177623351E+03  0.23301016366E+03  0.88307879294E+03  0.25500000920E-02 0.  1.
</event>
<event>
 5   0  0.6853162E-04  0.1860256E+04  0.7818609E-02  0.8674896E-01
        2   -1    0    0  501    0  0.00000000000E+00  0.00000000000E+00  0.16276994369E+04  0.16276994369E+04  0.25500000920E-02 0.  1.
       -2   -1    0    0    0  501  0.00000000000E+00  0.00000000000E+00 -0.53150986606E+03  0.53150986606E+03  0.25500000920E-02 0. -1.
    10030    2    1    2    0    0  0.00000000000E+00  0.00000000000E+00  0.10961895709E+04  0.21592093030E+04  0.18602562293E+04 0.  0.
        2    1    3    3  502    0  0.66326224351E+03  0.44950650478E+03  0.10964164607E+04  0.13579771562E+04  0.25500000920E-02 0.  1.
       -2    1    3    3    0  502 -0.66326224351E+03 -0.44950650478E+03 -0.22688985239E+00  0.80123214675E+03  0.25500000920E-02 0. -1.
</event>
<event>
 5   0  0.3470962E-04  0.1728995E+04  0.7818609E-02  0.8744998E-01
       -1   -1    0    0    0  501  0.00000000000E+00  0.00000000000E+00  0.81091366086E+03  0.81091366087E+03  0.50400001928E-02 0. -1.
        1   -1    0    0  501    0  0.00000000000E+00  0.00000000000E+00 -0.92162236345E+03  0.92162236347E+03  0.50400001928E-02 0.  1.
    10030    2    1    2    0    0  0.00000000000E+00  0.00000000000E+00 -0.11070870260E+03  0.17325360243E+04  0.17289952744E+04 0.  0.
        4    1    3    3  502    0 -0.69906674459E+03  0.22118242962E+03  0.40355575280E+03  0.83694374905E+03  0.12699999809E+01 0. -1.
       -4    1    3    3    0  502  0.69906674459E+03 -0.22118242962E+03 -0.51426445540E+03  0.89559227528E+03  0.12699999809E+01 0.  1.
</event>
<event>
 5   0  0.3413839E-04  0.1820275E+04  0.7818609E-02  0.8695591E-01
       -1   -1    0    0    0  501  0.00000000000E+00  0.00000000000E+00  0.60605823418E+03  0.60605823420E+03  0.50400001928E-02 0.  1.
        1   -1    0    0  501    0  0.00000000000E+00  0.00000000000E+00 -0.13667832090E+04  0.13667832090E+04  0.50400001928E-02 0. -1.
    10030    2    1    2    0    0  0.00000000000E+00  0.00000000000E+00 -0.76072497485E+03  0.19728414432E+04  0.18202749443E+04 0.  0.
        5    1    3    3  502    0  0.36353220485E+02  0.81446103163E+03  0.58093695584E+02  0.81735261433E+03  0.46999998093E+01 0.  1.
       -5    1    3    3    0  502 -0.36353220485E+02 -0.81446103163E+03 -0.81881867043E+03  0.11554888289E+04  0.46999998093E+01 0. -1.
</event>
<event>
 5   0  0.3377273E-04  0.1790240E+04  0.7818609E-02  0.8711507E-01
        1   -1    0    0  501    0  0.00000000000E+00  0.00000000000E+00  0.79531520733E+03  0.79531520735E+03  0.50400001928E-02 0.  1.
       -1   -1    0    0    0  501  0.00000000000E+00  0.00000000000E+00 -0.10074497853E+04  0.10074497853E+04  0.50400001928E-02 0. -1.
    10030    2    1    2    0    0  0.00000000000E+00  0.00000000000E+00 -0.21213457797E+03  0.18027649927E+04  0.17902403581E+04 0.  0.
        2    1    3    3  502    0 -0.27824442030E+03 -0.62215422217E+03  0.47828923919E+03  0.83262021950E+03  0.25500000920E-02 0.  1.
       -2    1    3    3    0  502  0.27824442030E+03  0.62215422217E+03 -0.69042381716E+03  0.97014477316E+03  0.25500000920E-02 0. -1.
</event>
<event>
 5   0  0.6929121E-04  0.9267753E+03  0.7818609E-02  0.9392716E-01
        2   -1    0    0  501    0  0.00000000000E+00  0.00000000000E+00  0.30986741583E+03  0.30986741584E+03  0.25500000920E-02 0. -1.
       -2   -1    0    0    0  501  0.00000000000E+00  0.00000000000E+00 -0.69296778375E+03  0.69296778376E+03  0.25500000920E-02 0.  1.
    10030    2    1    2    0    0  0.00000000000E+00  0.00000000000E+00 -0.38310036793E+03  0.10028351996E+04  0.92677534799E+03 0.  0.
        3    1    3    3  502    0 -0.11769311539E+03 -0.42702766003E+03 -0.33882230470E+03  0.55767809371E+03  0.10100000352E+00 0.  1.
       -3    1    3    3    0  502  0.11769311539E+03  0.42702766003E+03 -0.44278063228E+02  0.44515710589E+03  0.10100000352E+00 0. -1.
</event>
<event>
 5   0  0.3377273E-04  0.1793442E+04  0.7818609E-02  0.8709795E-01
       -1   -1    0    0    0  501  0.00000000000E+00  0.00000000000E+00  0.70100660604E+03  0.70100660605E+03  0.50400001928E-02 0.  1.
        1   -1    0    0  501    0  0.00000000000E+00  0.00000000000E+00 -0.11470774350E+04  0.11470774350E+04  0.50400001928E-02 0. -1.
    10030    2    1    2    0    0  0.00000000000E+00  0.00000000000E+00 -0.44607082898E+03  0.18480840411E+04  0.17934423432E+04 0.  0.
        2    1    3    3  502    0 -0.73505616265E+03  0.21032342651E+02  0.30578514164E+03  0.79640095086E+03  0.25500000920E-02 0.  1.
       -2    1    3    3    0  502  0.73505616265E+03 -0.21032342651E+02 -0.75185597062E+03  0.10516830902E+04  0.25500000920E-02 0. -1.
</event>
<event>
 5   0  0.3404261E-04  0.1779939E+04  0.7818609E-02  0.8717041E-01
       -1   -1    0    0    0  501  0.00000000000E+00  0.00000000000E+00  0.19420281921E+04  0.19420281921E+04  0.50400001928E-02 0. -1.
        1   -1    0    0  501    0  0.00000000000E+00  0.00000000000E+00 -0.40784459284E+03  0.40784459287E+03  0.50400001928E-02 0.  1.
    10030    2    1    2    0    0  0.00000000000E+00  0.00000000000E+00  0.15341835992E+04  0.23498727849E+04  0.17799389847E+04 0.  0.
        1    1    3    3  502    0 -0.18133337667E+03 -0.88290484882E+02  0.19114600085E+04  0.19220708539E+04  0.50400001928E-02 0. -1.
       -1    1    3    3    0  502  0.18133337667E+03  0.88290484882E+02 -0.37727640927E+03  0.42780193107E+03  0.50400001928E-02 0.  1.
</event>
<event>
 5   0  0.6771967E-04  0.1757291E+04  0.7818609E-02  0.8729347E-01
        2   -1    0    0  501    0  0.00000000000E+00  0.00000000000E+00  0.15789578386E+04  0.15789578386E+04  0.25500000920E-02 0.  1.
       -2   -1    0    0    0  501  0.00000000000E+00  0.00000000000E+00 -0.48894150077E+03  0.48894150078E+03  0.25500000920E-02 0. -1.
    10030    2    1    2    0    0  0.00000000000E+00  0.00000000000E+00  0.10900163378E+04  0.20678993394E+04  0.17572911145E+04 0.  0.
        1    1    3    3  502    0  0.97351024989E+02  0.79643672244E+03  0.12362286482E+03  0.81183205630E+03  0.50400001928E-02 0. -1.
       -1    1    3    3    0  502 -0.97351024989E+02 -0.79643672244E+03  0.96639347301E+03  0.12560672831E+04  0.50400001928E-02 0.  1.
</event>
<event>
 5   0  0.3413839E-04  0.1809329E+04  0.7818609E-02  0.8701354E-01
       -1   -1    0    0    0  501  0.00000000000E+00  0.00000000000E+00  0.87859795485E+03  0.87859795486E+03  0.50400001928E-02 0.  1.
        1   -1    0    0  501    0  0.00000000000E+00  0.00000000000E+00 -0.93150430086E+03  0.93150430088E+03  0.50400001928E-02 0. -1.
    10030    2    1    2    0    0  0.00000000000E+00  0.00000000000E+00 -0.52906346017E+02  0.18101022557E+04  0.18093289073E+04 0.  0.
        5    1    3    3  502    0 -0.29001643278E+03 -0.75232461799E+03  0.38395847103E+03  0.89305546277E+03  0.46999998093E+01 0. -1.
       -5    1    3    3    0  502  0.29001643278E+03  0.75232461799E+03 -0.43686481704E+03  0.91704679296E+03  0.46999998093E+01 0.  1.
</event>
<event>
 5   0  0.3413839E-04  0.1772831E+04  0.7818609E-02  0.8720883E-01
       -1   -1    0    0    0  501  0.00000000000E+00  0.00000000000E+00  0.47202680941E+03  0.47202680944E+03  0.50400001928E-02 0. -1.
        1   -1    0    0  501    0  0.00000000000E+00  0.00000000000E+00 -0.16645927176E+04  0.16645927176E+04  0.50400001928E-02 0.  1.
    10030    2    1    2    0    0  0.00000000000E+00  0.00000000000E+00 -0.11925659082E+04  0.21366195271E+04  0.17728309446E+04 0.  0.
        5    1    3    3  502    0 -0.80993605445E+03  0.19624555154E+03 -0.23231677583E+03  0.86516004480E+03  0.46999998093E+01 0. -1.
       -5    1    3    3    0  502  0.80993605445E+03 -0.19624555154E+03 -0.96024913238E+03  0.12714594823E+04  0.46999998093E+01 0.  1.
</event>
<event>
 5   0  0.6853162E-04  0.1843124E+04  0.7818609E-02  0.8683697E-01
       -2   -1    0    0    0  501  0.00000000000E+00  0.00000000000E+00  0.46258705004E+03  0.46258705004E+03  0.25500000920E-02 0. -1.
        2   -1    0    0  501    0  0.00000000000E+00  0.00000000000E+00 -0.18359273981E+04  0.18359273981E+04  0.25500000920E-02 0.  1.
    10030    2    1    2    0    0  0.00000000000E+00  0.00000000000E+00 -0.13733403481E+04  0.22985144482E+04  0.18431236955E+04 0.  0.
        2    1    3    3  502    0  0.62027880413E+03  0.61844911996E+03 -0.32945077157E+03  0.93582205559E+03  0.25500000920E-02 0. -1.
       -2    1    3    3    0  502 -0.62027880413E+03 -0.61844911996E+03 -0.10438895765E+04  0.13626923926E+04  0.25500000920E-02 0.  1.
</event>
<event>
 5   0  0.6853162E-04  0.1735833E+04  0.7818609E-02  0.8741188E-01
       -2   -1    0    0    0  501  0.00000000000E+00  0.00000000000E+00  0.64219561524E+03  0.64219561524E+03  0.25500000920E-02 0.  1.
        2   -1    0    0  501    0  0.00000000000E+00  0.00000000000E+00 -0.11729738106E+04  0.11729738106E+04  0.25500000920E-02 0. -1.
    10030    2    1    2    0    0  0.00000000000E+00  0.00000000000E+00 -0.53077819538E+03  0.18151694259E+04  0.17358325242E+04 0.  0.
        2    1    3    3  502    0  0.79494374738E+03  0.34287140885E+03 -0.32970017869E+03  0.92639007569E+03  0.25500000920E-02 0.  1.
       -2    1    3    3    0  502 -0.79494374738E+03 -0.34287140885E+03 -0.20107801669E+03  0.88877935018E+03  0.25500000920E-02 0. -1.
</event>
<event>
 5   0  0.3308275E-04  0.1808138E+04  0.7818609E-02  0.8701983E-01
        1   -1    0    0  501    0  0.00000000000E+00  0.00000000000E+00  0.13906944162E+04  0.13906944162E+04  0.50400001928E-02 0.  1.
       -1   -1    0    0    0  501  0.00000000000E+00  0.00000000000E+00 -0.58772162697E+03  0.58772162699E+03  0.50400001928E-02 0. -1.
    10030    2    1    2    0    0  0.00000000000E+00  0.00000000000E+00  0.80297278927E+03  0.19784160432E+04  0.18081384736E+04 0.  0.
        3    1    3    3  502    0  0.30119061322E+02  0.44295276952E+03 -0.46022378475E+03  0.63946872960E+03  0.10100000352E+00 0. -1.
       -3    1    3    3    0  502 -0.30119061322E+02 -0.44295276952E+03  0.12631965740E+04  0.13389473136E+04  0.10100000352E+00 0.  1.
</event>
<event>
 5   0  0.6547153E-04  0.1781966E+04  0.7818609E-02  0.8715949E-01
        2   -1    0    0  501    0  0.00000000000E+00  0.00000000000E+00  0.91387726140E+03  0.91387726140E+03  0.25500000920E-02 0. -1.
       -2   -1    0    0    0  501  0.00000000000E+00  0.00000000000E+00 -0.86866253094E+03  0.86866253095E+03  0.25500000920E-02 0.  1.
    10030    2    1    2    0    0  0.00000000000E+00  0.00000000000E+00  0.45214730457E+02  0.17825397924E+04  0.17819662565E+04 0.  0.
        5    1    3    3  502    0  0.12442192059E+03  0.40796400832E+02 -0.85897287766E+03  0.86890831231E+03  0.46999998093E+01 0.  1.
       -5    1    3    3    0  502 -0.12442192059E+03 -0.40796400832E+02  0.90418760812E+03  0.91363148004E+03  0.46999998093E+01 0. -1.
</event>
<event>
 5   0  0.3470962E-04  0.1837560E+04  0.7818609E-02  0.8686576E-01
       -1   -1    0    0    0  501  0.00000000000E+00  0.00000000000E+00  0.10777211860E+04  0.10777211860E+04  0.50400001928E-02 0. -1.
        1   -1    0    0  501    0  0.00000000000E+00  0.00000000000E+00 -0.78327965196E+03  0.78327965198E+03  0.50400001928E-02 0.  1.
    10030    2    1    2    0    0  0.00000000000E+00  0.00000000000E+00  0.29444153406E+03  0.18610008380E+04  0.18375604213E+04 0.  0.
        4    1    3    3  502    0  0.31813706184E+03  0.71633568291E+03 -0.33827673939E+03  0.85368657365E+03  0.12699999809E+01 0.  1.
       -4    1    3    3    0  502 -0.31813706184E+03 -0.71633568291E+03  0.63271827345E+03  0.10073142644E+04  0.12699999809E+01 0. -1.
</event>
<event>
 5   0  0.6853162E-04  0.1779879E+04  0.7818609E-02  0.8717073E-01
        2   -1    0    0  501    0  0.00000000000E+00  0.00000000000E+00  0.98769731169E+03  0.98769731169E+03  0.25500000920E-02 0. -1.
       -2   -1    0    0    0  501  0.00000000000E+00  0.00000000000E+00 -0.80185722694E+03  0.80185722694E+03  0.25500000920E-02 0.  1.
    10030    2    1    2    0    0  0.00000000000E+00  0.00000000000E+00  0.18584008475E+03  0.17895545386E+04  0.17798789031E+04 0.  0.
        2    1    3    3  502    0 -0.16544324690E+03 -0.16956444074E+02  0.97193417207E+03  0.98606035504E+03  0.25500000920E-02 0. -1.
       -2    1    3    3    0  502  0.16544324690E+03  0.16956444074E+02 -0.78609408732E+03  0.80349418359E+03  0.25500000920E-02 0.  1.
</event>
<event>
 5   0  0.3308275E-04  0.1525548E+04  0.7818609E-02  0.8867639E-01
       -1   -1    0    0    0  501  0.00000000000E+00  0.00000000000E+00  0.28560188860E+03  0.28560188865E+03  0.50400001928E-02 0. -1.
        1   -1    0    0  501    0  0.00000000000E+00  0.00000000000E+00 -0.20371858906E+04  0.20371858906E+04  0.50400001928E-02 0.  1.
    10030    2    1    2    0    0  0.00000000000E+00  0.00000000000E+00 -0.17515840020E+04  0.23227877792E+04  0.15255479512E+04 0.  0.
        3    1    3    3  502    0  0.37407186092E+03  0.63964503469E+03 -0.60025492873E+03  0.95361497325E+03  0.10100000352E+00 0.  1.
       -3    1    3    3    0  502 -0.37407186092E+03 -0.63964503469E+03 -0.11513290732E+04  0.13691728060E+04  0.10100000352E+00 0. -1.
</event>
<event>
 5   0  0.3413839E-04  0.1048987E+04  0.7818609E-02  0.9256390E-01
        1   -1    0    0  501    0  0.00000000000E+00  0.00000000000E+00  0.10570450683E+04  0.10570450683E+04  0.50400001928E-02 0. -1.
       -1   -1    0    0    0  501  0.00000000000E+00  0.00000000000E+00 -0.26024767924E+03  0.26024767929E+03  0.50400001928E-02 0.  1.
    10030    2    1    2    0    0  0.00000000000E+00  0.00000000000E+00  0.79679738907E+03  0.13172927476E+04  0.10489871799E+04 0.  0.
        5    1    3    3  502    0  0.39842158337E+03 -0.16033144590E+03  0.20359054670E+02  0.42997966433E+03  0.46999998093E+01 0.  1.
       -5    1    3    3    0  502 -0.39842158337E+03  0.16033144590E+03  0.77643833440E+03  0.88731308328E+03  0.46999998093E+01 0. -1.
</event>
<event>
 5   0  0.3377273E-04  0.1797703E+04  0.7818609E-02  0.8707522E-01
       -1   -1    0    0    0  501  0.00000000000E+00  0.00000000000E+00  0.67572616942E+03  0.67572616943E+03  0.50400001928E-02 0.  1.
        1   -1    0    0  501    0  0.00000000000E+00  0.00000000000E+00 -0.11956527711E+04  0.11956527711E+04  0.50400001928E-02 0. -1.
    10030    2    1    2    0    0  0.00000000000E+00  0.00000000000E+00 -0.51992660164E+03  0.18713789405E+04  0.17977028308E+04 0.  0.
        2    1    3    3  502    0 -0.11087422294E+03  0.37626192577E+03  0.58192640491E+03  0.70178662771E+03  0.25500000920E-02 0.  1.
       -2    1    3    3    0  502  0.11087422294E+03 -0.37626192577E+03 -0.11018530065E+04  0.11695923128E+04  0.25500000920E-02 0. -1.
</event>
<event>
 5   0  0.3413839E-04  0.1916032E+04  0.7818609E-02  0.8646917E-01
       -1   -1    0    0    0  501  0.00000000000E+00  0.00000000000E+00  0.10028557935E+04  0.10028557935E+04  0.50400001928E-02 0. -1.
        1   -1    0    0  501    0  0.00000000000E+00  0.00000000000E+00 -0.91518137709E+03  0.91518137711E+03  0.50400001928E-02 0.  1.
    10030    2    1    2    0    0  0.00000000000E+00  0.00000000000E+00  0.87674416382E+02  0.19180371706E+04  0.19160323026E+04 0.  0.
        5    1    3    3  502    0 -0.88841567171E+03 -0.20780319566E+03  0.33621864189E+03  0.97238348351E+03  0.46999998093E+01 0. -1.
       -5    1    3    3    0  502  0.88841567171E+03  0.20780319566E+03 -0.24854422551E+03  0.94565368708E+03  0.46999998093E+01 0.  1.
</event>
<event>
 5   0  0.6853162E-04  0.1707789E+04  0.7818609E-02  0.8756935E-01
        2   -1    0    0  501    0  0.00000000000E+00  0.00000000000E+00  0.71754326913E+03  0.71754326913E+03  0.25500000920E-02 0. -1.
       -2   -1    0    0    0  501  0.00000000000E+00  0.00000000000E+00 -0.10161556527E+04  0.10161556527E+04  0.25500000920E-02 0.  1.
    10030    2    1    2    0    0  0.00000000000E+00  0.00000000000E+00 -0.29861238359E+03  0.17336989219E+04  0.17077888031E+04 0.  0.
        2    1    3    3  502    0 -0.29910548514E+03 -0.77479607024E+03  0.52104001386E+02  0.83215855981E+03  0.25500000920E-02 0.  1.
       -2    1    3    3    0  502  0.29910548514E+03  0.77479607024E+03 -0.35071638498E+03  0.90154036205E+03  0.25500000920E-02 0. -1.
</event>
<event>
 5   0  0.6853162E-04  0.1766422E+04  0.7818609E-02  0.8724363E-01
       -2   -1    0    0    0  501  0.00000000000E+00  0.00000000000E+00  0.89120540157E+03  0.89120540157E+03  0.25500000920E-02 0. -1.
        2   -1    0    0  501    0  0.00000000000E+00  0.00000000000E+00 -0.87528784610E+03  0.87528784611E+03  0.25500000920E-02 0.  1.
    10030    2    1    2    0    0  0.00000000000E+00  0.00000000000E+00  0.15917555463E+02  0.17664932477E+04  0.17664215311E+04 0.  0.
        2    1    3    3  502    0  0.50629067533E+03 -0.64592692447E+03 -0.31841227708E+03  0.88030575250E+03  0.25500000920E-02 0.  1.
       -2    1    3    3    0  502 -0.50629067533E+03  0.64592692447E+03  0.33432983255E+03  0.88618749518E+03  0.25500000920E-02 0. -1.
</event>
<event>
 5   0  0.3470962E-04  0.1294829E+04  0.7818609E-02  0.9033676E-01
       -1   -1    0    0    0  501  0.00000000000E+00  0.00000000000E+00  0.42691652763E+03  0.42691652766E+03  0.50400001928E-02 0.  1.
        1   -1    0    0  501    0  0.00000000000E+00  0.00000000000E+00 -0.98179751154E+03  0.98179751156E+03  0.50400001928E-02 0. -1.
    10030    2    1    2    0    0  0.00000000000E+00  0.00000000000E+00 -0.55488098391E+03  0.14087140392E+04  0.12948290767E+04 0.  0.
        4    1    3    3  502    0  0.38881372691E+03  0.85912109120E+02  0.27793504336E+03  0.48559912063E+03  0.12699999809E+01 0.  1.
       -4    1    3    3    0  502 -0.38881372691E+03 -0.85912109120E+02 -0.83281602728E+03  0.92311491859E+03  0.12699999809E+01 0. -1.
</event>
<event>
 5   0  0.6774451E-04  0.1023090E+04  0.7818609E-02  0.9283576E-01
        2   -1    0    0  501    0  0.00000000000E+00  0.00000000000E+00  0.64494635576E+03  0.64494635576E+03  0.25500000920E-02 0.  1.
       -2   -1    0    0    0  501  0.00000000000E+00  0.00000000000E+00 -0.40573650218E+03  0.40573650219E+03  0.25500000920E-02 0. -1.
    10030    2    1    2    0    0  0.00000000000E+00  0.00000000000E+00  0.23920985358E+03  0.10506828580E+04  0.10230899833E+04 0.  0.
        4    1    3    3  502    0 -0.44809474812E+03  0.23042952358E+03  0.28963557399E+02  0.50470503186E+03  0.12699999809E+01 0. -1.
       -4    1    3    3    0  502  0.44809474812E+03 -0.23042952358E+03  0.21024629618E+03  0.54597782609E+03  0.12699999809E+01 0.  1.
</event>
<event>
 5   0  0.2467375E-04  0.1875524E+04  0.7818609E-02  0.8667136E-01
        3   -1    0    0  501    0  0.00000000000E+00  0.00000000000E+00  0.19019242310E+04  0.19019242337E+04  0.10100000352E+00 0. -1.
       -3   -1    0    0    0  501  0.00000000000E+00  0.00000000000E+00 -0.46237260055E+03  0.46237261158E+03  0.10100000352E+00 0.  1.
    10030    2    1    2    0    0  0.00000000000E+00  0.00000000000E+00  0.14395516304E+04  0.23642968452E+04  0.18755241070E+04 0.  0.
        4    1    3    3  502    0  0.43046810578E+03 -0.14354219820E+03 -0.31475772248E+03  0.55225102039E+03  0.12699999809E+01 0.  1.
       -4    1    3    3    0  502 -0.43046810578E+03  0.14354219820E+03  0.17543093529E+04  0.18120458249E+04  0.12699999809E+01 0. -1.
</event>
<event>
 5   0  0.3413839E-04  0.1059986E+04  0.7818609E-02  0.9245094E-01
        1   -1    0    0  501    0  0.00000000000E+00  0.00000000000E+00  0.10099476724E+04  0.10099476724E+04  0.50400001928E-02 0.  1.
       -1   -1    0    0    0  501  0.00000000000E+00  0.00000000000E+00 -0.27812612243E+03  0.27812612248E+03  0.50400001928E-02 0. -1.
    10030    2    1    2    0    0  0.00000000000E+00  0.00000000000E+00  0.73182154993E+03  0.12880737949E+04  0.10599864716E+04 0.  0.
        5    1    3    3  502    0 -0.14871706872E+03 -0.35603706992E+03  0.80739331583E+03  0.89486603363E+03  0.46999998093E+01 0.  1.
       -5    1    3    3    0  502  0.14871706872E+03  0.35603706992E+03 -0.75571765901E+02  0.39320776123E+03  0.46999998093E+01 0. -1.
</event>
<event>
 5   0  0.3308275E-04  0.1791193E+04  0.7818609E-02  0.8710997E-01
        1   -1    0    0  501    0  0.00000000000E+00  0.00000000000E+00  0.43775996986E+03  0.43775996988E+03  0.50400001928E-02 0.  1.
       -1   -1    0    0    0  501  0.00000000000E+00  0.00000000000E+00 -0.18322658751E+04  0.18322658751E+04  0.50400001928E-02 0. -1.
    10030    2    1    2    0    0  0.00000000000E+00  0.00000000000E+00 -0.13945059053E+04  0.22700258450E+04  0.17911925126E+04 0.  0.
        3    1    3    3  502    0 -0.40162949879E+03  0.48923571511E+03 -0.15002169043E+04  0.16282839462E+04  0.10100000352E+00 0. -1.
       -3    1    3    3    0  502  0.40162949879E+03 -0.48923571511E+03  0.10571099901E+03  0.64174189886E+03  0.10100000352E+00 0.  1.
</event>
<event>
 5   0  0.6853162E-04  0.1203445E+04  0.7818609E-02  0.9109847E-01
        2   -1    0    0  501    0  0.00000000000E+00  0.00000000000E+00  0.40718178783E+03  0.40718178784E+03  0.25500000920E-02 0. -1.
       -2   -1    0    0    0  501  0.00000000000E+00  0.00000000000E+00 -0.88920906294E+03  0.88920906294E+03  0.25500000920E-02 0.  1.
    10030    2    1    2    0    0  0.00000000000E+00  0.00000000000E+00 -0.48202727510E+03  0.12963908508E+04  0.12034446161E+04 0.  0.
        2    1    3    3  502    0  0.47228477042E+03 -0.36224308966E+03 -0.14589461752E+03  0.61282803445E+03  0.25500000920E-02 0. -1.
       -2    1    3    3    0  502 -0.47228477042E+03  0.36224308966E+03 -0.33613265758E+03  0.68356281633E+03  0.25500000920E-02 0.  1.
</event>
<event>
 5   0  0.3404261E-04  0.1625748E+04  0.7818609E-02  0.8804885E-01
        1   -1    0    0  501    0  0.00000000000E+00  0.00000000000E+00  0.76295942597E+03  0.76295942598E+03  0.50400001928E-02 0.  1.
       -1   -1    0    0    0  501  0.00000000000E+00  0.00000000000E+00 -0.86605362510E+03  0.86605362512E+03  0.50400001928E-02 0. -1.
    10030    2    1    2    0    0  0.00000000000E+00  0.00000000000E+00 -0.10309419914E+03  0.16290130511E+04  0.16257475532E+04 0.  0.
        1    1    3    3  502    0 -0.33959043836E+03 -0.73852114434E+03 -0.56908566348E+02  0.81484583292E+03  0.50400001928E-02 0.  1.
       -1    1    3    3    0  502  0.33959043836E+03  0.73852114434E+03 -0.46185632789E+02  0.81416721819E+03  0.50400001928E-02 0. -1.
</event>
<event>
 5   0  0.6853162E-04  0.1761238E+04  0.7818609E-02  0.8727189E-01
        2   -1    0    0  501    0  0.00000000000E+00  0.00000000000E+00  0.20127936956E+04  0.20127936956E+04  0.25500000920E-02 0.  1.
       -2   -1    0    0    0  501  0.00000000000E+00  0.00000000000E+00 -0.38528042685E+03  0.38528042686E+03  0.25500000920E-02 0. -1.
    10030    2    1    2    0    0  0.00000000000E+00  0.00000000000E+00  0.16275132687E+04  0.23980741224E+04  0.17612382170E+04 0.  0.
        2    1    3    3  502    0 -0.70691481445E+03 -0.16798895417E+03  0.13632071204E+03  0.73927814803E+03  0.25500000920E-02 0. -1.
       -2    1    3    3    0  502  0.70691481445E+03  0.16798895417E+03  0.14911925567E+04  0.16587959744E+04  0.25500000920E-02 0.  1.
</event>
<event>
 5   0  0.6853162E-04  0.1815849E+04  0.7818609E-02  0.8697916E-01
        2   -1    0    0  501    0  0.00000000000E+00  0.00000000000E+00  0.63510177290E+03  0.63510177290E+03  0.25500000920E-02 0. -1.
       -2   -1    0    0    0  501  0.00000000000E+00  0.00000000000E+00 -0.12979441097E+04  0.12979441097E+04  0.25500000920E-02 0.  1.
    10030    2    1    2    0    0  0.00000000000E+00  0.00000000000E+00 -0.66284233682E+03  0.19330458826E+04  0.18158486778E+04 0.  0.
        2    1    3    3  502    0 -0.51288355100E+03  0.17686444406E+03 -0.11064160235E+04  0.12322690394E+04  0.25500000920E-02 0.  1.
       -2    1    3    3    0  502  0.51288355100E+03 -0.17686444406E+03  0.44357368667E+03  0.70077684321E+03  0.25500000920E-02 0. -1.
</event>
<event>
 5   0  0.3308275E-04  0.1146746E+04  0.7818609E-02  0.9160790E-01
       -1   -1    0    0    0  501  0.00000000000E+00  0.00000000000E+00  0.22313277176E+03  0.22313277182E+03  0.50400001928E-02 0. -1.
        1   -1    0    0  501    0  0.00000000000E+00  0.00000000000E+00 -0.14733686128E+04  0.14733686128E+04  0.50400001928E-02 0.  1.
    10030    2    1    2    0    0  0.00000000000E+00  0.00000000000E+00 -0.12502358411E+04  0.16965013846E+04  0.11467463930E+04 0.  0.
        3    1    3    3  502    0 -0.28541706178E+03 -0.40638882352E+03 -0.10491215464E+04  0.11607199509E+04  0.10100000352E+00 0.  1.
       -3    1    3    3    0  502  0.28541706178E+03  0.40638882352E+03 -0.20111429462E+03  0.53578143374E+03  0.10100000352E+00 0. -1.
</event>
<event>
 5   0  0.3404261E-04  0.8886702E+03  0.7818609E-02  0.9439856E-01
       -1   -1    0    0    0  501  0.00000000000E+00  0.00000000000E+00  0.42773544615E+03  0.42773544617E+03  0.50400001928E-02 0.  1.
        1   -1    0    0  501    0  0.00000000000E+00  0.00000000000E+00 -0.46157891364E+03  0.46157891367E+03  0.50400001928E-02 0. -1.
    10030    2    1    2    0    0  0.00000000000E+00  0.00000000000E+00 -0.33843467499E+02  0.88931435985E+03  0.88867015835E+03 0.  0.
        1    1    3    3  502    0 -0.24708712612E+03 -0.28533288474E+03 -0.25154159608E+03  0.45358579959E+03  0.50400001928E-02 0. -1.
       -1    1    3    3    0  502  0.24708712612E+03  0.28533288474E+03  0.21769812858E+03  0.43572856025E+03  0.50400001928E-02 0.  1.
</event>
<event>
 5   0  0.3308275E-04  0.1769749E+04  0.7818609E-02  0.8722554E-01
        1   -1    0    0  501    0  0.00000000000E+00  0.00000000000E+00  0.11919945583E+04  0.11919945584E+04  0.50400001928E-02 0.  1.
       -1   -1    0    0    0  501  0.00000000000E+00  0.00000000000E+00 -0.65688460464E+03  0.65688460466E+03  0.50400001928E-02 0. -1.
    10030    2    1    2    0    0  0.00000000000E+00  0.00000000000E+00  0.53510995371E+03  0.18488791630E+04  0.17697489926E+04 0.  0.
        3    1    3    3  502    0  0.38633639178E+03 -0.48036240822E+03 -0.39565163229E+03  0.73249168950E+03  0.10100000352E+00 0. -1.
       -3    1    3    3    0  502 -0.38633639178E+03  0.48036240822E+03  0.93076158600E+03  0.11163874735E+04  0.10100000352E+00 0.  1.
</event>
<event>
 5   0  0.2467375E-04  0.1777984E+04  0.7818609E-02  0.8718096E-01
       -3   -1    0    0    0  501  0.00000000000E+00  0.00000000000E+00  0.70257087689E+03  0.70257088415E+03  0.10100000352E+00 0.  1.
        3   -1    0    0  501    0  0.00000000000E+00  0.00000000000E+00 -0.11248787006E+04  0.11248787051E+04  0.10100000352E+00 0. -1.
    10030    2    1    2    0    0  0.00000000000E+00  0.00000000000E+00 -0.42230782371E+03  0.18274495893E+04  0.17779842810E+04 0.  0.
        2    1    3    3  502    0 -0.88455124490E+03  0.78347824563E+02 -0.16830795855E+03  0.90382346473E+03  0.25500000920E-02 0.  1.
       -2    1    3    3    0  502  0.88455124490E+03 -0.78347824563E+02 -0.25399986516E+03  0.92362612456E+03  0.25500000920E-02 0. -1.
</event>
<event>
 5   0  0.3470962E-04  0.1796764E+04  0.7818609E-02  0.8708022E-01
       -1   -1    0    0    0  501  0.00000000000E+00  0.00000000000E+00  0.81864094394E+03  0.81864094396E+03  0.50400001928E-02 0. -1.
        1   -1    0    0  501    0  0.00000000000E+00  0.00000000000E+00 -0.98588997681E+03  0.98588997683E+03  0.50400001928E-02 0.  1.
    10030    2    1    2    0    0  0.00000000000E+00  0.00000000000E+00 -0.16724903287E+03  0.18045309208E+04  0.17967636475E+04 0.  0.
        4    1    3    3  502    0  0.54230863541E+03 -0.31775387702E+03 -0.72828883719E+03  0.96201477415E+03  0.12699999809E+01 0.  1.
       -4    1    3    3    0  502 -0.54230863541E+03  0.31775387702E+03  0.56103980432E+03  0.84251614663E+03  0.12699999809E+01 0. -1.
</event>
<event>
 5   0  0.3470962E-04  0.1823122E+04  0.7818609E-02  0.8694099E-01
        1   -1    0    0  501    0  0.00000000000E+00  0.00000000000E+00  0.17920278058E+04  0.17920278058E+04  0.50400001928E-02 0.  1.
       -1   -1    0    0    0  501  0.00000000000E+00  0.00000000000E+00 -0.46368914322E+03  0.46368914325E+03  0.50400001928E-02 0. -1.
    10030    2    1    2    0    0  0.00000000000E+00  0.00000000000E+00  0.13283386625E+04  0.22557169490E+04  0.18231224182E+04 0.  0.
        4    1    3    3  502    0  0.26969657242E+03  0.54385624505E+03 -0.17720656577E+03  0.63239199577E+03  0.12699999809E+01 0. -1.
       -4    1    3    3    0  502 -0.26969657242E+03 -0.54385624505E+03  0.15055452283E+04  0.16233249532E+04  0.12699999809E+01 0.  1.
</event>
<event>
 5   0  0.6771967E-04  0.1796750E+04  0.7818609E-02  0.8708030E-01
        2   -1    0    0  501    0  0.00000000000E+00  0.00000000000E+00  0.13651443350E+04  0.13651443350E+04  0.25500000920E-02 0. -1.
       -2   -1    0    0    0  501  0.00000000000E+00  0.00000000000E+00 -0.59120327211E+03  0.59120327211E+03  0.25500000920E-02 0.  1.
    10030    2    1    2    0    0  0.00000000000E+00  0.00000000000E+00  0.77394106288E+03  0.19563476071E+04  0.17967501749E+04 0.  0.
        1    1    3    3  502    0  0.44724602289E+03  0.69285318986E+03 -0.10598628422E+01  0.82466700614E+03  0.50400001928E-02 0.  1.
       -1    1    3    3    0  502 -0.44724602289E+03 -0.69285318986E+03  0.77500092572E+03  0.11316806010E+04  0.50400001928E-02 0. -1.
</event>
<event>
 5   0  0.6929121E-04  0.1786476E+04  0.7818609E-02  0.8713524E-01
        2   -1    0    0  501    0  0.00000000000E+00  0.00000000000E+00  0.87484612255E+03  0.87484612256E+03  0.25500000920E-02 0.  1.
       -2   -1    0    0    0  501  0.00000000000E+00  0.00000000000E+00 -0.91201681490E+03  0.91201681491E+03  0.25500000920E-02 0. -1.
    10030    2    1    2    0    0  0.00000000000E+00  0.00000000000E+00 -0.37170692350E+02  0.17868629375E+04  0.17864762794E+04 0.  0.
        3    1    3    3  502    0 -0.28270510529E+02  0.37369421892E+03 -0.82958003548E+03  0.91030194797E+03  0.10100000352E+00 0. -1.
       -3    1    3    3    0  502  0.28270510529E+02 -0.37369421892E+03  0.79240934313E+03  0.87656098949E+03  0.10100000352E+00 0.  1.
</event>
<event>
 5   0  0.3413839E-04  0.1559146E+04  0.7818609E-02  0.8846047E-01
        1   -1    0    0  501    0  0.00000000000E+00  0.00000000000E+00  0.66459879019E+03  0.66459879021E+03  0.50400001928E-02 0.  1.
       -1   -1    0    0    0  501  0.00000000000E+00  0.00000000000E+00 -0.91443772499E+03  0.91443772501E+03  0.50400001928E-02 0. -1.
    10030    2    1    2    0    0  0.00000000000E+00  0.00000000000E+00 -0.24983893480E+03  0.15790365152E+04  0.15591461840E+04 0.  0.
        5    1    3    3  502    0  0.21275215029E+03 -0.57367030522E+03 -0.61414620919E+03  0.86692488302E+03  0.46999998093E+01 0. -1.
       -5    1    3    3    0  502 -0.21275215029E+03  0.57367030522E+03  0.36430727439E+03  0.71211163220E+03  0.46999998093E+01 0.  1.
</event>
<event>
 5   0  0.6853162E-04  0.1780554E+04  0.7818609E-02  0.8716710E-01
        2   -1    0    0  501    0  0.00000000000E+00  0.00000000000E+00  0.13658248080E+04  0.13658248080E+04  0.25500000920E-02 0.  1.
       -2   -1    0    0    0  501  0.00000000000E+00  0.00000000000E+00 -0.58030339383E+03  0.58030339383E+03  0.25500000920E-02 0. -1.
    10030    2    1    2    0    0  0.00000000000E+00  0.00000000000E+00  0.78552141421E+03  0.19461282019E+04  0.17805535897E+04 0.  0.
        2    1    3    3  502    0 -0.74989625835E+03 -0.15386898959E+03  0.88952785506E+03  0.11735756768E+04  0.25500000920E-02 0.  1.
       -2    1    3    3    0  502  0.74989625835E+03  0.15386898959E+03 -0.10400644085E+03  0.77255252507E+03  0.25500000920E-02 0. -1.
</event>
<event>
 5   0  0.6774451E-04  0.1759275E+04  0.7818609E-02  0.8728261E-01
        2   -1    0    0  501    0  0.00000000000E+00  0.00000000000E+00  0.70793996118E+03  0.70793996118E+03  0.25500000920E-02 0. -1.
       -2   -1    0    0    0  501  0.00000000000E+00  0.00000000000E+00 -0.10929770379E+04  0.10929770379E+04  0.25500000920E-02 0.  1.
    10030    2    1    2    0    0  0.00000000000E+00  0.00000000000E+00 -0.38503707673E+03  0.18009169991E+04  0.17592749891E+04 0.  0.
        4    1    3    3  502    0  0.23559421001E+03 -0.96806714772E+02 -0.10544002376E+04  0.10847292961E+04  0.12699999809E+01 0.  1.
       -4    1    3    3    0  502 -0.23559421001E+03  0.96806714772E+02  0.66936316091E+03  0.71618770298E+03  0.12699999809E+01 0. -1.
</event>
<event>
 5   0  0.3470962E-04  0.1717544E+04  0.7818609E-02  0.8751421E-01
        1   -1    0    0  501    0  0.00000000000E+00  0.00000000000E+00  0.61800897159E+03  0.61800897161E+03  0.50400001928E-02 0.  1.
       -1   -1    0    0    0  501  0.00000000000E+00  0.00000000000E+00 -0.11933314595E+04  0.11933314596E+04  0.50400001928E-02 0. -1.
    10030    2    1    2    0    0  0.00000000000E+00  0.00000000000E+00 -0.57532248796E+03  0.18113404312E+04  0.17175442330E+04 0.  0.
        4    1    3    3  502    0 -0.34096647193E+03  0.76568362953E+03 -0.90479002947E+02  0.84304069794E+03  0.12699999809E+01 0.  1.
       -4    1    3    3    0  502  0.34096647193E+03 -0.76568362953E+03 -0.48484348502E+03  0.96829973323E+03  0.12699999809E+01 0. -1.
</event>
<event>
 5   0  0.6547153E-04  0.1830982E+04  0.7818609E-02  0.8689995E-01
       -2   -1    0    0    0  501  0.00000000000E+00  0.00000000000E+00  0.10202805925E+04  0.10202805925E+04  0.25500000920E-02 0.  1.
        2   -1    0    0  501    0  0.00000000000E+00  0.00000000000E+00 -0.82146444274E+03  0.82146444274E+03  0.25500000920E-02 0. -1.
    10030    2    1    2    0    0  0.00000000000E+00  0.00000000000E+00  0.19881614981E+03  0.18417450353E+04  0.18309824995E+04 0.  0.
        5    1    3    3  502    0 -0.38418987310E+02  0.30172966384E+03  0.96795640887E+03  0.10146322034E+04  0.46999998093E+01 0.  1.
       -5    1    3    3    0  502  0.38418987310E+02 -0.30172966384E+03 -0.76914025907E+03  0.82711283193E+03  0.46999998093E+01 0. -1.
</event>
<event>
 5   0  0.6929121E-04  0.1741097E+04  0.7818609E-02  0.8738266E-01
        2   -1    0    0  501    0  0.00000000000E+00  0.00000000000E+00  0.12951769628E+04  0.12951769628E+04  0.25500000920E-02 0.  1.
       -2   -1    0    0    0  501  0.00000000000E+00  0.00000000000E+00 -0.58513573022E+03  0.58513573023E+03  0.25500000920E-02 0. -1.
    10030    2    1    2    0    0  0.00000000000E+00  0.00000000000E+00  0.71004123254E+03  0.18803126930E+04  0.17410965716E+04 0.  0.
        3    1    3    3  502    0 -0.31063354973E+03 -0.78661265860E+03  0.13211534974E+03  0.85598314979E+03  0.10100000352E+00 0. -1.
       -3    1    3    3    0  502  0.31063354973E+03  0.78661265860E+03  0.57792588281E+03  0.10243295432E+04  0.10100000352E+00 0.  1.
</event>
<event>
 5   0  0.3470962E-04  0.1761978E+04  0.7818609E-02  0.8726785E-01
       -1   -1    0    0    0  501  0.00000000000E+00  0.00000000000E+00  0.45564564376E+03  0.45564564379E+03  0.50400001928E-02 0.  1.
        1   -1    0    0  501    0  0.00000000000E+00  0.00000000000E+00 -0.17033877973E+04  0.17033877973E+04  0.50400001928E-02 0. -1.
    10030    2    1    2    0    0  0.00000000000E+00  0.00000000000E+00 -0.12477421535E+04  0.21590334411E+04  0.17619775589E+04 0.  0.
        4    1    3    3  502    0 -0.81556599575E+03  0.31160743496E+03 -0.76829849991E+03  0.11629837853E+04  0.12699999809E+01 0.  1.
       -4    1    3    3    0  502  0.81556599575E+03 -0.31160743496E+03 -0.47944365362E+03  0.99604965582E+03  0.12699999809E+01 0. -1.
</event>
<event>
 5   0  0.3308275E-04  0.1809573E+04  0.7818609E-02  0.8701225E-01
        1   -1    0    0  501    0  0.00000000000E+00  0.00000000000E+00  0.11081297960E+04  0.11081297960E+04  0.50400001928E-02 0. -1.
       -1   -1    0    0    0  501  0.00000000000E+00  0.00000000000E+00 -0.73875661034E+03  0.73875661036E+03  0.50400001928E-02 0.  1.
    10030    2    1    2    0    0  0.00000000000E+00  0.00000000000E+00  0.36937318567E+03  0.18468864064E+04  0.18095725594E+04 0.  0.
        3    1    3    3  502    0  0.35317867354E+03  0.69306492138E+03  0.65634572528E+03  0.10177739837E+04  0.10100000352E+00 0. -1.
       -3    1    3    3    0  502 -0.35317867354E+03 -0.69306492138E+03 -0.28697253961E+03  0.82911242264E+03  0.10100000352E+00 0.  1.
</event>
<event>
 5   0  0.6774451E-04  0.1403289E+04  0.7818609E-02  0.8951441E-01
       -2   -1    0    0    0  501  0.00000000000E+00  0.00000000000E+00  0.55940709928E+03  0.55940709928E+03  0.25500000920E-02 0. -1.
        2   -1    0    0  501    0  0.00000000000E+00  0.00000000000E+00 -0.88004802056E+03  0.88004802056E+03  0.25500000920E-02 0.  1.
    10030    2    1    2    0    0  0.00000000000E+00  0.00000000000E+00 -0.32064092128E+03  0.14394551198E+04  0.14032891511E+04 0.  0.
        4    1    3    3  502    0  0.98144320990E+02  0.34491688643E+03 -0.77894154785E+03  0.85752639268E+03  0.12699999809E+01 0.  1.
       -4    1    3    3    0  502 -0.98144320990E+02 -0.34491688643E+03  0.45830062657E+03  0.58192872716E+03  0.12699999809E+01 0. -1.
</event>
<event>
 5   0  0.6929121E-04  0.1831471E+04  0.7818609E-02  0.8689740E-01
       -2   -1    0    0    0  501  0.00000000000E+00  0.00000000000E+00  0.39014519035E+03  0.39014519036E+03  0.25500000920E-02 0.  1.
        2   -1    0    0  501    0  0.00000000000E+00  0.00000000000E+00 -0.21493829630E+04  0.21493829630E+04  0.25500000920E-02 0. -1.
    10030    2    1    2    0    0  0.00000000000E+00  0.00000000000E+00 -0.17592377727E+04  0.25395281534E+04  0.18314709119E+04 0.  0.
        3    1    3    3  502    0 -0.30703202075E+02 -0.30718938668E+03  0.31581175334E+03  0.44163908303E+03  0.10100000352E+00 0.  1.
       -3    1    3    3    0  502  0.30703202075E+02  0.30718938668E+03 -0.20750495260E+04  0.20978890703E+04  0.10100000352E+00 0. -1.
</event>
<event>
 5   0  0.6853162E-04  0.1784305E+04  0.7818609E-02  0.8714691E-01
       -2   -1    0    0    0  501  0.00000000000E+00  0.00000000000E+00  0.12961309372E+04  0.12961309372E+04  0.25500000920E-02 0.  1.
        2   -1    0    0  501    0  0.00000000000E+00  0.00000000000E+00 -0.61408602265E+03  0.61408602265E+03  0.25500000920E-02 0. -1.
    10030    2    1    2    0    0  0.00000000000E+00  0.00000000000E+00  0.68204491457E+03  0.19102169599E+04  0.17843047857E+04 0.  0.
        2    1    3    3  502    0  0.82248466301E+03 -0.13609889442E+03  0.90571213103E+00  0.83366944905E+03  0.25500000920E-02 0. -1.
       -2    1    3    3    0  502 -0.82248466301E+03  0.13609889442E+03  0.68113920244E+03  0.10765475108E+04  0.25500000920E-02 0.  1.
</event>
<event>
 5   0  0.6853162E-04  0.1576589E+04  0.7818609E-02  0.8835061E-01
       -2   -1    0    0    0  501  0.00000000000E+00  0.00000000000E+00  0.50057578652E+03  0.50057578653E+03  0.25500000920E-02 0.  1.
        2   -1    0    0  501    0  0.00000000000E+00  0.00000000000E+00 -0.12413873383E+04  0.12413873383E+04  0.25500000920E-02 0. -1.
    10030    2    1    2    0    0  0.00000000000E+00  0.00000000000E+00 -0.74081155180E+03  0.17419631249E+04  0.15765892848E+04 0.  0.
        2    1    3    3  502    0  0.22009266726E+02  0.34770189439E+03 -0.11517048334E+04  0.12032477046E+04  0.25500000920E-02 0. -1.
       -2    1    3    3    0  502 -0.22009266726E+02 -0.34770189439E+03  0.41089328162E+03  0.53871542030E+03  0.25500000920E-02 0.  1.
</event>
<event>
 5   0  0.6774451E-04  0.9272363E+03  0.7818609E-02  0.9392161E-01
        2   -1    0    0  501    0  0.00000000000E+00  0.00000000000E+00  0.81610674742E+03  0.81610674742E+03  0.25500000920E-02 0.  1.
       -2   -1    0    0    0  501  0.00000000000E+00  0.00000000000E+00 -0.26337461854E+03  0.26337461855E+03  0.25500000920E-02 0. -1.
    10030    2    1    2    0    0  0.00000000000E+00  0.00000000000E+00  0.55273212888E+03  0.10794813660E+04  0.92723633081E+03 0.  0.
        4    1    3    3  502    0 -0.33059522152E+03  0.44612911185E+02 -0.98454450971E+02  0.34781949938E+03  0.12699999809E+01 0. -1.
       -4    1    3    3    0  502  0.33059522152E+03 -0.44612911185E+02  0.65118657985E+03  0.73166186658E+03  0.12699999809E+01 0.  1.
</event>
<event>
 5   0  0.6547153E-04  0.1769418E+04  0.7818609E-02  0.8722734E-01
       -2   -1    0    0    0  501  0.00000000000E+00  0.00000000000E+00  0.73285203187E+03  0.73285203188E+03  0.25500000920E-02 0. -1.
        2   -1    0    0  501    0  0.00000000000E+00  0.00000000000E+00 -0.10680323022E+04  0.10680323022E+04  0.25500000920E-02 0.  1.
    10030    2    1    2    0    0  0.00000000000E+00  0.00000000000E+00 -0.33518027031E+03  0.18008843341E+04  0.17694175796E+04 0.  0.
        5    1    3    3  502    0 -0.10216118567E+03 -0.37615487334E+02 -0.10611762217E+04  0.10667562497E+04  0.46999998093E+01 0.  1.
       -5    1    3    3    0  502  0.10216118567E+03  0.37615487334E+02  0.72599595142E+03  0.73412808434E+03  0.46999998093E+01 0. -1.
</event>
<event>
 5   0  0.6547153E-04  0.1690158E+04  0.7818609E-02  0.8766997E-01
        2   -1    0    0  501    0  0.00000000000E+00  0.00000000000E+00  0.61437503243E+03  0.61437503243E+03  0.25500000920E-02 0. -1.
       -2   -1    0    0    0  501  0.00000000000E+00  0.00000000000E+00 -0.11624150649E+04  0.11624150649E+04  0.25500000920E-02 0.  1.
    10030    2    1    2    0    0  0.00000000000E+00  0.00000000000E+00 -0.54804003245E+03  0.17767900973E+04  0.16901583277E+04 0.  0.
        5    1    3    3  502    0 -0.60772192298E+03 -0.18910127522E+03  0.31039874042E+03  0.70813465952E+03  0.46999998093E+01 0. -1.
       -5    1    3    3    0  502  0.60772192298E+03  0.18910127522E+03 -0.85843877287E+03  0.10686554378E+04  0.46999998093E+01 0.  1.
</event>
<event>
 5   0  0.6929121E-04  0.1853333E+04  0.7818609E-02  0.8678441E-01
       -2   -1    0    0    0  501  0.00000000000E+00  0.00000000000E+00  0.60613126273E+03  0.60613126274E+03  0.25500000920E-02 0. -1.
        2   -1    0    0  501    0  0.00000000000E+00  0.00000000000E+00 -0.14167080126E+04  0.14167080126E+04  0.25500000920E-02 0.  1.
    10030    2    1    2    0    0  0.00000000000E+00  0.00000000000E+00 -0.81057674988E+03  0.20228392753E+04  0.18533332314E+04 0.  0.
        3    1    3    3  502    0 -0.18700853064E+03  0.88449371701E+02  0.58060616770E+03  0.61635948444E+03  0.10100000352E+00 0. -1.
       -3    1    3    3    0  502  0.18700853064E+03 -0.88449371701E+02 -0.13911829176E+04  0.14064797909E+04  0.10100000352E+00 0.  1.
</event>
<event>
 5   0  0.3404261E-04  0.1798484E+04  0.7818609E-02  0.8707106E-01
       -1   -1    0    0    0  501  0.00000000000E+00  0.00000000000E+00  0.31793548555E+03  0.31793548559E+03  0.50400001928E-02 0. -1.
        1   -1    0    0  501    0  0.00000000000E+00  0.00000000000E+00 -0.25433966240E+04  0.25433966240E+04  0.50400001928E-02 0.  1.
    10030    2    1    2    0    0  0.00000000000E+00  0.00000000000E+00 -0.22254611385E+04  0.28613321096E+04  0.17984838511E+04 0.  0.
        1    1    3    3  502    0 -0.47482776777E+03 -0.41033944822E+03 -0.21373889444E+04  0.22276156248E+04  0.50400001928E-02 0.  1.
       -1    1    3    3    0  502  0.47482776777E+03  0.41033944822E+03 -0.88072194045E+02  0.63371648487E+03  0.50400001928E-02 0. -1.
</event>
<event>
 5   0  0.3404261E-04  0.1858382E+04  0.7818609E-02  0.8675854E-01
       -1   -1    0    0    0  501  0.00000000000E+00  0.00000000000E+00  0.82820248176E+03  0.82820248177E+03  0.50400001928E-02 0. -1.
        1   -1    0    0  501    0  0.00000000000E+00  0.00000000000E+00 -0.10424932486E+04  0.10424932486E+04  0.50400001928E-02 0.  1.
    10030    2    1    2    0    0  0.00000000000E+00  0.00000000000E+00 -0.21429076684E+03  0.18706957304E+04  0.18583815493E+04 0.  0.
        1    1    3    3  502    0 -0.43104786629E+03  0.71567851589E+03 -0.51653114452E+03  0.98224356675E+03  0.50400001928E-02 0.  1.
       -1    1    3    3    0  502  0.43104786629E+03 -0.71567851589E+03  0.30224037768E+03  0.88845216363E+03  0.50400001928E-02 0. -1.
</event>
<event>
 5   0  0.6853162E-04  0.1358925E+04  0.7818609E-02  0.8984100E-01
        2   -1    0    0  501    0  0.00000000000E+00  0.00000000000E+00  0.11637815954E+04  0.11637815954E+04  0.25500000920E-02 0.  1.
       -2   -1    0    0    0  501  0.00000000000E+00  0.00000000000E+00 -0.39669727354E+03  0.39669727355E+03  0.25500000920E-02 0. -1.
    10030    2    1    2    0    0  0.00000000000E+00  0.00000000000E+00  0.76708432184E+03  0.15604788689E+04  0.13589245540E+04 0.  0.
        2    1    3    3  502    0  0.16368026087E+03  0.63620093064E+03  0.58285452828E+03  0.87821537967E+03  0.25500000920E-02 0.  1.
       -2    1    3    3    0  502 -0.16368026087E+03 -0.63620093064E+03  0.18422979356E+03  0.68226348926E+03  0.25500000920E-02 0. -1.
</event>
<event>
 5   0  0.6774451E-04  0.1726107E+04  0.7818609E-02  0.8746613E-01
        2   -1    0    0  501    0  0.00000000000E+00  0.00000000000E+00  0.90228517722E+03  0.90228517723E+03  0.25500000920E-02 0. -1.
       -2   -1    0    0    0  501  0.00000000000E+00  0.00000000000E+00 -0.82552762684E+03  0.82552762685E+03  0.25500000920E-02 0.  1.
    10030    2    1    2    0    0  0.00000000000E+00  0.00000000000E+00  0.76757550382E+02  0.17278128041E+04  0.17261069968E+04 0.  0.
        4    1    3    3  502    0  0.33182022386E+03 -0.72060203633E+03 -0.30179198257E+03  0.84879442115E+03  0.12699999809E+01 0. -1.
       -4    1    3    3    0  502 -0.33182022386E+03  0.72060203633E+03  0.37854953295E+03  0.87901838293E+03  0.12699999809E+01 0.  1.
</event>
<event>
 5   0  0.3413839E-04  0.1766320E+04  0.7818609E-02  0.8724418E-01
        1   -1    0    0  501    0  0.00000000000E+00  0.00000000000E+00  0.13991839129E+04  0.13991839129E+04  0.50400001928E-02 0.  1.
       -1   -1    0    0    0  501  0.00000000000E+00  0.00000000000E+00 -0.55744767128E+03  0.55744767130E+03  0.50400001928E-02 0. -1.
    10030    2    1    2    0    0  0.00000000000E+00  0.00000000000E+00  0.84173624164E+03  0.19566315842E+04  0.17663202586E+04 0.  0.
        5    1    3    3  502    0 -0.70252247385E+03 -0.27246729038E+03 -0.89384392610E+02  0.75880689917E+03  0.46999998093E+01 0. -1.
       -5    1    3    3    0  502  0.70252247385E+03  0.27246729038E+03  0.93112063425E+03  0.11978246850E+04  0.46999998093E+01 0.  1.
</event>
<event>
 5   0  0.2467375E-04  0.1855625E+04  0.7818609E-02  0.8677266E-01
        3   -1    0    0  501    0  0.00000000000E+00  0.00000000000E+00  0.10548486408E+04  0.10548486456E+04  0.10100000352E+00 0. -1.
       -3   -1    0    0    0  501  0.00000000000E+00  0.00000000000E+00 -0.81607524361E+03  0.81607524986E+03  0.10100000352E+00 0.  1.
    10030    2    1    2    0    0  0.00000000000E+00  0.00000000000E+00  0.23877339715E+03  0.18709238955E+04  0.18556248240E+04 0.  0.
        3    1    3    3  502    0  0.27745667594E+03  0.85812002684E+03  0.33909077055E+03  0.96350129650E+03  0.10100000352E+00 0. -1.
       -3    1    3    3    0  502 -0.27745667594E+03 -0.85812002684E+03 -0.10031737340E+03  0.90742259895E+03  0.10100000352E+00 0.  1.
</event>
<event>
 5   0  0.6771967E-04  0.1736721E+04  0.7818609E-02  0.8740694E-01
        2   -1    0    0  501    0  0.00000000000E+00  0.00000000000E+00  0.10999381741E+04  0.10999381741E+04  0.25500000920E-02 0.  1.
       -2   -1    0    0    0  501  0.00000000000E+00  0.00000000000E+00 -0.68553816655E+03  0.68553816656E+03  0.25500000920E-02 0. -1.
    10030    2    1    2    0    0  0.00000000000E+00  0.00000000000E+00  0.41440000755E+03  0.17854763407E+04  0.17367205869E+04 0.  0.
        1    1    3    3  502    0 -0.49599595716E+03 -0.31072975847E+03  0.86667897931E+03  0.10457998975E+04  0.50400001928E-02 0.  1.
       -1    1    3    3    0  502  0.49599595716E+03  0.31072975847E+03 -0.45227897175E+03  0.73967644321E+03  0.50400001928E-02 0. -1.
</event>
<event>
 5   0  0.3413839E-04  0.1739911E+04  0.7818609E-02  0.8738923E-01
        1   -1    0    0  501    0  0.00000000000E+00  0.00000000000E+00  0.94823947547E+03  0.94823947548E+03  0.50400001928E-02 0.  1.
       -1   -1    0    0    0  501  0.00000000000E+00  0.00000000000E+00 -0.79813430472E+03  0.79813430473E+03  0.50400001928E-02 0. -1.
    10030    2    1    2    0    0  0.00000000000E+00  0.00000000000E+00  0.15010517075E+03  0.17463737802E+04  0.17399108649E+04 0.  0.
        5    1    3    3  502    0 -0.83479156220E+03  0.11334969607E+03 -0.14272168096E+03  0.85446865017E+03  0.46999998093E+01 0. -1.
       -5    1    3    3    0  502  0.83479156220E+03 -0.11334969607E+03  0.29282685171E+03  0.89190513004E+03  0.46999998093E+01 0.  1.
</event>
<event>
 5   0  0.3470962E-04  0.1646734E+04  0.7818609E-02  0.8792341E-01
       -1   -1    0    0    0  501  0.00000000000E+00  0.00000000000E+00  0.93005089482E+03  0.93005089484E+03  0.50400001928E-02 0.  1.
        1   -1    0    0  501    0  0.00000000000E+00  0.00000000000E+00 -0.72892027711E+03  0.72892027713E+03  0.50400001928E-02 0. -1.
    10030    2    1    2    0    0  0.00000000000E+00  0.00000000000E+00  0.20113061771E+03  0.16589711720E+04  0.16467336834E+04 0.  0.
        4    1    3    3  502    0 -0.19100617916E+03  0.11506426980E+03 -0.69792062432E+03  0.73267861810E+03  0.12699999809E+01 0. -1.
       -4    1    3    3    0  502  0.19100617916E+03 -0.11506426980E+03  0.89905124203E+03  0.92629255387E+03  0.12699999809E+01 0.  1.
</event>
<event>
 5   0  0.3404261E-04  0.1858666E+04  0.7818609E-02  0.8675709E-01
        1   -1    0    0  501    0  0.00000000000E+00  0.00000000000E+00  0.13729618276E+04  0.13729618276E+04  0.50400001928E-02 0. -1.
       -1   -1    0    0    0  501  0.00000000000E+00  0.00000000000E+00 -0.62904836091E+03  0.62904836093E+03  0.50400001928E-02 0.  1.
    10030    2    1    2    0    0  0.00000000000E+00  0.00000000000E+00  0.74391346668E+03  0.20020101885E+04  0.18586655291E+04 0.  0.
        1    1    3    3  502    0 -0.66998414466E+03  0.23732344693E+02 -0.32127624168E+03  0.74341132745E+03  0.50400001928E-02 0.  1.
       -1    1    3    3    0  502  0.66998414466E+03 -0.23732344693E+02  0.10651897084E+04  0.12585988611E+04  0.50400001928E-02 0. -1.
</event>
<event>
 5   0  0.3404261E-04  0.1829593E+04  0.7818609E-02  0.8690719E-01
       -1   -1    0    0    0  501  0.00000000000E+00  0.00000000000E+00  0.47619031740E+03  0.47619031743E+03  0.50400001928E-02 0. -1.
        1   -1    0    0  501    0  0.00000000000E+00  0.00000000000E+00 -0.17573904793E+04  0.17573904793E+04  0.50400001928E-02 0.  1.
    10030    2    1    2    0    0  0.00000000000E+00  0.00000000000E+00 -0.12812001619E+04  0.22335807967E+04  0.18295926652E+04 0.  0.
        1    1    3    3  502    0 -0.68523414446E+03  0.24712040281E+03  0.34979942537E+02  0.72927218692E+03  0.50400001928E-02 0. -1.
       -1    1    3    3    0  502  0.68523414446E+03 -0.24712040281E+03 -0.13161801044E+04  0.15043086098E+04  0.50400001928E-02 0.  1.
</event>
<event>
 5   0  0.3404261E-04  0.1854091E+04  0.7818609E-02  0.8678052E-01
        1   -1    0    0  501    0  0.00000000000E+00  0.00000000000E+00  0.16897567277E+04  0.16897567277E+04  0.50400001928E-02 0. -1.
       -1   -1    0    0    0  501  0.00000000000E+00  0.00000000000E+00 -0.50860206222E+03  0.50860206224E+03  0.50400001928E-02 0.  1.
    10030    2    1    2    0    0  0.00000000000E+00  0.00000000000E+00  0.11811546655E+04  0.21983587900E+04  0.18540914286E+04 0.  0.
        1    1    3    3  502    0 -0.78374573472E+03 -0.47550305982E+03  0.42691391484E+03  0.10112447910E+04  0.50400001928E-02 0.  1.
       -1    1    3    3    0  502  0.78374573472E+03  0.47550305982E+03  0.75424075068E+03  0.11871139990E+04  0.50400001928E-02 0. -1.
</event>
<event>
 5   0  0.3377273E-04  0.1686136E+04  0.7818609E-02  0.8769311E-01
       -1   -1    0    0    0  501  0.00000000000E+00  0.00000000000E+00  0.45847094814E+03  0.45847094816E+03  0.50400001928E-02 0. -1.
        1   -1    0    0  501    0  0.00000000000E+00  0.00000000000E+00 -0.15502918156E+04  0.15502918156E+04  0.50400001928E-02 0.  1.
    10030    2    1    2    0    0  0.00000000000E+00  0.00000000000E+00 -0.10918208674E+04  0.20087627638E+04  0.16861361257E+04 0.  0.
        2    1    3    3  502    0  0.64310012125E+02 -0.24844659410E+03 -0.15026262838E+04  0.15243842156E+04  0.25500000920E-02 0.  1.
       -2    1    3    3    0  502 -0.64310012125E+02  0.24844659410E+03  0.41080541640E+03  0.48437854818E+03  0.25500000920E-02 0. -1.
</event>
<event>
 5   0  0.3413839E-04  0.1800878E+04  0.7818609E-02  0.8705833E-01
       -1   -1    0    0    0  501  0.00000000000E+00  0.00000000000E+00  0.61416722738E+03  0.61416722741E+03  0.50400001928E-02 0.  1.
        1   -1    0    0  501    0  0.00000000000E+00  0.00000000000E+00 -0.13201457247E+04  0.13201457247E+04  0.50400001928E-02 0. -1.
    10030    2    1    2    0    0  0.00000000000E+00  0.00000000000E+00 -0.70597849731E+03  0.19343129521E+04  0.18008778298E+04 0.  0.
        5    1    3    3  502    0  0.18049126087E+03 -0.53321035865E+03 -0.11078245915E+04  0.12426535307E+04  0.46999998093E+01 0. -1.
       -5    1    3    3    0  502 -0.18049126087E+03  0.53321035865E+03  0.40184609419E+03  0.69165942142E+03  0.46999998093E+01 0.  1.
</event>
<event>
 5   0  0.6929121E-04  0.1823731E+04  0.7818609E-02  0.8693780E-01
        2   -1    0    0  501    0  0.00000000000E+00  0.00000000000E+00  0.15553490610E+04  0.15553490610E+04  0.25500000920E-02 0. -1.
       -2   -1    0    0    0  501  0.00000000000E+00  0.00000000000E+00 -0.53460588180E+03  0.53460588180E+03  0.25500000920E-02 0.  1.
    10030    2    1    2    0    0  0.00000000000E+00  0.00000000000E+00  0.10207431792E+04  0.20899549428E+04  0.18237310726E+04 0.  0.
        3    1    3    3  502    0  0.71351680370E+03 -0.20768891483E+03  0.11159617447E+04  0.13407503646E+04  0.10100000352E+00 0. -1.
       -3    1    3    3    0  502 -0.71351680370E+03  0.20768891483E+03 -0.95218565484E+02  0.74920457815E+03  0.10100000352E+00 0.  1.
</event>
<event>
 5   0  0.3308275E-04  0.1870966E+04  0.7818609E-02  0.8669445E-01
        1   -1    0    0  501    0  0.00000000000E+00  0.00000000000E+00  0.14414420362E+04  0.14414420362E+04  0.50400001928E-02 0. -1.
       -1   -1    0    0    0  501  0.00000000000E+00  0.00000000000E+00 -0.60712018315E+03  0.60712018317E+03  0.50400001928E-02 0.  1.
    10030    2    1    2    0    0  0.00000000000E+00  0.00000000000E+00  0.83432185308E+03  0.20485622194E+04  0.18709661173E+04 0.  0.
        3    1    3    3  502    0 -0.27500657355E+03 -0.50075567049E+03 -0.39392712629E+03  0.69394772718E+03  0.10100000352E+00 0.  1.
       -3    1    3    3    0  502  0.27500657355E+03  0.50075567049E+03  0.12282489794E+04  0.13546144922E+04  0.10100000352E+00 0. -1.
</event>
<event>
 5   0  0.3377273E-04  0.1819344E+04  0.7818609E-02  0.8696080E-01
       -1   -1    0    0    0  501  0.00000000000E+00  0.00000000000E+00  0.44042627990E+03  0.44042627993E+03  0.50400001928E-02 0. -1.
        1   -1    0    0  501    0  0.00000000000E+00  0.00000000000E+00 -0.18788691270E+04  0.18788691270E+04  0.50400001928E-02 0.  1.
    10030    2    1    2    0    0  0.00000000000E+00  0.00000000000E+00 -0.14384428471E+04  0.23192954069E+04  0.18193442116E+04 0.  0.
        2    1    3    3  502    0 -0.49938461785E+03 -0.61361589823E+03 -0.12915953721E+04  0.15146379344E+04  0.25500000920E-02 0.  1.
       -2    1    3    3    0  502  0.49938461785E+03  0.61361589823E+03 -0.14684747495E+03  0.80465747248E+03  0.25500000920E-02 0. -1.
</event>
<event>
 5   0  0.6547153E-04  0.2135044E+04  0.7818609E-02  0.8545961E-01
        2   -1    0    0  501    0  0.00000000000E+00  0.00000000000E+00  0.99846349912E+03  0.99846349912E+03  0.25500000920E-02 0. -1.
       -2   -1    0    0    0  501  0.00000000000E+00  0.00000000000E+00 -0.11413574037E+04  0.11413574037E+04  0.25500000920E-02 0.  1.
    10030    2    1    2    0    0  0.00000000000E+00  0.00000000000E+00 -0.14289390456E+03  0.21398209028E+04  0.21350444558E+04 0.  0.
        5    1    3    3  502    0  0.74822312252E+02  0.45316419237E+03  0.89436104005E+03  0.10054152991E+04  0.46999998093E+01 0. -1.
       -5    1    3    3    0  502 -0.74822312252E+02 -0.45316419237E+03 -0.10372549446E+04  0.11344056037E+04  0.46999998093E+01 0.  1.
</event>
<event>
 5   0  0.6929121E-04  0.1658975E+04  0.7818609E-02  0.8785114E-01
        2   -1    0    0  501    0  0.00000000000E+00  0.00000000000E+00  0.12043017201E+04  0.12043017201E+04  0.25500000920E-02 0.  1.
       -2   -1    0    0    0  501  0.00000000000E+00  0.00000000000E+00 -0.57132665753E+03  0.57132665754E+03  0.25500000920E-02 0. -1.
    10030    2    1    2    0    0  0.00000000000E+00  0.00000000000E+00  0.63297506259E+03  0.17756283777E+04  0.16589751974E+04 0.  0.
        3    1    3    3  502    0  0.10477711115E+03  0.50367373725E+03 -0.37994572603E+03  0.63955003053E+03  0.10100000352E+00 0. -1.
       -3    1    3    3    0  502 -0.10477711115E+03 -0.50367373725E+03  0.10129207886E+04  0.11360783471E+04  0.10100000352E+00 0.  1.
</event>
<event>
 5   0  0.3404261E-04  0.1824534E+04  0.7818609E-02  0.8693360E-01
       -1   -1    0    0    0  501  0.00000000000E+00  0.00000000000E+00  0.79564909800E+03  0.79564909801E+03  0.50400001928E-02 0.  1.
        1   -1    0    0  501    0  0.00000000000E+00  0.00000000000E+00 -0.10459779941E+04  0.10459779941E+04  0.50400001928E-02 0. -1.
    10030    2    1    2    0    0  0.00000000000E+00  0.00000000000E+00 -0.25032889606E+03  0.18416270921E+04  0.18245344036E+04 0.  0.
        1    1    3    3  502    0 -0.69031494123E+03 -0.58834245994E+03 -0.26525466716E+02  0.90740573541E+03  0.50400001928E-02 0.  1.
       -1    1    3    3    0  502  0.69031494123E+03  0.58834245994E+03 -0.22380342934E+03  0.93422135667E+03  0.50400001928E-02 0. -1.
</event>
<event>
 5   0  0.6774451E-04  0.1811143E+04  0.7818609E-02  0.8700396E-01
       -2   -1    0    0    0  501  0.00000000000E+00  0.00000000000E+00  0.65201118313E+03  0.65201118313E+03  0.25500000920E-02 0.  1.
        2   -1    0    0  501    0  0.00000000000E+00  0.00000000000E+00 -0.12577385659E+04  0.12577385660E+04  0.25500000920E-02 0. -1.
    10030    2    1    2    0    0  0.00000000000E+00  0.00000000000E+00 -0.60572738282E+03  0.19097497491E+04  0.18111428552E+04 0.  0.
        4    1    3    3  502    0  0.56720327921E+03  0.69129468578E+03 -0.15207408075E+03  0.90704798190E+03  0.12699999809E+01 0. -1.
       -4    1    3    3    0  502 -0.56720327921E+03 -0.69129468578E+03 -0.45365330207E+03  0.10027017672E+04  0.12699999809E+01 0.  1.
</event>
<event>
 5   0  0.6771967E-04  0.1849017E+04  0.7818609E-02  0.8680659E-01
       -2   -1    0    0    0  501  0.00000000000E+00  0.00000000000E+00  0.49459937266E+03  0.49459937266E+03  0.25500000920E-02 0. -1.
        2   -1    0    0  501    0  0.00000000000E+00  0.00000000000E+00 -0.17280967913E+04  0.17280967913E+04  0.25500000920E-02 0.  1.
    10030    2    1    2    0    0  0.00000000000E+00  0.00000000000E+00 -0.12334974186E+04  0.22226961639E+04  0.18490165914E+04 0.  0.
        1    1    3    3  502    0 -0.55334241649E+03  0.55302406761E+03 -0.24550421983E+02  0.78270439662E+03  0.50400001928E-02 0. -1.
       -1    1    3    3    0  502  0.55334241649E+03 -0.55302406761E+03 -0.12089469966E+04  0.14399917673E+04  0.50400001928E-02 0.  1.
</event>
<event>
 5   0  0.6929121E-04  0.1857146E+04  0.7818609E-02  0.8676486E-01
       -2   -1    0    0    0  501  0.00000000000E+00  0.00000000000E+00  0.42100895478E+03  0.42100895479E+03  0.25500000920E-02 0.  1.
        2   -1    0    0  501    0  0.00000000000E+00  0.00000000000E+00 -0.20480517933E+04  0.20480517933E+04  0.25500000920E-02 0. -1.
    10030    2    1    2    0    0  0.00000000000E+00  0.00000000000E+00 -0.16270428385E+04  0.24690607481E+04  0.18571463538E+04 0.  0.
        3    1    3    3  502    0 -0.23708945103E+03  0.71822223860E+03 -0.97329333338E+02  0.76257957036E+03  0.10100000352E+00 0.  1.
       -3    1    3    3    0  502  0.23708945103E+03 -0.71822223860E+03 -0.15297135052E+04  0.17064811777E+04  0.10100000352E+00 0. -1.
</event>
<event>
 5   0  0.3413839E-04  0.1759291E+04  0.7818609E-02  0.8728253E-01
        1   -1    0    0  501    0  0.00000000000E+00  0.00000000000E+00  0.21385360092E+04  0.21385360092E+04  0.50400001928E-02 0. -1.
       -1   -1    0    0    0  501  0.00000000000E+00  0.00000000000E+00 -0.36182526228E+03  0.36182526232E+03  0.50400001928E-02 0.  1.
    10030    2    1    2    0    0  0.00000000000E+00  0.00000000000E+00  0.17767107469E+04  0.25003612715E+04  0.17592911669E+04 0.  0.
        5    1    3    3  502    0 -0.66708861516E+03  0.25143278809E+03  0.15600199385E+03  0.72978378955E+03  0.46999998093E+01 0.  1.
       -5    1    3    3    0  502  0.66708861516E+03 -0.25143278809E+03  0.16207087531E+04  0.17705774820E+04  0.46999998093E+01 0. -1.
</event>
<event>
 5   0  0.3377273E-04  0.1651061E+04  0.7818609E-02  0.8789779E-01
        1   -1    0    0  501    0  0.00000000000E+00  0.00000000000E+00  0.77579640754E+03  0.77579640756E+03  0.50400001928E-02 0. -1.
       -1   -1    0    0    0  501  0.00000000000E+00  0.00000000000E+00 -0.87845247226E+03  0.87845247228E+03  0.50400001928E-02 0.  1.
    10030    2    1    2    0    0  0.00000000000E+00  0.00000000000E+00 -0.10265606472E+03  0.16542488798E+04  0.16510605951E+04 0.  0.
        2    1    3    3  502    0  0.67029259923E+03 -0.45458248069E+03  0.10886464438E+03  0.81718352353E+03  0.25500000920E-02 0. -1.
       -2    1    3    3    0  502 -0.67029259923E+03  0.45458248069E+03 -0.21152070910E+03  0.83706535630E+03  0.25500000920E-02 0.  1.
</event>
<event>
 5   0  0.3404261E-04  0.1801237E+04  0.7818609E-02  0.8705642E-01
       -1   -1    0    0    0  501  0.00000000000E+00  0.00000000000E+00  0.80491611261E+03  0.80491611262E+03  0.50400001928E-02 0.  1.
        1   -1    0    0  501    0  0.00000000000E+00  0.00000000000E+00 -0.10076998447E+04  0.10076998447E+04  0.50400001928E-02 0. -1.
    10030    2    1    2    0    0  0.00000000000E+00  0.00000000000E+00 -0.20278373206E+03  0.18126159573E+04  0.18012371767E+04 0.  0.
        1    1    3    3  502    0 -0.35918421468E+03  0.12877690788E+03  0.71955394265E+03  0.81446587926E+03  0.50400001928E-02 0.  1.
       -1    1    3    3    0  502  0.35918421468E+03 -0.12877690788E+03 -0.92233767471E+03  0.99815007804E+03  0.50400001928E-02 0. -1.
</event>
<event>
 5   0  0.6853162E-04  0.1803235E+04  0.7818609E-02  0.8704581E-01
       -2   -1    0    0    0  501  0.00000000000E+00  0.00000000000E+00  0.67185085616E+03  0.67185085617E+03  0.25500000920E-02 0. -1.
        2   -1    0    0  501    0  0.00000000000E+00  0.00000000000E+00 -0.12099624710E+04  0.12099624710E+04  0.25500000920E-02 0.  1.
    10030    2    1    2    0    0  0.00000000000E+00  0.00000000000E+00 -0.53811161479E+03  0.18818133271E+04  0.18032352282E+04 0.  0.
        2    1    3    3  502    0  0.32896926618E+03 -0.54602683424E+03 -0.93445182834E+03  0.11311791641E+04  0.25500000920E-02 0.  1.
       -2    1    3    3    0  502 -0.32896926618E+03  0.54602683424E+03  0.39634021355E+03  0.75063416302E+03  0.25500000920E-02 0. -1.
</event>
<event>
 5   0  0.6774451E-04  0.1529287E+04  0.7818609E-02  0.8865208E-01
        2   -1    0    0  501    0  0.00000000000E+00  0.00000000000E+00  0.16664747773E+04  0.16664747773E+04  0.25500000920E-02 0. -1.
       -2   -1    0    0    0  501  0.00000000000E+00  0.00000000000E+00 -0.35084804395E+03  0.35084804395E+03  0.25500000920E-02 0.  1.
    10030    2    1    2    0    0  0.00000000000E+00  0.00000000000E+00  0.13156267334E+04  0.20173228213E+04  0.15292866519E+04 0.  0.
        4    1    3    3  502    0 -0.46053703373E+03  0.59225966974E+03  0.85263335961E+03  0.11357161330E+04  0.12699999809E+01 0. -1.
       -4    1    3    3    0  502  0.46053703373E+03 -0.59225966974E+03  0.46299337375E+03  0.88160668831E+03  0.12699999809E+01 0.  1.
</event>
<event>
 5   0  0.3377273E-04  0.1310316E+04  0.7818609E-02  0.9021424E-01
       -1   -1    0    0    0  501  0.00000000000E+00  0.00000000000E+00  0.12583950283E+04  0.12583950283E+04  0.50400001928E-02 0.  1.
        1   -1    0    0  501    0  0.00000000000E+00  0.00000000000E+00 -0.34109499246E+03  0.34109499249E+03  0.50400001928E-02 0. -1.
    10030    2    1    2    0    0  0.00000000000E+00  0.00000000000E+00  0.91730003586E+03  0.15994900208E+04  0.13103163629E+04 0.  0.
        2    1    3    3  502    0 -0.36867075183E+03  0.51688991073E+03  0.65600557222E+03  0.91292749650E+03  0.25500000920E-02 0.  1.
       -2    1    3    3    0  502  0.36867075183E+03 -0.51688991073E+03  0.26129446364E+03  0.68656252432E+03  0.25500000920E-02 0. -1.
</event>
<event>
 5   0  0.3413839E-04  0.1810017E+04  0.7818609E-02  0.8700991E-01
        1   -1    0    0  501    0  0.00000000000E+00  0.00000000000E+00  0.12848528836E+04  0.12848528836E+04  0.50400001928E-02 0.  1.
       -1   -1    0    0    0  501  0.00000000000E+00  0.00000000000E+00 -0.63745835313E+03  0.63745835315E+03  0.50400001928E-02 0. -1.
    10030    2    1    2    0    0  0.00000000000E+00  0.00000000000E+00  0.64739453046E+03  0.19223112368E+04  0.18100167991E+04 0.  0.
        5    1    3    3  502    0 -0.67515733113E+03 -0.54443450399E+03  0.49263516349E+02  0.86873202713E+03  0.46999998093E+01 0. -1.
       -5    1    3    3    0  502  0.67515733113E+03  0.54443450399E+03  0.59813101411E+03  0.10535792096E+04  0.46999998093E+01 0.  1.
</event>
<event>
 5   0  0.3377273E-04  0.1635769E+04  0.7818609E-02  0.8798870E-01
        1   -1    0    0  501    0  0.00000000000E+00  0.00000000000E+00  0.11809863092E+04  0.11809863092E+04  0.50400001928E-02 0. -1.
       -1   -1    0    0    0  501  0.00000000000E+00  0.00000000000E+00 -0.56642054769E+03  0.56642054771E+03  0.50400001928E-02 0.  1.
    10030    2    1    2    0    0  0.00000000000E+00  0.00000000000E+00  0.61456576155E+03  0.17474068570E+04  0.16357688249E+04 0.  0.
        2    1    3    3  502    0  0.45058415721E+03  0.48067232572E+03 -0.21041854310E+03  0.69162701706E+03  0.25500000920E-02 0.  1.
       -2    1    3    3    0  502 -0.45058415721E+03 -0.48067232572E+03  0.82498430464E+03  0.10557798399E+04  0.25500000920E-02 0. -1.
</event>
<event>
 5   0  0.2467375E-04  0.1808880E+04  0.7818609E-02  0.8701592E-01
       -3   -1    0    0    0  501  0.00000000000E+00  0.00000000000E+00  0.70594367695E+03  0.70594368417E+03  0.10100000352E+00 0.  1.
        3   -1    0    0  501    0  0.00000000000E+00  0.00000000000E+00 -0.11587488950E+04  0.11587488994E+04  0.10100000352E+00 0. -1.
    10030    2    1    2    0    0  0.00000000000E+00  0.00000000000E+00 -0.45280521806E+03  0.18646925836E+04  0.18088797267E+04 0.  0.
        3    1    3    3  502    0  0.82567068226E+02 -0.47086662783E+03  0.56506223849E+03  0.74015406878E+03  0.10100000352E+00 0.  1.
       -3    1    3    3    0  502 -0.82567068226E+02  0.47086662783E+03 -0.10178674566E+04  0.11245385148E+04  0.10100000352E+00 0. -1.
</event>
<event>
 5   0  0.6853162E-04  0.1204658E+04  0.7818609E-02  0.9108789E-01
       -2   -1    0    0    0  501  0.00000000000E+00  0.00000000000E+00  0.17393255593E+03  0.17393255595E+03  0.25500000920E-02 0. -1.
        2   -1    0    0  501    0  0.00000000000E+00  0.00000000000E+00 -0.20858689382E+04  0.20858689382E+04  0.25500000920E-02 0.  1.
    10030    2    1    2    0    0  0.00000000000E+00  0.00000000000E+00 -0.19119363823E+04  0.22598014942E+04  0.12046584840E+04 0.  0.
        2    1    3    3  502    0 -0.53283814384E+03 -0.40945803355E+02 -0.43473026645E+03  0.68890017486E+03  0.25500000920E-02 0. -1.
       -2    1    3    3    0  502  0.53283814384E+03  0.40945803355E+02 -0.14772061158E+04  0.15709013193E+04  0.25500000920E-02 0.  1.
</event>
<event>
 5   0  0.6929121E-04  0.1812630E+04  0.7818609E-02  0.8699611E-01
       -2   -1    0    0    0  501  0.00000000000E+00  0.00000000000E+00  0.95016796467E+03  0.95016796468E+03  0.25500000920E-02 0.  1.
        2   -1    0    0  501    0  0.00000000000E+00  0.00000000000E+00 -0.86448642149E+03  0.86448642150E+03  0.25500000920E-02 0. -1.
    10030    2    1    2    0    0  0.00000000000E+00  0.00000000000E+00  0.85681543180E+02  0.18146543862E+04  0.18126304682E+04 0.  0.
        3    1    3    3  502    0  0.11490307629E+03 -0.88002437824E+03  0.22678942308E+03  0.91601259591E+03  0.10100000352E+00 0.  1.
       -3    1    3    3    0  502 -0.11490307629E+03  0.88002437824E+03 -0.14110787990E+03  0.89864179026E+03  0.10100000352E+00 0. -1.
</event>
<event>
 5   0  0.6853162E-04  0.1269050E+04  0.7818609E-02  0.9054476E-01
        2   -1    0    0  501    0  0.00000000000E+00  0.00000000000E+00  0.15796599623E+04  0.15796599623E+04  0.25500000920E-02 0.  1.
       -2   -1    0    0    0  501  0.00000000000E+00  0.00000000000E+00 -0.25487875821E+03  0.25487875823E+03  0.25500000920E-02 0. -1.
    10030    2    1    2    0    0  0.00000000000E+00  0.00000000000E+00  0.13247812040E+04  0.18345387205E+04  0.12690496753E+04 0.  0.
        2    1    3    3  502    0  0.30904403227E+03  0.24712336957E+03  0.13794486146E+04  0.14350807134E+04  0.25500000920E-02 0.  1.
       -2    1    3    3    0  502 -0.30904403227E+03 -0.24712336957E+03 -0.54667410513E+02  0.39945800712E+03  0.25500000920E-02 0. -1.
</event>
<event>
 5   0  0.3308275E-04  0.1728363E+04  0.7818609E-02  0.8745351E-01
        1   -1    0    0  501    0  0.00000000000E+00  0.00000000000E+00  0.67455442507E+03  0.67455442509E+03  0.50400001928E-02 0. -1.
       -1   -1    0    0    0  501  0.00000000000E+00  0.00000000000E+00 -0.11071156093E+04  0.11071156093E+04  0.50400001928E-02 0.  1.
    10030    2    1    2    0    0  0.00000000000E+00  0.00000000000E+00 -0.43256118423E+03  0.17816700344E+04  0.17283630792E+04 0.  0.
        3    1    3    3  502    0 -0.63992649303E+03  0.35268317624E+03 -0.69194305015E+03  0.10063183066E+04  0.10100000352E+00 0.  1.
       -3    1    3    3    0  502  0.63992649303E+03 -0.35268317624E+03  0.25938186592E+03  0.77535172783E+03  0.10100000352E+00 0. -1.
</event>
<event>
 5   0  0.3413839E-04  0.1747069E+04  0.7818609E-02  0.8734965E-01
        1   -1    0    0  501    0  0.00000000000E+00  0.00000000000E+00  0.21437574215E+04  0.21437574215E+04  0.50400001928E-02 0. -1.
       -1   -1    0    0    0  501  0.00000000000E+00  0.00000000000E+00 -0.35594625751E+03  0.35594625755E+03  0.50400001928E-02 0.  1.
    10030    2    1    2    0    0  0.00000000000E+00  0.00000000000E+00  0.17878111640E+04  0.24997036790E+04  0.17470688953E+04 0.  0.
        5    1    3    3  502    0 -0.62751614879E+03 -0.35815543954E+03  0.19151826348E+03  0.74749794054E+03  0.46999998093E+01 0.  1.
       -5    1    3    3    0  502  0.62751614879E+03  0.35815543954E+03  0.15962929005E+04  0.17522057385E+04  0.46999998093E+01 0. -1.
</event>
<event>
 5   0  0.6547153E-04  0.1813863E+04  0.7818609E-02  0.8698962E-01
        2   -1    0    0  501    0  0.00000000000E+00  0.00000000000E+00  0.71372367177E+03  0.71372367177E+03  0.25500000920E-02 0.  1.
       -2   -1    0    0    0  501  0.00000000000E+00  0.00000000000E+00 -0.11524414439E+04  0.11524414439E+04  0.25500000920E-02 0. -1.
    10030    2    1    2    0    0  0.00000000000E+00  0.00000000000E+00 -0.43871777211E+03  0.18661651157E+04  0.18138629924E+04 0.  0.
        5    1    3    3  502    0 -0.21079880993E+03  0.55991758138E+03 -0.92059768662E+03  0.10979371689E+04  0.46999998093E+01 0. -1.
       -5    1    3    3    0  502  0.21079880993E+03 -0.55991758138E+03  0.48187991451E+03  0.76822794678E+03  0.46999998093E+01 0.  1.
</event>
<event>
 5   0  0.3413839E-04  0.1821235E+04  0.7818609E-02  0.8695088E-01
        1   -1    0    0  501    0  0.00000000000E+00  0.00000000000E+00  0.12972447034E+04  0.12972447034E+04  0.50400001928E-02 0. -1.
       -1   -1    0    0    0  501  0.00000000000E+00  0.00000000000E+00 -0.63921988013E+03  0.63921988015E+03  0.50400001928E-02 0.  1.
    10030    2    1    2    0    0  0.00000000000E+00  0.00000000000E+00  0.65802482330E+03  0.19364645836E+04  0.18212354091E+04 0.  0.
        5    1    3    3  502    0 -0.90689928025E+01  0.86970977678E+03  0.61575080654E+03  0.10656680948E+04  0.46999998093E+01 0. -1.
       -5    1    3    3    0  502  0.90689928025E+01 -0.86970977678E+03  0.42274016758E+02  0.87079648882E+03  0.46999998093E+01 0.  1.
</event>
<event>
 5   0  0.3377273E-04  0.1864155E+04  0.7818609E-02  0.8672907E-01
        1   -1    0    0  501    0  0.00000000000E+00  0.00000000000E+00  0.10032616953E+04  0.10032616953E+04  0.50400001928E-02 0.  1.
       -1   -1    0    0    0  501  0.00000000000E+00  0.00000000000E+00 -0.86594403437E+03  0.86594403439E+03  0.50400001928E-02 0. -1.
    10030    2    1    2    0    0  0.00000000000E+00  0.00000000000E+00  0.13731766089E+03  0.18692057297E+04  0.18641550150E+04 0.  0.
        2    1    3    3  502    0  0.12028790900E+03 -0.72669767991E+03 -0.50403640411E+03  0.89253089343E+03  0.25500000920E-02 0. -1.
       -2    1    3    3    0  502 -0.12028790900E+03  0.72669767991E+03  0.64135406500E+03  0.97667483624E+03  0.25500000920E-02 0.  1.
</event>
<event>
 5   0  0.6547153E-04  0.1797486E+04  0.7818609E-02  0.8707637E-01
       -2   -1    0    0    0  501  0.00000000000E+00  0.00000000000E+00  0.68805691135E+03  0.68805691135E+03  0.25500000920E-02 0. -1.
        2   -1    0    0  501    0  0.00000000000E+00  0.00000000000E+00 -0.11739425434E+04  0.11739425434E+04  0.25500000920E-02 0.  1.
    10030    2    1    2    0    0  0.00000000000E+00  0.00000000000E+00 -0.48588563202E+03  0.18619994547E+04  0.17974863343E+04 0.  0.
        5    1    3    3  502    0 -0.57541718171E+03  0.44868478529E+03  0.30057339196E+03  0.78917008528E+03  0.46999998093E+01 0. -1.
       -5    1    3    3    0  502  0.57541718171E+03 -0.44868478529E+03 -0.78645902398E+03  0.10728293694E+04  0.46999998093E+01 0.  1.
</event>
<event>
 5   0  0.3404261E-04  0.1729920E+04  0.7818609E-02  0.8744481E-01
       -1   -1    0    0    0  501  0.00000000000E+00  0.00000000000E+00  0.79981795496E+03  0.79981795498E+03  0.50400001928E-02 0. -1.
        1   -1    0    0  501    0  0.00000000000E+00  0.00000000000E+00 -0.93540783046E+03  0.93540783048E+03  0.50400001928E-02 0.  1.
    10030    2    1    2    0    0  0.00000000000E+00  0.00000000000E+00 -0.13558987550E+03  0.17352257855E+04  0.17299202040E+04 0.  0.
        1    1    3    3  502    0 -0.48315226409E+03  0.22137486470E+03 -0.75231963142E+03  0.92110138902E+03  0.50400001928E-02 0.  1.
       -1    1    3    3    0  502  0.48315226409E+03 -0.22137486470E+03  0.61672975591E+03  0.81412439643E+03  0.50400001928E-02 0. -1.
</event>
<event>
 5   0  0.6929121E-04  0.1800213E+04  0.7818609E-02  0.8706186E-01
       -2   -1    0    0    0  501  0.00000000000E+00  0.00000000000E+00  0.74542738532E+03  0.74542738533E+03  0.25500000920E-02 0.  1.
        2   -1    0    0  501    0  0.00000000000E+00  0.00000000000E+00 -0.10868822311E+04  0.10868822311E+04  0.25500000920E-02 0. -1.
    10030    2    1    2    0    0  0.00000000000E+00  0.00000000000E+00 -0.34145484577E+03  0.18323096164E+04  0.18002130759E+04 0.  0.
        3    1    3    3  502    0  0.78840873944E+03 -0.56112409403E+02 -0.60905018008E+03  0.99783719863E+03  0.10100000352E+00 0. -1.
       -3    1    3    3    0  502 -0.78840873944E+03  0.56112409403E+02  0.26759533431E+03  0.83447241779E+03  0.10100000352E+00 0.  1.
</event>
<event>
 5   0  0.6771967E-04  0.1822782E+04  0.7818609E-02  0.8694277E-01
       -2   -1    0    0    0  501  0.00000000000E+00  0.00000000000E+00  0.15039170669E+04  0.15039170669E+04  0.25500000920E-02 0.  1.
        2   -1    0    0  501    0  0.00000000000E+00  0.00000000000E+00 -0.55231326731E+03  0.55231326732E+03  0.25500000920E-02 0. -1.
    10030    2    1    2    0    0  0.00000000000E+00  0.00000000000E+00  0.95160379955E+03  0.20562303342E+04  0.18227817741E+04 0.  0.
        1    1    3    3  502    0 -0.78540192385E+03  0.18485394240E+03  0.95387876783E+03  0.12493645848E+04  0.50400001928E-02 0.  1.
       -1    1    3    3    0  502  0.78540192385E+03 -0.18485394240E+03 -0.22749682791E+01  0.80686574938E+03  0.50400001928E-02 0. -1.
</event>
<event>
 5   0  0.6929121E-04  0.1833230E+04  0.7818609E-02  0.8688825E-01
        2   -1    0    0  501    0  0.00000000000E+00  0.00000000000E+00  0.17680585868E+04  0.17680585868E+04  0.25500000920E-02 0.  1.
       -2   -1    0    0    0  501  0.00000000000E+00  0.00000000000E+00 -0.47520093867E+03  0.47520093868E+03  0.25500000920E-02 0. -1.
    10030    2    1    2    0    0  0.00000000000E+00  0.00000000000E+00  0.12928576482E+04  0.22432595255E+04  0.18332300457E+04 0.  0.
        3    1    3    3  502    0 -0.83523588475E+02 -0.85881168904E+03  0.26798306731E+03  0.90352013903E+03  0.10100000352E+00 0.  1.
       -3    1    3    3    0  502  0.83523588475E+02  0.85881168904E+03  0.10248745809E+04  0.13397393865E+04  0.10100000352E+00 0. -1.
</event>
<event>
 5   0  0.3377273E-04  0.1800024E+04  0.7818609E-02  0.8706287E-01
       -1   -1    0    0    0  501  0.00000000000E+00  0.00000000000E+00  0.96669042376E+03  0.96669042377E+03  0.50400001928E-02 0.  1.
        1   -1    0    0  501    0  0.00000000000E+00  0.00000000000E+00 -0.83793232345E+03  0.83793232346E+03  0.50400001928E-02 0. -1.
    10030    2    1    2    0    0  0.00000000000E+00  0.00000000000E+00  0.12875810031E+03  0.18046227472E+04  0.18000235030E+04 0.  0.
        2    1    3    3  502    0 -0.24698607772E+03  0.35550592928E+03 -0.72670907353E+03  0.84586799556E+03  0.25500000920E-02 0. -1.
       -2    1    3    3    0  502  0.24698607772E+03 -0.35550592928E+03  0.85546717384E+03  0.95875475168E+03  0.25500000920E-02 0.  1.
</event>
<event>
 5   0  0.6774451E-04  0.1763478E+04  0.7818609E-02  0.8725966E-01
        2   -1    0    0  501    0  0.00000000000E+00  0.00000000000E+00  0.10538369370E+04  0.10538369370E+04  0.25500000920E-02 0.  1.
       -2   -1    0    0    0  501  0.00000000000E+00  0.00000000000E+00 -0.73774535051E+03  0.73774535052E+03  0.25500000920E-02 0. -1.
    10030    2    1    2    0    0  0.00000000000E+00  0.00000000000E+00  0.31609158644E+03  0.17915822875E+04  0.17634775875E+04 0.  0.
        4    1    3    3  502    0  0.15227936304E+03  0.12908702140E+03 -0.71448343739E+03  0.74184948521E+03  0.12699999809E+01 0. -1.
       -4    1    3    3    0  502 -0.15227936304E+03 -0.12908702140E+03  0.10305750238E+04  0.10497328023E+04  0.12699999809E+01 0.  1.
</event>
<event>
 5   0  0.3413839E-04  0.1792405E+04  0.7818609E-02  0.8710349E-01
        1   -1    0    0  501    0  0.00000000000E+00  0.00000000000E+00  0.12091237255E+04  0.12091237255E+04  0.50400001928E-02 0.  1.
       -1   -1    0    0    0  501  0.00000000000E+00  0.00000000000E+00 -0.66426506422E+03  0.66426506424E+03  0.50400001928E-02 0. -1.
    10030    2    1    2    0    0  0.00000000000E+00  0.00000000000E+00  0.54485866129E+03  0.18733887898E+04  0.17924046967E+04 0.  0.
        5    1    3    3  502    0  0.68153324092E+03 -0.18181999501E+03  0.85022724859E+03  0.11047418401E+04  0.46999998093E+01 0.  1.
       -5    1    3    3    0  502 -0.68153324092E+03  0.18181999501E+03 -0.30536858730E+03  0.76864694963E+03  0.46999998093E+01 0. -1.
</event>
<event>
 5   0  0.2467375E-04  0.1829188E+04  0.7818609E-02  0.8690930E-01
       -4   -1    0    0    0  501  0.00000000000E+00  0.00000000000E+00  0.64109114023E+03  0.64109239816E+03  0.12699999809E+01 0.  1.
        4   -1    0    0  501    0  0.00000000000E+00  0.00000000000E+00 -0.13047754934E+04  0.13047761115E+04  0.12699999809E+01 0. -1.
    10030    2    1    2    0    0  0.00000000000E+00  0.00000000000E+00 -0.66368435316E+03  0.19458685096E+04  0.18291876164E+04 0.  0.
        5    1    3    3  502    0  0.74753403123E+03 -0.48600653740E+03 -0.54842243931E+03  0.10468040620E+04  0.46999998093E+01 0. -1.
       -5    1    3    3    0  502 -0.74753403123E+03  0.48600653740E+03 -0.11526191386E+03  0.89906444765E+03  0.46999998093E+01 0.  1.
</event>
<event>
 5   0  0.2467375E-04  0.1744120E+04  0.7818609E-02  0.8736593E-01
        3   -1    0    0  501    0  0.00000000000E+00  0.00000000000E+00  0.39730174360E+03  0.39730175644E+03  0.10100000352E+00 0. -1.
       -3   -1    0    0    0  501  0.00000000000E+00  0.00000000000E+00 -0.19141342665E+04  0.19141342691E+04  0.10100000352E+00 0.  1.
    10030    2    1    2    0    0  0.00000000000E+00  0.00000000000E+00 -0.15168325229E+04  0.23114360256E+04  0.17441202934E+04 0.  0.
        1    1    3    3  502    0 -0.65294496425E+03  0.38084789743E+03 -0.18210269156E+03  0.77752404311E+03  0.50400001928E-02 0. -1.
       -1    1    3    3    0  502  0.65294496425E+03 -0.38084789743E+03 -0.13347298313E+04  0.15339119825E+04  0.50400001928E-02 0.  1.
</event>
<event>
 5   0  0.3377273E-04  0.1801036E+04  0.7818609E-02  0.8705749E-01
       -1   -1    0    0    0  501  0.00000000000E+00  0.00000000000E+00  0.63601585707E+03  0.63601585709E+03  0.50400001928E-02 0.  1.
        1   -1    0    0  501    0  0.00000000000E+00  0.00000000000E+00 -0.12750189436E+04  0.12750189436E+04  0.50400001928E-02 0. -1.
    10030    2    1    2    0    0  0.00000000000E+00  0.00000000000E+00 -0.63900308654E+03  0.19110348007E+04  0.18010355535E+04 0.  0.
        2    1    3    3  502    0  0.62413731832E+03  0.52856814568E+03 -0.71934627968E+03  0.10892156567E+04  0.25500000920E-02 0. -1.
       -2    1    3    3    0  502 -0.62413731832E+03 -0.52856814568E+03  0.80343193136E+02  0.82181914400E+03  0.25500000920E-02 0.  1.
</event>
<event>
 5   0  0.3308275E-04  0.1929321E+04  0.7818609E-02  0.8640398E-01
       -1   -1    0    0    0  501  0.00000000000E+00  0.00000000000E+00  0.44808518429E+03  0.44808518432E+03  0.50400001928E-02 0. -1.
        1   -1    0    0  501    0  0.00000000000E+00  0.00000000000E+00 -0.20767693420E+04  0.20767693420E+04  0.50400001928E-02 0.  1.
    10030    2    1    2    0    0  0.00000000000E+00  0.00000000000E+00 -0.16286841577E+04  0.25248545263E+04  0.19293206819E+04 0.  0.
        3    1    3    3  502    0  0.46068631924E+03 -0.31687224852E+03 -0.18430722097E+04  0.19260205313E+04  0.10100000352E+00 0.  1.
       -3    1    3    3    0  502 -0.46068631924E+03  0.31687224852E+03  0.21438805196E+03  0.59883399506E+03  0.10100000352E+00 0. -1.
</event>
<event>
 5   0  0.3413839E-04  0.1849188E+04  0.7818609E-02  0.8680571E-01
        1   -1    0    0  501    0  0.00000000000E+00  0.00000000000E+00  0.12884278374E+04  0.12884278374E+04  0.50400001928E-02 0.  1.
       -1   -1    0    0    0  501  0.00000000000E+00  0.00000000000E+00 -0.66350152150E+03  0.66350152152E+03  0.50400001928E-02 0. -1.
    10030    2    1    2    0    0  0.00000000000E+00  0.00000000000E+00  0.62492631593E+03  0.19519293590E+04  0.18491877466E+04 0.  0.
        5    1    3    3  502    0  0.45088691320E+03  0.19289330593E+03 -0.51488674373E+03  0.71108177085E+03  0.46999998093E+01 0. -1.
       -5    1    3    3    0  502 -0.45088691320E+03 -0.19289330593E+03  0.11398130597E+04  0.12408475881E+04  0.46999998093E+01 0.  1.
</event>
<event>
 5   0  0.6547153E-04  0.1833351E+04  0.7818609E-02  0.8688762E-01
       -2   -1    0    0    0  501  0.00000000000E+00  0.00000000000E+00  0.13750459211E+04  0.13750459211E+04  0.25500000920E-02 0.  1.
        2   -1    0    0  501    0  0.00000000000E+00  0.00000000000E+00 -0.61110280380E+03  0.61110280381E+03  0.25500000920E-02 0. -1.
    10030    2    1    2    0    0  0.00000000000E+00  0.00000000000E+00  0.76394311731E+03  0.19861487249E+04  0.18333514859E+04 0.  0.
        5    1    3    3  502    0  0.86511420593E+03 -0.43242562875E+02  0.57005061565E+02  0.86808074255E+03  0.46999998093E+01 0. -1.
       -5    1    3    3    0  502 -0.86511420593E+03  0.43242562875E+02  0.70693805575E+03  0.11180679824E+04  0.46999998093E+01 0.  1.
</event>
<event>
 5   0  0.3404261E-04  0.1805523E+04  0.7818609E-02  0.8703368E-01
       -1   -1    0    0    0  501  0.00000000000E+00  0.00000000000E+00  0.76288298005E+03  0.76288298006E+03  0.50400001928E-02 0.  1.
        1   -1    0    0  501    0  0.00000000000E+00  0.00000000000E+00 -0.10682878847E+04  0.10682878847E+04  0.50400001928E-02 0. -1.
    10030    2    1    2    0    0  0.00000000000E+00  0.00000000000E+00 -0.30540490468E+03  0.18311708648E+04  0.18055233536E+04 0.  0.
        1    1    3    3  502    0  0.61314352644E+03  0.27267406734E+03  0.45976530349E+03  0.81343731494E+03  0.50400001928E-02 0.  1.
       -1    1    3    3    0  502 -0.61314352644E+03 -0.27267406734E+03 -0.76517020817E+03  0.10177335499E+04  0.50400001928E-02 0. -1.
</event>
<event>
 5   0  0.3413839E-04  0.1796757E+04  0.7818609E-02  0.8708026E-01
       -1   -1    0    0    0  501  0.00000000000E+00  0.00000000000E+00  0.10092108578E+04  0.10092108578E+04  0.50400001928E-02 0.  1.
        1   -1    0    0  501    0  0.00000000000E+00  0.00000000000E+00 -0.79971810319E+03  0.79971810320E+03  0.50400001928E-02 0. -1.
    10030    2    1    2    0    0  0.00000000000E+00  0.00000000000E+00  0.20949275461E+03  0.18089289610E+04  0.17967572935E+04 0.  0.
        5    1    3    3  502    0  0.42392830971E+03 -0.64102473566E+03  0.57312279259E+03  0.95870733224E+03  0.46999998093E+01 0.  1.
       -5    1    3    3    0  502 -0.42392830971E+03  0.64102473566E+03 -0.36363003798E+03  0.85022162877E+03  0.46999998093E+01 0. -1.
</event>
<event>
 5   0  0.3470962E-04  0.1767835E+04  0.7818609E-02  0.8723594E-01
        1   -1    0    0  501    0  0.00000000000E+00  0.00000000000E+00  0.10060243584E+04  0.10060243584E+04  0.50400001928E-02 0. -1.
       -1   -1    0    0    0  501  0.00000000000E+00  0.00000000000E+00 -0.77663108952E+03  0.77663108954E+03  0.50400001928E-02 0.  1.
    10030    2    1    2    0    0  0.00000000000E+00  0.00000000000E+00  0.22939326890E+03  0.17826554480E+04  0.17678346004E+04 0.  0.
        4    1    3    3  502    0  0.10025038551E+03  0.28507345230E+03 -0.72292434583E+03  0.78354210844E+03  0.12699999809E+01 0.  1.
       -4    1    3    3    0  502 -0.10025038551E+03 -0.28507345230E+03  0.95231761473E+03  0.99911333953E+03  0.12699999809E+01 0. -1.
</event>
<event>
 5   0  0.3377273E-04  0.1829782E+04  0.7818609E-02  0.8690620E-01
        1   -1    0    0  501    0  0.00000000000E+00  0.00000000000E+00  0.56837153103E+03  0.56837153106E+03  0.50400001928E-02 0. -1.
       -1   -1    0    0    0  501  0.00000000000E+00  0.00000000000E+00 -0.14726724870E+04  0.14726724870E+04  0.50400001928E-02 0.  1.
    10030    2    1    2    0    0  0.00000000000E+00  0.00000000000E+00 -0.90430095595E+03  0.20410440180E+04  0.18297815347E+04 0.  0.
        2    1    3    3  502    0  0.89870519038E+02  0.71048187725E+03 -0.10872407495E+04  0.13019038580E+04  0.25500000920E-02 0.  1.
       -2    1    3    3    0  502 -0.89870519038E+02 -0.71048187725E+03  0.18293979358E+03  0.73914016003E+03  0.25500000920E-02 0. -1.
</event>
<event>
 5   0  0.6853162E-04  0.1799018E+04  0.7818609E-02  0.8706822E-01
       -2   -1    0    0    0  501  0.00000000000E+00  0.00000000000E+00  0.83666986730E+03  0.83666986730E+03  0.25500000920E-02 0. -1.
        2   -1    0    0  501    0  0.00000000000E+00  0.00000000000E+00 -0.96706723656E+03  0.96706723657E+03  0.25500000920E-02 0.  1.
    10030    2    1    2    0    0  0.00000000000E+00  0.00000000000E+00 -0.13039736926E+03  0.18037371039E+04  0.17990175280E+04 0.  0.
        2    1    3    3  502    0 -0.53307463862E+03  0.68803346083E+03  0.16245954837E+03  0.88541048018E+03  0.25500000920E-02 0.  1.
       -2    1    3    3    0  502  0.53307463862E+03 -0.68803346083E+03 -0.29285691763E+03  0.91832662369E+03  0.25500000920E-02 0. -1.
</event>
<event>
 5   0  0.6929121E-04  0.2107352E+04  0.7818609E-02  0.8558012E-01
       -2   -1    0    0    0  501  0.00000000000E+00  0.00000000000E+00  0.90061169809E+03  0.90061169809E+03  0.25500000920E-02 0. -1.
        2   -1    0    0  501    0  0.00000000000E+00  0.00000000000E+00 -0.12327542836E+04  0.12327542836E+04  0.25500000920E-02 0.  1.
    10030    2    1    2    0    0  0.00000000000E+00  0.00000000000E+00 -0.33214258556E+03  0.21333659817E+04  0.21073518251E+04 0.  0.
        3    1    3    3  502    0 -0.74206226794E+03  0.69349535837E+03 -0.44996253478E+03  0.11108818634E+04  0.10100000352E+00 0. -1.
       -3    1    3    3    0  502  0.74206226794E+03 -0.69349535837E+03  0.11781994922E+03  0.10224841183E+04  0.10100000352E+00 0.  1.
</event>
<event>
 5   0  0.6774451E-04  0.1802657E+04  0.7818609E-02  0.8704888E-01
        2   -1    0    0  501    0  0.00000000000E+00  0.00000000000E+00  0.10262134796E+04  0.10262134796E+04  0.25500000920E-02 0. -1.
       -2   -1    0    0    0  501  0.00000000000E+00  0.00000000000E+00 -0.79164136052E+03  0.79164136053E+03  0.25500000920E-02 0.  1.
    10030    2    1    2    0    0  0.00000000000E+00  0.00000000000E+00  0.23457211905E+03  0.18178548401E+04  0.18026569670E+04 0.  0.
        4    1    3    3  502    0 -0.43195627854E+03  0.15688616918E+03 -0.66461657966E+03  0.80803236786E+03  0.12699999809E+01 0.  1.
       -4    1    3    3    0  502  0.43195627854E+03 -0.15688616918E+03  0.89918869871E+03  0.10098224722E+04  0.12699999809E+01 0. -1.
</event>
<event>
 5   0  0.3413839E-04  0.1805058E+04  0.7818609E-02  0.8703614E-01
        1   -1    0    0  501    0  0.00000000000E+00  0.00000000000E+00  0.79031746157E+03  0.79031746159E+03  0.50400001928E-02 0. -1.
       -1   -1    0    0    0  501  0.00000000000E+00  0.00000000000E+00 -0.10306728007E+04  0.10306728007E+04  0.50400001928E-02 0.  1.
    10030    2    1    2    0    0  0.00000000000E+00  0.00000000000E+00 -0.24035533912E+03  0.18209902623E+04  0.18050581282E+04 0.  0.
        5    1    3    3  502    0  0.91946391373E+02  0.50805351828E+03  0.62660200099E+03  0.81192652005E+03  0.46999998093E+01 0. -1.
       -5    1    3    3    0  502 -0.91946391373E+02 -0.50805351828E+03 -0.86695734011E+03  0.10090637422E+04  0.46999998093E+01 0.  1.
</event>
<event>
 5   0  0.6771967E-04  0.1787511E+04  0.7818609E-02  0.8712969E-01
        2   -1    0    0  501    0  0.00000000000E+00  0.00000000000E+00  0.10948140693E+04  0.10948140693E+04  0.25500000920E-02 0. -1.
       -2   -1    0    0    0  501  0.00000000000E+00  0.00000000000E+00 -0.72962059487E+03  0.72962059487E+03  0.25500000920E-02 0.  1.
    10030    2    1    2    0    0  0.00000000000E+00  0.00000000000E+00  0.36519347442E+03  0.18244346642E+04  0.17875109986E+04 0.  0.
        1    1    3    3  502    0 -0.24345700525E+03 -0.70843708933E+03  0.68015443361E+03  0.10118124710E+04  0.50400001928E-02 0.  1.
       -1    1    3    3    0  502  0.24345700525E+03  0.70843708933E+03 -0.31496095919E+03  0.81262219314E+03  0.50400001928E-02 0. -1.
</event>
<event>
 5   0  0.6547153E-04  0.1352566E+04  0.7818609E-02  0.8988888E-01
        2   -1    0    0  501    0  0.00000000000E+00  0.00000000000E+00  0.17130388149E+04  0.17130388149E+04  0.25500000920E-02 0. -1.
       -2   -1    0    0    0  501  0.00000000000E+00  0.00000000000E+00 -0.26698666601E+03  0.26698666603E+03  0.25500000920E-02 0.  1.
    10030    2    1    2    0    0  0.00000000000E+00  0.00000000000E+00  0.14460521489E+04  0.19800254809E+04  0.13525657425E+04 0.  0.
        5    1    3    3  502    0 -0.41781163552E+03 -0.42404180691E+03  0.25330145833E+03  0.64696347314E+03  0.46999998093E+01 0.  1.
       -5    1    3    3    0  502  0.41781163552E+03  0.42404180691E+03  0.11927506905E+04  0.13330620078E+04  0.46999998093E+01 0. -1.
</event>
<event>
 5   0  0.3470962E-04  0.1992423E+04  0.7818609E-02  0.8610172E-01
        1   -1    0    0  501    0  0.00000000000E+00  0.00000000000E+00  0.14565150965E+04  0.14565150965E+04  0.50400001928E-02 0.  1.
       -1   -1    0    0    0  501  0.00000000000E+00  0.00000000000E+00 -0.68137774648E+03  0.68137774650E+03  0.50400001928E-02 0. -1.
    10030    2    1    2    0    0  0.00000000000E+00  0.00000000000E+00  0.77513735004E+03  0.21378928430E+04  0.19924226200E+04 0.  0.
        4    1    3    3  502    0  0.30961880973E+03  0.73241872427E+03 -0.25635849914E+03  0.83547728155E+03  0.12699999809E+01 0. -1.
       -4    1    3    3    0  502 -0.30961880973E+03 -0.73241872427E+03  0.10314958492E+04  0.13024155615E+04  0.12699999809E+01 0.  1.
</event>
<event>
 5   0  0.3377273E-04  0.1788540E+04  0.7818609E-02  0.8712417E-01
        1   -1    0    0  501    0  0.00000000000E+00  0.00000000000E+00  0.10732849874E+04  0.10732849875E+04  0.50400001928E-02 0.  1.
       -1   -1    0    0    0  501  0.00000000000E+00  0.00000000000E+00 -0.74511356018E+03  0.74511356020E+03  0.50400001928E-02 0. -1.
    10030    2    1    2    0    0  0.00000000000E+00  0.00000000000E+00  0.32817142726E+03  0.18183985477E+04  0.17885404084E+04 0.  0.
        2    1    3    3  502    0  0.69157345696E+03  0.34192322853E+03  0.62388990299E+03  0.99218141065E+03  0.25500000920E-02 0.  1.
       -2    1    3    3    0  502 -0.69157345696E+03 -0.34192322853E+03 -0.29571847573E+03  0.82621713700E+03  0.25500000920E-02 0. -1.
</event>
<event>
 5   0  0.3377273E-04  0.1868163E+04  0.7818609E-02  0.8670868E-01
        1   -1    0    0  501    0  0.00000000000E+00  0.00000000000E+00  0.12515463046E+04  0.12515463046E+04  0.50400001928E-02 0.  1.
       -1   -1    0    0    0  501  0.00000000000E+00  0.00000000000E+00 -0.69714412254E+03  0.69714412256E+03  0.50400001928E-02 0. -1.
    10030    2    1    2    0    0  0.00000000000E+00  0.00000000000E+00  0.55440218205E+03  0.19486904272E+04  0.18681628948E+04 0.  0.
        2    1    3    3  502    0  0.14622698385E+02  0.37724942153E+03 -0.61401446391E+03  0.72079450001E+03  0.25500000920E-02 0. -1.
       -2    1    3    3    0  502 -0.14622698385E+02 -0.37724942153E+03  0.11684166460E+04  0.12278959272E+04  0.25500000920E-02 0.  1.
</event>
<event>
 5   0  0.3308275E-04  0.1828057E+04  0.7818609E-02  0.8691520E-01
        1   -1    0    0  501    0  0.00000000000E+00  0.00000000000E+00  0.59643946429E+03  0.59643946431E+03  0.50400001928E-02 0.  1.
       -1   -1    0    0    0  501  0.00000000000E+00  0.00000000000E+00 -0.14007259863E+04  0.14007259863E+04  0.50400001928E-02 0. -1.
    10030    2    1    2    0    0  0.00000000000E+00  0.00000000000E+00 -0.80428652200E+03  0.19971654506E+04  0.18280571730E+04 0.  0.
        3    1    3    3  502    0 -0.82797527364E+03  0.27153662345E+03 -0.70366939350E+03  0.11200115255E+04  0.10100000352E+00 0. -1.
       -3    1    3    3    0  502  0.82797527364E+03 -0.27153662345E+03 -0.10061712849E+03  0.87715392514E+03  0.10100000352E+00 0.  1.
</event>
<event>
 5   0  0.3377273E-04  0.1875509E+04  0.7818609E-02  0.8667144E-01
       -1   -1    0    0    0  501  0.00000000000E+00  0.00000000000E+00  0.57523780692E+03  0.57523780694E+03  0.50400001928E-02 0.  1.
        1   -1    0    0  501    0  0.00000000000E+00  0.00000000000E+00 -0.15287302679E+04  0.15287302680E+04  0.50400001928E-02 0. -1.
    10030    2    1    2    0    0  0.00000000000E+00  0.00000000000E+00 -0.95349246102E+03  0.21039680749E+04  0.18755089408E+04 0.  0.
        2    1    3    3  502    0  0.49817414380E+03 -0.77648273119E+03 -0.66539928243E+03  0.11374792809E+04  0.25500000920E-02 0. -1.
       -2    1    3    3    0  502 -0.49817414380E+03  0.77648273119E+03 -0.28809317860E+03  0.96648879401E+03  0.25500000920E-02 0.  1.
</event>
<event>
 5   0  0.6853162E-04  0.1781073E+04  0.7818609E-02  0.8716430E-01
        2   -1    0    0  501    0  0.00000000000E+00  0.00000000000E+00  0.13949115183E+04  0.13949115183E+04  0.25500000920E-02 0. -1.
       -2   -1    0    0    0  501  0.00000000000E+00  0.00000000000E+00 -0.56853463307E+03  0.56853463308E+03  0.25500000920E-02 0.  1.
    10030    2    1    2    0    0  0.00000000000E+00  0.00000000000E+00  0.82637688518E+03  0.19634461513E+04  0.17810732811E+04 0.  0.
        2    1    3    3  502    0  0.83928911821E+02  0.53332591068E+03  0.11939260730E+04  0.13103205932E+04  0.25500000920E-02 0. -1.
       -2    1    3    3    0  502 -0.83928911821E+02 -0.53332591068E+03 -0.36754918778E+03  0.65312555814E+03  0.25500000920E-02 0.  1.
</event>
<event>
 5   0  0.6853162E-04  0.1712308E+04  0.7818609E-02  0.8754376E-01
        2   -1    0    0  501    0  0.00000000000E+00  0.00000000000E+00  0.88551411098E+03  0.88551411098E+03  0.25500000920E-02 0. -1.
       -2   -1    0    0    0  501  0.00000000000E+00  0.00000000000E+00 -0.82776724071E+03  0.82776724071E+03  0.25500000920E-02 0.  1.
    10030    2    1    2    0    0  0.00000000000E+00  0.00000000000E+00  0.57746870274E+02  0.17132813517E+04  0.17123078838E+04 0.  0.
        2    1    3    3  502    0 -0.68623753299E+03 -0.12190221397E+03 -0.46861891956E+03  0.83987248629E+03  0.25500000920E-02 0.  1.
       -2    1    3    3    0  502  0.68623753299E+03  0.12190221397E+03  0.52636578983E+03  0.87340886540E+03  0.25500000920E-02 0. -1.
</event>
<event>
 5   0  0.6929121E-04  0.1996595E+04  0.7818609E-02  0.8608214E-01
        2   -1    0    0  501    0  0.00000000000E+00  0.00000000000E+00  0.49292388125E+03  0.49292388125E+03  0.25500000920E-02 0. -1.
       -2   -1    0    0    0  501  0.00000000000E+00  0.00000000000E+00 -0.20218085031E+04  0.20218085031E+04  0.25500000920E-02 0.  1.
    10030    2    1    2    0    0  0.00000000000E+00  0.00000000000E+00 -0.15288846218E+04  0.25147323844E+04  0.19965947956E+04 0.  0.
        3    1    3    3  502    0 -0.24674578274E+02 -0.97707589362E+02  0.48650101451E+03  0.49682879863E+03  0.10100000352E+00 0. -1.
       -3    1    3    3    0  502  0.24674578274E+02  0.97707589362E+02 -0.20153856364E+04  0.20179035857E+04  0.10100000352E+00 0.  1.
</event>
<event>
 5   0  0.3404261E-04  0.1814834E+04  0.7818609E-02  0.8698451E-01
        1   -1    0    0  501    0  0.00000000000E+00  0.00000000000E+00  0.13898050639E+04  0.13898050639E+04  0.50400001928E-02 0.  1.
       -1   -1    0    0    0  501  0.00000000000E+00  0.00000000000E+00 -0.59246091835E+03  0.59246091837E+03  0.50400001928E-02 0. -1.
    10030    2    1    2    0    0  0.00000000000E+00  0.00000000000E+00  0.79734414559E+03  0.19822659823E+04  0.18148335291E+04 0.  0.
        1    1    3    3  502    0  0.24341862620E+03 -0.87197593198E+03  0.33124754984E+03  0.96401223687E+03  0.50400001928E-02 0.  1.
       -1    1    3    3    0  502 -0.24341862620E+03  0.87197593198E+03  0.46609659574E+03  0.10182537455E+04  0.50400001928E-02 0. -1.
</event>
<event>
 5   0  0.3377273E-04  0.1818064E+04  0.7818609E-02  0.8696752E-01
       -1   -1    0    0    0  501  0.00000000000E+00  0.00000000000E+00  0.10457005689E+04  0.10457005689E+04  0.50400001928E-02 0.  1.
        1   -1    0    0  501    0  0.00000000000E+00  0.00000000000E+00 -0.79022528803E+03  0.79022528805E+03  0.50400001928E-02 0. -1.
    10030    2    1    2    0    0  0.00000000000E+00  0.00000000000E+00  0.25547528089E+03  0.18359258570E+04  0.18180638419E+04 0.  0.
        2    1    3    3  502    0 -0.21783221071E+03  0.49547387282E+03  0.86525116970E+03  0.10205904259E+04  0.25500000920E-02 0.  1.
       -2    1    3    3    0  502  0.21783221071E+03 -0.49547387282E+03 -0.60977588881E+03  0.81533543113E+03  0.25500000920E-02 0. -1.
</event>
<event>
 5   0  0.3377273E-04  0.1791286E+04  0.7818609E-02  0.8710947E-01
        1   -1    0    0  501    0  0.00000000000E+00  0.00000000000E+00  0.62262844615E+03  0.62262844617E+03  0.50400001928E-02 0. -1.
       -1   -1    0    0    0  501  0.00000000000E+00  0.00000000000E+00 -0.12883711046E+04  0.12883711047E+04  0.50400001928E-02 0.  1.
    10030    2    1    2    0    0  0.00000000000E+00  0.00000000000E+00 -0.66574265849E+03  0.19109995508E+04  0.17912861290E+04 0.  0.
        2    1    3    3  502    0 -0.33365669501E+03  0.17099893093E+02  0.55366284839E+03  0.64665427097E+03  0.25500000920E-02 0. -1.
       -2    1    3    3    0  502  0.33365669501E+03 -0.17099893093E+02 -0.12194055069E+04  0.12643452799E+04  0.25500000920E-02 0.  1.
</event>
<event>
 5   0  0.6929121E-04  0.1792288E+04  0.7818609E-02  0.8710412E-01
        2   -1    0    0  501    0  0.00000000000E+00  0.00000000000E+00  0.43738026298E+03  0.43738026299E+03  0.25500000920E-02 0. -1.
       -2   -1    0    0    0  501  0.00000000000E+00  0.00000000000E+00 -0.18360998270E+04  0.18360998270E+04  0.25500000920E-02 0.  1.
    10030    2    1    2    0    0  0.00000000000E+00  0.00000000000E+00 -0.13987195640E+04  0.22734800900E+04  0.17922877282E+04 0.  0.
        3    1    3    3  502    0 -0.30102765338E+03 -0.59748066140E+03  0.56927417282E+02  0.67144733963E+03  0.10100000352E+00 0. -1.
       -3    1    3    3    0  502  0.30102765338E+03  0.59748066140E+03 -0.14556469813E+04  0.16020327503E+04  0.10100000352E+00 0.  1.
</event>
<event>
 5   0  0.6853162E-04  0.1780109E+04  0.7818609E-02  0.8716949E-01
        2   -1    0    0  501    0  0.00000000000E+00  0.00000000000E+00  0.12681885539E+04  0.12681885539E+04  0.25500000920E-02 0.  1.
       -2   -1    0    0    0  501  0.00000000000E+00  0.00000000000E+00 -0.62466816908E+03  0.62466816909E+03  0.25500000920E-02 0. -1.
    10030    2    1    2    0    0  0.00000000000E+00  0.00000000000E+00  0.64352038484E+03  0.18928567230E+04  0.17801090102E+04 0.  0.
        2    1    3    3  502    0 -0.34380484228E+01  0.92402463631E+02 -0.61954700080E+03  0.62640922859E+03  0.25500000920E-02 0. -1.
       -2    1    3    3    0  502  0.34380484228E+01 -0.92402463631E+02  0.12630673856E+04  0.12664474944E+04  0.25500000920E-02 0.  1.
</event>
<event>
 5   0  0.6853162E-04  0.1800268E+04  0.7818609E-02  0.8706157E-01
       -2   -1    0    0    0  501  0.00000000000E+00  0.00000000000E+00  0.10809055948E+04  0.10809055948E+04  0.25500000920E-02 0. -1.
        2   -1    0    0  501    0  0.00000000000E+00  0.00000000000E+00 -0.74959475518E+03  0.74959475518E+03  0.25500000920E-02 0.  1.
    10030    2    1    2    0    0  0.00000000000E+00  0.00000000000E+00  0.33131083957E+03  0.18305003499E+04  0.18002679408E+04 0.  0.
        2    1    3    3  502    0 -0.39126763514E+03  0.20509499449E+03  0.96310069311E+03  0.10595835333E+04  0.25500000920E-02 0. -1.
       -2    1    3    3    0  502  0.39126763514E+03 -0.20509499449E+03 -0.63178985353E+03  0.77091681659E+03  0.25500000920E-02 0.  1.
</event>
<event>
 5   0  0.3470962E-04  0.1846635E+04  0.7818609E-02  0.8681885E-01
       -1   -1    0    0    0  501  0.00000000000E+00  0.00000000000E+00  0.10033555594E+04  0.10033555594E+04  0.50400001928E-02 0. -1.
        1   -1    0    0  501    0  0.00000000000E+00  0.00000000000E+00 -0.84966377090E+03  0.84966377091E+03  0.50400001928E-02 0.  1.
    10030    2    1    2    0    0  0.00000000000E+00  0.00000000000E+00  0.15369178853E+03  0.18530193303E+04  0.18466346343E+04 0.  0.
        4    1    3    3  502    0 -0.46138657742E+03  0.78482212269E+03 -0.77601556568E+02  0.91369959646E+03  0.12699999809E+01 0.  1.
       -4    1    3    3    0  502  0.46138657742E+03 -0.78482212269E+03  0.23129334509E+03  0.93931973389E+03  0.12699999809E+01 0. -1.
</event>
<event>
 5   0  0.2467375E-04  0.1793333E+04  0.7818609E-02  0.8709853E-01
       -3   -1    0    0    0  501  0.00000000000E+00  0.00000000000E+00  0.43856411341E+03  0.43856412504E+03  0.10100000352E+00 0.  1.
        3   -1    0    0  501    0  0.00000000000E+00  0.00000000000E+00 -0.18332801706E+04  0.18332801734E+04  0.10100000352E+00 0. -1.
    10030    2    1    2    0    0  0.00000000000E+00  0.00000000000E+00 -0.13947160572E+04  0.22718442984E+04  0.17933331080E+04 0.  0.
        2    1    3    3  502    0  0.13333714522E+03 -0.14714130559E+02 -0.18204961867E+04  0.18254319121E+04  0.25500000920E-02 0. -1.
       -2    1    3    3    0  502 -0.13333714522E+03  0.14714130559E+02  0.42578012953E+03  0.44641238630E+03  0.25500000920E-02 0.  1.
</event>
<event>
 5   0  0.6771967E-04  0.1892684E+04  0.7818609E-02  0.8658506E-01
        2   -1    0    0  501    0  0.00000000000E+00  0.00000000000E+00  0.96611662640E+03  0.96611662640E+03  0.25500000920E-02 0.  1.
       -2   -1    0    0    0  501  0.00000000000E+00  0.00000000000E+00 -0.92697257311E+03  0.92697257311E+03  0.25500000920E-02 0. -1.
    10030    2    1    2    0    0  0.00000000000E+00  0.00000000000E+00  0.39144053292E+02  0.18930891995E+04  0.18926844588E+04 0.  0.
        1    1    3    3  502    0 -0.39585609331E+03 -0.81545950017E+03  0.29145247149E+03  0.95216636477E+03  0.50400001928E-02 0. -1.
       -1    1    3    3    0  502  0.39585609331E+03  0.81545950017E+03 -0.25230841819E+03  0.94092283475E+03  0.50400001928E-02 0.  1.
</event>
<event>
 5   0  0.6929121E-04  0.1854686E+04  0.7818609E-02  0.8677747E-01
        2   -1    0    0  501    0  0.00000000000E+00  0.00000000000E+00  0.77414933772E+03  0.77414933773E+03  0.25500000920E-02 0.  1.
       -2   -1    0    0    0  501  0.00000000000E+00  0.00000000000E+00 -0.11108515218E+04  0.11108515218E+04  0.25500000920E-02 0. -1.
    10030    2    1    2    0    0  0.00000000000E+00  0.00000000000E+00 -0.33670218407E+03  0.18850008595E+04  0.18546859248E+04 0.  0.
        3    1    3    3  502    0  0.46615831360E+03 -0.59839597222E+03  0.37383222051E+03  0.84565468851E+03  0.10100000352E+00 0.  1.
       -3    1    3    3    0  502 -0.46615831360E+03  0.59839597222E+03 -0.71053440458E+03  0.10393461710E+04  0.10100000352E+00 0. -1.
</event>
<event>
 5   0  0.3377273E-04  0.1857311E+04  0.7818609E-02  0.8676402E-01
       -1   -1    0    0    0  501  0.00000000000E+00  0.00000000000E+00  0.85083661489E+03  0.85083661490E+03  0.50400001928E-02 0.  1.
        1   -1    0    0  501    0  0.00000000000E+00  0.00000000000E+00 -0.10135920987E+04  0.10135920987E+04  0.50400001928E-02 0. -1.
    10030    2    1    2    0    0  0.00000000000E+00  0.00000000000E+00 -0.16275548377E+03  0.18644287136E+04  0.18573112503E+04 0.  0.
        2    1    3    3  502    0  0.77294788079E+02  0.57099685724E+02  0.84583196179E+03  0.85127349658E+03  0.25500000920E-02 0.  1.
       -2    1    3    3    0  502 -0.77294788079E+02 -0.57099685724E+02 -0.10085874456E+04  0.10131552170E+04  0.25500000920E-02 0. -1.
</event>
<event>
 5   0  0.6929121E-04  0.1764533E+04  0.7818609E-02  0.8725391E-01
        2   -1    0    0  501    0  0.00000000000E+00  0.00000000000E+00  0.10277387911E+04  0.10277387911E+04  0.25500000920E-02 0. -1.
       -2   -1    0    0    0  501  0.00000000000E+00  0.00000000000E+00 -0.75738559419E+03  0.75738559419E+03  0.25500000920E-02 0.  1.
    10030    2    1    2    0    0  0.00000000000E+00  0.00000000000E+00  0.27035319691E+03  0.17851243853E+04  0.17645334284E+04 0.  0.
        3    1    3    3  502    0 -0.20200054305E+03  0.73053907345E+02 -0.73052716628E+03  0.76145324456E+03  0.10100000352E+00 0.  1.
       -3    1    3    3    0  502  0.20200054305E+03 -0.73053907345E+02  0.10008803632E+04  0.10236711407E+04  0.10100000352E+00 0. -1.
</event>
<event>
 5   0  0.6853162E-04  0.1784648E+04  0.7818609E-02  0.8714506E-01
        2   -1    0    0  501    0  0.00000000000E+00  0.00000000000E+00  0.15986596263E+04  0.15986596263E+04  0.25500000920E-02 0.  1.
       -2   -1    0    0    0  501  0.00000000000E+00  0.00000000000E+00 -0.49806863590E+03  0.49806863591E+03  0.25500000920E-02 0. -1.
    10030    2    1    2    0    0  0.00000000000E+00  0.00000000000E+00  0.11005909904E+04  0.20967282623E+04  0.17846481103E+04 0.  0.
        2    1    3    3  502    0  0.89014561640E+03  0.13374589358E+02  0.47879119599E+03  0.10108308995E+04  0.25500000920E-02 0.  1.
       -2    1    3    3    0  502 -0.89014561640E+03 -0.13374589358E+02  0.62179979445E+03  0.10858973627E+04  0.25500000920E-02 0. -1.
</event>
<event>
 5   0  0.6547153E-04  0.1779536E+04  0.7818609E-02  0.8717258E-01
        2   -1    0    0  501    0  0.00000000000E+00  0.00000000000E+00  0.19732600606E+04  0.19732600606E+04  0.25500000920E-02 0. -1.
       -2   -1    0    0    0  501  0.00000000000E+00  0.00000000000E+00 -0.40120761818E+03  0.40120761818E+03  0.25500000920E-02 0.  1.
    10030    2    1    2    0    0  0.00000000000E+00  0.00000000000E+00  0.15720524424E+04  0.23744676788E+04  0.17795358597E+04 0.  0.
        5    1    3    3  502    0 -0.13314977943E+03  0.79152989244E+03  0.27371663227E+03  0.84805148380E+03  0.46999998093E+01 0. -1.
       -5    1    3    3    0  502  0.13314977943E+03 -0.79152989244E+03  0.12983358101E+04  0.15264161950E+04  0.46999998093E+01 0.  1.
</event>
<event>
 5   0  0.3413839E-04  0.1556530E+04  0.7818609E-02  0.8847707E-01
        1   -1    0    0  501    0  0.00000000000E+00  0.00000000000E+00  0.66591030581E+03  0.66591030583E+03  0.50400001928E-02 0.  1.
       -1   -1    0    0    0  501  0.00000000000E+00  0.00000000000E+00 -0.90957663976E+03  0.90957663977E+03  0.50400001928E-02 0. -1.
    10030    2    1    2    0    0  0.00000000000E+00  0.00000000000E+00 -0.24366633394E+03  0.15754869456E+04  0.15565300619E+04 0.  0.
        5    1    3    3  502    0 -0.46807908666E+03 -0.49972416594E+03  0.25260750956E+03  0.72983211582E+03  0.46999998093E+01 0.  1.
       -5    1    3    3    0  502  0.46807908666E+03  0.49972416594E+03 -0.49627384350E+03  0.84565482978E+03  0.46999998093E+01 0. -1.
</event>
<event>
 5   0  0.3413839E-04  0.9497992E+03  0.7818609E-02  0.9365385E-01
       -1   -1    0    0    0  501  0.00000000000E+00  0.00000000000E+00  0.27224184902E+03  0.27224184907E+03  0.50400001928E-02 0. -1.
        1   -1    0    0  501    0  0.00000000000E+00  0.00000000000E+00 -0.82841647338E+03  0.82841647340E+03  0.50400001928E-02 0.  1.
    10030    2    1    2    0    0  0.00000000000E+00  0.00000000000E+00 -0.55617462436E+03  0.11006583225E+04  0.94979920511E+03 0.  0.
        5    1    3    3  502    0 -0.38212484227E+03  0.21283458478E+03 -0.63814215045E+02  0.44205463418E+03  0.46999998093E+01 0. -1.
       -5    1    3    3    0  502  0.38212484227E+03 -0.21283458478E+03 -0.49236040931E+03  0.65860368828E+03  0.46999998093E+01 0.  1.
</event>
<event>
 5   0  0.6771967E-04  0.1884587E+04  0.7818609E-02  0.8662567E-01
       -2   -1    0    0    0  501  0.00000000000E+00  0.00000000000E+00  0.11493701863E+04  0.11493701863E+04  0.25500000920E-02 0.  1.
        2   -1    0    0  501    0  0.00000000000E+00  0.00000000000E+00 -0.77252486475E+03  0.77252486476E+03  0.25500000920E-02 0. -1.
    10030    2    1    2    0    0  0.00000000000E+00  0.00000000000E+00  0.37684532157E+03  0.19218950511E+04  0.18845870081E+04 0.  0.
        1    1    3    3  502    0 -0.49707765376E+03  0.10324740734E+03  0.99797069508E+03  0.11196837631E+04  0.50400001928E-02 0.  1.
       -1    1    3    3    0  502  0.49707765376E+03 -0.10324740734E+03 -0.62112537351E+03  0.80221128802E+03  0.50400001928E-02 0. -1.
</event>
<event>
 5   0  0.3377273E-04  0.1957626E+04  0.7818609E-02  0.8626692E-01
       -1   -1    0    0    0  501  0.00000000000E+00  0.00000000000E+00  0.86281903374E+03  0.86281903375E+03  0.50400001928E-02 0. -1.
        1   -1    0    0  501    0  0.00000000000E+00  0.00000000000E+00 -0.11104004377E+04  0.11104004377E+04  0.50400001928E-02 0.  1.
    10030    2    1    2    0    0  0.00000000000E+00  0.00000000000E+00 -0.24758140399E+03  0.19732194715E+04  0.19576257382E+04 0.  0.
        2    1    3    3  502    0  0.61015320292E+03  0.40385069280E+03  0.53153606078E+03  0.90438536976E+03  0.25500000920E-02 0. -1.
       -2    1    3    3    0  502 -0.61015320292E+03 -0.40385069280E+03 -0.77911746476E+03  0.10688341017E+04  0.25500000920E-02 0.  1.
</event>
<event>
 5   0  0.6853162E-04  0.1849097E+04  0.7818609E-02  0.8680618E-01
       -2   -1    0    0    0  501  0.00000000000E+00  0.00000000000E+00  0.66577432906E+03  0.66577432906E+03  0.25500000920E-02 0. -1.
        2   -1    0    0  501    0  0.00000000000E+00  0.00000000000E+00 -0.12839029252E+04  0.12839029252E+04  0.25500000920E-02 0.  1.
    10030    2    1    2    0    0  0.00000000000E+00  0.00000000000E+00 -0.61812859612E+03  0.19496772543E+04  0.18490966536E+04 0.  0.
        2    1    3    3  502    0 -0.36909319563E+03  0.38895583753E+03 -0.11032082582E+04  0.12266152174E+04  0.25500000920E-02 0.  1.
       -2    1    3    3    0  502  0.36909319563E+03 -0.38895583753E+03  0.48507966205E+03  0.72306203686E+03  0.25500000920E-02 0. -1.
</event>
<event>
 5   0  0.3404261E-04  0.1923719E+04  0.7818609E-02  0.8643139E-01
        1   -1    0    0  501    0  0.00000000000E+00  0.00000000000E+00  0.83367428486E+03  0.83367428487E+03  0.50400001928E-02 0.  1.
       -1   -1    0    0    0  501  0.00000000000E+00  0.00000000000E+00 -0.11097545812E+04  0.11097545812E+04  0.50400001928E-02 0. -1.
    10030    2    1    2    0    0  0.00000000000E+00  0.00000000000E+00 -0.27608029631E+03  0.19434288661E+04  0.19237191654E+04 0.  0.
        1    1    3    3  502    0  0.59149292907E+03  0.64442187920E+03  0.26609650518E+03  0.91430344724E+03  0.50400001928E-02 0. -1.
       -1    1    3    3    0  502 -0.59149292907E+03 -0.64442187920E+03 -0.54217680150E+03  0.10291254188E+04  0.50400001928E-02 0.  1.
</event>
<event>
 5   0  0.6774451E-04  0.1807166E+04  0.7818609E-02  0.8702498E-01
       -2   -1    0    0    0  501  0.00000000000E+00  0.00000000000E+00  0.94161518324E+03  0.94161518324E+03  0.25500000920E-02 0.  1.
        2   -1    0    0  501    0  0.00000000000E+00  0.00000000000E+00 -0.86708717601E+03  0.86708717602E+03  0.25500000920E-02 0. -1.
    10030    2    1    2    0    0  0.00000000000E+00  0.00000000000E+00  0.74528007223E+02  0.18087023593E+04  0.18071662349E+04 0.  0.
        4    1    3    3  502    0 -0.22151848035E+03  0.16458781846E+03  0.89840297278E+03  0.93983461392E+03  0.12699999809E+01 0.  1.
       -4    1    3    3    0  502  0.22151848035E+03 -0.16458781846E+03 -0.82387496556E+03  0.86886774534E+03  0.12699999809E+01 0. -1.
</event>
<event>
 5   0  0.3470962E-04  0.1795086E+04  0.7818609E-02  0.8708917E-01
       -1   -1    0    0    0  501  0.00000000000E+00  0.00000000000E+00  0.16669943554E+04  0.16669943554E+04  0.50400001928E-02 0.  1.
        1   -1    0    0  501    0  0.00000000000E+00  0.00000000000E+00 -0.48325519354E+03  0.48325519356E+03  0.50400001928E-02 0. -1.
    10030    2    1    2    0    0  0.00000000000E+00  0.00000000000E+00  0.11837391618E+04  0.21502495489E+04  0.17950862708E+04 0.  0.
        4    1    3    3  502    0  0.71527708020E+03  0.28614154501E+03  0.11435115110E+04  0.13788105286E+04  0.12699999809E+01 0.  1.
       -4    1    3    3    0  502 -0.71527708020E+03 -0.28614154501E+03  0.40227650836E+02  0.77143902029E+03  0.12699999809E+01 0. -1.
</event>
<event>
 5   0  0.6547153E-04  0.1814751E+04  0.7818609E-02  0.8698494E-01
       -2   -1    0    0    0  501  0.00000000000E+00  0.00000000000E+00  0.64202926464E+03  0.64202926465E+03  0.25500000920E-02 0.  1.
        2   -1    0    0  501    0  0.00000000000E+00  0.00000000000E+00 -0.12823880360E+04  0.12823880360E+04  0.25500000920E-02 0. -1.
    10030    2    1    2    0    0  0.00000000000E+00  0.00000000000E+00 -0.64035877135E+03  0.19244173006E+04  0.18147513854E+04 0.  0.
        5    1    3    3  502    0  0.51043334560E+03 -0.61446263988E+03  0.13617788857E+03  0.81035365331E+03  0.46999998093E+01 0.  1.
       -5    1    3    3    0  502 -0.51043334560E+03  0.61446263988E+03 -0.77653665992E+03  0.11140636473E+04  0.46999998093E+01 0. -1.
</event>
<event>
 5   0  0.3470962E-04  0.1775148E+04  0.7818609E-02  0.8719628E-01
       -1   -1    0    0    0  501  0.00000000000E+00  0.00000000000E+00  0.60535540139E+03  0.60535540141E+03  0.50400001928E-02 0.  1.
        1   -1    0    0  501    0  0.00000000000E+00  0.00000000000E+00 -0.13013632722E+04  0.13013632722E+04  0.50400001928E-02 0. -1.
    10030    2    1    2    0    0  0.00000000000E+00  0.00000000000E+00 -0.69600787080E+03  0.19067186736E+04  0.17751476401E+04 0.  0.
        4    1    3    3  502    0  0.46426230342E+03  0.32747091342E+03  0.38445421158E+03  0.68599077196E+03  0.12699999809E+01 0.  1.
       -4    1    3    3    0  502 -0.46426230342E+03 -0.32747091342E+03 -0.10804620824E+04  0.12207279017E+04  0.12699999809E+01 0. -1.
</event>
<event>
 5   0  0.3413839E-04  0.1734101E+04  0.7818609E-02  0.8742151E-01
       -1   -1    0    0    0  501  0.00000000000E+00  0.00000000000E+00  0.46313623115E+03  0.46313623118E+03  0.50400001928E-02 0.  1.
        1   -1    0    0  501    0  0.00000000000E+00  0.00000000000E+00 -0.16232307567E+04  0.16232307567E+04  0.50400001928E-02 0. -1.
    10030    2    1    2    0    0  0.00000000000E+00  0.00000000000E+00 -0.11600945255E+04  0.20863669879E+04  0.17341014676E+04 0.  0.
        5    1    3    3  502    0 -0.14723843570E+03 -0.60851550982E+03 -0.13017153204E+04  0.14444566965E+04  0.46999998093E+01 0. -1.
       -5    1    3    3    0  502  0.14723843570E+03  0.60851550982E+03  0.14162079488E+03  0.64191029138E+03  0.46999998093E+01 0.  1.
</event>
<event>
 5   0  0.6771967E-04  0.1788324E+04  0.7818609E-02  0.8712533E-01
       -2   -1    0    0    0  501  0.00000000000E+00  0.00000000000E+00  0.12450764438E+04  0.12450764438E+04  0.25500000920E-02 0. -1.
        2   -1    0    0  501    0  0.00000000000E+00  0.00000000000E+00 -0.64214972895E+03  0.64214972896E+03  0.25500000920E-02 0.  1.
    10030    2    1    2    0    0  0.00000000000E+00  0.00000000000E+00  0.60292671483E+03  0.18872261727E+04  0.17883237972E+04 0.  0.
        1    1    3    3  502    0  0.24685264398E+03  0.50378950387E+03  0.10362353013E+04  0.11783563517E+04  0.50400001928E-02 0. -1.
       -1    1    3    3    0  502 -0.24685264398E+03 -0.50378950387E+03 -0.43330858643E+03  0.70886982102E+03  0.50400001928E-02 0.  1.
</event>
<event>
 5   0  0.3308275E-04  0.1823953E+04  0.7818609E-02  0.8693664E-01
        1   -1    0    0  501    0  0.00000000000E+00  0.00000000000E+00  0.19184789361E+04  0.19184789361E+04  0.50400001928E-02 0.  1.
       -1   -1    0    0    0  501  0.00000000000E+00  0.00000000000E+00 -0.43352121595E+03  0.43352121598E+03  0.50400001928E-02 0. -1.
    10030    2    1    2    0    0  0.00000000000E+00  0.00000000000E+00  0.14849577201E+04  0.23520001521E+04  0.18239532025E+04 0.  0.
        3    1    3    3  502    0 -0.13521339153E+02  0.90482505995E+03  0.88842742655E+03  0.12681460950E+04  0.10100000352E+00 0. -1.
       -3    1    3    3    0  502  0.13521339153E+02 -0.90482505995E+03  0.59653029359E+03  0.10838540571E+04  0.10100000352E+00 0.  1.
</event>
<event>
 5   0  0.6771967E-04  0.1826380E+04  0.7818609E-02  0.8692396E-01
        2   -1    0    0  501    0  0.00000000000E+00  0.00000000000E+00  0.65996820937E+03  0.65996820937E+03  0.25500000920E-02 0. -1.
       -2   -1    0    0    0  501  0.00000000000E+00  0.00000000000E+00 -0.12635693600E+04  0.12635693600E+04  0.25500000920E-02 0.  1.
    10030    2    1    2    0    0  0.00000000000E+00  0.00000000000E+00 -0.60360115066E+03  0.19235375694E+04  0.18263795969E+04 0.  0.
        1    1    3    3  502    0 -0.60258892881E+03  0.34399761927E+02  0.41994210036E+03  0.73528778612E+03  0.50400001928E-02 0. -1.
       -1    1    3    3    0  502  0.60258892881E+03 -0.34399761927E+02 -0.10235432510E+04  0.11882497833E+04  0.50400001928E-02 0.  1.
</event>
<event>
 5   0  0.3308275E-04  0.1766336E+04  0.7818609E-02  0.8724410E-01
       -1   -1    0    0    0  501  0.00000000000E+00  0.00000000000E+00  0.81021997212E+03  0.81021997214E+03  0.50400001928E-02 0.  1.
        1   -1    0    0  501    0  0.00000000000E+00  0.00000000000E+00 -0.96268336581E+03  0.96268336582E+03  0.50400001928E-02 0. -1.
    10030    2    1    2    0    0  0.00000000000E+00  0.00000000000E+00 -0.15246339368E+03  0.17729033380E+04  0.17663355172E+04 0.  0.
        3    1    3    3  502    0 -0.68714762263E+03 -0.23745098813E+03 -0.57952458607E+03  0.92973307089E+03  0.10100000352E+00 0. -1.
       -3    1    3    3    0  502  0.68714762263E+03  0.23745098813E+03  0.42706119238E+03  0.84317026708E+03  0.10100000352E+00 0.  1.
</event>
<event>
 5   0  0.3413839E-04  0.1814555E+04  0.7818609E-02  0.8698597E-01
        1   -1    0    0  501    0  0.00000000000E+00  0.00000000000E+00  0.53711646402E+03  0.53711646405E+03  0.50400001928E-02 0. -1.
       -1   -1    0    0    0  501  0.00000000000E+00  0.00000000000E+00 -0.15325401507E+04  0.15325401507E+04  0.50400001928E-02 0.  1.
    10030    2    1    2    0    0  0.00000000000E+00  0.00000000000E+00 -0.99542368664E+03  0.20696566147E+04  0.18145550934E+04 0.  0.
        5    1    3    3  502    0 -0.31047182779E+03 -0.85244447058E+03 -0.48776023866E+03  0.10300419757E+04  0.46999998093E+01 0. -1.
       -5    1    3    3    0  502  0.31047182779E+03  0.85244447058E+03 -0.50766344798E+03  0.10396146390E+04  0.46999998093E+01 0.  1.
</event>
<event>
 5   0  0.6774451E-04  0.1741520E+04  0.7818609E-02  0.8738032E-01
       -2   -1    0    0    0  501  0.00000000000E+00  0.00000000000E+00  0.33775417663E+03  0.33775417664E+03  0.25500000920E-02 0. -1.
        2   -1    0    0  501    0  0.00000000000E+00  0.00000000000E+00 -0.22448964906E+04  0.22448964906E+04  0.25500000920E-02 0.  1.
    10030    2    1    2    0    0  0.00000000000E+00  0.00000000000E+00 -0.19071423139E+04  0.25826506672E+04  0.17415202161E+04 0.  0.
        4    1    3    3  502    0  0.55023437078E+03  0.30422395971E+03 -0.60188545259E+02  0.63161250331E+03  0.12699999809E+01 0. -1.
       -4    1    3    3    0  502 -0.55023437078E+03 -0.30422395971E+03 -0.18469537687E+04  0.19510381639E+04  0.12699999809E+01 0.  1.
</event>
<event>
 5   0  0.6853162E-04  0.1797931E+04  0.7818609E-02  0.8707400E-01
       -2   -1    0    0    0  501  0.00000000000E+00  0.00000000000E+00  0.68732801725E+03  0.68732801726E+03  0.25500000920E-02 0.  1.
        2   -1    0    0  501    0  0.00000000000E+00  0.00000000000E+00 -0.11757690473E+04  0.11757690473E+04  0.25500000920E-02 0. -1.
    10030    2    1    2    0    0  0.00000000000E+00  0.00000000000E+00 -0.48844103002E+03  0.18630970645E+04  0.17979310421E+04 0.  0.
        2    1    3    3  502    0 -0.77392899564E+02 -0.35870978295E+03 -0.10946214297E+04  0.11544948868E+04  0.25500000920E-02 0. -1.
       -2    1    3    3    0  502  0.77392899564E+02  0.35870978295E+03  0.60618039970E+03  0.70860217772E+03  0.25500000920E-02 0.  1.
</event>
<event>
 5   0  0.3470962E-04  0.1800814E+04  0.7818609E-02  0.8705867E-01
       -1   -1    0    0    0  501  0.00000000000E+00  0.00000000000E+00  0.70972449125E+03  0.70972449127E+03  0.50400001928E-02 0.  1.
        1   -1    0    0  501    0  0.00000000000E+00  0.00000000000E+00 -0.11423200067E+04  0.11423200067E+04  0.50400001928E-02 0. -1.
    10030    2    1    2    0    0  0.00000000000E+00  0.00000000000E+00 -0.43259551541E+03  0.18520444979E+04  0.18008136890E+04 0.  0.
        4    1    3    3  502    0  0.22452043558E+03 -0.54583232606E+03 -0.91563419144E+03  0.10893713506E+04  0.12699999809E+01 0. -1.
       -4    1    3    3    0  502 -0.22452043558E+03  0.54583232606E+03  0.48303867603E+03  0.76267314729E+03  0.12699999809E+01 0.  1.
</event>
<event>
 5   0  0.6547153E-04  0.1925347E+04  0.7818609E-02  0.8642341E-01
        2   -1    0    0  501    0  0.00000000000E+00  0.00000000000E+00  0.10682874267E+04  0.10682874267E+04  0.25500000920E-02 0. -1.
       -2   -1    0    0    0  501  0.00000000000E+00  0.00000000000E+00 -0.86750074887E+03  0.86750074888E+03  0.25500000920E-02 0.  1.
    10030    2    1    2    0    0  0.00000000000E+00  0.00000000000E+00  0.20078667779E+03  0.19357881755E+04  0.19253468702E+04 0.  0.
        5    1    3    3  502    0 -0.16104439355E+03  0.84564064340E+03  0.53362996589E+03  0.10128308965E+04  0.46999998093E+01 0. -1.
       -5    1    3    3    0  502  0.16104439355E+03 -0.84564064340E+03 -0.33284328810E+03  0.92295727902E+03  0.46999998093E+01 0.  1.
</event>
<event>
 5   0  0.3404261E-04  0.1818691E+04  0.7818609E-02  0.8696422E-01
       -1   -1    0    0    0  501  0.00000000000E+00  0.00000000000E+00  0.10847226620E+04  0.10847226620E+04  0.50400001928E-02 0. -1.
        1   -1    0    0  501    0  0.00000000000E+00  0.00000000000E+00 -0.76232333714E+03  0.76232333715E+03  0.50400001928E-02 0.  1.
    10030    2    1    2    0    0  0.00000000000E+00  0.00000000000E+00  0.32239932483E+03  0.18470459991E+04  0.18186911773E+04 0.  0.
        1    1    3    3  502    0  0.71381540165E+03 -0.33504380927E+03 -0.29876612158E+03  0.84323660807E+03  0.50400001928E-02 0.  1.
       -1    1    3    3    0  502 -0.71381540165E+03  0.33504380927E+03  0.62116544641E+03  0.10038093911E+04  0.50400001928E-02 0. -1.
</event>
<event>
 5   0  0.6774451E-04  0.1802320E+04  0.7818609E-02  0.8705067E-01
       -2   -1    0    0    0  501  0.00000000000E+00  0.00000000000E+00  0.10367283699E+04  0.10367283699E+04  0.25500000920E-02 0. -1.
        2   -1    0    0  501    0  0.00000000000E+00  0.00000000000E+00 -0.78331957906E+03  0.78331957907E+03  0.25500000920E-02 0.  1.
    10030    2    1    2    0    0  0.00000000000E+00  0.00000000000E+00  0.25340879081E+03  0.18200479489E+04  0.18023203159E+04 0.  0.
        4    1    3    3  502    0  0.26410581818E+02  0.88240256312E+03  0.30947136415E+03  0.93547097249E+03  0.12699999809E+01 0. -1.
       -4    1    3    3    0  502 -0.26410581818E+02 -0.88240256312E+03 -0.56062573342E+02  0.88457697645E+03  0.12699999809E+01 0.  1.
</event>
<event>
 5   0  0.3377273E-04  0.1834687E+04  0.7818609E-02  0.8688068E-01
       -1   -1    0    0    0  501  0.00000000000E+00  0.00000000000E+00  0.34575065918E+03  0.34575065921E+03  0.50400001928E-02 0. -1.
        1   -1    0    0  501    0  0.00000000000E+00  0.00000000000E+00 -0.24338903666E+04  0.24338903666E+04  0.50400001928E-02 0.  1.
    10030    2    1    2    0    0  0.00000000000E+00  0.00000000000E+00 -0.20881397074E+04  0.27796410258E+04  0.18346871108E+04 0.  0.
        2    1    3    3  502    0 -0.40886655804E+03 -0.71295984919E+03 -0.42672575972E+03  0.92605533466E+03  0.25500000920E-02 0. -1.
       -2    1    3    3    0  502  0.40886655804E+03  0.71295984919E+03 -0.16614139477E+04  0.18535856911E+04  0.25500000920E-02 0.  1.
</event>
<event>
 5   0  0.3377273E-04  0.9590490E+03  0.7818609E-02  0.9354636E-01
       -1   -1    0    0    0  501  0.00000000000E+00  0.00000000000E+00  0.12606195080E+04  0.12606195080E+04  0.50400001928E-02 0.  1.
        1   -1    0    0  501    0  0.00000000000E+00  0.00000000000E+00 -0.18240533946E+03  0.18240533953E+03  0.50400001928E-02 0. -1.
    10030    2    1    2    0    0  0.00000000000E+00  0.00000000000E+00  0.10782141685E+04  0.14430248475E+04  0.95904896505E+03 0.  0.
        2    1    3    3  502    0 -0.38404867386E+03 -0.28545611420E+03  0.49236253729E+03  0.68658535169E+03  0.25500000920E-02 0.  1.
       -2    1    3    3    0  502  0.38404867386E+03  0.28545611420E+03  0.58585163125E+03  0.75643949584E+03  0.25500000920E-02 0. -1.
</event>
<event>
 5   0  0.6853162E-04  0.1784878E+04  0.7818609E-02  0.8714383E-01
        2   -1    0    0  501    0  0.00000000000E+00  0.00000000000E+00  0.90655448961E+03  0.90655448961E+03  0.25500000920E-02 0. -1.
       -2   -1    0    0    0  501  0.00000000000E+00  0.00000000000E+00 -0.87854359778E+03  0.87854359778E+03  0.25500000920E-02 0.  1.
    10030    2    1    2    0    0  0.00000000000E+00  0.00000000000E+00  0.28010891827E+02  0.17850980874E+04  0.17848783072E+04 0.  0.
        2    1    3    3  502    0 -0.15086743365E+03  0.33432986375E+03 -0.79967337316E+03  0.87978119103E+03  0.25500000920E-02 0.  1.
       -2    1    3    3    0  502  0.15086743365E+03 -0.33432986375E+03  0.82768426499E+03  0.90531689637E+03  0.25500000920E-02 0. -1.
</event>
<event>
 5   0  0.3413839E-04  0.1145457E+04  0.7818609E-02  0.9161985E-01
        1   -1    0    0  501    0  0.00000000000E+00  0.00000000000E+00  0.66200955994E+03  0.66200955996E+03  0.50400001928E-02 0. -1.
       -1   -1    0    0    0  501  0.00000000000E+00  0.00000000000E+00 -0.49548811469E+03  0.49548811471E+03  0.50400001928E-02 0.  1.
    10030    2    1    2    0    0  0.00000000000E+00  0.00000000000E+00  0.16652144526E+03  0.11574976747E+04  0.11454568849E+04 0.  0.
        5    1    3    3  502    0  0.37290460584E+03 -0.31061872526E+03 -0.22399791111E+03  0.53454559367E+03  0.46999998093E+01 0.  1.
       -5    1    3    3    0  502 -0.37290460584E+03  0.31061872526E+03  0.39051935637E+03  0.62295208101E+03  0.46999998093E+01 0. -1.
</event>
<event>
 5   0  0.3470962E-04  0.1838303E+04  0.7818609E-02  0.8686192E-01
        1   -1    0    0  501    0  0.00000000000E+00  0.00000000000E+00  0.75398284158E+03  0.75398284160E+03  0.50400001928E-02 0. -1.
       -1   -1    0    0    0  501  0.00000000000E+00  0.00000000000E+00 -0.11205017092E+04  0.11205017092E+04  0.50400001928E-02 0.  1.
    10030    2    1    2    0    0  0.00000000000E+00  0.00000000000E+00 -0.36651886759E+03  0.18744845508E+04  0.18383025461E+04 0.  0.
        4    1    3    3  502    0  0.81147428254E+03 -0.12821133490E+02  0.25672202173E+03  0.85121248935E+03  0.12699999809E+01 0.  1.
       -4    1    3    3    0  502 -0.81147428254E+03  0.12821133490E+02 -0.62324088932E+03  0.10232720614E+04  0.12699999809E+01 0. -1.
</event>
<event>
 5   0  0.3413839E-04  0.1795349E+04  0.7818609E-02  0.8708776E-01
       -1   -1    0    0    0  501  0.00000000000E+00  0.00000000000E+00  0.61490217893E+03  0.61490217895E+03  0.50400001928E-02 0. -1.
        1   -1    0    0  501    0  0.00000000000E+00  0.00000000000E+00 -0.13104847027E+04  0.13104847027E+04  0.50400001928E-02 0.  1.
    10030    2    1    2    0    0  0.00000000000E+00  0.00000000000E+00 -0.69558252378E+03  0.19253868817E+04  0.17953494358E+04 0.  0.
        5    1    3    3  502    0 -0.23464082621E+03  0.47243121395E+03  0.43114322315E+03  0.68128858651E+03  0.46999998093E+01 0. -1.
       -5    1    3    3    0  502  0.23464082621E+03 -0.47243121395E+03 -0.11267257469E+04  0.12440982952E+04  0.46999998093E+01 0.  1.
</event>
<event>
 5   0  0.6853162E-04  0.1802564E+04  0.7818609E-02  0.8704937E-01
       -2   -1    0    0    0  501  0.00000000000E+00  0.00000000000E+00  0.56253495934E+03  0.56253495935E+03  0.25500000920E-02 0.  1.
        2   -1    0    0  501    0  0.00000000000E+00  0.00000000000E+00 -0.14440152067E+04  0.14440152067E+04  0.25500000920E-02 0. -1.
    10030    2    1    2    0    0  0.00000000000E+00  0.00000000000E+00 -0.88148024736E+03  0.20065501661E+04  0.18025637693E+04 0.  0.
        2    1    3    3  502    0  0.52942390547E+03 -0.21505255631E+03 -0.12165861089E+04  0.13441052913E+04  0.25500000920E-02 0. -1.
       -2    1    3    3    0  502 -0.52942390547E+03  0.21505255631E+03  0.33510586155E+03  0.66244487477E+03  0.25500000920E-02 0.  1.
</event>
<event>
 5   0  0.6853162E-04  0.1814214E+04  0.7818609E-02  0.8698777E-01
        2   -1    0    0  501    0  0.00000000000E+00  0.00000000000E+00  0.20223521156E+04  0.20223521156E+04  0.25500000920E-02 0. -1.
       -2   -1    0    0    0  501  0.00000000000E+00  0.00000000000E+00 -0.40687445603E+03  0.40687445604E+03  0.25500000920E-02 0.  1.
    10030    2    1    2    0    0  0.00000000000E+00  0.00000000000E+00  0.16154776596E+04  0.24292265717E+04  0.18142143390E+04 0.  0.
        2    1    3    3  502    0  0.46439052917E+03 -0.45518722365E+03 -0.39105713145E+02  0.65144702698E+03  0.25500000920E-02 0.  1.
       -2    1    3    3    0  502 -0.46439052917E+03  0.45518722365E+03  0.16545833728E+04  0.17777795447E+04  0.25500000920E-02 0. -1.
</event>
<event>
 5   0  0.3404261E-04  0.1806889E+04  0.7818609E-02  0.8702645E-01
       -1   -1    0    0    0  501  0.00000000000E+00  0.00000000000E+00  0.35007486533E+03  0.35007486537E+03  0.50400001928E-02 0.  1.
        1   -1    0    0  501    0  0.00000000000E+00  0.00000000000E+00 -0.23315350841E+04  0.23315350842E+04  0.50400001928E-02 0. -1.
    10030    2    1    2    0    0  0.00000000000E+00  0.00000000000E+00 -0.19814602188E+04  0.26816099495E+04  0.18068888518E+04 0.  0.
        1    1    3    3  502    0 -0.54660840438E+03  0.60504146741E+03 -0.15681129269E+04  0.17674371492E+04  0.50400001928E-02 0. -1.
       -1    1    3    3    0  502  0.54660840438E+03 -0.60504146741E+03 -0.41334729195E+03  0.91417280030E+03  0.50400001928E-02 0.  1.
</event>
<event>
 5   0  0.6929121E-04  0.1795114E+04  0.7818609E-02  0.8708902E-01
        2   -1    0    0  501    0  0.00000000000E+00  0.00000000000E+00  0.27003531750E+04  0.27003531750E+04  0.25500000920E-02 0.  1.
       -2   -1    0    0    0  501  0.00000000000E+00  0.00000000000E+00 -0.29833455059E+03  0.29833455060E+03  0.25500000920E-02 0. -1.
    10030    2    1    2    0    0  0.00000000000E+00  0.00000000000E+00  0.24020186244E+04  0.29986877256E+04  0.17951140921E+04 0.  0.
        3    1    3    3  502    0 -0.73079320185E+02  0.29514307358E+03 -0.20968285069E+03  0.36934662445E+03  0.10100000352E+00 0. -1.
       -3    1    3    3    0  502  0.73079320185E+02 -0.29514307358E+03  0.26117014751E+04  0.26293411011E+04  0.10100000352E+00 0.  1.
</event>
<event>
 5   0  0.6929121E-04  0.1776785E+04  0.7818609E-02  0.8718743E-01
       -2   -1    0    0    0  501  0.00000000000E+00  0.00000000000E+00  0.82581330500E+03  0.82581330500E+03  0.25500000920E-02 0.  1.
        2   -1    0    0  501    0  0.00000000000E+00  0.00000000000E+00 -0.95571436805E+03  0.95571436805E+03  0.25500000920E-02 0. -1.
    10030    2    1    2    0    0  0.00000000000E+00  0.00000000000E+00 -0.12990106305E+03  0.17815276731E+04  0.17767854580E+04 0.  0.
        3    1    3    3  502    0  0.13892833892E+03  0.55470413417E+03  0.61674926186E+03  0.84105732386E+03  0.10100000352E+00 0.  1.
       -3    1    3    3    0  502 -0.13892833892E+03 -0.55470413417E+03 -0.74665032491E+03  0.94047034919E+03  0.10100000352E+00 0. -1.
</event>
<event>
 5   0  0.6774451E-04  0.1754380E+04  0.7818609E-02  0.8730943E-01
       -2   -1    0    0    0  501  0.00000000000E+00  0.00000000000E+00  0.50121967049E+03  0.50121967049E+03  0.25500000920E-02 0. -1.
        2   -1    0    0  501    0  0.00000000000E+00  0.00000000000E+00 -0.15351800484E+04  0.15351800484E+04  0.25500000920E-02 0.  1.
    10030    2    1    2    0    0  0.00000000000E+00  0.00000000000E+00 -0.10339603779E+04  0.20363997189E+04  0.17543801618E+04 0.  0.
        4    1    3    3  502    0  0.61464124653E+03  0.16282375436E+03  0.18444946761E+03  0.66205638424E+03  0.12699999809E+01 0. -1.
       -4    1    3    3    0  502 -0.61464124653E+03 -0.16282375436E+03 -0.12184098455E+04  0.13743433346E+04  0.12699999809E+01 0.  1.
</event>
<event>
 5   0  0.3470962E-04  0.1708446E+04  0.7818609E-02  0.8756562E-01
        1   -1    0    0  501    0  0.00000000000E+00  0.00000000000E+00  0.19961450222E+04  0.19961450222E+04  0.50400001928E-02 0.  1.
       -1   -1    0    0    0  501  0.00000000000E+00  0.00000000000E+00 -0.36555285656E+03  0.36555285659E+03  0.50400001928E-02 0. -1.
    10030    2    1    2    0    0  0.00000000000E+00  0.00000000000E+00  0.16305921656E+04  0.23616978788E+04  0.17084455098E+04 0.  0.
        4    1    3    3  502    0  0.74097020499E+03 -0.36943859411E+03  0.11058338222E+04  0.13814455381E+04  0.12699999809E+01 0.  1.
       -4    1    3    3    0  502 -0.74097020499E+03  0.36943859411E+03  0.52475834340E+03  0.98025234066E+03  0.12699999809E+01 0. -1.
</event>
<event>
 5   0  0.3470962E-04  0.1750337E+04  0.7818609E-02  0.8733165E-01
       -1   -1    0    0    0  501  0.00000000000E+00  0.00000000000E+00  0.85617582670E+03  0.85617582671E+03  0.50400001928E-02 0. -1.
        1   -1    0    0  501    0  0.00000000000E+00  0.00000000000E+00 -0.89458231162E+03  0.89458231163E+03  0.50400001928E-02 0.  1.
    10030    2    1    2    0    0  0.00000000000E+00  0.00000000000E+00 -0.38406484920E+02  0.17507581383E+04  0.17503368250E+04 0.  0.
        4    1    3    3  502    0 -0.46297085616E+03  0.49315493433E+03  0.53624505059E+03  0.86319416709E+03  0.12699999809E+01 0.  1.
       -4    1    3    3    0  502  0.46297085616E+03 -0.49315493433E+03 -0.57465153551E+03  0.88756397126E+03  0.12699999809E+01 0. -1.
</event>
<event>
 5   0  0.6547153E-04  0.1854979E+04  0.7818609E-02  0.8677596E-01
       -2   -1    0    0    0  501  0.00000000000E+00  0.00000000000E+00  0.56859771302E+03  0.56859771302E+03  0.25500000920E-02 0.  1.
        2   -1    0    0  501    0  0.00000000000E+00  0.00000000000E+00 -0.15129096625E+04  0.15129096625E+04  0.25500000920E-02 0. -1.
    10030    2    1    2    0    0  0.00000000000E+00  0.00000000000E+00 -0.94431194948E+03  0.20815073755E+04  0.18549792172E+04 0.  0.
        5    1    3    3  502    0  0.11429062480E+03 -0.91113950096E+03 -0.61836487764E+03  0.11070838943E+04  0.46999998093E+01 0. -1.
       -5    1    3    3    0  502 -0.11429062480E+03  0.91113950096E+03 -0.32594707184E+03  0.97442348122E+03  0.46999998093E+01 0.  1.
</event>
<event>
 5   0  0.3470962E-04  0.1817434E+04  0.7818609E-02  0.8697083E-01
       -1   -1    0    0    0  501  0.00000000000E+00  0.00000000000E+00  0.62011873066E+03  0.62011873068E+03  0.50400001928E-02 0. -1.
        1   -1    0    0  501    0  0.00000000000E+00  0.00000000000E+00 -0.13316263618E+04  0.13316263618E+04  0.50400001928E-02 0.  1.
    10030    2    1    2    0    0  0.00000000000E+00  0.00000000000E+00 -0.71150763110E+03  0.19517450925E+04  0.18174338494E+04 0.  0.
        4    1    3    3  502    0  0.76431548055E+03  0.48242131677E+03 -0.45681677389E+03  0.10127149937E+04  0.12699999809E+01 0. -1.
       -4    1    3    3    0  502 -0.76431548055E+03 -0.48242131677E+03 -0.25469085721E+03  0.93903009874E+03  0.12699999809E+01 0.  1.
</event>
<event>
 5   0  0.6929121E-04  0.1818483E+04  0.7818609E-02  0.8696532E-01
       -2   -1    0    0    0  501  0.00000000000E+00  0.00000000000E+00  0.58934076902E+03  0.58934076903E+03  0.25500000920E-02 0.  1.
        2   -1    0    0  501    0  0.00000000000E+00  0.00000000000E+00 -0.14027876670E+04  0.14027876670E+04  0.25500000920E-02 0. -1.
    10030    2    1    2    0    0  0.00000000000E+00  0.00000000000E+00 -0.81344689802E+03  0.19921284361E+04  0.18184828429E+04 0.  0.
        3    1    3    3  502    0 -0.58601863270E+03  0.42952032225E+03  0.19211391954E+03  0.75154062656E+03  0.10100000352E+00 0.  1.
       -3    1    3    3    0  502  0.58601863270E+03 -0.42952032225E+03 -0.10055608176E+04  0.12405878095E+04  0.10100000352E+00 0. -1.
</event>
<event>
 5   0  0.6547153E-04  0.1837854E+04  0.7818609E-02  0.8686424E-01
       -2   -1    0    0    0  501  0.00000000000E+00  0.00000000000E+00  0.81600727160E+03  0.81600727161E+03  0.25500000920E-02 0. -1.
        2   -1    0    0  501    0  0.00000000000E+00  0.00000000000E+00 -0.10348277069E+04  0.10348277069E+04  0.25500000920E-02 0.  1.
    10030    2    1    2    0    0  0.00000000000E+00  0.00000000000E+00 -0.21882043532E+03  0.18508349785E+04  0.18378541114E+04 0.  0.
        5    1    3    3  502    0  0.66795409132E+03  0.61373617236E+03 -0.25731513265E+03  0.94290398496E+03  0.46999998093E+01 0.  1.
       -5    1    3    3    0  502 -0.66795409132E+03 -0.61373617236E+03  0.38494697331E+02  0.90793099357E+03  0.46999998093E+01 0. -1.
</event>
<event>
 5   0  0.3470962E-04  0.1869891E+04  0.7818609E-02  0.8669990E-01
       -1   -1    0    0    0  501  0.00000000000E+00  0.00000000000E+00  0.68146225556E+03  0.68146225558E+03  0.50400001928E-02 0.  1.
        1   -1    0    0  501    0  0.00000000000E+00  0.00000000000E+00 -0.12827168049E+04  0.12827168049E+04  0.50400001928E-02 0. -1.
    10030    2    1    2    0    0  0.00000000000E+00  0.00000000000E+00 -0.60125454935E+03  0.19641790605E+04  0.18698909991E+04 0.  0.
        4    1    3    3  502    0 -0.58495277780E+03 -0.65089469305E+03  0.45037076313E+02  0.87627826907E+03  0.12699999809E+01 0.  1.
       -4    1    3    3    0  502  0.58495277780E+03  0.65089469305E+03 -0.64629162566E+03  0.10879007914E+04  0.12699999809E+01 0. -1.
</event>
<event>
 5   0  0.3308275E-04  0.1801819E+04  0.7818609E-02  0.8705333E-01
       -1   -1    0    0    0  501  0.00000000000E+00  0.00000000000E+00  0.47855264888E+03  0.47855264890E+03  0.50400001928E-02 0.  1.
        1   -1    0    0  501    0  0.00000000000E+00  0.00000000000E+00 -0.16960260779E+04  0.16960260779E+04  0.50400001928E-02 0. -1.
    10030    2    1    2    0    0  0.00000000000E+00  0.00000000000E+00 -0.12174734290E+04  0.21745787268E+04  0.18018188280E+04 0.  0.
        3    1    3    3  502    0 -0.62584095964E+03  0.28994003011E+03 -0.13082020462E+04  0.14788964574E+04  0.10100000352E+00 0. -1.
       -3    1    3    3    0  502  0.62584095964E+03 -0.28994003011E+03  0.90728617168E+02  0.69568226942E+03  0.10100000352E+00 0.  1.
</event>
<event>
 5   0  0.3470962E-04  0.1908144E+04  0.7818609E-02  0.8650813E-01
       -1   -1    0    0    0  501  0.00000000000E+00  0.00000000000E+00  0.37063878874E+03  0.37063878878E+03  0.50400001928E-02 0.  1.
        1   -1    0    0  501    0  0.00000000000E+00  0.00000000000E+00 -0.24559050547E+04  0.24559050547E+04  0.50400001928E-02 0. -1.
    10030    2    1    2    0    0  0.00000000000E+00  0.00000000000E+00 -0.20852662660E+04  0.28265438435E+04  0.19081443078E+04 0.  0.
        4    1    3    3  502    0  0.99409025178E-01  0.20963980120E+03 -0.24213639121E+04  0.24304225278E+04  0.12699999809E+01 0. -1.
       -4    1    3    3    0  502 -0.99409025178E-01 -0.20963980120E+03  0.33609764609E+03  0.39612131568E+03  0.12699999809E+01 0.  1.
</event>
<event>
 5   0  0.6547153E-04  0.1790369E+04  0.7818609E-02  0.8711438E-01
       -2   -1    0    0    0  501  0.00000000000E+00  0.00000000000E+00  0.72255010463E+03  0.72255010464E+03  0.25500000920E-02 0. -1.
        2   -1    0    0  501    0  0.00000000000E+00  0.00000000000E+00 -0.11090647573E+04  0.11090647573E+04  0.25500000920E-02 0.  1.
    10030    2    1    2    0    0  0.00000000000E+00  0.00000000000E+00 -0.38651465270E+03  0.18316148620E+04  0.17903685168E+04 0.  0.
        5    1    3    3  502    0  0.37250241527E+03 -0.65897280002E+03 -0.68210415493E+03  0.10189658329E+04  0.46999998093E+01 0.  1.
       -5    1    3    3    0  502 -0.37250241527E+03  0.65897280002E+03  0.29558950223E+03  0.81264902902E+03  0.46999998093E+01 0. -1.
</event>
<event>
 5   0  0.3470962E-04  0.1820490E+04  0.7818609E-02  0.8695479E-01
       -1   -1    0    0    0  501  0.00000000000E+00  0.00000000000E+00  0.44229287227E+03  0.44229287230E+03  0.50400001928E-02 0.  1.
        1   -1    0    0  501    0  0.00000000000E+00  0.00000000000E+00 -0.18732962455E+04  0.18732962456E+04  0.50400001928E-02 0. -1.
    10030    2    1    2    0    0  0.00000000000E+00  0.00000000000E+00 -0.14310033733E+04  0.23155891179E+04  0.18204895793E+04 0.  0.
        4    1    3    3  502    0  0.29153737035E+02 -0.41308534538E+03  0.31553473383E+03  0.52062772122E+03  0.12699999809E+01 0.  1.
       -4    1    3    3    0  502 -0.29153737035E+02  0.41308534538E+03 -0.17465381071E+04  0.17949613966E+04  0.12699999809E+01 0. -1.
</event>
<event>
 5   0  0.2467375E-04  0.1845986E+04  0.7818609E-02  0.8682220E-01
       -3   -1    0    0    0  501  0.00000000000E+00  0.00000000000E+00  0.53252495761E+03  0.53252496719E+03  0.10100000352E+00 0. -1.
        3   -1    0    0  501    0  0.00000000000E+00  0.00000000000E+00 -0.15997678432E+04  0.15997678464E+04  0.10100000352E+00 0.  1.
    10030    2    1    2    0    0  0.00000000000E+00  0.00000000000E+00 -0.10672428856E+04  0.21322928136E+04  0.18459862583E+04 0.  0.
        3    1    3    3  502    0  0.55163643591E+03  0.84804822952E+02  0.31552924443E+03  0.64113440846E+03  0.10100000352E+00 0. -1.
       -3    1    3    3    0  502 -0.55163643591E+03 -0.84804822952E+02 -0.13827721300E+04  0.14911584051E+04  0.10100000352E+00 0.  1.
</event>
<event>
 5   0  0.3377273E-04  0.8876009E+03  0.7818609E-02  0.9441215E-01
       -1   -1    0    0    0  501  0.00000000000E+00  0.00000000000E+00  0.87646324901E+03  0.87646324902E+03  0.50400001928E-02 0. -1.
        1   -1    0    0  501    0  0.00000000000E+00  0.00000000000E+00 -0.22472003822E+03  0.22472003827E+03  0.50400001928E-02 0.  1.
    10030    2    1    2    0    0  0.00000000000E+00  0.00000000000E+00  0.65174321079E+03  0.11011832873E+04  0.88760093477E+03 0.  0.
        2    1    3    3  502    0 -0.13731711997E+03  0.34222489636E+03  0.63224660001E+03  0.73192187723E+03  0.25500000920E-02 0. -1.
       -2    1    3    3    0  502  0.13731711997E+03 -0.34222489636E+03  0.19496610778E+02  0.36926141007E+03  0.25500000920E-02 0.  1.
</event>
<event>
 5   0  0.3413839E-04  0.1822577E+04  0.7818609E-02  0.8694385E-01
        1   -1    0    0  501    0  0.00000000000E+00  0.00000000000E+00  0.28371601472E+04  0.28371601472E+04  0.50400001928E-02 0. -1.
       -1   -1    0    0    0  501  0.00000000000E+00  0.00000000000E+00 -0.29270346924E+03  0.29270346928E+03  0.50400001928E-02 0.  1.
    10030    2    1    2    0    0  0.00000000000E+00  0.00000000000E+00  0.25444566779E+04  0.31298636165E+04  0.18225768768E+04 0.  0.
        5    1    3    3  502    0 -0.17827585560E+03  0.23017478813E+03 -0.21066703089E+03  0.35939588434E+03  0.46999998093E+01 0.  1.
       -5    1    3    3    0  502  0.17827585560E+03 -0.23017478813E+03  0.27551237088E+04  0.27704677321E+04  0.46999998093E+01 0. -1.
</event>
<event>
 5   0  0.6853162E-04  0.1749908E+04  0.7818609E-02  0.8733401E-01
        2   -1    0    0  501    0  0.00000000000E+00  0.00000000000E+00  0.14242345672E+04  0.14242345672E+04  0.25500000920E-02 0. -1.
       -2   -1    0    0    0  501  0.00000000000E+00  0.00000000000E+00 -0.53751307969E+03  0.53751307970E+03  0.25500000920E-02 0.  1.
    10030    2    1    2    0    0  0.00000000000E+00  0.00000000000E+00  0.88672148750E+03  0.19617476469E+04  0.17499082358E+04 0.  0.
        2    1    3    3  502    0  0.25540615040E+03  0.76792901263E+03  0.81618177134E+03  0.11493911232E+04  0.25500000920E-02 0. -1.
       -2    1    3    3    0  502 -0.25540615040E+03 -0.76792901263E+03  0.70539716157E+02  0.81235652374E+03  0.25500000920E-02 0.  1.
</event>
<event>
 5   0  0.6774451E-04  0.1483886E+04  0.7818609E-02  0.8895240E-01
        2   -1    0    0  501    0  0.00000000000E+00  0.00000000000E+00  0.10584664729E+04  0.10584664729E+04  0.25500000920E-02 0. -1.
       -2   -1    0    0    0  501  0.00000000000E+00  0.00000000000E+00 -0.52007255356E+03  0.52007255356E+03  0.25500000920E-02 0.  1.
    10030    2    1    2    0    0  0.00000000000E+00  0.00000000000E+00  0.53839391935E+03  0.15785390265E+04  0.14838859275E+04 0.  0.
        4    1    3    3  502    0 -0.12926111223E+03 -0.72845805474E+03  0.20979440655E+03  0.76900902372E+03  0.12699999809E+01 0.  1.
       -4    1    3    3    0  502  0.12926111223E+03  0.72845805474E+03  0.32859951281E+03  0.80953000276E+03  0.12699999809E+01 0. -1.
</event>
<event>
 5   0  0.6929121E-04  0.1794722E+04  0.7818609E-02  0.8709111E-01
        2   -1    0    0  501    0  0.00000000000E+00  0.00000000000E+00  0.11421167639E+04  0.11421167639E+04  0.25500000920E-02 0. -1.
       -2   -1    0    0    0  501  0.00000000000E+00  0.00000000000E+00 -0.70505626125E+03  0.70505626126E+03  0.25500000920E-02 0.  1.
    10030    2    1    2    0    0  0.00000000000E+00  0.00000000000E+00  0.43706050262E+03  0.18471730251E+04  0.17947217895E+04 0.  0.
        3    1    3    3  502    0  0.38078710884E+03 -0.30550994316E+03 -0.55641652227E+03  0.74022598177E+03  0.10100000352E+00 0.  1.
       -3    1    3    3    0  502 -0.38078710884E+03  0.30550994316E+03  0.99347702489E+03  0.11069470434E+04  0.10100000352E+00 0. -1.
</event>
<event>
 5   0  0.3470962E-04  0.1796503E+04  0.7818609E-02  0.8708161E-01
       -1   -1    0    0    0  501  0.00000000000E+00  0.00000000000E+00  0.62789207098E+03  0.62789207100E+03  0.50400001928E-02 0.  1.
        1   -1    0    0  501    0  0.00000000000E+00  0.00000000000E+00 -0.12850230532E+04  0.12850230532E+04  0.50400001928E-02 0. -1.
    10030    2    1    2    0    0  0.00000000000E+00  0.00000000000E+00 -0.65713098226E+03  0.19129151242E+04  0.17965030322E+04 0.  0.
        4    1    3    3  502    0 -0.87139167182E+03  0.21687181613E+03 -0.35231177852E+03  0.96461496595E+03  0.12699999809E+01 0. -1.
       -4    1    3    3    0  502  0.87139167182E+03 -0.21687181613E+03 -0.30481920375E+03  0.94830015830E+03  0.12699999809E+01 0.  1.
</event>
<event>
 5   0  0.3308275E-04  0.1647430E+04  0.7818609E-02  0.8791928E-01
        1   -1    0    0  501    0  0.00000000000E+00  0.00000000000E+00  0.14728442646E+04  0.14728442646E+04  0.50400001928E-02 0. -1.
       -1   -1    0    0    0  501  0.00000000000E+00  0.00000000000E+00 -0.46067746746E+03  0.46067746749E+03  0.50400001928E-02 0.  1.
    10030    2    1    2    0    0  0.00000000000E+00  0.00000000000E+00  0.10121667971E+04  0.19335217321E+04  0.16474297142E+04 0.  0.
        3    1    3    3  502    0  0.20279746933E+02  0.69401359609E+03  0.10262675821E+04  0.12390687228E+04  0.10100000352E+00 0. -1.
       -3    1    3    3    0  502 -0.20279746933E+02 -0.69401359609E+03 -0.14100784960E+02  0.69445300923E+03  0.10100000352E+00 0.  1.
</event>
<event>
 5   0  0.3413839E-04  0.1790320E+04  0.7818609E-02  0.8711464E-01
       -1   -1    0    0    0  501  0.00000000000E+00  0.00000000000E+00  0.85134680764E+03  0.85134680765E+03  0.50400001928E-02 0.  1.
        1   -1    0    0  501    0  0.00000000000E+00  0.00000000000E+00 -0.94122827327E+03  0.94122827328E+03  0.50400001928E-02 0. -1.
    10030    2    1    2    0    0  0.00000000000E+00  0.00000000000E+00 -0.89881465633E+02  0.17925750809E+04  0.17903202906E+04 0.  0.
        5    1    3    3  502    0 -0.43635345931E+03 -0.83477802017E+02  0.73315878222E+03  0.85727287070E+03  0.46999998093E+01 0.  1.
       -5    1    3    3    0  502  0.43635345931E+03  0.83477802017E+02 -0.82304024786E+03  0.93530221024E+03  0.46999998093E+01 0. -1.
</event>
<event>
 5   0  0.3413839E-04  0.1760402E+04  0.7818609E-02  0.8727645E-01
       -1   -1    0    0    0  501  0.00000000000E+00  0.00000000000E+00  0.61690330865E+03  0.61690330867E+03  0.50400001928E-02 0.  1.
        1   -1    0    0  501    0  0.00000000000E+00  0.00000000000E+00 -0.12558756762E+04  0.12558756762E+04  0.50400001928E-02 0. -1.
    10030    2    1    2    0    0  0.00000000000E+00  0.00000000000E+00 -0.63897236757E+03  0.18727789849E+04  0.17604020676E+04 0.  0.
        5    1    3    3  502    0 -0.55647910103E+03  0.66811416714E+03 -0.17406234138E+03  0.88677241663E+03  0.46999998093E+01 0. -1.
       -5    1    3    3    0  502  0.55647910103E+03 -0.66811416714E+03 -0.46491002618E+03  0.98600656827E+03  0.46999998093E+01 0.  1.
</event>
<event>
 5   0  0.6853162E-04  0.1726496E+04  0.7818609E-02  0.8746395E-01
       -2   -1    0    0    0  501  0.00000000000E+00  0.00000000000E+00  0.52539768986E+03  0.52539768987E+03  0.25500000920E-02 0. -1.
        2   -1    0    0  501    0  0.00000000000E+00  0.00000000000E+00 -0.14183486216E+04  0.14183486216E+04  0.25500000920E-02 0.  1.
    10030    2    1    2    0    0  0.00000000000E+00  0.00000000000E+00 -0.89295093170E+03  0.19437463114E+04  0.17264959765E+04 0.  0.
        2    1    3    3  502    0 -0.72422648902E+03 -0.16655492396E+02 -0.97503663104E+03  0.12146924898E+04  0.25500000920E-02 0.  1.
       -2    1    3    3    0  502  0.72422648902E+03  0.16655492396E+02  0.82085699346E+02  0.72905382166E+03  0.25500000920E-02 0. -1.
</event>
<event>
 5   0  0.6853162E-04  0.1760954E+04  0.7818609E-02  0.8727344E-01
       -2   -1    0    0    0  501  0.00000000000E+00  0.00000000000E+00  0.68500603620E+03  0.68500603620E+03  0.25500000920E-02 0.  1.
        2   -1    0    0  501    0  0.00000000000E+00  0.00000000000E+00 -0.11317271348E+04  0.11317271348E+04  0.25500000920E-02 0. -1.
    10030    2    1    2    0    0  0.00000000000E+00  0.00000000000E+00 -0.44672109860E+03  0.18167331710E+04  0.17609541944E+04 0.  0.
        2    1    3    3  502    0 -0.27543844996E+03 -0.64276761026E+03 -0.77530533917E+03  0.10440856811E+04  0.25500000920E-02 0. -1.
       -2    1    3    3    0  502  0.27543844996E+03  0.64276761026E+03  0.32858424057E+03  0.77264748991E+03  0.25500000920E-02 0.  1.
</event>
<event>
 5   0  0.3308275E-04  0.1780216E+04  0.7818609E-02  0.8716892E-01
       -1   -1    0    0    0  501  0.00000000000E+00  0.00000000000E+00  0.87040840731E+03  0.87040840733E+03  0.50400001928E-02 0.  1.
        1   -1    0    0  501    0  0.00000000000E+00  0.00000000000E+00 -0.91025357339E+03  0.91025357341E+03  0.50400001928E-02 0. -1.
    10030    2    1    2    0    0  0.00000000000E+00  0.00000000000E+00 -0.39845166081E+02  0.17806619807E+04  0.17802161252E+04 0.  0.
        3    1    3    3  502    0  0.22550411199E+03  0.80335246413E+03 -0.32994385943E+03  0.89726821337E+03  0.10100000352E+00 0.  1.
       -3    1    3    3    0  502 -0.22550411199E+03 -0.80335246413E+03  0.29009869335E+03  0.88339376737E+03  0.10100000352E+00 0. -1.
</event>
<event>
 5   0  0.3404261E-04  0.1830411E+04  0.7818609E-02  0.8690292E-01
       -1   -1    0    0    0  501  0.00000000000E+00  0.00000000000E+00  0.67727128123E+03  0.67727128125E+03  0.50400001928E-02 0.  1.
        1   -1    0    0  501    0  0.00000000000E+00  0.00000000000E+00 -0.12367294271E+04  0.12367294271E+04  0.50400001928E-02 0. -1.
    10030    2    1    2    0    0  0.00000000000E+00  0.00000000000E+00 -0.55945814582E+03  0.19140007083E+04  0.18304112364E+04 0.  0.
        1    1    3    3  502    0 -0.52839974344E+03  0.13862782829E+03  0.48809061704E+03  0.73256836821E+03  0.50400001928E-02 0.  1.
       -1    1    3    3    0  502  0.52839974344E+03 -0.13862782829E+03 -0.10475487629E+04  0.11814323401E+04  0.50400001928E-02 0. -1.
</event>
<event>
 5   0  0.6771967E-04  0.1781231E+04  0.7818609E-02  0.8716345E-01
       -2   -1    0    0    0  501  0.00000000000E+00  0.00000000000E+00  0.32800738559E+03  0.32800738560E+03  0.25500000920E-02 0. -1.
        2   -1    0    0  501    0  0.00000000000E+00  0.00000000000E+00 -0.24182252108E+04  0.24182252108E+04  0.25500000920E-02 0.  1.
    10030    2    1    2    0    0  0.00000000000E+00  0.00000000000E+00 -0.20902178252E+04  0.27462325964E+04  0.17812307309E+04 0.  0.
        1    1    3    3  502    0  0.24636914194E+03  0.47518482978E+03  0.52358051618E+02  0.53781013578E+03  0.50400001928E-02 0. -1.
       -1    1    3    3    0  502 -0.24636914194E+03 -0.47518482978E+03 -0.21425758768E+04  0.22084224606E+04  0.50400001928E-02 0.  1.
</event>
<event>
 5   0  0.6547153E-04  0.1808024E+04  0.7818609E-02  0.8702044E-01
       -2   -1    0    0    0  501  0.00000000000E+00  0.00000000000E+00  0.40557891255E+03  0.40557891255E+03  0.25500000920E-02 0.  1.
        2   -1    0    0  501    0  0.00000000000E+00  0.00000000000E+00 -0.20149898031E+04  0.20149898031E+04  0.25500000920E-02 0. -1.
    10030    2    1    2    0    0  0.00000000000E+00  0.00000000000E+00 -0.16094108905E+04  0.24205687156E+04  0.18080236427E+04 0.  0.
        5    1    3    3  502    0  0.27246084534E+03  0.34530587893E+03 -0.18620501098E+04  0.19133017963E+04  0.46999998093E+01 0. -1.
       -5    1    3    3    0  502 -0.27246084534E+03 -0.34530587893E+03  0.25263921933E+03  0.50726691929E+03  0.46999998093E+01 0.  1.
</event>
<event>
 5   0  0.3377273E-04  0.1785999E+04  0.7818609E-02  0.8713781E-01
       -1   -1    0    0    0  501  0.00000000000E+00  0.00000000000E+00  0.12471322543E+04  0.12471322543E+04  0.50400001928E-02 0.  1.
        1   -1    0    0  501    0  0.00000000000E+00  0.00000000000E+00 -0.63942537590E+03  0.63942537592E+03  0.50400001928E-02 0. -1.
    10030    2    1    2    0    0  0.00000000000E+00  0.00000000000E+00  0.60770687837E+03  0.18865576302E+04  0.17859988919E+04 0.  0.
        2    1    3    3  502    0 -0.48144320407E+03  0.79677155704E+02  0.10938331929E+04  0.11977508346E+04  0.25500000920E-02 0.  1.
       -2    1    3    3    0  502  0.48144320407E+03 -0.79677155704E+02 -0.48612631457E+03  0.68880679556E+03  0.25500000920E-02 0. -1.
</event>
<event>
 5   0  0.3377273E-04  0.1759384E+04  0.7818609E-02  0.8728202E-01
       -1   -1    0    0    0  501  0.00000000000E+00  0.00000000000E+00  0.34419291135E+03  0.34419291139E+03  0.50400001928E-02 0.  1.
        1   -1    0    0  501    0  0.00000000000E+00  0.00000000000E+00 -0.22483269177E+04  0.22483269177E+04  0.50400001928E-02 0. -1.
    10030    2    1    2    0    0  0.00000000000E+00  0.00000000000E+00 -0.19041340064E+04  0.25925198291E+04  0.17593841963E+04 0.  0.
        2    1    3    3  502    0 -0.61752869893E+03 -0.49314109509E+02 -0.31742871752E+02  0.62030733134E+03  0.25500000920E-02 0.  1.
       -2    1    3    3    0  502  0.61752869893E+03  0.49314109509E+02 -0.18723911346E+04  0.19722124978E+04  0.25500000920E-02 0. -1.
</event>
<event>
 5   0  0.3308275E-04  0.1813624E+04  0.7818609E-02  0.8699088E-01
       -1   -1    0    0    0  501  0.00000000000E+00  0.00000000000E+00  0.44894740603E+03  0.44894740606E+03  0.50400001928E-02 0. -1.
        1   -1    0    0  501    0  0.00000000000E+00  0.00000000000E+00 -0.18316348840E+04  0.18316348840E+04  0.50400001928E-02 0.  1.
    10030    2    1    2    0    0  0.00000000000E+00  0.00000000000E+00 -0.13826874780E+04  0.22805822901E+04  0.18136236986E+04 0.  0.
        3    1    3    3  502    0 -0.67251343358E+03  0.85374127069E+02 -0.14486980106E+04  0.15994652219E+04  0.10100000352E+00 0.  1.
       -3    1    3    3    0  502  0.67251343358E+03 -0.85374127069E+02  0.66010532646E+02  0.68111706816E+03  0.10100000352E+00 0. -1.
</event>
<event>
 5   0  0.6929121E-04  0.1870493E+04  0.7818609E-02  0.8669685E-01
       -2   -1    0    0    0  501  0.00000000000E+00  0.00000000000E+00  0.55413375854E+03  0.55413375854E+03  0.25500000920E-02 0. -1.
        2   -1    0    0  501    0  0.00000000000E+00  0.00000000000E+00 -0.15784749006E+04  0.15784749006E+04  0.25500000920E-02 0.  1.
    10030    2    1    2    0    0  0.00000000000E+00  0.00000000000E+00 -0.10243411421E+04  0.21326086592E+04  0.18704932285E+04 0.  0.
        3    1    3    3  502    0 -0.75394510240E+03  0.45963847539E+03 -0.86355589972E+03  0.12350828100E+04  0.10100000352E+00 0.  1.
       -3    1    3    3    0  502  0.75394510240E+03 -0.45963847539E+03 -0.16078524235E+03  0.89752584912E+03  0.10100000352E+00 0. -1.
</event>
<event>
 5   0  0.3413839E-04  0.1762162E+04  0.7818609E-02  0.8726684E-01
       -1   -1    0    0    0  501  0.00000000000E+00  0.00000000000E+00  0.81962800826E+03  0.81962800828E+03  0.50400001928E-02 0.  1.
        1   -1    0    0  501    0  0.00000000000E+00  0.00000000000E+00 -0.94714171857E+03  0.94714171858E+03  0.50400001928E-02 0. -1.
    10030    2    1    2    0    0  0.00000000000E+00  0.00000000000E+00 -0.12751371031E+03  0.17667697269E+04  0.17621621723E+04 0.  0.
        5    1    3    3  502    0 -0.22078935865E+03 -0.81581327438E+03 -0.31337077337E+03  0.90140033900E+03  0.46999998093E+01 0. -1.
       -5    1    3    3    0  502  0.22078935865E+03  0.81581327438E+03  0.18585706307E+03  0.86536938786E+03  0.46999998093E+01 0.  1.
</event>
<event>
 5   0  0.3377273E-04  0.1536547E+04  0.7818609E-02  0.8860507E-01
        1   -1    0    0  501    0  0.00000000000E+00  0.00000000000E+00  0.34743123738E+03  0.34743123742E+03  0.50400001928E-02 0. -1.
       -1   -1    0    0    0  501  0.00000000000E+00  0.00000000000E+00 -0.16988811071E+04  0.16988811071E+04  0.50400001928E-02 0.  1.
    10030    2    1    2    0    0  0.00000000000E+00  0.00000000000E+00 -0.13514498697E+04  0.20463123445E+04  0.15365472531E+04 0.  0.
        2    1    3    3  502    0  0.18401864538E+03 -0.57178555234E+03 -0.37809358247E+02  0.60185640089E+03  0.25500000920E-02 0. -1.
       -2    1    3    3    0  502 -0.18401864538E+03  0.57178555234E+03 -0.13136405115E+04  0.14444559437E+04  0.25500000920E-02 0.  1.
</event>
<event>
 5   0  0.6929121E-04  0.1802778E+04  0.7818609E-02  0.8704824E-01
       -2   -1    0    0    0  501  0.00000000000E+00  0.00000000000E+00  0.54905026324E+03  0.54905026324E+03  0.25500000920E-02 0.  1.
        2   -1    0    0  501    0  0.00000000000E+00  0.00000000000E+00 -0.14798320246E+04  0.14798320246E+04  0.25500000920E-02 0. -1.
    10030    2    1    2    0    0  0.00000000000E+00  0.00000000000E+00 -0.93078176138E+03  0.20288822879E+04  0.18027780370E+04 0.  0.
        3    1    3    3  502    0  0.26271092897E+03 -0.73376985430E+03 -0.97502957906E+03  0.12482459379E+04  0.10100000352E+00 0. -1.
       -3    1    3    3    0  502 -0.26271092897E+03  0.73376985430E+03  0.44247817686E+02  0.78063634994E+03  0.10100000352E+00 0.  1.
</event>
<event>
 5   0  0.6547153E-04  0.1817005E+04  0.7818609E-02  0.8697308E-01
        2   -1    0    0  501    0  0.00000000000E+00  0.00000000000E+00  0.15292680958E+04  0.15292680958E+04  0.25500000920E-02 0. -1.
       -2   -1    0    0    0  501  0.00000000000E+00  0.00000000000E+00 -0.53971999415E+03  0.53971999416E+03  0.25500000920E-02 0.  1.
    10030    2    1    2    0    0  0.00000000000E+00  0.00000000000E+00  0.98954810166E+03  0.20689880900E+04  0.18170047526E+04 0.  0.
        5    1    3    3  502    0 -0.31509441901E+03  0.43494026979E+03  0.13291223682E+04  0.14335431249E+04  0.46999998093E+01 0. -1.
       -5    1    3    3    0  502  0.31509441901E+03 -0.43494026979E+03 -0.33957426655E+03  0.63544496510E+03  0.46999998093E+01 0.  1.
</event>
<event>
 5   0  0.6547153E-04  0.1797744E+04  0.7818609E-02  0.8707500E-01
        2   -1    0    0  501    0  0.00000000000E+00  0.00000000000E+00  0.26247374408E+04  0.26247374408E+04  0.25500000920E-02 0. -1.
       -2   -1    0    0    0  501  0.00000000000E+00  0.00000000000E+00 -0.30782933492E+03  0.30782933493E+03  0.25500000920E-02 0.  1.
    10030    2    1    2    0    0  0.00000000000E+00  0.00000000000E+00  0.23169081059E+04  0.29325667758E+04  0.17977443431E+04 0.  0.
        5    1    3    3  502    0 -0.73236370258E+03  0.51532536442E+03  0.10317588283E+04  0.13661863686E+04  0.46999998093E+01 0.  1.
       -5    1    3    3    0  502  0.73236370258E+03 -0.51532536442E+03  0.12851492776E+04  0.15663804071E+04  0.46999998093E+01 0. -1.
</event>
<event>
 5   0  0.6547153E-04  0.1848232E+04  0.7818609E-02  0.8681062E-01
        2   -1    0    0  501    0  0.00000000000E+00  0.00000000000E+00  0.13232143420E+04  0.13232143420E+04  0.25500000920E-02 0. -1.
       -2   -1    0    0    0  501  0.00000000000E+00  0.00000000000E+00 -0.64539093189E+03  0.64539093189E+03  0.25500000920E-02 0.  1.
    10030    2    1    2    0    0  0.00000000000E+00  0.00000000000E+00  0.67782341007E+03  0.19686052738E+04  0.18482321686E+04 0.  0.
        5    1    3    3  502    0 -0.76706190542E+03  0.15941698269E+02  0.88756195117E+03  0.11732120063E+04  0.46999998093E+01 0.  1.
       -5    1    3    3    0  502  0.76706190542E+03 -0.15941698269E+02 -0.20973854110E+03  0.79539326758E+03  0.46999998093E+01 0. -1.
</event>
<event>
 5   0  0.6853162E-04  0.1867133E+04  0.7818609E-02  0.8671392E-01
       -2   -1    0    0    0  501  0.00000000000E+00  0.00000000000E+00  0.76118779387E+03  0.76118779387E+03  0.25500000920E-02 0. -1.
        2   -1    0    0  501    0  0.00000000000E+00  0.00000000000E+00 -0.11449815472E+04  0.11449815472E+04  0.25500000920E-02 0.  1.
    10030    2    1    2    0    0  0.00000000000E+00  0.00000000000E+00 -0.38379375337E+03  0.19061693411E+04  0.18671325373E+04 0.  0.
        2    1    3    3  502    0  0.82326581102E+02  0.85688427430E+03 -0.56072239363E+03  0.10273450872E+04  0.25500000920E-02 0.  1.
       -2    1    3    3    0  502 -0.82326581102E+02 -0.85688427430E+03  0.17692864026E+03  0.87882425390E+03  0.25500000920E-02 0. -1.
</event>
<event>
 5   0  0.6774451E-04  0.1856236E+04  0.7818609E-02  0.8676952E-01
        2   -1    0    0  501    0  0.00000000000E+00  0.00000000000E+00  0.94715025075E+03  0.94715025075E+03  0.25500000920E-02 0.  1.
       -2   -1    0    0    0  501  0.00000000000E+00  0.00000000000E+00 -0.90946851337E+03  0.90946851337E+03  0.25500000920E-02 0. -1.
    10030    2    1    2    0    0  0.00000000000E+00  0.00000000000E+00  0.37681737383E+02  0.18566187641E+04  0.18562363325E+04 0.  0.
        4    1    3    3  502    0  0.19811485010E+03 -0.84800529965E+00  0.92575338243E+03  0.94671598219E+03  0.12699999809E+01 0.  1.
       -4    1    3    3    0  502 -0.19811485010E+03  0.84800529965E+00 -0.88807164505E+03  0.90990278194E+03  0.12699999809E+01 0. -1.
</event>
<event>
 5   0  0.6547153E-04  0.1793981E+04  0.7818609E-02  0.8709507E-01
       -2   -1    0    0    0  501  0.00000000000E+00  0.00000000000E+00  0.46170600136E+03  0.46170600137E+03  0.25500000920E-02 0.  1.
        2   -1    0    0  501    0  0.00000000000E+00  0.00000000000E+00 -0.17426493581E+04  0.17426493581E+04  0.25500000920E-02 0. -1.
    10030    2    1    2    0    0  0.00000000000E+00  0.00000000000E+00 -0.12809433568E+04  0.22043553595E+04  0.17939806765E+04 0.  0.
        5    1    3    3  502    0 -0.82889862224E+03  0.31297040435E+02 -0.22104237772E+03  0.85844874829E+03  0.46999998093E+01 0. -1.
       -5    1    3    3    0  502  0.82889862224E+03 -0.31297040435E+02 -0.10599009791E+04  0.13459066112E+04  0.46999998093E+01 0.  1.
</event>
<event>
 5   0  0.6547153E-04  0.1824356E+04  0.7818609E-02  0.8693453E-01
        2   -1    0    0  501    0  0.00000000000E+00  0.00000000000E+00  0.14737138593E+04  0.14737138593E+04  0.25500000920E-02 0. -1.
       -2   -1    0    0    0  501  0.00000000000E+00  0.00000000000E+00 -0.56460694132E+03  0.56460694132E+03  0.25500000920E-02 0.  1.
    10030    2    1    2    0    0  0.00000000000E+00  0.00000000000E+00  0.90910691795E+03  0.20383208006E+04  0.18243564065E+04 0.  0.
        5    1    3    3  502    0 -0.78965506547E+03 -0.23204594546E+03  0.15180873385E+02  0.82319681252E+03  0.46999998093E+01 0.  1.
       -5    1    3    3    0  502  0.78965506547E+03  0.23204594546E+03  0.89392604457E+03  0.12151239881E+04  0.46999998093E+01 0. -1.
</event>
<event>
 5   0  0.6771967E-04  0.1550054E+04  0.7818609E-02  0.8851833E-01
        2   -1    0    0  501    0  0.00000000000E+00  0.00000000000E+00  0.24062083411E+04  0.24062083411E+04  0.25500000920E-02 0.  1.
       -2   -1    0    0    0  501  0.00000000000E+00  0.00000000000E+00 -0.24963202991E+03  0.24963202993E+03  0.25500000920E-02 0. -1.
    10030    2    1    2    0    0  0.00000000000E+00  0.00000000000E+00  0.21565763111E+04  0.26558403710E+04  0.15500537702E+04 0.  0.
        1    1    3    3  502    0 -0.70847979535E+03 -0.26958701450E+03  0.13548070659E+04  0.15524570734E+04  0.50400001928E-02 0.  1.
       -1    1    3    3    0  502  0.70847979535E+03  0.26958701450E+03  0.80176924523E+03  0.11033832976E+04  0.50400001928E-02 0. -1.
</event>
<event>
 5   0  0.2467375E-04  0.1689232E+04  0.7818609E-02  0.8767530E-01
       -3   -1    0    0    0  501  0.00000000000E+00  0.00000000000E+00  0.74909063214E+03  0.74909063894E+03  0.10100000352E+00 0. -1.
        3   -1    0    0  501    0  0.00000000000E+00  0.00000000000E+00 -0.95232318658E+03  0.95232319194E+03  0.10100000352E+00 0.  1.
    10030    2    1    2    0    0  0.00000000000E+00  0.00000000000E+00 -0.20323255445E+03  0.17014138309E+04  0.16892322377E+04 0.  0.
        1    1    3    3  502    0 -0.10274476506E+03  0.71302951724E+03  0.34248146748E+03  0.79765978638E+03  0.50400001928E-02 0. -1.
       -1    1    3    3    0  502  0.10274476506E+03 -0.71302951724E+03 -0.54571402193E+03  0.90375404451E+03  0.50400001928E-02 0.  1.
</event>
<event>
 5   0  0.6771967E-04  0.1800342E+04  0.7818609E-02  0.8706118E-01
        2   -1    0    0  501    0  0.00000000000E+00  0.00000000000E+00  0.15102545801E+04  0.15102545801E+04  0.25500000920E-02 0.  1.
       -2   -1    0    0    0  501  0.00000000000E+00  0.00000000000E+00 -0.53653704566E+03  0.53653704567E+03  0.25500000920E-02 0. -1.
    10030    2    1    2    0    0  0.00000000000E+00  0.00000000000E+00  0.97371753448E+03  0.20467916258E+04  0.18003416683E+04 0.  0.
        1    1    3    3  502    0 -0.13412221069E+03 -0.14270900783E+03 -0.51202303329E+03  0.54819906509E+03  0.50400001928E-02 0. -1.
       -1    1    3    3    0  502  0.13412221069E+03  0.14270900783E+03  0.14857405678E+04  0.14985925607E+04  0.50400001928E-02 0.  1.
</event>
<event>
 5   0  0.3377273E-04  0.1910934E+04  0.7818609E-02  0.8649433E-01
        1   -1    0    0  501    0  0.00000000000E+00  0.00000000000E+00  0.87945891375E+03  0.87945891377E+03  0.50400001928E-02 0. -1.
       -1   -1    0    0    0  501  0.00000000000E+00  0.00000000000E+00 -0.10380441377E+04  0.10380441377E+04  0.50400001928E-02 0.  1.
    10030    2    1    2    0    0  0.00000000000E+00  0.00000000000E+00 -0.15858522390E+03  0.19175030514E+04  0.19109339808E+04 0.  0.
        2    1    3    3  502    0 -0.69027834879E+03 -0.61860821861E+03 -0.31194486228E+03  0.97799280368E+03  0.25500000920E-02 0. -1.
       -2    1    3    3    0  502  0.69027834879E+03  0.61860821861E+03  0.15335963838E+03  0.93951024775E+03  0.25500000920E-02 0.  1.
</event>
<event>
 5   0  0.6929121E-04  0.1766586E+04  0.7818609E-02  0.8724273E-01
        2   -1    0    0  501    0  0.00000000000E+00  0.00000000000E+00  0.52048877918E+03  0.52048877919E+03  0.25500000920E-02 0.  1.
       -2   -1    0    0    0  501  0.00000000000E+00  0.00000000000E+00 -0.14989888102E+04  0.14989888102E+04  0.25500000920E-02 0. -1.
    10030    2    1    2    0    0  0.00000000000E+00  0.00000000000E+00 -0.97850003101E+03  0.20194775894E+04  0.17665863758E+04 0.  0.
        3    1    3    3  502    0  0.43768862473E+02  0.48794002918E+01 -0.14977329641E+04  0.14983803135E+04  0.10100000352E+00 0. -1.
       -3    1    3    3    0  502 -0.43768862473E+02 -0.48794002918E+01  0.51923293313E+03  0.52109727586E+03  0.10100000352E+00 0.  1.
</event>
<event>
 5   0  0.3470962E-04  0.1898963E+04  0.7818609E-02  0.8655373E-01
        1   -1    0    0  501    0  0.00000000000E+00  0.00000000000E+00  0.11086791126E+04  0.11086791126E+04  0.50400001928E-02 0.  1.
       -1   -1    0    0    0  501  0.00000000000E+00  0.00000000000E+00 -0.81314339674E+03  0.81314339675E+03  0.50400001928E-02 0. -1.
    10030    2    1    2    0    0  0.00000000000E+00  0.00000000000E+00  0.29553571587E+03  0.19218225094E+04  0.18989629797E+04 0.  0.
        4    1    3    3  502    0  0.54179799897E+03 -0.68179834725E+03  0.53063321739E+03  0.10197878614E+04  0.12699999809E+01 0.  1.
       -4    1    3    3    0  502 -0.54179799897E+03  0.68179834725E+03 -0.23509750152E+03  0.90203464796E+03  0.12699999809E+01 0. -1.
</event>
<event>
 5   0  0.3404261E-04  0.1769570E+04  0.7818609E-02  0.8722651E-01
       -1   -1    0    0    0  501  0.00000000000E+00  0.00000000000E+00  0.13846965600E+04  0.13846965600E+04  0.50400001928E-02 0. -1.
        1   -1    0    0  501    0  0.00000000000E+00  0.00000000000E+00 -0.56535451055E+03  0.56535451058E+03  0.50400001928E-02 0.  1.
    10030    2    1    2    0    0  0.00000000000E+00  0.00000000000E+00  0.81934204941E+03  0.19500510706E+04  0.17695699432E+04 0.  0.
        1    1    3    3  502    0 -0.18837252372E+03  0.57258628968E+03 -0.30408028113E+03  0.67513264194E+03  0.50400001928E-02 0.  1.
       -1    1    3    3    0  502  0.18837252372E+03 -0.57258628968E+03  0.11234223305E+04  0.12749184286E+04  0.50400001928E-02 0. -1.
</event>
<event>
 5   0  0.3413839E-04  0.1821798E+04  0.7818609E-02  0.8694793E-01
        1   -1    0    0  501    0  0.00000000000E+00  0.00000000000E+00  0.66508238792E+03  0.66508238794E+03  0.50400001928E-02 0. -1.
       -1   -1    0    0    0  501  0.00000000000E+00  0.00000000000E+00 -0.12475702730E+04  0.12475702730E+04  0.50400001928E-02 0.  1.
    10030    2    1    2    0    0  0.00000000000E+00  0.00000000000E+00 -0.58248788509E+03  0.19126526610E+04  0.18217980308E+04 0.  0.
        5    1    3    3  502    0  0.80782539544E+03  0.28220040735E+03  0.36571380967E+02  0.85649197038E+03  0.46999998093E+01 0. -1.
       -5    1    3    3    0  502 -0.80782539544E+03 -0.28220040735E+03 -0.61905926606E+03  0.10561606906E+04  0.46999998093E+01 0.  1.
</event>
<event>
 5   0  0.6774451E-04  0.1776403E+04  0.7818609E-02  0.8718950E-01
       -2   -1    0    0    0  501  0.00000000000E+00  0.00000000000E+00  0.39142801774E+03  0.39142801775E+03  0.25500000920E-02 0. -1.
        2   -1    0    0  501    0  0.00000000000E+00  0.00000000000E+00 -0.20154452545E+04  0.20154452545E+04  0.25500000920E-02 0.  1.
    10030    2    1    2    0    0  0.00000000000E+00  0.00000000000E+00 -0.16240172367E+04  0.24068732722E+04  0.17764028156E+04 0.  0.
        4    1    3    3  502    0 -0.43056686498E+03 -0.32839926461E+03 -0.17659164954E+04  0.18470778500E+04  0.12699999809E+01 0.  1.
       -4    1    3    3    0  502  0.43056686498E+03  0.32839926461E+03  0.14189925872E+03  0.55979542222E+03  0.12699999809E+01 0. -1.
</event>
<event>
 5   0  0.3377273E-04  0.1012166E+04  0.7818609E-02  0.9295301E-01
        1   -1    0    0  501    0  0.00000000000E+00  0.00000000000E+00  0.87184636634E+03  0.87184636635E+03  0.50400001928E-02 0. -1.
       -1   -1    0    0    0  501  0.00000000000E+00  0.00000000000E+00 -0.29376760510E+03  0.29376760514E+03  0.50400001928E-02 0.  1.
    10030    2    1    2    0    0  0.00000000000E+00  0.00000000000E+00  0.57807876124E+03  0.11656139715E+04  0.10121664272E+04 0.  0.
        2    1    3    3  502    0  0.28594923484E+03 -0.41754250275E+03  0.29294679024E+03  0.58474484045E+03  0.25500000920E-02 0. -1.
       -2    1    3    3    0  502 -0.28594923484E+03  0.41754250275E+03  0.28513197100E+03  0.58086913105E+03  0.25500000920E-02 0.  1.
</event>
<event>
 5   0  0.6853162E-04  0.1822582E+04  0.7818609E-02  0.8694382E-01
       -2   -1    0    0    0  501  0.00000000000E+00  0.00000000000E+00  0.54512412100E+03  0.54512412101E+03  0.25500000920E-02 0. -1.
        2   -1    0    0  501    0  0.00000000000E+00  0.00000000000E+00 -0.15234163533E+04  0.15234163533E+04  0.25500000920E-02 0.  1.
    10030    2    1    2    0    0  0.00000000000E+00  0.00000000000E+00 -0.97829223227E+03  0.20685404743E+04  0.18225816860E+04 0.  0.
        2    1    3    3  502    0  0.68640059736E+02  0.42445367399E+03  0.42276307087E+03  0.60299336088E+03  0.25500000920E-02 0. -1.
       -2    1    3    3    0  502 -0.68640059736E+02 -0.42445367399E+03 -0.14010553031E+04  0.14655471134E+04  0.25500000920E-02 0.  1.
</event>
<event>
 5   0  0.6771967E-04  0.1809573E+04  0.7818609E-02  0.8701225E-01
       -2   -1    0    0    0  501  0.00000000000E+00  0.00000000000E+00  0.69252137522E+03  0.69252137523E+03  0.25500000920E-02 0.  1.
        2   -1    0    0  501    0  0.00000000000E+00  0.00000000000E+00 -0.11821136455E+04  0.11821136455E+04  0.25500000920E-02 0. -1.
    10030    2    1    2    0    0  0.00000000000E+00  0.00000000000E+00 -0.48959227028E+03  0.18746350207E+04  0.18095733944E+04 0.  0.
        1    1    3    3  502    0 -0.44039611619E+03 -0.36658875845E+03  0.48059586088E+03  0.74786926565E+03  0.50400001928E-02 0.  1.
       -1    1    3    3    0  502  0.44039611619E+03  0.36658875845E+03 -0.97018813116E+03  0.11267657551E+04  0.50400001928E-02 0. -1.
</event>
<event>
 5   0  0.6547153E-04  0.1677156E+04  0.7818609E-02  0.8774501E-01
        2   -1    0    0  501    0  0.00000000000E+00  0.00000000000E+00  0.47496051544E+03  0.47496051544E+03  0.25500000920E-02 0.  1.
       -2   -1    0    0    0  501  0.00000000000E+00  0.00000000000E+00 -0.14805720507E+04  0.14805720507E+04  0.25500000920E-02 0. -1.
    10030    2    1    2    0    0  0.00000000000E+00  0.00000000000E+00 -0.10056115353E+04  0.19555325661E+04  0.16771562412E+04 0.  0.
        5    1    3    3  502    0 -0.69263642694E+03  0.12836420910E+03 -0.10332549014E+04  0.12505440302E+04  0.46999998093E+01 0. -1.
       -5    1    3    3    0  502  0.69263642694E+03 -0.12836420910E+03  0.27643366197E+02  0.70498853593E+03  0.46999998093E+01 0.  1.
</event>
<event>
 5   0  0.3377273E-04  0.1748579E+04  0.7818609E-02  0.8734133E-01
       -1   -1    0    0    0  501  0.00000000000E+00  0.00000000000E+00  0.47127642026E+03  0.47127642029E+03  0.50400001928E-02 0. -1.
        1   -1    0    0  501    0  0.00000000000E+00  0.00000000000E+00 -0.16219393007E+04  0.16219393007E+04  0.50400001928E-02 0.  1.
    10030    2    1    2    0    0  0.00000000000E+00  0.00000000000E+00 -0.11506628805E+04  0.20932157210E+04  0.17485785628E+04 0.  0.
        2    1    3    3  502    0  0.36495058080E+02 -0.82602037472E+03 -0.23517887900E+03  0.85962239027E+03  0.25500000920E-02 0. -1.
       -2    1    3    3    0  502 -0.36495058080E+02  0.82602037472E+03 -0.91548400146E+03  0.12335933307E+04  0.25500000920E-02 0.  1.
</event>
<event>
 5   0  0.3470962E-04  0.1204271E+04  0.7818609E-02  0.9109126E-01
        1   -1    0    0  501    0  0.00000000000E+00  0.00000000000E+00  0.66684752773E+03  0.66684752775E+03  0.50400001928E-02 0.  1.
       -1   -1    0    0    0  501  0.00000000000E+00  0.00000000000E+00 -0.54370308172E+03  0.54370308174E+03  0.50400001928E-02 0. -1.
    10030    2    1    2    0    0  0.00000000000E+00  0.00000000000E+00  0.12314444602E+03  0.12105506095E+04  0.12042708265E+04 0.  0.
        4    1    3    3  502    0 -0.51480197552E+03 -0.31101478459E+03  0.32889718622E+02  0.60235754891E+03  0.12699999809E+01 0.  1.
       -4    1    3    3    0  502  0.51480197552E+03  0.31101478459E+03  0.90254727394E+02  0.60819306059E+03  0.12699999809E+01 0. -1.
</event>
<event>
 5   0  0.6774451E-04  0.1852372E+04  0.7818609E-02  0.8678934E-01
       -2   -1    0    0    0  501  0.00000000000E+00  0.00000000000E+00  0.72435656381E+03  0.72435656381E+03  0.25500000920E-02 0. -1.
        2   -1    0    0  501    0  0.00000000000E+00  0.00000000000E+00 -0.11842515013E+04  0.11842515013E+04  0.25500000920E-02 0.  1.
    10030    2    1    2    0    0  0.00000000000E+00  0.00000000000E+00 -0.45989493750E+03  0.19086080651E+04  0.18523718290E+04 0.  0.
        4    1    3    3  502    0  0.32036319246E+03  0.67215958021E+03  0.33758085715E+03  0.81755337708E+03  0.12699999809E+01 0. -1.
       -4    1    3    3    0  502 -0.32036319246E+03 -0.67215958021E+03 -0.79747579465E+03  0.10910546880E+04  0.12699999809E+01 0.  1.
</event>
<event>
 5   0  0.6929121E-04  0.1830137E+04  0.7818609E-02  0.8690435E-01
        2   -1    0    0  501    0  0.00000000000E+00  0.00000000000E+00  0.79371835303E+03  0.79371835304E+03  0.25500000920E-02 0.  1.
       -2   -1    0    0    0  501  0.00000000000E+00  0.00000000000E+00 -0.10549714321E+04  0.10549714321E+04  0.25500000920E-02 0. -1.
    10030    2    1    2    0    0  0.00000000000E+00  0.00000000000E+00 -0.26125307909E+03  0.18486897852E+04  0.18301368119E+04 0.  0.
        3    1    3    3  502    0  0.91349631318E+03  0.50590112110E+02 -0.11268973563E+03  0.92181009995E+03  0.10100000352E+00 0.  1.
       -3    1    3    3    0  502 -0.91349631318E+03 -0.50590112110E+02 -0.14856334346E+03  0.92687968522E+03  0.10100000352E+00 0. -1.
</event>
<event>
 5   0  0.3404261E-04  0.1823102E+04  0.7818609E-02  0.8694110E-01
        1   -1    0    0  501    0  0.00000000000E+00  0.00000000000E+00  0.10869454622E+04  0.10869454622E+04  0.50400001928E-02 0.  1.
       -1   -1    0    0    0  501  0.00000000000E+00  0.00000000000E+00 -0.76445885130E+03  0.76445885132E+03  0.50400001928E-02 0. -1.
    10030    2    1    2    0    0  0.00000000000E+00  0.00000000000E+00  0.32248661086E+03  0.18514043135E+04  0.18231018397E+04 0.  0.
        1    1    3    3  502    0 -0.62639245324E+03 -0.50206583982E+03  0.59978931772E+03  0.10020902348E+04  0.50400001928E-02 0.  1.
       -1    1    3    3    0  502  0.62639245324E+03  0.50206583982E+03 -0.27730270686E+03  0.84931407869E+03  0.50400001928E-02 0. -1.
</event>
<event>
 5   0  0.3308275E-04  0.1823363E+04  0.7818609E-02  0.8693973E-01
       -1   -1    0    0    0  501  0.00000000000E+00  0.00000000000E+00  0.11891754628E+04  0.11891754628E+04  0.50400001928E-02 0. -1.
        1   -1    0    0  501    0  0.00000000000E+00  0.00000000000E+00 -0.69894083148E+03  0.69894083150E+03  0.50400001928E-02 0.  1.
    10030    2    1    2    0    0  0.00000000000E+00  0.00000000000E+00  0.49023463130E+03  0.18881162943E+04  0.18233631419E+04 0.  0.
        3    1    3    3  502    0 -0.60384693410E+03 -0.23488779500E+03  0.90926786345E+03  0.11164996434E+04  0.10100000352E+00 0. -1.
       -3    1    3    3    0  502  0.60384693410E+03  0.23488779500E+03 -0.41903323215E+03  0.77161665088E+03  0.10100000352E+00 0.  1.
</event>
<event>
 5   0  0.3377273E-04  0.1811429E+04  0.7818609E-02  0.8700245E-01
       -1   -1    0    0    0  501  0.00000000000E+00  0.00000000000E+00  0.68474332655E+03  0.68474332657E+03  0.50400001928E-02 0. -1.
        1   -1    0    0  501    0  0.00000000000E+00  0.00000000000E+00 -0.11979939349E+04  0.11979939349E+04  0.50400001928E-02 0.  1.
    10030    2    1    2    0    0  0.00000000000E+00  0.00000000000E+00 -0.51325060835E+03  0.18827372615E+04  0.18114285547E+04 0.  0.
        2    1    3    3  502    0 -0.31041699678E+03  0.59188796248E+03  0.37868862716E+03  0.76817650860E+03  0.25500000920E-02 0. -1.
       -2    1    3    3    0  502  0.31041699678E+03 -0.59188796248E+03 -0.89193923551E+03  0.11145607529E+04  0.25500000920E-02 0.  1.
</event>
<event>
 5   0  0.3377273E-04  0.1792399E+04  0.7818609E-02  0.8710352E-01
       -1   -1    0    0    0  501  0.00000000000E+00  0.00000000000E+00  0.17606835721E+04  0.17606835721E+04  0.50400001928E-02 0. -1.
        1   -1    0    0  501    0  0.00000000000E+00  0.00000000000E+00 -0.45617157780E+03  0.45617157783E+03  0.50400001928E-02 0.  1.
    10030    2    1    2    0    0  0.00000000000E+00  0.00000000000E+00  0.13045119943E+04  0.22168551500E+04  0.17923992894E+04 0.  0.
        2    1    3    3  502    0 -0.10027824063E+03  0.34028771316E+03 -0.36563261879E+03  0.50944937453E+03  0.25500000920E-02 0.  1.
       -2    1    3    3    0  502  0.10027824063E+03 -0.34028771316E+03  0.16701446131E+04  0.17074057754E+04  0.25500000920E-02 0. -1.
</event>
<event>
 5   0  0.6547153E-04  0.1794878E+04  0.7818609E-02  0.8709028E-01
       -2   -1    0    0    0  501  0.00000000000E+00  0.00000000000E+00  0.79765001449E+03  0.79765001449E+03  0.25500000920E-02 0. -1.
        2   -1    0    0  501    0  0.00000000000E+00  0.00000000000E+00 -0.10097114232E+04  0.10097114232E+04  0.25500000920E-02 0.  1.
    10030    2    1    2    0    0  0.00000000000E+00  0.00000000000E+00 -0.21206140872E+03  0.18073614377E+04  0.17948775238E+04 0.  0.
        5    1    3    3  502    0 -0.57186303432E+03  0.38588230485E+03 -0.68399301164E+03  0.97149421676E+03  0.46999998093E+01 0.  1.
       -5    1    3    3    0  502  0.57186303432E+03 -0.38588230485E+03  0.47193160293E+03  0.83586722095E+03  0.46999998093E+01 0. -1.
</event>
<event>
 5   0  0.3413839E-04  0.1839500E+04  0.7818609E-02  0.8685571E-01
        1   -1    0    0  501    0  0.00000000000E+00  0.00000000000E+00  0.72580998202E+03  0.72580998204E+03  0.50400001928E-02 0.  1.
       -1   -1    0    0    0  501  0.00000000000E+00  0.00000000000E+00 -0.11655123614E+04  0.11655123614E+04  0.50400001928E-02 0. -1.
    10030    2    1    2    0    0  0.00000000000E+00  0.00000000000E+00 -0.43970237936E+03  0.18913223434E+04  0.18395004823E+04 0.  0.
        5    1    3    3  502    0 -0.23098764418E+03 -0.87413545080E+03 -0.39327525483E+03  0.98597951002E+03  0.46999998093E+01 0.  1.
       -5    1    3    3    0  502  0.23098764418E+03  0.87413545080E+03 -0.46427124524E+02  0.90534283341E+03  0.46999998093E+01 0. -1.
</event>
<event>
 5   0  0.3308275E-04  0.1816190E+04  0.7818609E-02  0.8697737E-01
        1   -1    0    0  501    0  0.00000000000E+00  0.00000000000E+00  0.11476062313E+04  0.11476062313E+04  0.50400001928E-02 0. -1.
       -1   -1    0    0    0  501  0.00000000000E+00  0.00000000000E+00 -0.71857110624E+03  0.71857110625E+03  0.50400001928E-02 0.  1.
    10030    2    1    2    0    0  0.00000000000E+00  0.00000000000E+00  0.42903512503E+03  0.18661773375E+04  0.18161901653E+04 0.  0.
        3    1    3    3  502    0 -0.44862573925E+03 -0.73663507060E+03 -0.77451615390E+02  0.86596480533E+03  0.10100000352E+00 0.  1.
       -3    1    3    3    0  502  0.44862573925E+03  0.73663507060E+03  0.50648674042E+03  0.10002125322E+04  0.10100000352E+00 0. -1.
</event>
<event>
 5   0  0.3413839E-04  0.1796364E+04  0.7818609E-02  0.8708236E-01
        1   -1    0    0  501    0  0.00000000000E+00  0.00000000000E+00  0.14542848505E+04  0.14542848506E+04  0.50400001928E-02 0.  1.
       -1   -1    0    0    0  501  0.00000000000E+00  0.00000000000E+00 -0.55472666856E+03  0.55472666858E+03  0.50400001928E-02 0. -1.
    10030    2    1    2    0    0  0.00000000000E+00  0.00000000000E+00  0.89955818199E+03  0.20090115191E+04  0.17963636495E+04 0.  0.
        5    1    3    3  502    0  0.17219914146E+03 -0.49057666166E+02 -0.53455094036E+03  0.56376058462E+03  0.46999998093E+01 0. -1.
       -5    1    3    3    0  502 -0.17219914146E+03  0.49057666166E+02  0.14341091224E+04  0.14452509345E+04  0.46999998093E+01 0.  1.
</event>
<event>
 5   0  0.3404261E-04  0.1777496E+04  0.7818609E-02  0.8718359E-01
       -1   -1    0    0    0  501  0.00000000000E+00  0.00000000000E+00  0.62520035128E+03  0.62520035130E+03  0.50400001928E-02 0. -1.
        1   -1    0    0  501    0  0.00000000000E+00  0.00000000000E+00 -0.12633914374E+04  0.12633914374E+04  0.50400001928E-02 0.  1.
    10030    2    1    2    0    0  0.00000000000E+00  0.00000000000E+00 -0.63819108613E+03  0.18885917887E+04  0.17774957333E+04 0.  0.
        1    1    3    3  502    0  0.34962686608E+03 -0.38370869708E+03 -0.10855719365E+04  0.12033028460E+04  0.50400001928E-02 0.  1.
       -1    1    3    3    0  502 -0.34962686608E+03  0.38370869708E+03  0.44738085041E+03  0.68528894274E+03  0.50400001928E-02 0. -1.
</event>
<event>
 5   0  0.6853162E-04  0.1780884E+04  0.7818609E-02  0.8716532E-01
       -2   -1    0    0    0  501  0.00000000000E+00  0.00000000000E+00  0.59269523242E+03  0.59269523243E+03  0.25500000920E-02 0. -1.
        2   -1    0    0  501    0  0.00000000000E+00  0.00000000000E+00 -0.13377645924E+04  0.13377645924E+04  0.25500000920E-02 0.  1.
    10030    2    1    2    0    0  0.00000000000E+00  0.00000000000E+00 -0.74506936001E+03  0.19304598249E+04  0.17808837088E+04 0.  0.
        2    1    3    3  502    0 -0.81928602965E+03  0.26083543102E+03 -0.12152145005E+03  0.86835026532E+03  0.25500000920E-02 0. -1.
       -2    1    3    3    0  502  0.81928602965E+03 -0.26083543102E+03 -0.62354790996E+03  0.10621095595E+04  0.25500000920E-02 0.  1.
</event>
<event>
 5   0  0.6771967E-04  0.1788991E+04  0.7818609E-02  0.8712176E-01
        2   -1    0    0  501    0  0.00000000000E+00  0.00000000000E+00  0.25787378327E+04  0.25787378327E+04  0.25500000920E-02 0.  1.
       -2   -1    0    0    0  501  0.00000000000E+00  0.00000000000E+00 -0.31027668710E+03  0.31027668711E+03  0.25500000920E-02 0. -1.
    10030    2    1    2    0    0  0.00000000000E+00  0.00000000000E+00  0.22684611456E+04  0.28890145198E+04  0.17889910359E+04 0.  0.
        1    1    3    3  502    0  0.32526495560E+03  0.81467041552E+03  0.14168910343E+04  0.16664529337E+04  0.50400001928E-02 0.  1.
       -1    1    3    3    0  502 -0.32526495560E+03 -0.81467041552E+03  0.85157011133E+03  0.12225615861E+04  0.50400001928E-02 0. -1.
</event>
<event>
 5   0  0.3413839E-04  0.1783074E+04  0.7818609E-02  0.8715353E-01
        1   -1    0    0  501    0  0.00000000000E+00  0.00000000000E+00  0.11565373756E+04  0.11565373756E+04  0.50400001928E-02 0.  1.
       -1   -1    0    0    0  501  0.00000000000E+00  0.00000000000E+00 -0.68725671089E+03  0.68725671091E+03  0.50400001928E-02 0. -1.
    10030    2    1    2    0    0  0.00000000000E+00  0.00000000000E+00  0.46928066468E+03  0.18437940865E+04  0.17830738322E+04 0.  0.
        5    1    3    3  502    0 -0.46087107684E+03  0.62722040121E+03  0.68419617461E+03  0.10363175558E+04  0.46999998093E+01 0.  1.
       -5    1    3    3    0  502  0.46087107684E+03 -0.62722040121E+03 -0.21491550994E+03  0.80747653066E+03  0.46999998093E+01 0. -1.
</event>
<event>
 5   0  0.3377273E-04  0.1780808E+04  0.7818609E-02  0.8716573E-01
        1   -1    0    0  501    0  0.00000000000E+00  0.00000000000E+00  0.13237459948E+04  0.13237459948E+04  0.50400001928E-02 0.  1.
       -1   -1    0    0    0  501  0.00000000000E+00  0.00000000000E+00 -0.59892109316E+03  0.59892109318E+03  0.50400001928E-02 0. -1.
    10030    2    1    2    0    0  0.00000000000E+00  0.00000000000E+00  0.72482490163E+03  0.19226670880E+04  0.17808081292E+04 0.  0.
        2    1    3    3  502    0  0.82491522396E+03  0.32021971428E+03  0.46925845382E+03  0.10016133429E+04  0.25500000920E-02 0. -1.
       -2    1    3    3    0  502 -0.82491522396E+03 -0.32021971428E+03  0.25556644781E+03  0.92105374511E+03  0.25500000920E-02 0.  1.
</event>
<event>
 5   0  0.3308275E-04  0.1951926E+04  0.7818609E-02  0.8629433E-01
       -1   -1    0    0    0  501  0.00000000000E+00  0.00000000000E+00  0.17909037094E+04  0.17909037094E+04  0.50400001928E-02 0.  1.
        1   -1    0    0  501    0  0.00000000000E+00  0.00000000000E+00 -0.53185632296E+03  0.53185632298E+03  0.50400001928E-02 0. -1.
    10030    2    1    2    0    0  0.00000000000E+00  0.00000000000E+00  0.12590473864E+04  0.23227600324E+04  0.19519256765E+04 0.  0.
        3    1    3    3  502    0 -0.19524890176E+03 -0.18343506891E+03 -0.48724485878E+03  0.55603787708E+03  0.10100000352E+00 0. -1.
       -3    1    3    3    0  502  0.19524890176E+03  0.18343506891E+03  0.17462922452E+04  0.17667221553E+04  0.10100000352E+00 0.  1.
</event>
<event>
 5   0  0.6853162E-04  0.1800034E+04  0.7818609E-02  0.8706282E-01
       -2   -1    0    0    0  501  0.00000000000E+00  0.00000000000E+00  0.97090708738E+03  0.97090708738E+03  0.25500000920E-02 0.  1.
        2   -1    0    0  501    0  0.00000000000E+00  0.00000000000E+00 -0.83430252089E+03  0.83430252090E+03  0.25500000920E-02 0. -1.
    10030    2    1    2    0    0  0.00000000000E+00  0.00000000000E+00  0.13660456649E+03  0.18052096083E+04  0.18000335892E+04 0.  0.
        2    1    3    3  502    0  0.69121396577E+03 -0.19663324529E+03  0.61169874561E+03  0.94372492550E+03  0.25500000920E-02 0.  1.
       -2    1    3    3    0  502 -0.69121396577E+03  0.19663324529E+03 -0.47509417913E+03  0.86148468278E+03  0.25500000920E-02 0. -1.
</event>
<event>
 5   0  0.6771967E-04  0.1799169E+04  0.7818609E-02  0.8706742E-01
       -2   -1    0    0    0  501  0.00000000000E+00  0.00000000000E+00  0.68062128969E+03  0.68062128969E+03  0.25500000920E-02 0.  1.
        2   -1    0    0  501    0  0.00000000000E+00  0.00000000000E+00 -0.11889899938E+04  0.11889899938E+04  0.25500000920E-02 0. -1.
    10030    2    1    2    0    0  0.00000000000E+00  0.00000000000E+00 -0.50836870413E+03  0.18696112835E+04  0.17991685891E+04 0.  0.
        1    1    3    3  502    0 -0.75337027001E+03  0.47349416533E+03 -0.11676285314E+03  0.89743916352E+03  0.50400001928E-02 0.  1.
       -1    1    3    3    0  502  0.75337027001E+03 -0.47349416533E+03 -0.39160585098E+03  0.97217211999E+03  0.50400001928E-02 0. -1.
</event>
<event>
 5   0  0.3404261E-04  0.1814379E+04  0.7818609E-02  0.8698690E-01
        1   -1    0    0  501    0  0.00000000000E+00  0.00000000000E+00  0.13290060647E+04  0.13290060647E+04  0.50400001928E-02 0.  1.
       -1   -1    0    0    0  501  0.00000000000E+00  0.00000000000E+00 -0.61925409971E+03  0.61925409973E+03  0.50400001928E-02 0. -1.
    10030    2    1    2    0    0  0.00000000000E+00  0.00000000000E+00  0.70975196499E+03  0.19482601645E+04  0.18143786310E+04 0.  0.
        1    1    3    3  502    0  0.86492701540E+03  0.56658556844E+02  0.64236991949E+03  0.10788642396E+04  0.50400001928E-02 0.  1.
       -1    1    3    3    0  502 -0.86492701540E+03 -0.56658556844E+02  0.67382045499E+02  0.86939592483E+03  0.50400001928E-02 0. -1.
</event>
<event>
 5   0  0.6853162E-04  0.1815247E+04  0.7818609E-02  0.8698233E-01
       -2   -1    0    0    0  501  0.00000000000E+00  0.00000000000E+00  0.97379610424E+03  0.97379610425E+03  0.25500000920E-02 0. -1.
        2   -1    0    0  501    0  0.00000000000E+00  0.00000000000E+00 -0.84594748630E+03  0.84594748630E+03  0.25500000920E-02 0.  1.
    10030    2    1    2    0    0  0.00000000000E+00  0.00000000000E+00  0.12784861795E+03  0.18197435905E+04  0.18152469436E+04 0.  0.
        2    1    3    3  502    0  0.20736886196E+03  0.46400018708E+03 -0.68992407908E+03  0.85690912787E+03  0.25500000920E-02 0.  1.
       -2    1    3    3    0  502 -0.20736886196E+03 -0.46400018708E+03  0.81777269702E+03  0.96283446268E+03  0.25500000920E-02 0. -1.
</event>
<event>
 5   0  0.3470962E-04  0.1830141E+04  0.7818609E-02  0.8690433E-01
       -1   -1    0    0    0  501  0.00000000000E+00  0.00000000000E+00  0.77121763938E+03  0.77121763940E+03  0.50400001928E-02 0.  1.
        1   -1    0    0  501    0  0.00000000000E+00  0.00000000000E+00 -0.10857555256E+04  0.10857555256E+04  0.50400001928E-02 0. -1.
    10030    2    1    2    0    0  0.00000000000E+00  0.00000000000E+00 -0.31453788624E+03  0.18569731650E+04  0.18301407743E+04 0.  0.
        4    1    3    3  502    0  0.79201132945E+03  0.34728816140E+03  0.14621691620E+03  0.87708153128E+03  0.12699999809E+01 0.  1.
       -4    1    3    3    0  502 -0.79201132945E+03 -0.34728816140E+03 -0.46075480244E+03  0.97989163375E+03  0.12699999809E+01 0. -1.
</event>
<event>
 5   0  0.3308275E-04  0.1793456E+04  0.7818609E-02  0.8709787E-01
       -1   -1    0    0    0  501  0.00000000000E+00  0.00000000000E+00  0.45177551660E+03  0.45177551663E+03  0.50400001928E-02 0. -1.
        1   -1    0    0  501    0  0.00000000000E+00  0.00000000000E+00 -0.17799124299E+04  0.17799124299E+04  0.50400001928E-02 0.  1.
    10030    2    1    2    0    0  0.00000000000E+00  0.00000000000E+00 -0.13281369133E+04  0.22316879465E+04  0.17934557230E+04 0.  0.
        3    1    3    3  502    0 -0.14210542936E+03  0.30847241038E+03 -0.16967833619E+04  0.17304401083E+04  0.10100000352E+00 0.  1.
       -3    1    3    3    0  502  0.14210542936E+03 -0.30847241038E+03  0.36864644862E+03  0.50124783820E+03  0.10100000352E+00 0. -1.
</event>
<event>
 5   0  0.6547153E-04  0.1801884E+04  0.7818609E-02  0.8705298E-01
        2   -1    0    0  501    0  0.00000000000E+00  0.00000000000E+00  0.51001717161E+03  0.51001717161E+03  0.25500000920E-02 0.  1.
       -2   -1    0    0    0  501  0.00000000000E+00  0.00000000000E+00 -0.15915080881E+04  0.15915080881E+04  0.25500000920E-02 0. -1.
    10030    2    1    2    0    0  0.00000000000E+00  0.00000000000E+00 -0.10814909165E+04  0.21015252597E+04  0.18018839626E+04 0.  0.
        5    1    3    3  502    0  0.96037706022E+02 -0.69951642588E+03 -0.11933779207E+04  0.13866215859E+04  0.46999998093E+01 0. -1.
       -5    1    3    3    0  502 -0.96037706022E+02  0.69951642588E+03  0.11188700418E+03  0.71490367376E+03  0.46999998093E+01 0.  1.
</event>
<event>
 5   0  0.6853162E-04  0.1748912E+04  0.7818609E-02  0.8733949E-01
       -2   -1    0    0    0  501  0.00000000000E+00  0.00000000000E+00  0.44177457113E+03  0.44177457114E+03  0.25500000920E-02 0. -1.
        2   -1    0    0  501    0  0.00000000000E+00  0.00000000000E+00 -0.17309138090E+04  0.17309138090E+04  0.25500000920E-02 0.  1.
    10030    2    1    2    0    0  0.00000000000E+00  0.00000000000E+00 -0.12891392379E+04  0.21726883801E+04  0.17489124685E+04 0.  0.
        2    1    3    3  502    0 -0.36625496601E+03  0.55525675375E+03  0.60620551065E+02  0.66792785084E+03  0.25500000920E-02 0. -1.
       -2    1    3    3    0  502  0.36625496601E+03 -0.55525675375E+03 -0.13497597889E+04  0.15047605293E+04  0.25500000920E-02 0.  1.
</event>
<event>
 5   0  0.2467375E-04  0.1801125E+04  0.7818609E-02  0.8705702E-01
        3   -1    0    0  501    0  0.00000000000E+00  0.00000000000E+00  0.14716263534E+04  0.14716263569E+04  0.10100000352E+00 0.  1.
       -3   -1    0    0    0  501  0.00000000000E+00  0.00000000000E+00 -0.55109954308E+03  0.55109955234E+03  0.10100000352E+00 0. -1.
    10030    2    1    2    0    0  0.00000000000E+00  0.00000000000E+00  0.92052681033E+03  0.20227259092E+04  0.18011247862E+04 0.  0.
        4    1    3    3  502    0 -0.70090770080E+03  0.34777251777E+03 -0.40456115936E+02  0.78348939966E+03  0.12699999809E+01 0. -1.
       -4    1    3    3    0  502  0.70090770080E+03 -0.34777251777E+03  0.96098292627E+03  0.12392365096E+04  0.12699999809E+01 0.  1.
</event>
<event>
 5   0  0.3413839E-04  0.1778724E+04  0.7818609E-02  0.8717696E-01
       -1   -1    0    0    0  501  0.00000000000E+00  0.00000000000E+00  0.67936302565E+03  0.67936302566E+03  0.50400001928E-02 0. -1.
        1   -1    0    0  501    0  0.00000000000E+00  0.00000000000E+00 -0.11642744373E+04  0.11642744373E+04  0.50400001928E-02 0.  1.
    10030    2    1    2    0    0  0.00000000000E+00  0.00000000000E+00 -0.48491141168E+03  0.18436374630E+04  0.17787242669E+04 0.  0.
        5    1    3    3  502    0  0.78274013544E+03  0.31343591413E+03  0.50743440358E+02  0.84470182824E+03  0.46999998093E+01 0. -1.
       -5    1    3    3    0  502 -0.78274013544E+03 -0.31343591413E+03 -0.53565485204E+03  0.99893563476E+03  0.46999998093E+01 0.  1.
</event>
<event>
 5   0  0.3377273E-04  0.1659634E+04  0.7818609E-02  0.8784727E-01
        1   -1    0    0  501    0  0.00000000000E+00  0.00000000000E+00  0.12441690125E+04  0.12441690125E+04  0.50400001928E-02 0.  1.
       -1   -1    0    0    0  501  0.00000000000E+00  0.00000000000E+00 -0.55345900176E+03  0.55345900179E+03  0.50400001928E-02 0. -1.
    10030    2    1    2    0    0  0.00000000000E+00  0.00000000000E+00  0.69071001072E+03  0.17976280143E+04  0.16596343449E+04 0.  0.
        2    1    3    3  502    0  0.37838721805E+03 -0.75856100545E+02  0.11410557114E+04  0.12045493644E+04  0.25500000920E-02 0.  1.
       -2    1    3    3    0  502 -0.37838721805E+03  0.75856100545E+02 -0.45034570070E+03  0.59307864985E+03  0.25500000920E-02 0. -1.
</event>
<event>
 5   0  0.3404261E-04  0.1602750E+04  0.7818609E-02  0.8818860E-01
        1   -1    0    0  501    0  0.00000000000E+00  0.00000000000E+00  0.11272158341E+04  0.11272158341E+04  0.50400001928E-02 0.  1.
       -1   -1    0    0    0  501  0.00000000000E+00  0.00000000000E+00 -0.56972391318E+03  0.56972391321E+03  0.50400001928E-02 0. -1.
    10030    2    1    2    0    0  0.00000000000E+00  0.00000000000E+00  0.55749192087E+03  0.16969397473E+04  0.16027499069E+04 0.  0.
        1    1    3    3  502    0 -0.16713479392E+03 -0.65633730135E+03  0.73227575680E+03  0.99746703029E+03  0.50400001928E-02 0.  1.
       -1    1    3    3    0  502  0.16713479392E+03  0.65633730135E+03 -0.17478383593E+03  0.69947271699E+03  0.50400001928E-02 0. -1.
</event>
<event>
 5   0  0.6853162E-04  0.1839006E+04  0.7818609E-02  0.8685827E-01
       -2   -1    0    0    0  501  0.00000000000E+00  0.00000000000E+00  0.32917742710E+03  0.32917742711E+03  0.25500000920E-02 0. -1.
        2   -1    0    0  501    0  0.00000000000E+00  0.00000000000E+00 -0.25684802770E+04  0.25684802770E+04  0.25500000920E-02 0.  1.
    10030    2    1    2    0    0  0.00000000000E+00  0.00000000000E+00 -0.22393028499E+04  0.28976577041E+04  0.18390059588E+04 0.  0.
        2    1    3    3  502    0 -0.55316344072E+03  0.65245320141E+03 -0.16511921208E+04  0.18596022134E+04  0.25500000920E-02 0.  1.
       -2    1    3    3    0  502  0.55316344072E+03 -0.65245320141E+03 -0.58811072910E+03  0.10380554907E+04  0.25500000920E-02 0. -1.
</event>
<event>
 5   0  0.3404261E-04  0.1618106E+04  0.7818609E-02  0.8809501E-01
        1   -1    0    0  501    0  0.00000000000E+00  0.00000000000E+00  0.82063072231E+03  0.82063072233E+03  0.50400001928E-02 0. -1.
       -1   -1    0    0    0  501  0.00000000000E+00  0.00000000000E+00 -0.79763871056E+03  0.79763871057E+03  0.50400001928E-02 0.  1.
    10030    2    1    2    0    0  0.00000000000E+00  0.00000000000E+00  0.22992011753E+02  0.16182694329E+04  0.16181060920E+04 0.  0.
        1    1    3    3  502    0 -0.56271327904E+03 -0.52458817977E+01 -0.56984838318E+03  0.80087510482E+03  0.50400001928E-02 0.  1.
       -1    1    3    3    0  502  0.56271327904E+03  0.52458817977E+01  0.59284039494E+03  0.81739432808E+03  0.50400001928E-02 0. -1.
</event>
<event>
 5   0  0.6547153E-04  0.1660859E+04  0.7818609E-02  0.8784008E-01
        2   -1    0    0  501    0  0.00000000000E+00  0.00000000000E+00  0.11200334349E+04  0.11200334350E+04  0.25500000920E-02 0. -1.
       -2   -1    0    0    0  501  0.00000000000E+00  0.00000000000E+00 -0.61570737127E+03  0.61570737127E+03  0.25500000920E-02 0.  1.
    10030    2    1    2    0    0  0.00000000000E+00  0.00000000000E+00  0.50432606368E+03  0.17357408062E+04  0.16608586237E+04 0.  0.
        5    1    3    3  502    0 -0.63437726944E+03 -0.69025241169E+02  0.80752765119E+03  0.10292336962E+04  0.46999998093E+01 0. -1.
       -5    1    3    3    0  502  0.63437726944E+03  0.69025241169E+02 -0.30320158751E+03  0.70650711006E+03  0.46999998093E+01 0.  1.
</event>
<event>
 5   0  0.3308275E-04  0.1619500E+04  0.7818609E-02  0.8808657E-01
        1   -1    0    0  501    0  0.00000000000E+00  0.00000000000E+00  0.14128600456E+04  0.14128600456E+04  0.50400001928E-02 0. -1.
       -1   -1    0    0    0  501  0.00000000000E+00  0.00000000000E+00 -0.46409082651E+03  0.46409082653E+03  0.50400001928E-02 0.  1.
    10030    2    1    2    0    0  0.00000000000E+00  0.00000000000E+00  0.94876921909E+03  0.18769508721E+04  0.16195003999E+04 0.  0.
        3    1    3    3  502    0 -0.76673425888E+03 -0.15606091890E+03  0.71599267076E+03  0.10606045205E+04  0.10100000352E+00 0. -1.
       -3    1    3    3    0  502  0.76673425888E+03  0.15606091890E+03  0.23277654833E+03  0.81634635162E+03  0.10100000352E+00 0.  1.
</event>
<event>
 5   0  0.2467375E-04  0.2200272E+04  0.7818609E-02  0.8518315E-01
        3   -1    0    0  501    0  0.00000000000E+00  0.00000000000E+00  0.14944383351E+04  0.14944383385E+04  0.10100000352E+00 0. -1.
       -3   -1    0    0    0  501  0.00000000000E+00  0.00000000000E+00 -0.80986883289E+03  0.80986883919E+03  0.10100000352E+00 0.  1.
    10030    2    1    2    0    0  0.00000000000E+00  0.00000000000E+00  0.68456950222E+03  0.23043071777E+04  0.22002718391E+04 0.  0.
        2    1    3    3  502    0  0.54726687836E+03  0.18128135664E+03 -0.63900041193E+03  0.86063086911E+03  0.25500000920E-02 0.  1.
       -2    1    3    3    0  502 -0.54726687836E+03 -0.18128135664E+03  0.13235699142E+04  0.14436763086E+04  0.25500000920E-02 0. -1.
</event>
<event>
 5   0  0.3413839E-04  0.1824274E+04  0.7818609E-02  0.8693497E-01
        1   -1    0    0  501    0  0.00000000000E+00  0.00000000000E+00  0.88137301239E+03  0.88137301240E+03  0.50400001928E-02 0. -1.
       -1   -1    0    0    0  501  0.00000000000E+00  0.00000000000E+00 -0.94397428090E+03  0.94397428091E+03  0.50400001928E-02 0.  1.
    10030    2    1    2    0    0  0.00000000000E+00  0.00000000000E+00 -0.62601268513E+02  0.18253472933E+04  0.18242735054E+04 0.  0.
        5    1    3    3  502    0 -0.40753099821E+03  0.63275200617E+03 -0.54688516829E+03  0.93035589594E+03  0.46999998093E+01 0.  1.
       -5    1    3    3    0  502  0.40753099821E+03 -0.63275200617E+03  0.48428389977E+03  0.89499139738E+03  0.46999998093E+01 0. -1.
</event>
<event>
 5   0  0.6853162E-04  0.1804516E+04  0.7818609E-02  0.8703901E-01
        2   -1    0    0  501    0  0.00000000000E+00  0.00000000000E+00  0.73563315915E+03  0.73563315916E+03  0.25500000920E-02 0.  1.
       -2   -1    0    0    0  501  0.00000000000E+00  0.00000000000E+00 -0.11066246188E+04  0.11066246188E+04  0.25500000920E-02 0. -1.
    10030    2    1    2    0    0  0.00000000000E+00  0.00000000000E+00 -0.37099145961E+03  0.18422577779E+04  0.18045162945E+04 0.  0.
        2    1    3    3  502    0  0.78685063320E+03 -0.43547932103E+03 -0.11121683905E+03  0.90617070318E+03  0.25500000920E-02 0. -1.
       -2    1    3    3    0  502 -0.78685063320E+03  0.43547932103E+03 -0.25977462057E+03  0.93608707475E+03  0.25500000920E-02 0.  1.
</event>
<event>
 5   0  0.2467375E-04  0.1845489E+04  0.7818609E-02  0.8682476E-01
        3   -1    0    0  501    0  0.00000000000E+00  0.00000000000E+00  0.16265585741E+04  0.16265585772E+04  0.10100000352E+00 0.  1.
       -3   -1    0    0    0  501  0.00000000000E+00  0.00000000000E+00 -0.52347166147E+03  0.52347167122E+03  0.10100000352E+00 0. -1.
    10030    2    1    2    0    0  0.00000000000E+00  0.00000000000E+00  0.11030869126E+04  0.21500302485E+04  0.18454889142E+04 0.  0.
        2    1    3    3  502    0  0.18943258147E+03 -0.25898168580E+02 -0.50014183124E+03  0.53544119138E+03  0.25500000920E-02 0. -1.
       -2    1    3    3    0  502 -0.18943258147E+03  0.25898168580E+02  0.16032287439E+04  0.16145890571E+04  0.25500000920E-02 0.  1.
</event>
<event>
 5   0  0.3404261E-04  0.1881891E+04  0.7818609E-02  0.8663923E-01
       -1   -1    0    0    0  501  0.00000000000E+00  0.00000000000E+00  0.82525636972E+03  0.82525636974E+03  0.50400001928E-02 0.  1.
        1   -1    0    0  501    0  0.00000000000E+00  0.00000000000E+00 -0.10728530590E+04  0.10728530590E+04  0.50400001928E-02 0. -1.
    10030    2    1    2    0    0  0.00000000000E+00  0.00000000000E+00 -0.24759668923E+03  0.18981094287E+04  0.18818914110E+04 0.  0.
        1    1    3    3  502    0 -0.79212214113E+03 -0.14372906475E+03  0.36749622141E+03  0.88496836288E+03  0.50400001928E-02 0.  1.
       -1    1    3    3    0  502  0.79212214113E+03  0.14372906475E+03 -0.61509291064E+03  0.10131410658E+04  0.50400001928E-02 0. -1.
</event>
<event>
 5   0  0.6853162E-04  0.1967600E+04  0.7818609E-02  0.8621920E-01
        2   -1    0    0  501    0  0.00000000000E+00  0.00000000000E+00  0.21369122214E+04  0.21369122214E+04  0.25500000920E-02 0.  1.
       -2   -1    0    0    0  501  0.00000000000E+00  0.00000000000E+00 -0.45292583102E+03  0.45292583103E+03  0.25500000920E-02 0. -1.
    10030    2    1    2    0    0  0.00000000000E+00  0.00000000000E+00  0.16839863903E+04  0.25898380524E+04  0.19676003087E+04 0.  0.
        2    1    3    3  502    0  0.31166901332E+02  0.56208814755E+03 -0.21996878421E+03  0.60440113119E+03  0.25500000920E-02 0. -1.
       -2    1    3    3    0  502 -0.31166901332E+02 -0.56208814755E+03  0.19039551745E+04  0.19854369212E+04  0.25500000920E-02 0.  1.
</event>
<event>
 5   0  0.3377273E-04  0.1736928E+04  0.7818609E-02  0.8740579E-01
       -1   -1    0    0    0  501  0.00000000000E+00  0.00000000000E+00  0.76554119876E+03  0.76554119878E+03  0.50400001928E-02 0.  1.
        1   -1    0    0  501    0  0.00000000000E+00  0.00000000000E+00 -0.98522399984E+03  0.98522399985E+03  0.50400001928E-02 0. -1.
    10030    2    1    2    0    0  0.00000000000E+00  0.00000000000E+00 -0.21968280108E+03  0.17507651986E+04  0.17369278188E+04 0.  0.
        2    1    3    3  502    0 -0.13489252938E+03 -0.69624110384E+03  0.39543234396E+03  0.81198177801E+03  0.25500000920E-02 0.  1.
       -2    1    3    3    0  502  0.13489252938E+03  0.69624110384E+03 -0.61511514504E+03  0.93878342062E+03  0.25500000920E-02 0. -1.
</event>
<event>
 5   0  0.3377273E-04  0.1783190E+04  0.7818609E-02  0.8715290E-01
        1   -1    0    0  501    0  0.00000000000E+00  0.00000000000E+00  0.78853428746E+03  0.78853428748E+03  0.50400001928E-02 0.  1.
       -1   -1    0    0    0  501  0.00000000000E+00  0.00000000000E+00 -0.10081260178E+04  0.10081260178E+04  0.50400001928E-02 0. -1.
    10030    2    1    2    0    0  0.00000000000E+00  0.00000000000E+00 -0.21959173037E+03  0.17966603053E+04  0.17831903221E+04 0.  0.
        2    1    3    3  502    0 -0.50540659222E+03  0.26313570830E+03 -0.80073521861E+03  0.98277826328E+03  0.25500000920E-02 0. -1.
       -2    1    3    3    0  502  0.50540659222E+03 -0.26313570830E+03  0.58114348824E+03  0.81388204205E+03  0.25500000920E-02 0.  1.
</event>
<event>
 5   0  0.3470962E-04  0.2102936E+04  0.7818609E-02  0.8559951E-01
        1   -1    0    0  501    0  0.00000000000E+00  0.00000000000E+00  0.17481575259E+04  0.17481575259E+04  0.50400001928E-02 0. -1.
       -1   -1    0    0    0  501  0.00000000000E+00  0.00000000000E+00 -0.63242874165E+03  0.63242874167E+03  0.50400001928E-02 0.  1.
    10030    2    1    2    0    0  0.00000000000E+00  0.00000000000E+00  0.11157287843E+04  0.23805862676E+04  0.21029361040E+04 0.  0.
        4    1    3    3  502    0  0.86927831551E+03 -0.58019460440E+03  0.42724913818E+03  0.11290766173E+04  0.12699999809E+01 0.  1.
       -4    1    3    3    0  502 -0.86927831551E+03  0.58019460440E+03  0.68847964611E+03  0.12515096503E+04  0.12699999809E+01 0. -1.
</event>
<event>
 5   0  0.3470962E-04  0.1602749E+04  0.7818609E-02  0.8818861E-01
        1   -1    0    0  501    0  0.00000000000E+00  0.00000000000E+00  0.12192901366E+04  0.12192901366E+04  0.50400001928E-02 0. -1.
       -1   -1    0    0    0  501  0.00000000000E+00  0.00000000000E+00 -0.52670057829E+03  0.52670057832E+03  0.50400001928E-02 0.  1.
    10030    2    1    2    0    0  0.00000000000E+00  0.00000000000E+00  0.69258955831E+03  0.17459907149E+04  0.16027486641E+04 0.  0.
        4    1    3    3  502    0 -0.45906901823E+03 -0.12127309427E+03 -0.35696066327E+03  0.59403203189E+03  0.12699999809E+01 0.  1.
       -4    1    3    3    0  502  0.45906901823E+03  0.12127309427E+03  0.10495502216E+04  0.11519586830E+04  0.12699999809E+01 0. -1.
</event>
<event>
 5   0  0.3413839E-04  0.1751318E+04  0.7818609E-02  0.8732625E-01
        1   -1    0    0  501    0  0.00000000000E+00  0.00000000000E+00  0.12902986386E+04  0.12902986386E+04  0.50400001928E-02 0. -1.
       -1   -1    0    0    0  501  0.00000000000E+00  0.00000000000E+00 -0.59426478257E+03  0.59426478259E+03  0.50400001928E-02 0.  1.
    10030    2    1    2    0    0  0.00000000000E+00  0.00000000000E+00  0.69603385600E+03  0.18845634212E+04  0.17513184061E+04 0.  0.
        5    1    3    3  502    0  0.39005216921E+03 -0.76927282725E+02  0.11875672695E+04  0.12523564233E+04  0.46999998093E+01 0. -1.
       -5    1    3    3    0  502 -0.39005216921E+03  0.76927282725E+02 -0.49153341348E+03  0.63220699783E+03  0.46999998093E+01 0.  1.
</event>
<event>
 5   0  0.3308275E-04  0.1916351E+04  0.7818609E-02  0.8646760E-01
       -1   -1    0    0    0  501  0.00000000000E+00  0.00000000000E+00  0.16963981669E+04  0.16963981669E+04  0.50400001928E-02 0. -1.
        1   -1    0    0  501    0  0.00000000000E+00  0.00000000000E+00 -0.54120577142E+03  0.54120577144E+03  0.50400001928E-02 0.  1.
    10030    2    1    2    0    0  0.00000000000E+00  0.00000000000E+00  0.11551923955E+04  0.22376039384E+04  0.19163511981E+04 0.  0.
        3    1    3    3  502    0  0.42241767437E+02 -0.27470163371E+03  0.16482984103E+04  0.16715660364E+04  0.10100000352E+00 0. -1.
       -3    1    3    3    0  502 -0.42241767437E+02  0.27470163371E+03 -0.49310601477E+03  0.56603790199E+03  0.10100000352E+00 0.  1.
</event>
<event>
 5   0  0.6547153E-04  0.1802717E+04  0.7818609E-02  0.8704856E-01
       -2   -1    0    0    0  501  0.00000000000E+00  0.00000000000E+00  0.43970221040E+03  0.43970221040E+03  0.25500000920E-02 0. -1.
        2   -1    0    0  501    0  0.00000000000E+00  0.00000000000E+00 -0.18477215671E+04  0.18477215671E+04  0.25500000920E-02 0.  1.
    10030    2    1    2    0    0  0.00000000000E+00  0.00000000000E+00 -0.14080193567E+04  0.22874237775E+04  0.18027171240E+04 0.  0.
        5    1    3    3  502    0 -0.11194505596E+03 -0.11143200200E+03  0.42198883055E+03  0.45060564769E+03  0.46999998093E+01 0. -1.
       -5    1    3    3    0  502  0.11194505596E+03  0.11143200200E+03 -0.18300081872E+04  0.18368181298E+04  0.46999998093E+01 0.  1.
</event>
<event>
 5   0  0.3413839E-04  0.1737567E+04  0.7818609E-02  0.8740224E-01
       -1   -1    0    0    0  501  0.00000000000E+00  0.00000000000E+00  0.95188438674E+03  0.95188438675E+03  0.50400001928E-02 0. -1.
        1   -1    0    0  501    0  0.00000000000E+00  0.00000000000E+00 -0.79293712141E+03  0.79293712142E+03  0.50400001928E-02 0.  1.
    10030    2    1    2    0    0  0.00000000000E+00  0.00000000000E+00  0.15894726533E+03  0.17448215082E+04  0.17375666497E+04 0.  0.
        5    1    3    3  502    0 -0.54897487551E+03  0.73996625531E+02  0.75153137859E+03  0.93363291369E+03  0.46999998093E+01 0. -1.
       -5    1    3    3    0  502  0.54897487551E+03 -0.73996625531E+02 -0.59258411326E+03  0.81118859448E+03  0.46999998093E+01 0.  1.
</event>
<event>
 5   0  0.6771967E-04  0.1815859E+04  0.7818609E-02  0.8697911E-01
       -2   -1    0    0    0  501  0.00000000000E+00  0.00000000000E+00  0.49057814113E+03  0.49057814114E+03  0.25500000920E-02 0. -1.
        2   -1    0    0  501    0  0.00000000000E+00  0.00000000000E+00 -0.16803352582E+04  0.16803352582E+04  0.25500000920E-02 0.  1.
    10030    2    1    2    0    0  0.00000000000E+00  0.00000000000E+00 -0.11897571170E+04  0.21709133993E+04  0.18158587472E+04 0.  0.
        1    1    3    3  502    0 -0.48731649850E+03  0.68522297979E+03 -0.18537188371E+03  0.86102882474E+03  0.50400001928E-02 0. -1.
       -1    1    3    3    0  502  0.48731649850E+03 -0.68522297979E+03 -0.10043852333E+04  0.13098845746E+04  0.50400001928E-02 0.  1.
</event>
<event>
 5   0  0.3308275E-04  0.1787591E+04  0.7818609E-02  0.8712926E-01
        1   -1    0    0  501    0  0.00000000000E+00  0.00000000000E+00  0.16024602006E+04  0.16024602006E+04  0.50400001928E-02 0. -1.
       -1   -1    0    0    0  501  0.00000000000E+00  0.00000000000E+00 -0.49852766083E+03  0.49852766086E+03  0.50400001928E-02 0.  1.
    10030    2    1    2    0    0  0.00000000000E+00  0.00000000000E+00  0.11039325398E+04  0.21009878615E+04  0.17875913799E+04 0.  0.
        3    1    3    3  502    0  0.88624990678E+03 -0.11785000353E+02  0.41645798716E+03  0.97929313731E+03  0.10100000352E+00 0.  1.
       -3    1    3    3    0  502 -0.88624990678E+03  0.11785000353E+02  0.68747455259E+03  0.11216947241E+04  0.10100000352E+00 0. -1.
</event>
<event>
 5   0  0.3377273E-04  0.1762466E+04  0.7818609E-02  0.8726518E-01
        1   -1    0    0  501    0  0.00000000000E+00  0.00000000000E+00  0.18345770982E+04  0.18345770982E+04  0.50400001928E-02 0.  1.
       -1   -1    0    0    0  501  0.00000000000E+00  0.00000000000E+00 -0.42329725579E+03  0.42329725582E+03  0.50400001928E-02 0. -1.
    10030    2    1    2    0    0  0.00000000000E+00  0.00000000000E+00  0.14112798424E+04  0.22578743540E+04  0.17624658309E+04 0.  0.
        2    1    3    3  502    0 -0.15855408012E+03 -0.79312305745E+03  0.25746427425E+03  0.84880588659E+03  0.25500000920E-02 0. -1.
       -2    1    3    3    0  502  0.15855408012E+03  0.79312305745E+03  0.11538155682E+04  0.14090684674E+04  0.25500000920E-02 0.  1.
</event>
<event>
 5   0  0.6771967E-04  0.1796049E+04  0.7818609E-02  0.8708404E-01
        2   -1    0    0  501    0  0.00000000000E+00  0.00000000000E+00  0.69206751630E+03  0.69206751630E+03  0.25500000920E-02 0.  1.
       -2   -1    0    0    0  501  0.00000000000E+00  0.00000000000E+00 -0.11652730635E+04  0.11652730635E+04  0.25500000920E-02 0. -1.
    10030    2    1    2    0    0  0.00000000000E+00  0.00000000000E+00 -0.47320554724E+03  0.18573405798E+04  0.17960485905E+04 0.  0.
        1    1    3    3  502    0 -0.21093741150E+02  0.60051601913E+03 -0.92674782936E+03  0.11045025914E+04  0.50400001928E-02 0. -1.
       -1    1    3    3    0  502  0.21093741150E+02 -0.60051601913E+03  0.45354228213E+03  0.75283798844E+03  0.50400001928E-02 0.  1.
</event>
<event>
 5   0  0.6929121E-04  0.1805346E+04  0.7818609E-02  0.8703462E-01
        2   -1    0    0  501    0  0.00000000000E+00  0.00000000000E+00  0.39293770981E+03  0.39293770982E+03  0.25500000920E-02 0. -1.
       -2   -1    0    0    0  501  0.00000000000E+00  0.00000000000E+00 -0.20736572460E+04  0.20736572460E+04  0.25500000920E-02 0.  1.
    10030    2    1    2    0    0  0.00000000000E+00  0.00000000000E+00 -0.16807195362E+04  0.24665949559E+04  0.18053455394E+04 0.  0.
        3    1    3    3  502    0  0.53303077923E+03  0.22848261376E+03 -0.17854534145E+04  0.18772772895E+04  0.10100000352E+00 0.  1.
       -3    1    3    3    0  502 -0.53303077923E+03 -0.22848261376E+03  0.10473387822E+03  0.58931766633E+03  0.10100000352E+00 0. -1.
</event>
<event>
 5   0  0.6771967E-04  0.1811838E+04  0.7818609E-02  0.8700030E-01
        2   -1    0    0  501    0  0.00000000000E+00  0.00000000000E+00  0.96271372391E+03  0.96271372391E+03  0.25500000920E-02 0. -1.
       -2   -1    0    0    0  501  0.00000000000E+00  0.00000000000E+00 -0.85247443144E+03  0.85247443144E+03  0.25500000920E-02 0.  1.
    10030    2    1    2    0    0  0.00000000000E+00  0.00000000000E+00  0.11023929247E+03  0.18151881554E+04  0.18118375583E+04 0.  0.
        1    1    3    3  502    0 -0.90473981969E+03  0.41695110643E+02  0.75061501588E+02  0.90880517859E+03  0.50400001928E-02 0.  1.
       -1    1    3    3    0  502  0.90473981969E+03 -0.41695110643E+02  0.35177790877E+02  0.90638297677E+03  0.50400001928E-02 0. -1.
</event>
<event>
 5   0  0.6929121E-04  0.1798184E+04  0.7818609E-02  0.8707266E-01
        2   -1    0    0  501    0  0.00000000000E+00  0.00000000000E+00  0.20415622798E+04  0.20415622798E+04  0.25500000920E-02 0. -1.
       -2   -1    0    0    0  501  0.00000000000E+00  0.00000000000E+00 -0.39595493638E+03  0.39595493639E+03  0.25500000920E-02 0.  1.
    10030    2    1    2    0    0  0.00000000000E+00  0.00000000000E+00  0.16456073434E+04  0.24375172162E+04  0.17981842649E+04 0.  0.
        3    1    3    3  502    0 -0.62001345751E+01 -0.28620201397E+03 -0.33252721559E+03  0.43877601778E+03  0.10100000352E+00 0.  1.
       -3    1    3    3    0  502  0.62001345751E+01  0.28620201397E+03  0.19781345590E+04  0.19987411984E+04  0.10100000352E+00 0. -1.
</event>
<event>
 5   0  0.6853162E-04  0.1751357E+04  0.7818609E-02  0.8732604E-01
        2   -1    0    0  501    0  0.00000000000E+00  0.00000000000E+00  0.94181708052E+03  0.94181708052E+03  0.25500000920E-02 0. -1.
       -2   -1    0    0    0  501  0.00000000000E+00  0.00000000000E+00 -0.81418419139E+03  0.81418419139E+03  0.25500000920E-02 0.  1.
    10030    2    1    2    0    0  0.00000000000E+00  0.00000000000E+00  0.12763288914E+03  0.17560012719E+04  0.17513567063E+04 0.  0.
        2    1    3    3  502    0 -0.56782609047E+03 -0.60420015486E+03  0.34621615097E+03  0.89852652679E+03  0.25500000920E-02 0. -1.
       -2    1    3    3    0  502  0.56782609047E+03  0.60420015486E+03 -0.21858326183E+03  0.85747474512E+03  0.25500000920E-02 0.  1.
</event>
<event>
 5   0  0.6771967E-04  0.1705543E+04  0.7818609E-02  0.8758209E-01
        2   -1    0    0  501    0  0.00000000000E+00  0.00000000000E+00  0.85470459199E+03  0.85470459199E+03  0.25500000920E-02 0. -1.
       -2   -1    0    0    0  501  0.00000000000E+00  0.00000000000E+00 -0.85084303964E+03  0.85084303964E+03  0.25500000920E-02 0.  1.
    10030    2    1    2    0    0  0.00000000000E+00  0.00000000000E+00  0.38615523555E+01  0.17055476316E+04  0.17055432601E+04 0.  0.
        1    1    3    3  502    0  0.42842702206E+02  0.78197504895E+03 -0.33555931638E+03  0.85200970015E+03  0.50400001928E-02 0.  1.
       -1    1    3    3    0  502 -0.42842702206E+02 -0.78197504895E+03  0.33942086873E+03  0.85353793148E+03  0.50400001928E-02 0. -1.
</event>
<event>
 5   0  0.3413839E-04  0.1735923E+04  0.7818609E-02  0.8741137E-01
       -1   -1    0    0    0  501  0.00000000000E+00  0.00000000000E+00  0.76722574862E+03  0.76722574863E+03  0.50400001928E-02 0.  1.
        1   -1    0    0  501    0  0.00000000000E+00  0.00000000000E+00 -0.98192391617E+03  0.98192391619E+03  0.50400001928E-02 0. -1.
    10030    2    1    2    0    0  0.00000000000E+00  0.00000000000E+00 -0.21469816756E+03  0.17491496648E+04  0.17359231685E+04 0.  0.
        5    1    3    3  502    0 -0.35341266448E+03 -0.69720741228E+03  0.27280062808E+03  0.82791361858E+03  0.46999998093E+01 0. -1.
       -5    1    3    3    0  502  0.35341266448E+03  0.69720741228E+03 -0.48749879563E+03  0.92123604624E+03  0.46999998093E+01 0.  1.
</event>
<event>
 5   0  0.3413839E-04  0.1790279E+04  0.7818609E-02  0.8711486E-01
       -1   -1    0    0    0  501  0.00000000000E+00  0.00000000000E+00  0.56202397968E+03  0.56202397971E+03  0.50400001928E-02 0. -1.
        1   -1    0    0  501    0  0.00000000000E+00  0.00000000000E+00 -0.14256956873E+04  0.14256956873E+04  0.50400001928E-02 0.  1.
    10030    2    1    2    0    0  0.00000000000E+00  0.00000000000E+00 -0.86367170763E+03  0.19877196670E+04  0.17902794911E+04 0.  0.
        5    1    3    3  502    0  0.67693151756E+03 -0.54646308740E+03 -0.66577385984E+03  0.10955067813E+04  0.46999998093E+01 0. -1.
       -5    1    3    3    0  502 -0.67693151756E+03  0.54646308740E+03 -0.19789784779E+03  0.89221288576E+03  0.46999998093E+01 0.  1.
</event>
<event>
 5   0  0.6853162E-04  0.1809240E+04  0.7818609E-02  0.8701401E-01
       -2   -1    0    0    0  501  0.00000000000E+00  0.00000000000E+00  0.58820597255E+03  0.58820597255E+03  0.25500000920E-02 0.  1.
        2   -1    0    0  501    0  0.00000000000E+00  0.00000000000E+00 -0.13912435427E+04  0.13912435427E+04  0.25500000920E-02 0. -1.
    10030    2    1    2    0    0  0.00000000000E+00  0.00000000000E+00 -0.80303757019E+03  0.19794495153E+04  0.18092404607E+04 0.  0.
        2    1    3    3  502    0  0.48028993064E+02 -0.36023116327E+03  0.50482696103E+03  0.62203178034E+03  0.25500000920E-02 0.  1.
       -2    1    3    3    0  502 -0.48028993064E+02  0.36023116327E+03 -0.13078645312E+04  0.13574177350E+04  0.25500000920E-02 0. -1.
</event>
<event>
 5   0  0.3308275E-04  0.1642450E+04  0.7818609E-02  0.8794885E-01
        1   -1    0    0  501    0  0.00000000000E+00  0.00000000000E+00  0.87066934774E+03  0.87066934776E+03  0.50400001928E-02 0. -1.
       -1   -1    0    0    0  501  0.00000000000E+00  0.00000000000E+00 -0.77458873293E+03  0.77458873295E+03  0.50400001928E-02 0.  1.
    10030    2    1    2    0    0  0.00000000000E+00  0.00000000000E+00  0.96080614808E+02  0.16452580807E+04  0.16424502025E+04 0.  0.
        3    1    3    3  502    0  0.80914318093E+03 -0.11723990544E+03  0.12532643001E+03  0.82714243449E+03  0.10100000352E+00 0.  1.
       -3    1    3    3    0  502 -0.80914318093E+03  0.11723990544E+03 -0.29245815198E+02  0.81811564622E+03  0.10100000352E+00 0. -1.
</event>
<event>
 5   0  0.3413839E-04  0.1800750E+04  0.7818609E-02  0.8705901E-01
        1   -1    0    0  501    0  0.00000000000E+00  0.00000000000E+00  0.15407356336E+04  0.15407356336E+04  0.50400001928E-02 0.  1.
       -1   -1    0    0    0  501  0.00000000000E+00  0.00000000000E+00 -0.52616115038E+03  0.52616115040E+03  0.50400001928E-02 0. -1.
    10030    2    1    2    0    0  0.00000000000E+00  0.00000000000E+00  0.10145744832E+04  0.20668967840E+04  0.18007501031E+04 0.  0.
        5    1    3    3  502    0 -0.44053096956E+03 -0.21264586101E+03  0.13748942460E+04  0.14593293237E+04  0.46999998093E+01 0.  1.
       -5    1    3    3    0  502  0.44053096956E+03  0.21264586101E+03 -0.36031976279E+03  0.60756746029E+03  0.46999998093E+01 0. -1.
</event>
<event>
 5   0  0.2467375E-04  0.1764823E+04  0.7818609E-02  0.8725233E-01
       -4   -1    0    0    0  501  0.00000000000E+00  0.00000000000E+00  0.70618592998E+03  0.70618707196E+03  0.12699999809E+01 0. -1.
        4   -1    0    0  501    0  0.00000000000E+00  0.00000000000E+00 -0.11026113659E+04  0.11026120973E+04  0.12699999809E+01 0.  1.
    10030    2    1    2    0    0  0.00000000000E+00  0.00000000000E+00 -0.39642543597E+03  0.18087991693E+04  0.17648233080E+04 0.  0.
        2    1    3    3  502    0 -0.27600851858E+03 -0.42427099766E+03 -0.93904039446E+03  0.10667630685E+04  0.25500000920E-02 0.  1.
       -2    1    3    3    0  502  0.27600851858E+03  0.42427099766E+03  0.54261495849E+03  0.74203610085E+03  0.25500000920E-02 0. -1.
</event>
<event>
 5   0  0.6929121E-04  0.1749430E+04  0.7818609E-02  0.8733664E-01
        2   -1    0    0  501    0  0.00000000000E+00  0.00000000000E+00  0.20441413647E+04  0.20441413647E+04  0.25500000920E-02 0.  1.
       -2   -1    0    0    0  501  0.00000000000E+00  0.00000000000E+00 -0.37430222094E+03  0.37430222095E+03  0.25500000920E-02 0. -1.
    10030    2    1    2    0    0  0.00000000000E+00  0.00000000000E+00  0.16698391437E+04  0.24184435856E+04  0.17494303676E+04 0.  0.
        3    1    3    3  502    0  0.84570065800E+03 -0.19034259796E+03  0.67319007733E+03  0.10975540069E+04  0.10100000352E+00 0. -1.
       -3    1    3    3    0  502 -0.84570065800E+03  0.19034259796E+03  0.99664906642E+03  0.13208895788E+04  0.10100000352E+00 0.  1.
</event>
<event>
 5   0  0.3413839E-04  0.1791998E+04  0.7818609E-02  0.8710566E-01
        1   -1    0    0  501    0  0.00000000000E+00  0.00000000000E+00  0.17873987811E+04  0.17873987812E+04  0.50400001928E-02 0. -1.
       -1   -1    0    0    0  501  0.00000000000E+00  0.00000000000E+00 -0.44915228283E+03  0.44915228285E+03  0.50400001928E-02 0.  1.
    10030    2    1    2    0    0  0.00000000000E+00  0.00000000000E+00  0.13382464983E+04  0.22365510640E+04  0.17919980390E+04 0.  0.
        5    1    3    3  502    0 -0.59543044736E+03 -0.66752203115E+03  0.73360272977E+03  0.11568570071E+04  0.46999998093E+01 0. -1.
       -5    1    3    3    0  502  0.59543044736E+03  0.66752203115E+03  0.60464376856E+03  0.10796940569E+04  0.46999998093E+01 0.  1.
</event>
<event>
 5   0  0.6853162E-04  0.1842510E+04  0.7818609E-02  0.8684014E-01
        2   -1    0    0  501    0  0.00000000000E+00  0.00000000000E+00  0.11398988019E+04  0.11398988019E+04  0.25500000920E-02 0. -1.
       -2   -1    0    0    0  501  0.00000000000E+00  0.00000000000E+00 -0.74454891544E+03  0.74454891544E+03  0.25500000920E-02 0.  1.
    10030    2    1    2    0    0  0.00000000000E+00  0.00000000000E+00  0.39534988647E+03  0.18844477173E+04  0.18425096110E+04 0.  0.
        2    1    3    3  502    0 -0.44094594622E+03  0.40860450177E+03  0.91164698166E+03  0.10920124475E+04  0.25500000920E-02 0. -1.
       -2    1    3    3    0  502  0.44094594622E+03 -0.40860450177E+03 -0.51629709520E+03  0.79243526983E+03  0.25500000920E-02 0.  1.
</event>
<event>
 5   0  0.3404261E-04  0.1712844E+04  0.7818609E-02  0.8754073E-01
        1   -1    0    0  501    0  0.00000000000E+00  0.00000000000E+00  0.19121497390E+04  0.19121497390E+04  0.50400001928E-02 0. -1.
       -1   -1    0    0    0  501  0.00000000000E+00  0.00000000000E+00 -0.38357792728E+03  0.38357792731E+03  0.50400001928E-02 0.  1.
    10030    2    1    2    0    0  0.00000000000E+00  0.00000000000E+00  0.15285718117E+04  0.22957276663E+04  0.17128437565E+04 0.  0.
        1    1    3    3  502    0 -0.69018683743E+03 -0.46183979976E+03  0.10448049122E+04  0.13346427146E+04  0.50400001928E-02 0. -1.
       -1    1    3    3    0  502  0.69018683743E+03  0.46183979976E+03  0.48376689953E+03  0.96108495166E+03  0.50400001928E-02 0.  1.
</event>
<event>
 5   0  0.2467375E-04  0.1384260E+04  0.7818609E-02  0.8965292E-01
       -3   -1    0    0    0  501  0.00000000000E+00  0.00000000000E+00  0.75866301905E+03  0.75866302578E+03  0.10100000352E+00 0. -1.
        3   -1    0    0  501    0  0.00000000000E+00  0.00000000000E+00 -0.63143134977E+03  0.63143135785E+03  0.10100000352E+00 0.  1.
    10030    2    1    2    0    0  0.00000000000E+00  0.00000000000E+00  0.12723166928E+03  0.13900943836E+04  0.13842595485E+04 0.  0.
        3    1    3    3  502    0 -0.47698513069E+03  0.46104836368E+02  0.56512366945E+03  0.74094888002E+03  0.10100000352E+00 0. -1.
       -3    1    3    3    0  502  0.47698513069E+03 -0.46104836368E+02 -0.43789200016E+03  0.64914550360E+03  0.10100000352E+00 0.  1.
</event>
<event>
 5   0  0.6929121E-04  0.1755676E+04  0.7818609E-02  0.8730232E-01
       -2   -1    0    0    0  501  0.00000000000E+00  0.00000000000E+00  0.68212956351E+03  0.68212956351E+03  0.25500000920E-02 0. -1.
        2   -1    0    0  501    0  0.00000000000E+00  0.00000000000E+00 -0.11296973835E+04  0.11296973835E+04  0.25500000920E-02 0.  1.
    10030    2    1    2    0    0  0.00000000000E+00  0.00000000000E+00 -0.44756782001E+03  0.18118269470E+04  0.17556764886E+04 0.  0.
        3    1    3    3  502    0  0.63495772523E+03 -0.73436887637E+02  0.39715362104E+03  0.75252594521E+03  0.10100000352E+00 0. -1.
       -3    1    3    3    0  502 -0.63495772523E+03  0.73436887637E+02 -0.84472144106E+03  0.10593010018E+04  0.10100000352E+00 0.  1.
</event>
<event>
 5   0  0.3377273E-04  0.1862231E+04  0.7818609E-02  0.8673888E-01
        1   -1    0    0  501    0  0.00000000000E+00  0.00000000000E+00  0.19267016857E+04  0.19267016857E+04  0.50400001928E-02 0. -1.
       -1   -1    0    0    0  501  0.00000000000E+00  0.00000000000E+00 -0.44997920542E+03  0.44997920545E+03  0.50400001928E-02 0.  1.
    10030    2    1    2    0    0  0.00000000000E+00  0.00000000000E+00  0.14767224803E+04  0.23766808911E+04  0.18622305911E+04 0.  0.
        2    1    3    3  502    0 -0.33498950943E+03 -0.27931575893E+03  0.17882625535E+04  0.18406841730E+04  0.25500000920E-02 0. -1.
       -2    1    3    3    0  502  0.33498950943E+03  0.27931575893E+03 -0.31154007322E+03  0.53599671813E+03  0.25500000920E-02 0.  1.
</event>
<event>
 5   0  0.3308275E-04  0.1809516E+04  0.7818609E-02  0.8701255E-01
        1   -1    0    0  501    0  0.00000000000E+00  0.00000000000E+00  0.11528381223E+04  0.11528381223E+04  0.50400001928E-02 0. -1.
       -1   -1    0    0    0  501  0.00000000000E+00  0.00000000000E+00 -0.71006218804E+03  0.71006218806E+03  0.50400001928E-02 0.  1.
    10030    2    1    2    0    0  0.00000000000E+00  0.00000000000E+00  0.44277593424E+03  0.18629003104E+04  0.18095156917E+04 0.  0.
        3    1    3    3  502    0  0.30453614021E+03  0.70158548936E+03 -0.27621664801E+03  0.81317901253E+03  0.10100000352E+00 0.  1.
       -3    1    3    3    0  502 -0.30453614021E+03 -0.70158548936E+03  0.71899258225E+03  0.10497212978E+04  0.10100000352E+00 0. -1.
</event>
<event>
 5   0  0.3413839E-04  0.1523308E+04  0.7818609E-02  0.8869100E-01
        1   -1    0    0  501    0  0.00000000000E+00  0.00000000000E+00  0.13156683250E+04  0.13156683250E+04  0.50400001928E-02 0. -1.
       -1   -1    0    0    0  501  0.00000000000E+00  0.00000000000E+00 -0.44092917606E+03  0.44092917609E+03  0.50400001928E-02 0.  1.
    10030    2    1    2    0    0  0.00000000000E+00  0.00000000000E+00  0.87473914895E+03  0.17565975011E+04  0.15233076519E+04 0.  0.
        5    1    3    3  502    0  0.58920534094E+03  0.21945377103E+03 -0.58311355031E+02  0.63146274279E+03  0.46999998093E+01 0.  1.
       -5    1    3    3    0  502 -0.58920534094E+03 -0.21945377103E+03  0.93305050398E+03  0.11251347583E+04  0.46999998093E+01 0. -1.
</event>
<event>
 5   0  0.3377273E-04  0.1491002E+04  0.7818609E-02  0.8890459E-01
        1   -1    0    0  501    0  0.00000000000E+00  0.00000000000E+00  0.70531676594E+03  0.70531676595E+03  0.50400001928E-02 0.  1.
       -1   -1    0    0    0  501  0.00000000000E+00  0.00000000000E+00 -0.78797447870E+03  0.78797447871E+03  0.50400001928E-02 0. -1.
    10030    2    1    2    0    0  0.00000000000E+00  0.00000000000E+00 -0.82657712761E+02  0.14932912447E+04  0.14910018256E+04 0.  0.
        2    1    3    3  502    0 -0.14508876071E+03  0.41307273038E+03  0.56299784272E+03  0.71319450361E+03  0.25500000920E-02 0.  1.
       -2    1    3    3    0  502  0.14508876071E+03 -0.41307273038E+03 -0.64565555549E+03  0.78009674105E+03  0.25500000920E-02 0. -1.
</event>
<event>
 5   0  0.6774451E-04  0.1800291E+04  0.7818609E-02  0.8706145E-01
       -2   -1    0    0    0  501  0.00000000000E+00  0.00000000000E+00  0.82354147903E+03  0.82354147904E+03  0.25500000920E-02 0.  1.
        2   -1    0    0  501    0  0.00000000000E+00  0.00000000000E+00 -0.98387472517E+03  0.98387472518E+03  0.25500000920E-02 0. -1.
    10030    2    1    2    0    0  0.00000000000E+00  0.00000000000E+00 -0.16033324614E+03  0.18074162042E+04  0.18002906947E+04 0.  0.
        4    1    3    3  502    0  0.17702007643E+02  0.75556615249E+03 -0.57104608477E+03  0.94725330070E+03  0.12699999809E+01 0. -1.
       -4    1    3    3    0  502 -0.17702007643E+02 -0.75556615249E+03  0.41071283863E+03  0.86016290351E+03  0.12699999809E+01 0.  1.
</event>
<event>
 5   0  0.3470962E-04  0.1729863E+04  0.7818609E-02  0.8744513E-01
       -1   -1    0    0    0  501  0.00000000000E+00  0.00000000000E+00  0.12893397144E+04  0.12893397144E+04  0.50400001928E-02 0.  1.
        1   -1    0    0  501    0  0.00000000000E+00  0.00000000000E+00 -0.58022454451E+03  0.58022454453E+03  0.50400001928E-02 0. -1.
    10030    2    1    2    0    0  0.00000000000E+00  0.00000000000E+00  0.70911516989E+03  0.18695642589E+04  0.17298630565E+04 0.  0.
        4    1    3    3  502    0 -0.32742245801E+03  0.36681476688E+03  0.11236039696E+04  0.12264770820E+04  0.12699999809E+01 0.  1.
       -4    1    3    3    0  502  0.32742245801E+03 -0.36681476688E+03 -0.41448879969E+03  0.64308717697E+03  0.12699999809E+01 0. -1.
</event>
<event>
 5   0  0.3413839E-04  0.1538164E+04  0.7818609E-02  0.8859464E-01
        1   -1    0    0  501    0  0.00000000000E+00  0.00000000000E+00  0.14683685693E+04  0.14683685694E+04  0.50400001928E-02 0. -1.
       -1   -1    0    0    0  501  0.00000000000E+00  0.00000000000E+00 -0.40281914247E+03  0.40281914250E+03  0.50400001928E-02 0.  1.
    10030    2    1    2    0    0  0.00000000000E+00  0.00000000000E+00  0.10655494269E+04  0.18711877118E+04  0.15381637988E+04 0.  0.
        5    1    3    3  502    0 -0.41302020559E+03 -0.23184874116E+03 -0.20431772693E+03  0.51585594165E+03  0.46999998093E+01 0.  1.
       -5    1    3    3    0  502  0.41302020559E+03  0.23184874116E+03  0.12698671538E+04  0.13553317702E+04  0.46999998093E+01 0. -1.
</event>
<event>
 5   0  0.2467375E-04  0.1765813E+04  0.7818609E-02  0.8724694E-01
       -4   -1    0    0    0  501  0.00000000000E+00  0.00000000000E+00  0.13187230880E+04  0.13187236995E+04  0.12699999809E+01 0.  1.
        4   -1    0    0  501    0  0.00000000000E+00  0.00000000000E+00 -0.59111848255E+03  0.59111984682E+03  0.12699999809E+01 0. -1.
    10030    2    1    2    0    0  0.00000000000E+00  0.00000000000E+00  0.72760460540E+03  0.19098435463E+04  0.17658125352E+04 0.  0.
        5    1    3    3  502    0  0.45425805429E+01 -0.79980397317E+03  0.76819007600E+03  0.11089838202E+04  0.46999998093E+01 0.  1.
       -5    1    3    3    0  502 -0.45425805429E+01  0.79980397317E+03 -0.40585470600E+02  0.80085972614E+03  0.46999998093E+01 0. -1.
</event>
<event>
 5   0  0.6771967E-04  0.1786904E+04  0.7818609E-02  0.8713295E-01
        2   -1    0    0  501    0  0.00000000000E+00  0.00000000000E+00  0.93606472037E+03  0.93606472037E+03  0.25500000920E-02 0. -1.
       -2   -1    0    0    0  501  0.00000000000E+00  0.00000000000E+00 -0.85277962679E+03  0.85277962680E+03  0.25500000920E-02 0.  1.
    10030    2    1    2    0    0  0.00000000000E+00  0.00000000000E+00  0.83285093575E+02  0.17888443472E+04  0.17869044999E+04 0.  0.
        1    1    3    3  502    0  0.26349088919E+03  0.77261239648E+03  0.40521660028E+03  0.91134947032E+03  0.50400001928E-02 0. -1.
       -1    1    3    3    0  502 -0.26349088919E+03 -0.77261239648E+03 -0.32193150671E+03  0.87749487686E+03  0.50400001928E-02 0.  1.
</event>
<event>
 5   0  0.6929121E-04  0.1790421E+04  0.7818609E-02  0.8711410E-01
       -2   -1    0    0    0  501  0.00000000000E+00  0.00000000000E+00  0.41920261339E+03  0.41920261339E+03  0.25500000920E-02 0. -1.
        2   -1    0    0  501    0  0.00000000000E+00  0.00000000000E+00 -0.19117283157E+04  0.19117283157E+04  0.25500000920E-02 0.  1.
    10030    2    1    2    0    0  0.00000000000E+00  0.00000000000E+00 -0.14925257023E+04  0.23309309291E+04  0.17904206277E+04 0.  0.
        3    1    3    3  502    0 -0.36481187757E+03 -0.67273059113E+03 -0.13509727227E+04  0.15526691412E+04  0.10100000352E+00 0. -1.
       -3    1    3    3    0  502  0.36481187757E+03  0.67273059113E+03 -0.14155297957E+03  0.77826178788E+03  0.10100000352E+00 0.  1.
</event>
<event>
 5   0  0.6929121E-04  0.1777459E+04  0.7818609E-02  0.8718379E-01
       -2   -1    0    0    0  501  0.00000000000E+00  0.00000000000E+00  0.93710339129E+03  0.93710339129E+03  0.25500000920E-02 0. -1.
        2   -1    0    0  501    0  0.00000000000E+00  0.00000000000E+00 -0.84285261120E+03  0.84285261120E+03  0.25500000920E-02 0.  1.
    10030    2    1    2    0    0  0.00000000000E+00  0.00000000000E+00  0.94250780087E+02  0.17799560025E+04  0.17774589056E+04 0.  0.
        3    1    3    3  502    0  0.51117743811E+03  0.53642643782E+03  0.53851255897E+03  0.91599753428E+03  0.10100000352E+00 0.  1.
       -3    1    3    3    0  502 -0.51117743811E+03 -0.53642643782E+03 -0.44426177888E+03  0.86395846822E+03  0.10100000352E+00 0. -1.
</event>
<event>
 5   0  0.3470962E-04  0.1789450E+04  0.7818609E-02  0.8711930E-01
       -1   -1    0    0    0  501  0.00000000000E+00  0.00000000000E+00  0.67563812547E+03  0.67563812549E+03  0.50400001928E-02 0. -1.
        1   -1    0    0  501    0  0.00000000000E+00  0.00000000000E+00 -0.11848549501E+04  0.11848549501E+04  0.50400001928E-02 0.  1.
    10030    2    1    2    0    0  0.00000000000E+00  0.00000000000E+00 -0.50921682462E+03  0.18604930756E+04  0.17894503932E+04 0.  0.
        4    1    3    3  502    0 -0.69113053423E+02  0.54985859793E+03 -0.98492737316E+03  0.11301347863E+04  0.12699999809E+01 0.  1.
       -4    1    3    3    0  502  0.69113053423E+02 -0.54985859793E+03  0.47571054854E+03  0.73035828931E+03  0.12699999809E+01 0. -1.
</event>
<event>
 5   0  0.6771967E-04  0.1759158E+04  0.7818609E-02  0.8728326E-01
       -2   -1    0    0    0  501  0.00000000000E+00  0.00000000000E+00  0.56316327882E+03  0.56316327883E+03  0.25500000920E-02 0.  1.
        2   -1    0    0  501    0  0.00000000000E+00  0.00000000000E+00 -0.13737737025E+04  0.13737737025E+04  0.25500000920E-02 0. -1.
    10030    2    1    2    0    0  0.00000000000E+00  0.00000000000E+00 -0.81061042372E+03  0.19369369814E+04  0.17591576424E+04 0.  0.
        1    1    3    3  502    0  0.28812032198E+03  0.44108237945E+03 -0.11808230778E+04  0.12930236373E+04  0.50400001928E-02 0. -1.
       -1    1    3    3    0  502 -0.28812032198E+03 -0.44108237945E+03  0.37021265412E+03  0.64391334409E+03  0.50400001928E-02 0.  1.
</event>
<event>
 5   0  0.3377273E-04  0.1808882E+04  0.7818609E-02  0.8701590E-01
        1   -1    0    0  501    0  0.00000000000E+00  0.00000000000E+00  0.17319424139E+04  0.17319424139E+04  0.50400001928E-02 0. -1.
       -1   -1    0    0    0  501  0.00000000000E+00  0.00000000000E+00 -0.47230981909E+03  0.47230981912E+03  0.50400001928E-02 0.  1.
    10030    2    1    2    0    0  0.00000000000E+00  0.00000000000E+00  0.12596325948E+04  0.22042522330E+04  0.18088818737E+04 0.  0.
        2    1    3    3  502    0  0.13193807715E+03 -0.50012359093E+03  0.15339292715E+04  0.16187866667E+04  0.25500000920E-02 0. -1.
       -2    1    3    3    0  502 -0.13193807715E+03  0.50012359093E+03 -0.27429667673E+03  0.58546556626E+03  0.25500000920E-02 0.  1.
</event>
<event>
 5   0  0.3404261E-04  0.1862672E+04  0.7818609E-02  0.8673663E-01
        1   -1    0    0  501    0  0.00000000000E+00  0.00000000000E+00  0.13233965860E+04  0.13233965860E+04  0.50400001928E-02 0.  1.
       -1   -1    0    0    0  501  0.00000000000E+00  0.00000000000E+00 -0.65542498806E+03  0.65542498808E+03  0.50400001928E-02 0. -1.
    10030    2    1    2    0    0  0.00000000000E+00  0.00000000000E+00  0.66797159795E+03  0.19788215741E+04  0.18626724796E+04 0.  0.
        1    1    3    3  502    0  0.24494932596E+03 -0.32696437682E+03  0.12231222528E+04  0.12895479523E+04  0.50400001928E-02 0.  1.
       -1    1    3    3    0  502 -0.24494932596E+03  0.32696437682E+03 -0.55515065488E+03  0.68927362175E+03  0.50400001928E-02 0. -1.
</event>
<event>
 5   0  0.3413839E-04  0.1850966E+04  0.7818609E-02  0.8679656E-01
        1   -1    0    0  501    0  0.00000000000E+00  0.00000000000E+00  0.75888479889E+03  0.75888479890E+03  0.50400001928E-02 0. -1.
       -1   -1    0    0    0  501  0.00000000000E+00  0.00000000000E+00 -0.11286544907E+04  0.11286544907E+04  0.50400001928E-02 0.  1.
    10030    2    1    2    0    0  0.00000000000E+00  0.00000000000E+00 -0.36976969179E+03  0.18875392896E+04  0.18509659491E+04 0.  0.
        5    1    3    3  502    0 -0.75427541763E+03  0.14615408625E+03  0.34125966246E+03  0.84069772795E+03  0.46999998093E+01 0. -1.
       -5    1    3    3    0  502  0.75427541763E+03 -0.14615408625E+03 -0.71102935425E+03  0.10468415616E+04  0.46999998093E+01 0.  1.
</event>
<event>
 5   0  0.6853162E-04  0.1824178E+04  0.7818609E-02  0.8693546E-01
       -2   -1    0    0    0  501  0.00000000000E+00  0.00000000000E+00  0.45814520671E+03  0.45814520672E+03  0.25500000920E-02 0. -1.
        2   -1    0    0  501    0  0.00000000000E+00  0.00000000000E+00 -0.18158146880E+04  0.18158146880E+04  0.25500000920E-02 0.  1.
    10030    2    1    2    0    0  0.00000000000E+00  0.00000000000E+00 -0.13576694813E+04  0.22739598947E+04  0.18241784952E+04 0.  0.
        2    1    3    3  502    0  0.79853048974E+03  0.28754790407E+03 -0.10952179288E+04  0.13855818459E+04  0.25500000920E-02 0.  1.
       -2    1    3    3    0  502 -0.79853048974E+03 -0.28754790407E+03 -0.26245155249E+03  0.88837804880E+03  0.25500000920E-02 0. -1.
</event>
<event>
 5   0  0.6771967E-04  0.1527550E+04  0.7818609E-02  0.8866336E-01
       -2   -1    0    0    0  501  0.00000000000E+00  0.00000000000E+00  0.84417974545E+03  0.84417974546E+03  0.25500000920E-02 0. -1.
        2   -1    0    0  501    0  0.00000000000E+00  0.00000000000E+00 -0.69102885025E+03  0.69102885026E+03  0.25500000920E-02 0.  1.
    10030    2    1    2    0    0  0.00000000000E+00  0.00000000000E+00  0.15315089520E+03  0.15352085957E+04  0.15275504036E+04 0.  0.
        1    1    3    3  502    0  0.31111991431E+03  0.52628844490E+03 -0.38351593580E+03  0.72170603528E+03  0.50400001928E-02 0.  1.
       -1    1    3    3    0  502 -0.31111991431E+03 -0.52628844490E+03  0.53666683100E+03  0.81350256044E+03  0.50400001928E-02 0. -1.
</event>
<event>
 5   0  0.6547153E-04  0.1805840E+04  0.7818609E-02  0.8703200E-01
        2   -1    0    0  501    0  0.00000000000E+00  0.00000000000E+00  0.11523170643E+04  0.11523170644E+04  0.25500000920E-02 0. -1.
       -2   -1    0    0    0  501  0.00000000000E+00  0.00000000000E+00 -0.70750047404E+03  0.70750047405E+03  0.25500000920E-02 0.  1.
    10030    2    1    2    0    0  0.00000000000E+00  0.00000000000E+00  0.44481659031E+03  0.18598175384E+04  0.18058403797E+04 0.  0.
        5    1    3    3  502    0 -0.82170373118E+03 -0.35112405531E+03  0.89087589233E+02  0.89802216710E+03  0.46999998093E+01 0.  1.
       -5    1    3    3    0  502  0.82170373118E+03  0.35112405531E+03  0.35572900108E+03  0.96179537130E+03  0.46999998093E+01 0. -1.
</event>
<event>
 5   0  0.2467375E-04  0.1878095E+04  0.7818609E-02  0.8665837E-01
       -3   -1    0    0    0  501  0.00000000000E+00  0.00000000000E+00  0.85650768010E+03  0.85650768606E+03  0.10100000352E+00 0. -1.
        3   -1    0    0  501    0  0.00000000000E+00  0.00000000000E+00 -0.10295413956E+04  0.10295414006E+04  0.10100000352E+00 0.  1.
    10030    2    1    2    0    0  0.00000000000E+00  0.00000000000E+00 -0.17303371554E+03  0.18860490867E+04  0.18780949099E+04 0.  0.
        4    1    3    3  502    0  0.34555438758E+03  0.18780468451E+03 -0.94284754992E+03  0.10215877591E+04  0.12699999809E+01 0.  1.
       -4    1    3    3    0  502 -0.34555438758E+03 -0.18780468451E+03  0.76981383438E+03  0.86446132753E+03  0.12699999809E+01 0. -1.
</event>
<event>
 5   0  0.2467375E-04  0.1810426E+04  0.7818609E-02  0.8700775E-01
       -4   -1    0    0    0  501  0.00000000000E+00  0.00000000000E+00  0.12990961683E+04  0.12990967890E+04  0.12699999809E+01 0. -1.
        4   -1    0    0  501    0  0.00000000000E+00  0.00000000000E+00 -0.63075263030E+03  0.63075390885E+03  0.12699999809E+01 0.  1.
    10030    2    1    2    0    0  0.00000000000E+00  0.00000000000E+00  0.66834353797E+03  0.19298506979E+04  0.18104255388E+04 0.  0.
        3    1    3    3  502    0  0.29864954576E+03 -0.62122636235E+03  0.95964580550E+03  0.11815387538E+04  0.10100000352E+00 0. -1.
       -3    1    3    3    0  502 -0.29864954576E+03  0.62122636235E+03 -0.29130226753E+03  0.74831194412E+03  0.10100000352E+00 0.  1.
</event>
<event>
 5   0  0.6774451E-04  0.1714835E+04  0.7818609E-02  0.8752949E-01
       -2   -1    0    0    0  501  0.00000000000E+00  0.00000000000E+00  0.47903794984E+03  0.47903794984E+03  0.25500000920E-02 0. -1.
        2   -1    0    0  501    0  0.00000000000E+00  0.00000000000E+00 -0.15346683400E+04  0.15346683400E+04  0.25500000920E-02 0.  1.
    10030    2    1    2    0    0  0.00000000000E+00  0.00000000000E+00 -0.10556303902E+04  0.20137062899E+04  0.17148345405E+04 0.  0.
        4    1    3    3  502    0 -0.71810397821E+03 -0.38821666817E+03 -0.21985376269E+03  0.84541279552E+03  0.12699999809E+01 0. -1.
       -4    1    3    3    0  502  0.71810397821E+03  0.38821666817E+03 -0.83577662750E+03  0.11682934943E+04  0.12699999809E+01 0.  1.
</event>
<event>
 5   0  0.6771967E-04  0.1651775E+04  0.7818609E-02  0.8789357E-01
        2   -1    0    0  501    0  0.00000000000E+00  0.00000000000E+00  0.10996062632E+04  0.10996062632E+04  0.25500000920E-02 0. -1.
       -2   -1    0    0    0  501  0.00000000000E+00  0.00000000000E+00 -0.62030420691E+03  0.62030420691E+03  0.25500000920E-02 0.  1.
    10030    2    1    2    0    0  0.00000000000E+00  0.00000000000E+00  0.47930205632E+03  0.17199104701E+04  0.16517752765E+04 0.  0.
        1    1    3    3  502    0  0.16391417649E+03  0.37387387167E+03  0.98720800867E+03  0.10682832871E+04  0.50400001928E-02 0. -1.
       -1    1    3    3    0  502 -0.16391417649E+03 -0.37387387167E+03 -0.50790595235E+03  0.65162718301E+03  0.50400001928E-02 0.  1.
</event>
<event>
 5   0  0.3404261E-04  0.1722552E+04  0.7818609E-02  0.8748606E-01
       -1   -1    0    0    0  501  0.00000000000E+00  0.00000000000E+00  0.90590046696E+03  0.90590046698E+03  0.50400001928E-02 0.  1.
        1   -1    0    0  501    0  0.00000000000E+00  0.00000000000E+00 -0.81884946026E+03  0.81884946028E+03  0.50400001928E-02 0. -1.
    10030    2    1    2    0    0  0.00000000000E+00  0.00000000000E+00  0.87051006704E+02  0.17247499273E+04  0.17225517217E+04 0.  0.
        1    1    3    3  502    0  0.46244247114E+03  0.30375641068E+03 -0.61737371803E+03  0.82901827716E+03  0.50400001928E-02 0. -1.
       -1    1    3    3    0  502 -0.46244247114E+03 -0.30375641068E+03  0.70442472473E+03  0.89573165009E+03  0.50400001928E-02 0.  1.
</event>
<event>
 5   0  0.3413839E-04  0.1798248E+04  0.7818609E-02  0.8707232E-01
       -1   -1    0    0    0  501  0.00000000000E+00  0.00000000000E+00  0.16093272831E+04  0.16093272831E+04  0.50400001928E-02 0.  1.
        1   -1    0    0  501    0  0.00000000000E+00  0.00000000000E+00 -0.50233677699E+03  0.50233677702E+03  0.50400001928E-02 0. -1.
    10030    2    1    2    0    0  0.00000000000E+00  0.00000000000E+00  0.11069905061E+04  0.21116640601E+04  0.17982483483E+04 0.  0.
        5    1    3    3  502    0 -0.80473965678E+03  0.11804578032E+03  0.10035124316E+04  0.12917430131E+04  0.46999998093E+01 0.  1.
       -5    1    3    3    0  502  0.80473965678E+03 -0.11804578032E+03  0.10347807447E+03  0.81992104701E+03  0.46999998093E+01 0. -1.
</event>
<event>
 5   0  0.6547153E-04  0.1776676E+04  0.7818609E-02  0.8718802E-01
       -2   -1    0    0    0  501  0.00000000000E+00  0.00000000000E+00  0.44338116014E+03  0.44338116014E+03  0.25500000920E-02 0.  1.
        2   -1    0    0  501    0  0.00000000000E+00  0.00000000000E+00 -0.17798329143E+04  0.17798329144E+04  0.25500000920E-02 0. -1.
    10030    2    1    2    0    0  0.00000000000E+00  0.00000000000E+00 -0.13364517542E+04  0.22232140745E+04  0.17766759777E+04 0.  0.
        5    1    3    3  502    0 -0.26763319889E+03 -0.60379923958E+03 -0.14116077248E+04  0.15584798714E+04  0.46999998093E+01 0. -1.
       -5    1    3    3    0  502  0.26763319889E+03  0.60379923958E+03  0.75155970572E+02  0.66473420310E+03  0.46999998093E+01 0.  1.
</event>
<event>
 5   0  0.6547153E-04  0.1740555E+04  0.7818609E-02  0.8738567E-01
       -2   -1    0    0    0  501  0.00000000000E+00  0.00000000000E+00  0.94181879129E+03  0.94181879129E+03  0.25500000920E-02 0.  1.
        2   -1    0    0  501    0  0.00000000000E+00  0.00000000000E+00 -0.80417036748E+03  0.80417036748E+03  0.25500000920E-02 0. -1.
    10030    2    1    2    0    0  0.00000000000E+00  0.00000000000E+00  0.13764842381E+03  0.17459891588E+04  0.17405548121E+04 0.  0.
        5    1    3    3  502    0 -0.55825024406E+03 -0.35287073194E+03  0.63733842439E+03  0.91781449414E+03  0.46999998093E+01 0.  1.
       -5    1    3    3    0  502  0.55825024406E+03  0.35287073194E+03 -0.49969000058E+03  0.82817466463E+03  0.46999998093E+01 0. -1.
</event>
<event>
 5   0  0.6547153E-04  0.1460092E+04  0.7818609E-02  0.8911433E-01
        2   -1    0    0  501    0  0.00000000000E+00  0.00000000000E+00  0.19202734703E+04  0.19202734703E+04  0.25500000920E-02 0. -1.
       -2   -1    0    0    0  501  0.00000000000E+00  0.00000000000E+00 -0.27754768010E+03  0.27754768011E+03  0.25500000920E-02 0.  1.
    10030    2    1    2    0    0  0.00000000000E+00  0.00000000000E+00  0.16427257902E+04  0.21978211504E+04  0.14600923900E+04 0.  0.
        5    1    3    3  502    0 -0.79005235599E+02 -0.23549394858E+03  0.18546854504E+04  0.18712507681E+04  0.46999998093E+01 0. -1.
       -5    1    3    3    0  502  0.79005235599E+02  0.23549394858E+03 -0.21195966020E+03  0.32657038234E+03  0.46999998093E+01 0.  1.
</event>
<event>
 5   0  0.6774451E-04  0.1795271E+04  0.7818609E-02  0.8708818E-01
       -2   -1    0    0    0  501  0.00000000000E+00  0.00000000000E+00  0.36776368582E+03  0.36776368583E+03  0.25500000920E-02 0.  1.
        2   -1    0    0  501    0  0.00000000000E+00  0.00000000000E+00 -0.21909430853E+04  0.21909430853E+04  0.25500000920E-02 0. -1.
    10030    2    1    2    0    0  0.00000000000E+00  0.00000000000E+00 -0.18231793995E+04  0.25587067711E+04  0.17952707923E+04 0.  0.
        4    1    3    3  502    0 -0.35824198623E+03 -0.12599432022E+03  0.24763394166E+03  0.45336086221E+03  0.12699999809E+01 0.  1.
       -4    1    3    3    0  502  0.35824198623E+03  0.12599432022E+03 -0.20708133411E+04  0.21053459089E+04  0.12699999809E+01 0. -1.
</event>
<event>
 5   0  0.6774451E-04  0.1789324E+04  0.7818609E-02  0.8711998E-01
        2   -1    0    0  501    0  0.00000000000E+00  0.00000000000E+00  0.10472528155E+04  0.10472528155E+04  0.25500000920E-02 0.  1.
       -2   -1    0    0    0  501  0.00000000000E+00  0.00000000000E+00 -0.76430434531E+03  0.76430434532E+03  0.25500000920E-02 0. -1.
    10030    2    1    2    0    0  0.00000000000E+00  0.00000000000E+00  0.28294847015E+03  0.18115571608E+04  0.17893237577E+04 0.  0.
        4    1    3    3  502    0 -0.48727958418E+03 -0.44495393111E+03 -0.47017903860E+03  0.81024399733E+03  0.12699999809E+01 0. -1.
       -4    1    3    3    0  502  0.48727958418E+03  0.44495393111E+03  0.75312750875E+03  0.10013131635E+04  0.12699999809E+01 0.  1.
</event>
<event>
 5   0  0.3413839E-04  0.8898954E+03  0.7818609E-02  0.9438302E-01
        1   -1    0    0  501    0  0.00000000000E+00  0.00000000000E+00  0.47461479957E+03  0.47461479959E+03  0.50400001928E-02 0.  1.
       -1   -1    0    0    0  501  0.00000000000E+00  0.00000000000E+00 -0.41713505086E+03  0.41713505089E+03  0.50400001928E-02 0. -1.
    10030    2    1    2    0    0  0.00000000000E+00  0.00000000000E+00  0.57479748710E+02  0.89174985048E+03  0.88989542887E+03 0.  0.
        5    1    3    3  502    0  0.34941579064E+03  0.25939503117E+03  0.12155687000E+03  0.45185765412E+03  0.46999998093E+01 0. -1.
       -5    1    3    3    0  502 -0.34941579064E+03 -0.25939503117E+03 -0.64077121287E+02  0.43989219636E+03  0.46999998093E+01 0.  1.
</event>
<event>
 5   0  0.6929121E-04  0.1872238E+04  0.7818609E-02  0.8668800E-01
       -2   -1    0    0    0  501  0.00000000000E+00  0.00000000000E+00  0.57502728166E+03  0.57502728167E+03  0.25500000920E-02 0.  1.
        2   -1    0    0  501    0  0.00000000000E+00  0.00000000000E+00 -0.15239607652E+04  0.15239607652E+04  0.25500000920E-02 0. -1.
    10030    2    1    2    0    0  0.00000000000E+00  0.00000000000E+00 -0.94893348358E+03  0.20989880469E+04  0.18722382500E+04 0.  0.
        3    1    3    3  502    0 -0.38768685941E+03  0.70776355994E+03  0.57427940354E+02  0.80902925551E+03  0.10100000352E+00 0.  1.
       -3    1    3    3    0  502  0.38768685941E+03 -0.70776355994E+03 -0.10063614239E+04  0.12899587914E+04  0.10100000352E+00 0. -1.
</event>
<event>
 5   0  0.6853162E-04  0.1829531E+04  0.7818609E-02  0.8690751E-01
        2   -1    0    0  501    0  0.00000000000E+00  0.00000000000E+00  0.73530147308E+03  0.73530147308E+03  0.25500000920E-02 0. -1.
       -2   -1    0    0    0  501  0.00000000000E+00  0.00000000000E+00 -0.11380313748E+04  0.11380313748E+04  0.25500000920E-02 0.  1.
    10030    2    1    2    0    0  0.00000000000E+00  0.00000000000E+00 -0.40272990170E+03  0.18733328479E+04  0.18295312474E+04 0.  0.
        2    1    3    3  502    0 -0.11162946860E+03 -0.26450686118E+03  0.68797468074E+03  0.74547580726E+03  0.25500000920E-02 0. -1.
       -2    1    3    3    0  502  0.11162946860E+03  0.26450686118E+03 -0.10907045824E+04  0.11278570406E+04  0.25500000920E-02 0.  1.
</event>
<event>
 5   0  0.3308275E-04  0.1807202E+04  0.7818609E-02  0.8702479E-01
       -1   -1    0    0    0  501  0.00000000000E+00  0.00000000000E+00  0.94123667870E+03  0.94123667872E+03  0.50400001928E-02 0. -1.
        1   -1    0    0  501    0  0.00000000000E+00  0.00000000000E+00 -0.86747027891E+03  0.86747027893E+03  0.50400001928E-02 0.  1.
    10030    2    1    2    0    0  0.00000000000E+00  0.00000000000E+00  0.73766399792E+02  0.18087069576E+04  0.18072020852E+04 0.  0.
        3    1    3    3  502    0 -0.89904146745E+02  0.40944715278E+03 -0.76426141428E+03  0.87167955470E+03  0.10100000352E+00 0.  1.
       -3    1    3    3    0  502  0.89904146745E+02 -0.40944715278E+03  0.83802781407E+03  0.93702740295E+03  0.10100000352E+00 0. -1.
</event>
<event>
 5   0  0.6547153E-04  0.1807302E+04  0.7818609E-02  0.8702426E-01
        2   -1    0    0  501    0  0.00000000000E+00  0.00000000000E+00  0.90161243357E+03  0.90161243357E+03  0.25500000920E-02 0.  1.
       -2   -1    0    0    0  501  0.00000000000E+00  0.00000000000E+00 -0.90569432480E+03  0.90569432480E+03  0.25500000920E-02 0. -1.
    10030    2    1    2    0    0  0.00000000000E+00  0.00000000000E+00 -0.40818912328E+01  0.18073067584E+04  0.18073021488E+04 0.  0.
        5    1    3    3  502    0  0.64370508468E+03  0.55206455110E+03  0.31010031511E+03  0.90294839279E+03  0.46999998093E+01 0.  1.
       -5    1    3    3    0  502 -0.64370508468E+03 -0.55206455110E+03 -0.31418220634E+03  0.90435836558E+03  0.46999998093E+01 0. -1.
</event>
<event>
 5   0  0.6853162E-04  0.1789603E+04  0.7818609E-02  0.8711848E-01
       -2   -1    0    0    0  501  0.00000000000E+00  0.00000000000E+00  0.60611487012E+03  0.60611487013E+03  0.25500000920E-02 0. -1.
        2   -1    0    0  501    0  0.00000000000E+00  0.00000000000E+00 -0.13209869077E+04  0.13209869077E+04  0.25500000920E-02 0.  1.
    10030    2    1    2    0    0  0.00000000000E+00  0.00000000000E+00 -0.71487203762E+03  0.19271017779E+04  0.17896030935E+04 0.  0.
        2    1    3    3  502    0  0.62042229058E+03 -0.29684079692E+03  0.25893296377E+03  0.73490445440E+03  0.25500000920E-02 0. -1.
       -2    1    3    3    0  502 -0.62042229058E+03  0.29684079692E+03 -0.97380500139E+03  0.11921973235E+04  0.25500000920E-02 0.  1.
</event>
<event>
 5   0  0.3404261E-04  0.1863590E+04  0.7818609E-02  0.8673195E-01
       -1   -1    0    0    0  501  0.00000000000E+00  0.00000000000E+00  0.58358673325E+03  0.58358673327E+03  0.50400001928E-02 0.  1.
        1   -1    0    0  501    0  0.00000000000E+00  0.00000000000E+00 -0.14877687798E+04  0.14877687798E+04  0.50400001928E-02 0. -1.
    10030    2    1    2    0    0  0.00000000000E+00  0.00000000000E+00 -0.90418204658E+03  0.20713555131E+04  0.18635902147E+04 0.  0.
        1    1    3    3  502    0 -0.26809258120E+03 -0.35277445521E+03 -0.13631837480E+04  0.14333852863E+04  0.50400001928E-02 0. -1.
       -1    1    3    3    0  502  0.26809258120E+03  0.35277445521E+03  0.45900170139E+03  0.63797022677E+03  0.50400001928E-02 0.  1.
</event>
<event>
 5   0  0.6547153E-04  0.1873074E+04  0.7818609E-02  0.8668376E-01
        2   -1    0    0  501    0  0.00000000000E+00  0.00000000000E+00  0.10493763927E+04  0.10493763927E+04  0.25500000920E-02 0. -1.
       -2   -1    0    0    0  501  0.00000000000E+00  0.00000000000E+00 -0.83583126395E+03  0.83583126395E+03  0.25500000920E-02 0.  1.
    10030    2    1    2    0    0  0.00000000000E+00  0.00000000000E+00  0.21354512873E+03  0.18852076566E+04  0.18730740473E+04 0.  0.
        5    1    3    3  502    0  0.27439941450E+03 -0.22635123544E+03 -0.76518217672E+03  0.84383397303E+03  0.46999998093E+01 0.  1.
       -5    1    3    3    0  502 -0.27439941450E+03  0.22635123544E+03  0.97872730545E+03  0.10413736836E+04  0.46999998093E+01 0. -1.
</event>
<event>
 5   0  0.6547153E-04  0.1730327E+04  0.7818609E-02  0.8744254E-01
       -2   -1    0    0    0  501  0.00000000000E+00  0.00000000000E+00  0.50002914237E+03  0.50002914237E+03  0.25500000920E-02 0.  1.
        2   -1    0    0  501    0  0.00000000000E+00  0.00000000000E+00 -0.14969291391E+04  0.14969291391E+04  0.25500000920E-02 0. -1.
    10030    2    1    2    0    0  0.00000000000E+00  0.00000000000E+00 -0.99689999670E+03  0.19969582814E+04  0.17303273605E+04 0.  0.
        5    1    3    3  502    0  0.11424464812E+03  0.77967052187E+03 -0.91062133264E+03  0.12042388732E+04  0.46999998093E+01 0. -1.
       -5    1    3    3    0  502 -0.11424464812E+03 -0.77967052187E+03 -0.86278664053E+02  0.79271940822E+03  0.46999998093E+01 0.  1.
</event>
<event>
 5   0  0.6929121E-04  0.1763786E+04  0.7818609E-02  0.8725798E-01
        2   -1    0    0  501    0  0.00000000000E+00  0.00000000000E+00  0.49697005030E+03  0.49697005031E+03  0.25500000920E-02 0. -1.
       -2   -1    0    0    0  501  0.00000000000E+00  0.00000000000E+00 -0.15649543303E+04  0.15649543303E+04  0.25500000920E-02 0.  1.
    10030    2    1    2    0    0  0.00000000000E+00  0.00000000000E+00 -0.10679842800E+04  0.20619243806E+04  0.17637861914E+04 0.  0.
        3    1    3    3  502    0  0.76346197104E+02  0.17428515754E+03 -0.15406724126E+04  0.15523773868E+04  0.10100000352E+00 0.  1.
       -3    1    3    3    0  502 -0.76346197104E+02 -0.17428515754E+03  0.47268813261E+03  0.50954699378E+03  0.10100000352E+00 0. -1.
</event>
<event>
 5   0  0.3377273E-04  0.1770575E+04  0.7818609E-02  0.8722106E-01
        1   -1    0    0  501    0  0.00000000000E+00  0.00000000000E+00  0.10118978171E+04  0.10118978171E+04  0.50400001928E-02 0.  1.
       -1   -1    0    0    0  501  0.00000000000E+00  0.00000000000E+00 -0.77451870302E+03  0.77451870304E+03  0.50400001928E-02 0. -1.
    10030    2    1    2    0    0  0.00000000000E+00  0.00000000000E+00  0.23737911405E+03  0.17864165201E+04  0.17705748049E+04 0.  0.
        2    1    3    3  502    0 -0.20386900807E+03  0.78676504906E+03  0.47278830415E+03  0.94026091880E+03  0.25500000920E-02 0.  1.
       -2    1    3    3    0  502  0.20386900807E+03 -0.78676504906E+03 -0.23540919010E+03  0.84615560133E+03  0.25500000920E-02 0. -1.
</event>
<event>
 5   0  0.3413839E-04  0.1714573E+04  0.7818609E-02  0.8753096E-01
        1   -1    0    0  501    0  0.00000000000E+00  0.00000000000E+00  0.41487197933E+03  0.41487197936E+03  0.50400001928E-02 0. -1.
       -1   -1    0    0    0  501  0.00000000000E+00  0.00000000000E+00 -0.17714874151E+04  0.17714874151E+04  0.50400001928E-02 0.  1.
    10030    2    1    2    0    0  0.00000000000E+00  0.00000000000E+00 -0.13566154357E+04  0.21863593944E+04  0.17145734050E+04 0.  0.
        5    1    3    3  502    0  0.56286499553E+03 -0.52323852737E+03 -0.19387551660E+03  0.79259407370E+03  0.46999998093E+01 0. -1.
       -5    1    3    3    0  502 -0.56286499553E+03  0.52323852737E+03 -0.11627399191E+04  0.13937653207E+04  0.46999998093E+01 0.  1.
</event>
<event>
 5   0  0.6853162E-04  0.1826988E+04  0.7818609E-02  0.8692078E-01
        2   -1    0    0  501    0  0.00000000000E+00  0.00000000000E+00  0.19212030197E+04  0.19212030197E+04  0.25500000920E-02 0. -1.
       -2   -1    0    0    0  501  0.00000000000E+00  0.00000000000E+00 -0.43434822486E+03  0.43434822487E+03  0.25500000920E-02 0.  1.
    10030    2    1    2    0    0  0.00000000000E+00  0.00000000000E+00  0.14868547949E+04  0.23555512446E+04  0.18269878174E+04 0.  0.
        2    1    3    3  502    0 -0.56463084602E+03  0.65881182623E+03  0.37505923558E+03  0.94525681424E+03  0.25500000920E-02 0.  1.
       -2    1    3    3    0  502  0.56463084602E+03 -0.65881182623E+03  0.11117955593E+04  0.14102944304E+04  0.25500000920E-02 0. -1.
</event>
<event>
 5   0  0.6771967E-04  0.1871428E+04  0.7818609E-02  0.8669211E-01
       -2   -1    0    0    0  501  0.00000000000E+00  0.00000000000E+00  0.76437988298E+03  0.76437988298E+03  0.25500000920E-02 0. -1.
        2   -1    0    0  501    0  0.00000000000E+00  0.00000000000E+00 -0.11454519663E+04  0.11454519663E+04  0.25500000920E-02 0.  1.
    10030    2    1    2    0    0  0.00000000000E+00  0.00000000000E+00 -0.38107208330E+03  0.19098318493E+04  0.18714277330E+04 0.  0.
        1    1    3    3  502    0 -0.62740842693E+03 -0.62690859246E+03 -0.49482380342E+03  0.10156309930E+04  0.50400001928E-02 0.  1.
       -1    1    3    3    0  502  0.62740842693E+03  0.62690859246E+03  0.11375172012E+03  0.89420085626E+03  0.50400001928E-02 0. -1.
</event>
<event>
 5   0  0.3377273E-04  0.1831839E+04  0.7818609E-02  0.8689549E-01
       -1   -1    0    0    0  501  0.00000000000E+00  0.00000000000E+00  0.95172489949E+03  0.95172489950E+03  0.50400001928E-02 0.  1.
        1   -1    0    0  501    0  0.00000000000E+00  0.00000000000E+00 -0.88146081664E+03  0.88146081666E+03  0.50400001928E-02 0. -1.
    10030    2    1    2    0    0  0.00000000000E+00  0.00000000000E+00  0.70264082846E+02  0.18331857162E+04  0.18318386470E+04 0.  0.
        2    1    3    3  502    0  0.82895940477E+03  0.38921115117E+03  0.19334610546E+02  0.91598735915E+03  0.25500000920E-02 0. -1.
       -2    1    3    3    0  502 -0.82895940477E+03 -0.38921115117E+03  0.50929472301E+02  0.91719835701E+03  0.25500000920E-02 0.  1.
</event>
<event>
 5   0  0.3308275E-04  0.1731260E+04  0.7818609E-02  0.8743734E-01
        1   -1    0    0  501    0  0.00000000000E+00  0.00000000000E+00  0.93460830687E+03  0.93460830688E+03  0.50400001928E-02 0. -1.
       -1   -1    0    0    0  501  0.00000000000E+00  0.00000000000E+00 -0.80174260371E+03  0.80174260373E+03  0.50400001928E-02 0.  1.
    10030    2    1    2    0    0  0.00000000000E+00  0.00000000000E+00  0.13286570316E+03  0.17363509106E+04  0.17312600006E+04 0.  0.
        3    1    3    3  502    0  0.53102105640E+03 -0.40403591603E+03 -0.48662945697E+03  0.82585508558E+03  0.10100000352E+00 0.  1.
       -3    1    3    3    0  502 -0.53102105640E+03  0.40403591603E+03  0.61949516013E+03  0.91049582503E+03  0.10100000352E+00 0. -1.
</event>
<event>
 5   0  0.6853162E-04  0.1831061E+04  0.7818609E-02  0.8689954E-01
        2   -1    0    0  501    0  0.00000000000E+00  0.00000000000E+00  0.43722062367E+03  0.43722062367E+03  0.25500000920E-02 0.  1.
       -2   -1    0    0    0  501  0.00000000000E+00  0.00000000000E+00 -0.19171016070E+04  0.19171016070E+04  0.25500000920E-02 0. -1.
    10030    2    1    2    0    0  0.00000000000E+00  0.00000000000E+00 -0.14798809833E+04  0.23543222307E+04  0.18310612882E+04 0.  0.
        2    1    3    3  502    0  0.82879560326E+02  0.90006955439E+03 -0.92716074581E+03  0.12948441114E+04  0.25500000920E-02 0.  1.
       -2    1    3    3    0  502 -0.82879560326E+02 -0.90006955439E+03 -0.55272023754E+03  0.10594781193E+04  0.25500000920E-02 0. -1.
</event>
<event>
 5   0  0.3404261E-04  0.1794319E+04  0.7818609E-02  0.8709326E-01
       -1   -1    0    0    0  501  0.00000000000E+00  0.00000000000E+00  0.36369871570E+03  0.36369871574E+03  0.50400001928E-02 0. -1.
        1   -1    0    0  501    0  0.00000000000E+00  0.00000000000E+00 -0.22130823669E+04  0.22130823669E+04  0.50400001928E-02 0.  1.
    10030    2    1    2    0    0  0.00000000000E+00  0.00000000000E+00 -0.18493836512E+04  0.25767810826E+04  0.17943190515E+04 0.  0.
        1    1    3    3  502    0  0.47234065811E+02  0.88941494780E+03 -0.76998683482E+03  0.11773570963E+04  0.50400001928E-02 0.  1.
       -1    1    3    3    0  502 -0.47234065811E+02 -0.88941494780E+03 -0.10793968164E+04  0.13994239864E+04  0.50400001928E-02 0. -1.
</event>
<event>
 5   0  0.3404261E-04  0.1741905E+04  0.7818609E-02  0.8737819E-01
        1   -1    0    0  501    0  0.00000000000E+00  0.00000000000E+00  0.11090995958E+04  0.11090995959E+04  0.50400001928E-02 0.  1.
       -1   -1    0    0    0  501  0.00000000000E+00  0.00000000000E+00 -0.68394034676E+03  0.68394034678E+03  0.50400001928E-02 0. -1.
    10030    2    1    2    0    0  0.00000000000E+00  0.00000000000E+00  0.42515924908E+03  0.17930399426E+04  0.17419046612E+04 0.  0.
        1    1    3    3  502    0  0.21693331681E+03  0.62993886181E+03 -0.36484679953E+03  0.75960267293E+03  0.50400001928E-02 0. -1.
       -1    1    3    3    0  502 -0.21693331681E+03 -0.62993886181E+03  0.79000604861E+03  0.10334372697E+04  0.50400001928E-02 0.  1.
</event>
<event>
 5   0  0.3377273E-04  0.1806221E+04  0.7818609E-02  0.8702998E-01
        1   -1    0    0  501    0  0.00000000000E+00  0.00000000000E+00  0.91267686287E+03  0.91267686288E+03  0.50400001928E-02 0. -1.
       -1   -1    0    0    0  501  0.00000000000E+00  0.00000000000E+00 -0.89364416479E+03  0.89364416481E+03  0.50400001928E-02 0.  1.
    10030    2    1    2    0    0  0.00000000000E+00  0.00000000000E+00  0.19032698074E+02  0.18063210277E+04  0.18062207538E+04 0.  0.
        2    1    3    3  502    0  0.21537431322E+03 -0.13985959034E+03 -0.85636169755E+03  0.89403699971E+03  0.25500000920E-02 0.  1.
       -2    1    3    3    0  502 -0.21537431322E+03  0.13985959034E+03  0.87539439563E+03  0.91228402798E+03  0.25500000920E-02 0. -1.
</event>
<event>
 5   0  0.6774451E-04  0.1799785E+04  0.7818609E-02  0.8706414E-01
        2   -1    0    0  501    0  0.00000000000E+00  0.00000000000E+00  0.10713517501E+04  0.10713517501E+04  0.25500000920E-02 0.  1.
       -2   -1    0    0    0  501  0.00000000000E+00  0.00000000000E+00 -0.75587344290E+03  0.75587344290E+03  0.25500000920E-02 0. -1.
    10030    2    1    2    0    0  0.00000000000E+00  0.00000000000E+00  0.31547830717E+03  0.18272251930E+04  0.17997848048E+04 0.  0.
        4    1    3    3  502    0 -0.89185356785E+03  0.10923298418E+03  0.20819692082E+03  0.92232434753E+03  0.12699999809E+01 0.  1.
       -4    1    3    3    0  502  0.89185356785E+03 -0.10923298418E+03  0.10728138635E+03  0.90490084544E+03  0.12699999809E+01 0. -1.
</event>
<event>
 5   0  0.2467375E-04  0.1785255E+04  0.7818609E-02  0.8714180E-01
        4   -1    0    0  501    0  0.00000000000E+00  0.00000000000E+00  0.88035519686E+03  0.88035611292E+03  0.12699999809E+01 0. -1.
       -4   -1    0    0    0  501  0.00000000000E+00  0.00000000000E+00 -0.90506941908E+03  0.90507031012E+03  0.12699999809E+01 0.  1.
    10030    2    1    2    0    0  0.00000000000E+00  0.00000000000E+00 -0.24714222217E+02  0.17854264230E+04  0.17852553653E+04 0.  0.
        4    1    3    3  502    0  0.87891847202E+03  0.13892489754E+03 -0.82966703903E+02  0.89369060333E+03  0.12699999809E+01 0.  1.
       -4    1    3    3    0  502 -0.87891847202E+03 -0.13892489754E+03  0.58252481686E+02  0.89173581970E+03  0.12699999809E+01 0. -1.
</event>
<event>
 5   0  0.6774451E-04  0.1502836E+04  0.7818609E-02  0.8882569E-01
        2   -1    0    0  501    0  0.00000000000E+00  0.00000000000E+00  0.11583478623E+04  0.11583478623E+04  0.25500000920E-02 0.  1.
       -2   -1    0    0    0  501  0.00000000000E+00  0.00000000000E+00 -0.48744333366E+03  0.48744333367E+03  0.25500000920E-02 0. -1.
    10030    2    1    2    0    0  0.00000000000E+00  0.00000000000E+00  0.67090452859E+03  0.16457911959E+04  0.15028359106E+04 0.  0.
        4    1    3    3  502    0  0.14612011008E+03  0.30166848683E+03  0.10719360640E+04  0.11231222110E+04  0.12699999809E+01 0.  1.
       -4    1    3    3    0  502 -0.14612011008E+03 -0.30166848683E+03 -0.40103153543E+03  0.52266898495E+03  0.12699999809E+01 0. -1.
</event>
<event>
 5   0  0.6771967E-04  0.1831433E+04  0.7818609E-02  0.8689760E-01
       -2   -1    0    0    0  501  0.00000000000E+00  0.00000000000E+00  0.50059354437E+03  0.50059354437E+03  0.25500000920E-02 0.  1.
        2   -1    0    0  501    0  0.00000000000E+00  0.00000000000E+00 -0.16750840550E+04  0.16750840550E+04  0.25500000920E-02 0. -1.
    10030    2    1    2    0    0  0.00000000000E+00  0.00000000000E+00 -0.11744905107E+04  0.21756775994E+04  0.18314325150E+04 0.  0.
        1    1    3    3  502    0 -0.60110242943E+03 -0.46831897323E+02 -0.14060098755E+04  0.15298304243E+04  0.50400001928E-02 0. -1.
       -1    1    3    3    0  502  0.60110242943E+03  0.46831897323E+02  0.23151936479E+03  0.64584717509E+03  0.50400001928E-02 0.  1.
</event>
<event>
 5   0  0.6547153E-04  0.1580644E+04  0.7818609E-02  0.8832528E-01
        2   -1    0    0  501    0  0.00000000000E+00  0.00000000000E+00  0.25517329786E+04  0.25517329786E+04  0.25500000920E-02 0. -1.
       -2   -1    0    0    0  501  0.00000000000E+00  0.00000000000E+00 -0.24477823513E+03  0.24477823514E+03  0.25500000920E-02 0.  1.
    10030    2    1    2    0    0  0.00000000000E+00  0.00000000000E+00  0.23069547434E+04  0.27965112137E+04  0.15806437866E+04 0.  0.
        5    1    3    3  502    0 -0.15014744155E+03  0.10967191667E+03  0.25124598904E+04  0.25193350262E+04  0.46999998093E+01 0. -1.
       -5    1    3    3    0  502  0.15014744155E+03 -0.10967191667E+03 -0.20550514693E+03  0.27717618751E+03  0.46999998093E+01 0.  1.
</event>
<event>
 5   0  0.6929121E-04  0.1670123E+04  0.7818609E-02  0.8778590E-01
        2   -1    0    0  501    0  0.00000000000E+00  0.00000000000E+00  0.24018081814E+04  0.24018081814E+04  0.25500000920E-02 0. -1.
       -2   -1    0    0    0  501  0.00000000000E+00  0.00000000000E+00 -0.29033450015E+03  0.29033450017E+03  0.25500000920E-02 0.  1.
    10030    2    1    2    0    0  0.00000000000E+00  0.00000000000E+00  0.21114736812E+04  0.26921426816E+04  0.16701230827E+04 0.  0.
        3    1    3    3  502    0 -0.32851534381E+03 -0.62746204309E+03  0.17688221352E+04  0.19053510707E+04  0.10100000352E+00 0. -1.
       -3    1    3    3    0  502  0.32851534381E+03  0.62746204309E+03  0.34265154604E+03  0.78679161081E+03  0.10100000352E+00 0.  1.
</event>
<event>
 5   0  0.6774451E-04  0.1761888E+04  0.7818609E-02  0.8726834E-01
       -2   -1    0    0    0  501  0.00000000000E+00  0.00000000000E+00  0.15278431767E+04  0.15278431767E+04  0.25500000920E-02 0.  1.
        2   -1    0    0  501    0  0.00000000000E+00  0.00000000000E+00 -0.50794628645E+03  0.50794628645E+03  0.25500000920E-02 0. -1.
    10030    2    1    2    0    0  0.00000000000E+00  0.00000000000E+00  0.10198968903E+04  0.20357894632E+04  0.17618879282E+04 0.  0.
        4    1    3    3  502    0  0.14419984754E+03 -0.21641259636E+03 -0.46258347761E+03  0.53067230430E+03  0.12699999809E+01 0. -1.
       -4    1    3    3    0  502 -0.14419984754E+03  0.21641259636E+03  0.14824803679E+04  0.15051171589E+04  0.12699999809E+01 0.  1.
</event>
<event>
 5   0  0.3308275E-04  0.1827403E+04  0.7818609E-02  0.8691861E-01
       -1   -1    0    0    0  501  0.00000000000E+00  0.00000000000E+00  0.41193353236E+03  0.41193353239E+03  0.50400001928E-02 0.  1.
        1   -1    0    0  501    0  0.00000000000E+00  0.00000000000E+00 -0.20266635942E+04  0.20266635942E+04  0.50400001928E-02 0. -1.
    10030    2    1    2    0    0  0.00000000000E+00  0.00000000000E+00 -0.16147300619E+04  0.24385971266E+04  0.18274032870E+04 0.  0.
        3    1    3    3  502    0 -0.86085436875E+03  0.19516873098E+03 -0.49245048140E+03  0.10107762188E+04  0.10100000352E+00 0.  1.
       -3    1    3    3    0  502  0.86085436875E+03 -0.19516873098E+03 -0.11222795805E+04  0.14278209078E+04  0.10100000352E+00 0. -1.
</event>
<event>
 5   0  0.3377273E-04  0.1769000E+04  0.7818609E-02  0.8722961E-01
        1   -1    0    0  501    0  0.00000000000E+00  0.00000000000E+00  0.11010982848E+04  0.11010982848E+04  0.50400001928E-02 0. -1.
       -1   -1    0    0    0  501  0.00000000000E+00  0.00000000000E+00 -0.71050929699E+03  0.71050929701E+03  0.50400001928E-02 0.  1.
    10030    2    1    2    0    0  0.00000000000E+00  0.00000000000E+00  0.39058898783E+03  0.18116075818E+04  0.17690003599E+04 0.  0.
        2    1    3    3  502    0  0.74074625092E+03 -0.10950153456E+03 -0.28683661220E+03  0.80185462300E+03  0.25500000920E-02 0.  1.
       -2    1    3    3    0  502 -0.74074625092E+03  0.10950153456E+03  0.67742560003E+03  0.10097529588E+04  0.25500000920E-02 0. -1.
</event>
<event>
 5   0  0.3413839E-04  0.1763789E+04  0.7818609E-02  0.8725797E-01
        1   -1    0    0  501    0  0.00000000000E+00  0.00000000000E+00  0.18626098215E+04  0.18626098216E+04  0.50400001928E-02 0. -1.
       -1   -1    0    0    0  501  0.00000000000E+00  0.00000000000E+00 -0.41755278844E+03  0.41755278847E+03  0.50400001928E-02 0.  1.
    10030    2    1    2    0    0  0.00000000000E+00  0.00000000000E+00  0.14450570331E+04  0.22801626100E+04  0.17637890178E+04 0.  0.
        5    1    3    3  502    0  0.31664413934E+03  0.60931730130E+03  0.14378659694E+04  0.15934276640E+04  0.46999998093E+01 0. -1.
       -5    1    3    3    0  502 -0.31664413934E+03 -0.60931730130E+03  0.71910637355E+01  0.68673494599E+03  0.46999998093E+01 0.  1.
</event>
<event>
 5   0  0.6774451E-04  0.1078888E+04  0.7818609E-02  0.9226017E-01
       -2   -1    0    0    0  501  0.00000000000E+00  0.00000000000E+00  0.50889725773E+03  0.50889725774E+03  0.25500000920E-02 0. -1.
        2   -1    0    0  501    0  0.00000000000E+00  0.00000000000E+00 -0.57182427270E+03  0.57182427271E+03  0.25500000920E-02 0.  1.
    10030    2    1    2    0    0  0.00000000000E+00  0.00000000000E+00 -0.62927014970E+02  0.10807215304E+04  0.10788879539E+04 0.  0.
        4    1    3    3  502    0  0.12332381630E+03 -0.38540583297E+03 -0.38879342432E+03  0.56116696219E+03  0.12699999809E+01 0.  1.
       -4    1    3    3    0  502 -0.12332381630E+03  0.38540583297E+03  0.32586640935E+03  0.51955456826E+03  0.12699999809E+01 0. -1.
</event>
<event>
 5   0  0.3404261E-04  0.1548559E+04  0.7818609E-02  0.8852789E-01
        1   -1    0    0  501    0  0.00000000000E+00  0.00000000000E+00  0.17549040745E+04  0.17549040745E+04  0.50400001928E-02 0.  1.
       -1   -1    0    0    0  501  0.00000000000E+00  0.00000000000E+00 -0.34161904047E+03  0.34161904050E+03  0.50400001928E-02 0. -1.
    10030    2    1    2    0    0  0.00000000000E+00  0.00000000000E+00  0.14132850341E+04  0.20965231150E+04  0.15485588734E+04 0.  0.
        1    1    3    3  502    0  0.36280539963E+03  0.53089137248E+03  0.12270074712E+03  0.65462117347E+03  0.50400001928E-02 0. -1.
       -1    1    3    3    0  502 -0.36280539963E+03 -0.53089137248E+03  0.12905842869E+04  0.14419019416E+04  0.50400001928E-02 0.  1.
</event>
<event>
 5   0  0.3413839E-04  0.1764648E+04  0.7818609E-02  0.8725329E-01
       -1   -1    0    0    0  501  0.00000000000E+00  0.00000000000E+00  0.12960956257E+04  0.12960956257E+04  0.50400001928E-02 0.  1.
        1   -1    0    0  501    0  0.00000000000E+00  0.00000000000E+00 -0.60064651938E+03  0.60064651940E+03  0.50400001928E-02 0. -1.
    10030    2    1    2    0    0  0.00000000000E+00  0.00000000000E+00  0.69544910633E+03  0.18967421451E+04  0.17646476435E+04 0.  0.
        5    1    3    3  502    0  0.18989359744E+03 -0.79630990020E+03  0.70145540903E+03  0.10780680945E+04  0.46999998093E+01 0.  1.
       -5    1    3    3    0  502 -0.18989359744E+03  0.79630990020E+03 -0.60063027021E+01  0.81867405063E+03  0.46999998093E+01 0. -1.
</event>
<event>
 5   0  0.3404261E-04  0.1805263E+04  0.7818609E-02  0.8703506E-01
        1   -1    0    0  501    0  0.00000000000E+00  0.00000000000E+00  0.11211355826E+04  0.11211355827E+04  0.50400001928E-02 0. -1.
       -1   -1    0    0    0  501  0.00000000000E+00  0.00000000000E+00 -0.72671310058E+03  0.72671310060E+03  0.50400001928E-02 0.  1.
    10030    2    1    2    0    0  0.00000000000E+00  0.00000000000E+00  0.39442248207E+03  0.18478486833E+04  0.18052633220E+04 0.  0.
        1    1    3    3  502    0 -0.54535220429E+03 -0.80578893860E+02 -0.53438104061E+03  0.76776629351E+03  0.50400001928E-02 0.  1.
       -1    1    3    3    0  502  0.54535220429E+03  0.80578893860E+02  0.92880352268E+03  0.10800823897E+04  0.50400001928E-02 0. -1.
</event>
<event>
 5   0  0.3377273E-04  0.1640743E+04  0.7818609E-02  0.8795902E-01
        1   -1    0    0  501    0  0.00000000000E+00  0.00000000000E+00  0.10660325136E+04  0.10660325136E+04  0.50400001928E-02 0.  1.
       -1   -1    0    0    0  501  0.00000000000E+00  0.00000000000E+00 -0.63132134837E+03  0.63132134839E+03  0.50400001928E-02 0. -1.
    10030    2    1    2    0    0  0.00000000000E+00  0.00000000000E+00  0.43471116525E+03  0.16973538620E+04  0.16407426172E+04 0.  0.
        2    1    3    3  502    0 -0.21058644420E+03 -0.31526378378E+03 -0.53525627650E+03  0.65592467966E+03  0.25500000920E-02 0. -1.
       -2    1    3    3    0  502  0.21058644420E+03  0.31526378378E+03  0.96996744175E+03  0.10414291824E+04  0.25500000920E-02 0.  1.
</event>
<event>
 5   0  0.6547153E-04  0.1805106E+04  0.7818609E-02  0.8703589E-01
        2   -1    0    0  501    0  0.00000000000E+00  0.00000000000E+00  0.11264099106E+04  0.11264099106E+04  0.25500000920E-02 0. -1.
       -2   -1    0    0    0  501  0.00000000000E+00  0.00000000000E+00 -0.72318419361E+03  0.72318419362E+03  0.25500000920E-02 0.  1.
    10030    2    1    2    0    0  0.00000000000E+00  0.00000000000E+00  0.40322571702E+03  0.18495941043E+04  0.18051059170E+04 0.  0.
        5    1    3    3  502    0 -0.31994539294E+03  0.58985853064E+03 -0.41681973116E+03  0.78997399888E+03  0.46999998093E+01 0.  1.
       -5    1    3    3    0  502  0.31994539294E+03 -0.58985853064E+03  0.82004544818E+03  0.10596201054E+04  0.46999998093E+01 0. -1.
</event>
<event>
 5   0  0.6774451E-04  0.1472200E+04  0.7818609E-02  0.8903153E-01
        2   -1    0    0  501    0  0.00000000000E+00  0.00000000000E+00  0.74588551968E+03  0.74588551969E+03  0.25500000920E-02 0. -1.
       -2   -1    0    0    0  501  0.00000000000E+00  0.00000000000E+00 -0.72644296372E+03  0.72644296373E+03  0.25500000920E-02 0.  1.
    10030    2    1    2    0    0  0.00000000000E+00  0.00000000000E+00  0.19442555959E+02  0.14723284834E+04  0.14722001053E+04 0.  0.
        4    1    3    3  502    0 -0.64016250573E+03 -0.26920744905E+03 -0.23435120782E+03  0.73294118855E+03  0.12699999809E+01 0.  1.
       -4    1    3    3    0  502  0.64016250573E+03  0.26920744905E+03  0.25379376378E+03  0.73938729486E+03  0.12699999809E+01 0. -1.
</event>
<event>
 5   0  0.3308275E-04  0.1767043E+04  0.7818609E-02  0.8724024E-01
        1   -1    0    0  501    0  0.00000000000E+00  0.00000000000E+00  0.10655556135E+04  0.10655556135E+04  0.50400001928E-02 0.  1.
       -1   -1    0    0    0  501  0.00000000000E+00  0.00000000000E+00 -0.73258556090E+03  0.73258556092E+03  0.50400001928E-02 0. -1.
    10030    2    1    2    0    0  0.00000000000E+00  0.00000000000E+00  0.33297005258E+03  0.17981411744E+04  0.17670434707E+04 0.  0.
        3    1    3    3  502    0 -0.16382958346E+03 -0.53656187188E+03  0.86104507181E+03  0.10276854580E+04  0.10100000352E+00 0.  1.
       -3    1    3    3    0  502  0.16382958346E+03  0.53656187188E+03 -0.52807501923E+03  0.77045571638E+03  0.10100000352E+00 0. -1.
</event>
<event>
 5   0  0.3377273E-04  0.1783783E+04  0.7818609E-02  0.8714971E-01
       -1   -1    0    0    0  501  0.00000000000E+00  0.00000000000E+00  0.76244166344E+03  0.76244166346E+03  0.50400001928E-02 0. -1.
        1   -1    0    0  501    0  0.00000000000E+00  0.00000000000E+00 -0.10433197194E+04  0.10433197194E+04  0.50400001928E-02 0.  1.
    10030    2    1    2    0    0  0.00000000000E+00  0.00000000000E+00 -0.28087805592E+03  0.18057613828E+04  0.17837829715E+04 0.  0.
        2    1    3    3  502    0 -0.82223477456E+03 -0.12044762152E+03  0.18742300027E+03  0.85188322853E+03  0.25500000920E-02 0. -1.
       -2    1    3    3    0  502  0.82223477456E+03  0.12044762152E+03 -0.46830105619E+03  0.95387815430E+03  0.25500000920E-02 0.  1.
</event>
<event>
 5   0  0.6774451E-04  0.1814435E+04  0.7818609E-02  0.8698660E-01
       -2   -1    0    0    0  501  0.00000000000E+00  0.00000000000E+00  0.68762386136E+03  0.68762386136E+03  0.25500000920E-02 0. -1.
        2   -1    0    0  501    0  0.00000000000E+00  0.00000000000E+00 -0.11969388453E+04  0.11969388453E+04  0.25500000920E-02 0.  1.
    10030    2    1    2    0    0  0.00000000000E+00  0.00000000000E+00 -0.50931498397E+03  0.18845627067E+04  0.18144351304E+04 0.  0.
        4    1    3    3  502    0 -0.36638106087E+02 -0.12283294285E+03 -0.11874851973E+04  0.11943839372E+04  0.12699999809E+01 0.  1.
       -4    1    3    3    0  502  0.36638106087E+02  0.12283294285E+03  0.67817021336E+03  0.69017876949E+03  0.12699999809E+01 0. -1.
</event>
<event>
 5   0  0.3404261E-04  0.1497799E+04  0.7818609E-02  0.8885918E-01
       -1   -1    0    0    0  501  0.00000000000E+00  0.00000000000E+00  0.52957072070E+03  0.52957072073E+03  0.50400001928E-02 0. -1.
        1   -1    0    0  501    0  0.00000000000E+00  0.00000000000E+00 -0.10590664351E+04  0.10590664351E+04  0.50400001928E-02 0.  1.
    10030    2    1    2    0    0  0.00000000000E+00  0.00000000000E+00 -0.52949571441E+03  0.15886371559E+04  0.14977991525E+04 0.  0.
        1    1    3    3  502    0  0.71431790302E+03  0.91872838728E+02 -0.48252930022E+03  0.86690553734E+03  0.50400001928E-02 0.  1.
       -1    1    3    3    0  502 -0.71431790302E+03 -0.91872838728E+02 -0.46966414195E+02  0.72173161851E+03  0.50400001928E-02 0. -1.
</event>
<event>
 5   0  0.6771967E-04  0.1802766E+04  0.7818609E-02  0.8704830E-01
        2   -1    0    0  501    0  0.00000000000E+00  0.00000000000E+00  0.94495217759E+03  0.94495217759E+03  0.25500000920E-02 0.  1.
       -2   -1    0    0    0  501  0.00000000000E+00  0.00000000000E+00 -0.85982236524E+03  0.85982236524E+03  0.25500000920E-02 0. -1.
    10030    2    1    2    0    0  0.00000000000E+00  0.00000000000E+00  0.85129812356E+02  0.18047745428E+04  0.18027656713E+04 0.  0.
        1    1    3    3  502    0 -0.23719185714E+03 -0.35890434409E+03 -0.75041541522E+03  0.86498300603E+03  0.50400001928E-02 0. -1.
       -1    1    3    3    0  502  0.23719185714E+03  0.35890434409E+03  0.83554522757E+03  0.93979153680E+03  0.50400001928E-02 0.  1.
</event>
<event>
 5   0  0.3404261E-04  0.1759124E+04  0.7818609E-02  0.8728344E-01
       -1   -1    0    0    0  501  0.00000000000E+00  0.00000000000E+00  0.11098032678E+04  0.11098032678E+04  0.50400001928E-02 0. -1.
        1   -1    0    0  501    0  0.00000000000E+00  0.00000000000E+00 -0.69708703401E+03  0.69708703403E+03  0.50400001928E-02 0.  1.
    10030    2    1    2    0    0  0.00000000000E+00  0.00000000000E+00  0.41271623381E+03  0.18068903019E+04  0.17591241779E+04 0.  0.
        1    1    3    3  502    0 -0.64433851108E+03 -0.38815811245E+03  0.67457629458E+03  0.10103920102E+04  0.50400001928E-02 0. -1.
       -1    1    3    3    0  502  0.64433851108E+03  0.38815811245E+03 -0.26186006076E+03  0.79649829163E+03  0.50400001928E-02 0.  1.
</event>
<event>
 5   0  0.3404261E-04  0.1760868E+04  0.7818609E-02  0.8727391E-01
        1   -1    0    0  501    0  0.00000000000E+00  0.00000000000E+00  0.11242933695E+04  0.11242933696E+04  0.50400001928E-02 0.  1.
       -1   -1    0    0    0  501  0.00000000000E+00  0.00000000000E+00 -0.68946805466E+03  0.68946805468E+03  0.50400001928E-02 0. -1.
    10030    2    1    2    0    0  0.00000000000E+00  0.00000000000E+00  0.43482531488E+03  0.18137614242E+04  0.17608683794E+04 0.  0.
        1    1    3    3  502    0 -0.19866587494E+03 -0.81603431748E+03  0.48951475941E+03  0.97211359258E+03  0.50400001928E-02 0.  1.
       -1    1    3    3    0  502  0.19866587494E+03  0.81603431748E+03 -0.54689444527E+02  0.84164783166E+03  0.50400001928E-02 0. -1.
</event>
<event>
 5   0  0.6547153E-04  0.1697399E+04  0.7818609E-02  0.8762849E-01
       -2   -1    0    0    0  501  0.00000000000E+00  0.00000000000E+00  0.49801787025E+03  0.49801787026E+03  0.25500000920E-02 0. -1.
        2   -1    0    0  501    0  0.00000000000E+00  0.00000000000E+00 -0.14463160421E+04  0.14463160421E+04  0.25500000920E-02 0.  1.
    10030    2    1    2    0    0  0.00000000000E+00  0.00000000000E+00 -0.94829817187E+03  0.19443339124E+04  0.16973994639E+04 0.  0.
        5    1    3    3  502    0 -0.55338261004E+03  0.42238055869E+03 -0.10301857898E+04  0.12433593612E+04  0.46999998093E+01 0.  1.
       -5    1    3    3    0  502  0.55338261004E+03 -0.42238055869E+03  0.81887617963E+02  0.70097455120E+03  0.46999998093E+01 0. -1.
</event>
<event>
 5   0  0.3413839E-04  0.1805124E+04  0.7818609E-02  0.8703579E-01
        1   -1    0    0  501    0  0.00000000000E+00  0.00000000000E+00  0.84215878759E+03  0.84215878760E+03  0.50400001928E-02 0. -1.
       -1   -1    0    0    0  501  0.00000000000E+00  0.00000000000E+00 -0.96729751666E+03  0.96729751668E+03  0.50400001928E-02 0.  1.
    10030    2    1    2    0    0  0.00000000000E+00  0.00000000000E+00 -0.12513872908E+03  0.18094563043E+04  0.18051239336E+04 0.  0.
        5    1    3    3  502    0 -0.19944467987E+03 -0.70407496530E+03  0.46699420033E+03  0.86810449269E+03  0.46999998093E+01 0. -1.
       -5    1    3    3    0  502  0.19944467987E+03  0.70407496530E+03 -0.59213292941E+03  0.94135181159E+03  0.46999998093E+01 0.  1.
</event>
<event>
 5   0  0.6929121E-04  0.1846766E+04  0.7818609E-02  0.8681817E-01
        2   -1    0    0  501    0  0.00000000000E+00  0.00000000000E+00  0.12979571291E+04  0.12979571291E+04  0.25500000920E-02 0.  1.
       -2   -1    0    0    0  501  0.00000000000E+00  0.00000000000E+00 -0.65690654940E+03  0.65690654941E+03  0.25500000920E-02 0. -1.
    10030    2    1    2    0    0  0.00000000000E+00  0.00000000000E+00  0.64105057965E+03  0.19548636785E+04  0.18467664053E+04 0.  0.
        3    1    3    3  502    0 -0.66021633356E+03  0.24298906191E+03 -0.31256896936E+03  0.76982378641E+03  0.10100000352E+00 0. -1.
       -3    1    3    3    0  502  0.66021633356E+03 -0.24298906191E+03  0.95361954902E+03  0.11850398921E+04  0.10100000352E+00 0.  1.
</event>
<event>
 5   0  0.6774451E-04  0.1801483E+04  0.7818609E-02  0.8705511E-01
       -2   -1    0    0    0  501  0.00000000000E+00  0.00000000000E+00  0.49581895192E+03  0.49581895193E+03  0.25500000920E-02 0. -1.
        2   -1    0    0  501    0  0.00000000000E+00  0.00000000000E+00 -0.16363541501E+04  0.16363541501E+04  0.25500000920E-02 0.  1.
    10030    2    1    2    0    0  0.00000000000E+00  0.00000000000E+00 -0.11405351982E+04  0.21321731021E+04  0.18014831664E+04 0.  0.
        4    1    3    3  502    0 -0.21667693804E+03  0.35089709037E+03 -0.15180486348E+04  0.15730705433E+04  0.12699999809E+01 0.  1.
       -4    1    3    3    0  502  0.21667693804E+03 -0.35089709037E+03  0.37751343663E+03  0.55910255879E+03  0.12699999809E+01 0. -1.
</event>
<event>
 5   0  0.6929121E-04  0.1781359E+04  0.7818609E-02  0.8716276E-01
       -2   -1    0    0    0  501  0.00000000000E+00  0.00000000000E+00  0.40594193853E+03  0.40594193854E+03  0.25500000920E-02 0.  1.
        2   -1    0    0  501    0  0.00000000000E+00  0.00000000000E+00 -0.19542459505E+04  0.19542459506E+04  0.25500000920E-02 0. -1.
    10030    2    1    2    0    0  0.00000000000E+00  0.00000000000E+00 -0.15483040120E+04  0.23601878891E+04  0.17813594691E+04 0.  0.
        3    1    3    3  502    0 -0.81354768262E+03  0.15918716189E+03 -0.34256023283E+03  0.89696594569E+03  0.10100000352E+00 0.  1.
       -3    1    3    3    0  502  0.81354768262E+03 -0.15918716189E+03 -0.12057437792E+04  0.14632219434E+04  0.10100000352E+00 0. -1.
</event>
<event>
 5   0  0.6771967E-04  0.1790013E+04  0.7818609E-02  0.8711629E-01
        2   -1    0    0  501    0  0.00000000000E+00  0.00000000000E+00  0.15259525097E+04  0.15259525097E+04  0.25500000920E-02 0. -1.
       -2   -1    0    0    0  501  0.00000000000E+00  0.00000000000E+00 -0.52494177320E+03  0.52494177320E+03  0.25500000920E-02 0.  1.
    10030    2    1    2    0    0  0.00000000000E+00  0.00000000000E+00  0.10010107365E+04  0.20508942829E+04  0.17900125321E+04 0.  0.
        1    1    3    3  502    0  0.26537898329E+03 -0.83247515715E+03  0.27835137711E+03  0.91701711065E+03  0.50400001928E-02 0.  1.
       -1    1    3    3    0  502 -0.26537898329E+03  0.83247515715E+03  0.72265935940E+03  0.11338771723E+04  0.50400001928E-02 0. -1.
</event>
<event>
 5   0  0.3377273E-04  0.1761105E+04  0.7818609E-02  0.8727261E-01
        1   -1    0    0  501    0  0.00000000000E+00  0.00000000000E+00  0.10766092931E+04  0.10766092931E+04  0.50400001928E-02 0. -1.
       -1   -1    0    0    0  501  0.00000000000E+00  0.00000000000E+00 -0.72019854263E+03  0.72019854264E+03  0.50400001928E-02 0.  1.
    10030    2    1    2    0    0  0.00000000000E+00  0.00000000000E+00  0.35641075047E+03  0.17968078358E+04  0.17611047032E+04 0.  0.
        2    1    3    3  502    0  0.10080500673E+02 -0.84180645462E+03  0.44157169077E+03  0.95064466633E+03  0.25500000920E-02 0. -1.
       -2    1    3    3    0  502 -0.10080500673E+02  0.84180645462E+03 -0.85160940298E+02  0.84616316942E+03  0.25500000920E-02 0.  1.
</event>
<event>
 5   0  0.3470962E-04  0.1819188E+04  0.7818609E-02  0.8696162E-01
        1   -1    0    0  501    0  0.00000000000E+00  0.00000000000E+00  0.14641940105E+04  0.14641940105E+04  0.50400001928E-02 0. -1.
       -1   -1    0    0    0  501  0.00000000000E+00  0.00000000000E+00 -0.56506228725E+03  0.56506228727E+03  0.50400001928E-02 0.  1.
    10030    2    1    2    0    0  0.00000000000E+00  0.00000000000E+00  0.89913172323E+03  0.20292562978E+04  0.18191875292E+04 0.  0.
        4    1    3    3  502    0 -0.27860208016E+03 -0.97873732163E+02  0.14092370966E+04  0.14398434616E+04  0.12699999809E+01 0. -1.
       -4    1    3    3    0  502  0.27860208016E+03  0.97873732163E+02 -0.51010537341E+03  0.58941283613E+03  0.12699999809E+01 0.  1.
</event>
<event>
 5   0  0.6547153E-04  0.1805257E+04  0.7818609E-02  0.8703509E-01
       -2   -1    0    0    0  501  0.00000000000E+00  0.00000000000E+00  0.50681621004E+03  0.50681621004E+03  0.25500000920E-02 0.  1.
        2   -1    0    0  501    0  0.00000000000E+00  0.00000000000E+00 -0.16075612062E+04  0.16075612062E+04  0.25500000920E-02 0. -1.
    10030    2    1    2    0    0  0.00000000000E+00  0.00000000000E+00 -0.11007449962E+04  0.21143774163E+04  0.18052568548E+04 0.  0.
        5    1    3    3  502    0 -0.46070395887E+03 -0.16294920325E+03  0.33846600101E+03  0.59445933788E+03  0.46999998093E+01 0.  1.
       -5    1    3    3    0  502  0.46070395887E+03  0.16294920325E+03 -0.14392109972E+04  0.15199180784E+04  0.46999998093E+01 0. -1.
</event>
<event>
 5   0  0.3404261E-04  0.1844343E+04  0.7818609E-02  0.8683067E-01
        1   -1    0    0  501    0  0.00000000000E+00  0.00000000000E+00  0.95405605055E+03  0.95405605056E+03  0.50400001928E-02 0. -1.
       -1   -1    0    0    0  501  0.00000000000E+00  0.00000000000E+00 -0.89135243696E+03  0.89135243697E+03  0.50400001928E-02 0.  1.
    10030    2    1    2    0    0  0.00000000000E+00  0.00000000000E+00  0.62703613593E+02  0.18454084875E+04  0.18443429027E+04 0.  0.
        1    1    3    3  502    0  0.35956233052E+03 -0.79915983416E+03 -0.25597028688E+03  0.91294156322E+03  0.50400001928E-02 0. -1.
       -1    1    3    3    0  502 -0.35956233052E+03  0.79915983416E+03  0.31867390047E+03  0.93246692431E+03  0.50400001928E-02 0.  1.
</event>
<event>
 5   0  0.3470962E-04  0.1747407E+04  0.7818609E-02  0.8734779E-01
        1   -1    0    0  501    0  0.00000000000E+00  0.00000000000E+00  0.27565485124E+04  0.27565485124E+04  0.50400001928E-02 0.  1.
       -1   -1    0    0    0  501  0.00000000000E+00  0.00000000000E+00 -0.27692525174E+03  0.27692525178E+03  0.50400001928E-02 0. -1.
    10030    2    1    2    0    0  0.00000000000E+00  0.00000000000E+00  0.24796232606E+04  0.30334737642E+04  0.17474070971E+04 0.  0.
        4    1    3    3  502    0 -0.75499256986E+03  0.43746055171E+03  0.11627455356E+04  0.14537414860E+04  0.12699999809E+01 0. -1.
       -4    1    3    3    0  502  0.75499256986E+03 -0.43746055171E+03  0.13168777251E+04  0.15797322781E+04  0.12699999809E+01 0.  1.
</event>
<event>
 5   0  0.3413839E-04  0.1850123E+04  0.7818609E-02  0.8680090E-01
        1   -1    0    0  501    0  0.00000000000E+00  0.00000000000E+00  0.10332098243E+04  0.10332098243E+04  0.50400001928E-02 0.  1.
       -1   -1    0    0    0  501  0.00000000000E+00  0.00000000000E+00 -0.82823300605E+03  0.82823300606E+03  0.50400001928E-02 0. -1.
    10030    2    1    2    0    0  0.00000000000E+00  0.00000000000E+00  0.20497681827E+03  0.18614428304E+04  0.18501226756E+04 0.  0.
        5    1    3    3  502    0  0.35989921595E+03  0.81465676758E+03 -0.14908810897E+03  0.90301852076E+03  0.46999998093E+01 0.  1.
       -5    1    3    3    0  502 -0.35989921595E+03 -0.81465676758E+03  0.35406492724E+03  0.95842430964E+03  0.46999998093E+01 0. -1.
</event>
<event>
 5   0  0.6774451E-04  0.1796470E+04  0.7818609E-02  0.8708179E-01
        2   -1    0    0  501    0  0.00000000000E+00  0.00000000000E+00  0.15995857104E+04  0.15995857104E+04  0.25500000920E-02 0. -1.
       -2   -1    0    0    0  501  0.00000000000E+00  0.00000000000E+00 -0.50439702365E+03  0.50439702366E+03  0.25500000920E-02 0.  1.
    10030    2    1    2    0    0  0.00000000000E+00  0.00000000000E+00  0.10951886868E+04  0.21039827341E+04  0.17964701739E+04 0.  0.
        4    1    3    3  502    0 -0.11066553559E+03  0.87770670856E+03  0.36536925173E+03  0.95713751887E+03  0.12699999809E+01 0.  1.
       -4    1    3    3    0  502  0.11066553559E+03 -0.87770670856E+03  0.72981943505E+03  0.11468452152E+04  0.12699999809E+01 0. -1.
</event>
<event>
 5   0  0.3404261E-04  0.1754574E+04  0.7818609E-02  0.8730837E-01
        1   -1    0    0  501    0  0.00000000000E+00  0.00000000000E+00  0.83893650742E+03  0.83893650743E+03  0.50400001928E-02 0.  1.
       -1   -1    0    0    0  501  0.00000000000E+00  0.00000000000E+00 -0.91739069559E+03  0.91739069560E+03  0.50400001928E-02 0. -1.
    10030    2    1    2    0    0  0.00000000000E+00  0.00000000000E+00 -0.78454188173E+02  0.17563272030E+04  0.17545740749E+04 0.  0.
        1    1    3    3  502    0  0.79696666230E+03 -0.27233254308E+03  0.20660263440E+03  0.86718252023E+03  0.50400001928E-02 0.  1.
       -1    1    3    3    0  502 -0.79696666230E+03  0.27233254308E+03 -0.28505682257E+03  0.88914468280E+03  0.50400001928E-02 0. -1.
</event>
<event>
 5   0  0.6853162E-04  0.1781463E+04  0.7818609E-02  0.8716220E-01
        2   -1    0    0  501    0  0.00000000000E+00  0.00000000000E+00  0.12480592830E+04  0.12480592830E+04  0.25500000920E-02 0. -1.
       -2   -1    0    0    0  501  0.00000000000E+00  0.00000000000E+00 -0.63570877606E+03  0.63570877607E+03  0.25500000920E-02 0.  1.
    10030    2    1    2    0    0  0.00000000000E+00  0.00000000000E+00  0.61235050695E+03  0.18837680591E+04  0.17814625893E+04 0.  0.
        2    1    3    3  502    0  0.31455826203E+03 -0.30583185094E+02 -0.57442786605E+03  0.65562916708E+03  0.25500000920E-02 0.  1.
       -2    1    3    3    0  502 -0.31455826203E+03  0.30583185094E+02  0.11867783730E+04  0.12281388920E+04  0.25500000920E-02 0. -1.
</event>
<event>
 5   0  0.6547153E-04  0.1183238E+04  0.7818609E-02  0.9127656E-01
       -2   -1    0    0    0  501  0.00000000000E+00  0.00000000000E+00  0.26442656754E+03  0.26442656755E+03  0.25500000920E-02 0.  1.
        2   -1    0    0  501    0  0.00000000000E+00  0.00000000000E+00 -0.13236691194E+04  0.13236691194E+04  0.25500000920E-02 0. -1.
    10030    2    1    2    0    0  0.00000000000E+00  0.00000000000E+00 -0.10592425518E+04  0.15880956869E+04  0.11832384068E+04 0.  0.
        5    1    3    3  502    0 -0.19809844996E+03 -0.25231236487E+03  0.13753728524E+03  0.34906033886E+03  0.46999998093E+01 0.  1.
       -5    1    3    3    0  502  0.19809844996E+03  0.25231236487E+03 -0.11967798371E+04  0.12390353481E+04  0.46999998093E+01 0. -1.
</event>
<event>
 5   0  0.3308275E-04  0.1815352E+04  0.7818609E-02  0.8698178E-01
       -1   -1    0    0    0  501  0.00000000000E+00  0.00000000000E+00  0.62770809470E+03  0.62770809472E+03  0.50400001928E-02 0. -1.
        1   -1    0    0  501    0  0.00000000000E+00  0.00000000000E+00 -0.13125139036E+04  0.13125139036E+04  0.50400001928E-02 0.  1.
    10030    2    1    2    0    0  0.00000000000E+00  0.00000000000E+00 -0.68480580887E+03  0.19402219983E+04  0.18153518686E+04 0.  0.
        3    1    3    3  502    0  0.78596073199E+03 -0.23323683845E+03 -0.75873832559E+03  0.11170575419E+04  0.10100000352E+00 0.  1.
       -3    1    3    3    0  502 -0.78596073199E+03  0.23323683845E+03  0.73932516721E+02  0.82316445639E+03  0.10100000352E+00 0. -1.
</event>
<event>
 5   0  0.3413839E-04  0.1771523E+04  0.7818609E-02  0.8721592E-01
        1   -1    0    0  501    0  0.00000000000E+00  0.00000000000E+00  0.78594004736E+03  0.78594004737E+03  0.50400001928E-02 0.  1.
       -1   -1    0    0    0  501  0.00000000000E+00  0.00000000000E+00 -0.99826115004E+03  0.99826115005E+03  0.50400001928E-02 0. -1.
    10030    2    1    2    0    0  0.00000000000E+00  0.00000000000E+00 -0.21232110269E+03  0.17842011974E+04  0.17715229782E+04 0.  0.
        5    1    3    3  502    0 -0.31432288160E+03 -0.59526335863E+03  0.47364511107E+03  0.82310334786E+03  0.46999998093E+01 0.  1.
       -5    1    3    3    0  502  0.31432288160E+03  0.59526335863E+03 -0.68596621375E+03  0.96109784956E+03  0.46999998093E+01 0. -1.
</event>
<event>
 5   0  0.6853162E-04  0.1782670E+04  0.7818609E-02  0.8715570E-01
       -2   -1    0    0    0  501  0.00000000000E+00  0.00000000000E+00  0.48184289069E+03  0.48184289069E+03  0.25500000920E-02 0. -1.
        2   -1    0    0  501    0  0.00000000000E+00  0.00000000000E+00 -0.16488322576E+04  0.16488322576E+04  0.25500000920E-02 0.  1.
    10030    2    1    2    0    0  0.00000000000E+00  0.00000000000E+00 -0.11669893669E+04  0.21306751483E+04  0.17826700214E+04 0.  0.
        2    1    3    3  502    0 -0.35438114050E+02 -0.65648435720E+02  0.47810481478E+03  0.48389026748E+03  0.25500000920E-02 0. -1.
       -2    1    3    3    0  502  0.35438114050E+02  0.65648435720E+02 -0.16450941817E+04  0.16467848808E+04  0.25500000920E-02 0.  1.
</event>
<event>
 5   0  0.3470962E-04  0.1832975E+04  0.7818609E-02  0.8688958E-01
       -1   -1    0    0    0  501  0.00000000000E+00  0.00000000000E+00  0.55543667170E+03  0.55543667172E+03  0.50400001928E-02 0.  1.
        1   -1    0    0  501    0  0.00000000000E+00  0.00000000000E+00 -0.15122323140E+04  0.15122323140E+04  0.50400001928E-02 0. -1.
    10030    2    1    2    0    0  0.00000000000E+00  0.00000000000E+00 -0.95679564228E+03  0.20676689857E+04  0.18329749407E+04 0.  0.
        4    1    3    3  502    0  0.92821510343E+02 -0.51431016476E+02 -0.15052777544E+04  0.15090141527E+04  0.12699999809E+01 0. -1.
       -4    1    3    3    0  502 -0.92821510343E+02  0.51431016476E+02  0.54848211212E+03  0.55865483302E+03  0.12699999809E+01 0.  1.
</event>
<event>
 5   0  0.6929121E-04  0.1819748E+04  0.7818609E-02  0.8695868E-01
       -2   -1    0    0    0  501  0.00000000000E+00  0.00000000000E+00  0.33984248935E+03  0.33984248936E+03  0.25500000920E-02 0.  1.
        2   -1    0    0  501    0  0.00000000000E+00  0.00000000000E+00 -0.24360411999E+04  0.24360411999E+04  0.25500000920E-02 0. -1.
    10030    2    1    2    0    0  0.00000000000E+00  0.00000000000E+00 -0.20961987106E+04  0.27758836893E+04  0.18197475710E+04 0.  0.
        3    1    3    3  502    0 -0.66568910819E+03  0.39521396383E+03 -0.31886730968E+03  0.83726485496E+03  0.10100000352E+00 0.  1.
       -3    1    3    3    0  502  0.66568910819E+03 -0.39521396383E+03 -0.17773314009E+04  0.19386188343E+04  0.10100000352E+00 0. -1.
</event>
<event>
 5   0  0.6547153E-04  0.1782565E+04  0.7818609E-02  0.8715626E-01
       -2   -1    0    0    0  501  0.00000000000E+00  0.00000000000E+00  0.10957781989E+04  0.10957781989E+04  0.25500000920E-02 0. -1.
        2   -1    0    0  501    0  0.00000000000E+00  0.00000000000E+00 -0.72495020755E+03  0.72495020756E+03  0.25500000920E-02 0.  1.
    10030    2    1    2    0    0  0.00000000000E+00  0.00000000000E+00  0.37082799137E+03  0.18207284065E+04  0.17825651548E+04 0.  0.
        5    1    3    3  502    0 -0.42262965149E+03  0.32891748559E+03 -0.54227105507E+03  0.76215649431E+03  0.46999998093E+01 0.  1.
       -5    1    3    3    0  502  0.42262965149E+03 -0.32891748559E+03  0.91309904645E+03  0.10585719122E+04  0.46999998093E+01 0. -1.
</event>
<event>
 5   0  0.6771967E-04  0.1828427E+04  0.7818609E-02  0.8691327E-01
       -2   -1    0    0    0  501  0.00000000000E+00  0.00000000000E+00  0.53468317146E+03  0.53468317147E+03  0.25500000920E-02 0.  1.
        2   -1    0    0  501    0  0.00000000000E+00  0.00000000000E+00 -0.15631428669E+04  0.15631428669E+04  0.25500000920E-02 0. -1.
    10030    2    1    2    0    0  0.00000000000E+00  0.00000000000E+00 -0.10284596955E+04  0.20978260384E+04  0.18284268490E+04 0.  0.
        1    1    3    3  502    0 -0.41154496096E+03 -0.77137623571E+03 -0.82079847397E+03  0.11992083584E+04  0.50400001928E-02 0.  1.
       -1    1    3    3    0  502  0.41154496096E+03  0.77137623571E+03 -0.20766122151E+03  0.89861768003E+03  0.50400001928E-02 0. -1.
</event>
<event>
 5   0  0.3470962E-04  0.1419353E+04  0.7818609E-02  0.8939928E-01
        1   -1    0    0  501    0  0.00000000000E+00  0.00000000000E+00  0.65231110465E+03  0.65231110467E+03  0.50400001928E-02 0.  1.
       -1   -1    0    0    0  501  0.00000000000E+00  0.00000000000E+00 -0.77208697740E+03  0.77208697742E+03  0.50400001928E-02 0. -1.
    10030    2    1    2    0    0  0.00000000000E+00  0.00000000000E+00 -0.11977587275E+03  0.14243980821E+04  0.14193532459E+04 0.  0.
        4    1    3    3  502    0  0.24572734091E+03 -0.63468012951E+03 -0.26169595664E+03  0.72916882784E+03  0.12699999809E+01 0. -1.
       -4    1    3    3    0  502 -0.24572734091E+03  0.63468012951E+03  0.14192008389E+03  0.69522925426E+03  0.12699999809E+01 0.  1.
</event>
<event>
 5   0  0.6771967E-04  0.1747016E+04  0.7818609E-02  0.8734994E-01
        2   -1    0    0  501    0  0.00000000000E+00  0.00000000000E+00  0.17943551840E+04  0.17943551840E+04  0.25500000920E-02 0.  1.
       -2   -1    0    0    0  501  0.00000000000E+00  0.00000000000E+00 -0.42523154511E+03  0.42523154512E+03  0.25500000920E-02 0. -1.
    10030    2    1    2    0    0  0.00000000000E+00  0.00000000000E+00  0.13691236389E+04  0.22195867291E+04  0.17470162305E+04 0.  0.
        1    1    3    3  502    0  0.12536201998E+03  0.55797196454E+03 -0.15432336671E+03  0.59233778438E+03  0.50400001928E-02 0. -1.
       -1    1    3    3    0  502 -0.12536201998E+03 -0.55797196454E+03  0.15234470056E+04  0.16272489448E+04  0.50400001928E-02 0.  1.
</event>
<event>
 5   0  0.3470962E-04  0.1786892E+04  0.7818609E-02  0.8713301E-01
        1   -1    0    0  501    0  0.00000000000E+00  0.00000000000E+00  0.11464341032E+04  0.11464341032E+04  0.50400001928E-02 0.  1.
       -1   -1    0    0    0  501  0.00000000000E+00  0.00000000000E+00 -0.69628605702E+03  0.69628605704E+03  0.50400001928E-02 0. -1.
    10030    2    1    2    0    0  0.00000000000E+00  0.00000000000E+00  0.45014804621E+03  0.18427201603E+04  0.17868923654E+04 0.  0.
        4    1    3    3  502    0  0.23895995254E+03  0.80923198240E+03 -0.77848584315E+02  0.84736077041E+03  0.12699999809E+01 0. -1.
       -4    1    3    3    0  502 -0.23895995254E+03 -0.80923198240E+03  0.52799663052E+03  0.99535938987E+03  0.12699999809E+01 0.  1.
</event>
<event>
 5   0  0.6774451E-04  0.1794714E+04  0.7818609E-02  0.8709116E-01
       -2   -1    0    0    0  501  0.00000000000E+00  0.00000000000E+00  0.11818824268E+04  0.11818824268E+04  0.25500000920E-02 0.  1.
        2   -1    0    0  501    0  0.00000000000E+00  0.00000000000E+00 -0.68132797069E+03  0.68132797069E+03  0.25500000920E-02 0. -1.
    10030    2    1    2    0    0  0.00000000000E+00  0.00000000000E+00  0.50055445607E+03  0.18632103975E+04  0.17947139665E+04 0.  0.
        4    1    3    3  502    0 -0.17251219708E+03 -0.86843286070E+03  0.40183466088E+03  0.97232134569E+03  0.12699999809E+01 0. -1.
       -4    1    3    3    0  502  0.17251219708E+03  0.86843286070E+03  0.98719795192E+02  0.89088905177E+03  0.12699999809E+01 0.  1.
</event>
<event>
 5   0  0.3404261E-04  0.1817379E+04  0.7818609E-02  0.8697112E-01
       -1   -1    0    0    0  501  0.00000000000E+00  0.00000000000E+00  0.10721213844E+04  0.10721213844E+04  0.50400001928E-02 0.  1.
        1   -1    0    0  501    0  0.00000000000E+00  0.00000000000E+00 -0.77017107103E+03  0.77017107105E+03  0.50400001928E-02 0. -1.
    10030    2    1    2    0    0  0.00000000000E+00  0.00000000000E+00  0.30195031334E+03  0.18422924554E+04  0.18173792944E+04 0.  0.
        1    1    3    3  502    0 -0.17779340839E+03  0.88600308701E+03  0.54247471785E+02  0.90529263473E+03  0.50400001928E-02 0. -1.
       -1    1    3    3    0  502  0.17779340839E+03 -0.88600308701E+03  0.24770284156E+03  0.93699982071E+03  0.50400001928E-02 0.  1.
</event>
<event>
 5   0  0.6547153E-04  0.1825836E+04  0.7818609E-02  0.8692680E-01
        2   -1    0    0  501    0  0.00000000000E+00  0.00000000000E+00  0.16816022059E+04  0.16816022059E+04  0.25500000920E-02 0. -1.
       -2   -1    0    0    0  501  0.00000000000E+00  0.00000000000E+00 -0.49561006488E+03  0.49561006489E+03  0.25500000920E-02 0.  1.
    10030    2    1    2    0    0  0.00000000000E+00  0.00000000000E+00  0.11859921411E+04  0.21772122708E+04  0.18258356754E+04 0.  0.
        5    1    3    3  502    0  0.87725276198E+03 -0.19656144164E+03  0.78224638676E+03  0.11916963994E+04  0.46999998093E+01 0.  1.
       -5    1    3    3    0  502 -0.87725276198E+03  0.19656144164E+03  0.40374575429E+03  0.98551587143E+03  0.46999998093E+01 0. -1.
</event>
<event>
 5   0  0.6547153E-04  0.1804376E+04  0.7818609E-02  0.8703976E-01
       -2   -1    0    0    0  501  0.00000000000E+00  0.00000000000E+00  0.32984243498E+03  0.32984243499E+03  0.25500000920E-02 0.  1.
        2   -1    0    0  501    0  0.00000000000E+00  0.00000000000E+00 -0.24676720817E+04  0.24676720817E+04  0.25500000920E-02 0. -1.
    10030    2    1    2    0    0  0.00000000000E+00  0.00000000000E+00 -0.21378296467E+04  0.27975145167E+04  0.18043757571E+04 0.  0.
        5    1    3    3  502    0  0.51419738406E+03  0.33736080818E+03 -0.45518301734E+02  0.61668895763E+03  0.46999998093E+01 0.  1.
       -5    1    3    3    0  502 -0.51419738406E+03 -0.33736080818E+03 -0.20923113450E+04  0.21808255591E+04  0.46999998093E+01 0. -1.
</event>
<event>
 5   0  0.6853162E-04  0.1864282E+04  0.7818609E-02  0.8672843E-01
       -2   -1    0    0    0  501  0.00000000000E+00  0.00000000000E+00  0.34274264595E+03  0.34274264596E+03  0.25500000920E-02 0. -1.
        2   -1    0    0  501    0  0.00000000000E+00  0.00000000000E+00 -0.25351004588E+04  0.25351004588E+04  0.25500000920E-02 0.  1.
    10030    2    1    2    0    0  0.00000000000E+00  0.00000000000E+00 -0.21923578129E+04  0.28778431048E+04  0.18642822093E+04 0.  0.
        2    1    3    3  502    0 -0.16050889687E+03 -0.25099499388E+03 -0.24596240835E+04  0.24776021119E+04  0.25500000920E-02 0.  1.
       -2    1    3    3    0  502  0.16050889687E+03  0.25099499388E+03  0.26726627063E+03  0.40024099284E+03  0.25500000920E-02 0. -1.
</event>
<event>
 5   0  0.6853162E-04  0.1782353E+04  0.7818609E-02  0.8715741E-01
        2   -1    0    0  501    0  0.00000000000E+00  0.00000000000E+00  0.26232832045E+04  0.26232832045E+04  0.25500000920E-02 0.  1.
       -2   -1    0    0    0  501  0.00000000000E+00  0.00000000000E+00 -0.30274862647E+03  0.30274862648E+03  0.25500000920E-02 0. -1.
    10030    2    1    2    0    0  0.00000000000E+00  0.00000000000E+00  0.23205345780E+04  0.29260318309E+04  0.17823528124E+04 0.  0.
        2    1    3    3  502    0  0.88170646839E+03  0.11515130686E+03  0.10627396669E+04  0.13856701337E+04  0.25500000920E-02 0.  1.
       -2    1    3    3    0  502 -0.88170646839E+03 -0.11515130686E+03  0.12577949111E+04  0.15403616973E+04  0.25500000920E-02 0. -1.
</event>
<event>
 5   0  0.6771967E-04  0.1778430E+04  0.7818609E-02  0.8717855E-01
       -2   -1    0    0    0  501  0.00000000000E+00  0.00000000000E+00  0.76483898742E+03  0.76483898743E+03  0.25500000920E-02 0. -1.
        2   -1    0    0  501    0  0.00000000000E+00  0.00000000000E+00 -0.10338172228E+04  0.10338172228E+04  0.25500000920E-02 0.  1.
    10030    2    1    2    0    0  0.00000000000E+00  0.00000000000E+00 -0.26897823534E+03  0.17986562102E+04  0.17784304517E+04 0.  0.
        1    1    3    3  502    0 -0.43482672937E+03  0.71539770953E+03 -0.43762363541E+03  0.94466005191E+03  0.50400001928E-02 0.  1.
       -1    1    3    3    0  502  0.43482672937E+03 -0.71539770953E+03  0.16864540007E+03  0.85399615828E+03  0.50400001928E-02 0. -1.
</event>
<event>
 5   0  0.3308275E-04  0.1749683E+04  0.7818609E-02  0.8733525E-01
       -1   -1    0    0    0  501  0.00000000000E+00  0.00000000000E+00  0.14273663067E+04  0.14273663067E+04  0.50400001928E-02 0. -1.
        1   -1    0    0  501    0  0.00000000000E+00  0.00000000000E+00 -0.53619565694E+03  0.53619565696E+03  0.50400001928E-02 0.  1.
    10030    2    1    2    0    0  0.00000000000E+00  0.00000000000E+00  0.89117064976E+03  0.19635619637E+04  0.17496829593E+04 0.  0.
        3    1    3    3  502    0  0.19924987487E+03 -0.85180160310E+03  0.43547765651E+03  0.97719357509E+03  0.10100000352E+00 0.  1.
       -3    1    3    3    0  502 -0.19924987487E+03  0.85180160310E+03  0.45569299325E+03  0.98636838858E+03  0.10100000352E+00 0. -1.
</event>
<event>
 5   0  0.3308275E-04  0.1645723E+04  0.7818609E-02  0.8792941E-01
        1   -1    0    0  501    0  0.00000000000E+00  0.00000000000E+00  0.93139125473E+03  0.93139125474E+03  0.50400001928E-02 0. -1.
       -1   -1    0    0    0  501  0.00000000000E+00  0.00000000000E+00 -0.72697779865E+03  0.72697779866E+03  0.50400001928E-02 0.  1.
    10030    2    1    2    0    0  0.00000000000E+00  0.00000000000E+00  0.20441345608E+03  0.16583690534E+04  0.16457226547E+04 0.  0.
        3    1    3    3  502    0 -0.55074174778E+03  0.57319043635E+03 -0.11211759381E+03  0.80276653774E+03  0.10100000352E+00 0.  1.
       -3    1    3    3    0  502  0.55074174778E+03 -0.57319043635E+03  0.31653104989E+03  0.85560251567E+03  0.10100000352E+00 0. -1.
</event>
<event>
 5   0  0.2467375E-04  0.1864441E+04  0.7818609E-02  0.8672761E-01
       -3   -1    0    0    0  501  0.00000000000E+00  0.00000000000E+00  0.10975889045E+04  0.10975889091E+04  0.10100000352E+00 0.  1.
        3   -1    0    0  501    0  0.00000000000E+00  0.00000000000E+00 -0.79176764881E+03  0.79176765525E+03  0.10100000352E+00 0. -1.
    10030    2    1    2    0    0  0.00000000000E+00  0.00000000000E+00  0.30582125569E+03  0.18893565644E+04  0.18644413606E+04 0.  0.
        3    1    3    3  502    0  0.24616330488E+03  0.93837246773E+02 -0.75326152378E+03  0.79800046050E+03  0.10100000352E+00 0. -1.
       -3    1    3    3    0  502 -0.24616330488E+03 -0.93837246773E+02  0.10590827795E+04  0.10913561039E+04  0.10100000352E+00 0.  1.
</event>
<event>
 5   0  0.6929121E-04  0.1639687E+04  0.7818609E-02  0.8796531E-01
        2   -1    0    0  501    0  0.00000000000E+00  0.00000000000E+00  0.18067411329E+04  0.18067411329E+04  0.25500000920E-02 0. -1.
       -2   -1    0    0    0  501  0.00000000000E+00  0.00000000000E+00 -0.37201957032E+03  0.37201957033E+03  0.25500000920E-02 0.  1.
    10030    2    1    2    0    0  0.00000000000E+00  0.00000000000E+00  0.14347215626E+04  0.21787607032E+04  0.16396866285E+04 0.  0.
        3    1    3    3  502    0 -0.52189279115E+03  0.17881947134E+03  0.15232054365E+04  0.16200318827E+04  0.10100000352E+00 0.  1.
       -3    1    3    3    0  502  0.52189279115E+03 -0.17881947134E+03 -0.88483873951E+02  0.55872882057E+03  0.10100000352E+00 0. -1.
</event>
<event>
 5   0  0.3404261E-04  0.1824116E+04  0.7818609E-02  0.8693579E-01
       -1   -1    0    0    0  501  0.00000000000E+00  0.00000000000E+00  0.52398973719E+03  0.52398973721E+03  0.50400001928E-02 0.  1.
        1   -1    0    0  501    0  0.00000000000E+00  0.00000000000E+00 -0.15875304388E+04  0.15875304388E+04  0.50400001928E-02 0. -1.
    10030    2    1    2    0    0  0.00000000000E+00  0.00000000000E+00 -0.10635407016E+04  0.21115201760E+04  0.18241158488E+04 0.  0.
        1    1    3    3  502    0  0.33493598569E+03 -0.79590691508E+03 -0.19191371032E+03  0.88457945049E+03  0.50400001928E-02 0.  1.
       -1    1    3    3    0  502 -0.33493598569E+03  0.79590691508E+03 -0.87162699124E+03  0.12269407255E+04  0.50400001928E-02 0. -1.
</event>
<event>
 5   0  0.6853162E-04  0.1668234E+04  0.7818609E-02  0.8779692E-01
        2   -1    0    0  501    0  0.00000000000E+00  0.00000000000E+00  0.15790667700E+04  0.15790667700E+04  0.25500000920E-02 0. -1.
       -2   -1    0    0    0  501  0.00000000000E+00  0.00000000000E+00 -0.44060902923E+03  0.44060902924E+03  0.25500000920E-02 0.  1.
    10030    2    1    2    0    0  0.00000000000E+00  0.00000000000E+00  0.11384577408E+04  0.20196757993E+04  0.16682338884E+04 0.  0.
        2    1    3    3  502    0  0.20001799843E+02  0.81689715274E+03  0.77192088130E+03  0.11240920234E+04  0.25500000920E-02 0. -1.
       -2    1    3    3    0  502 -0.20001799843E+02 -0.81689715274E+03  0.36653685950E+03  0.89558377583E+03  0.25500000920E-02 0.  1.
</event>
<event>
 5   0  0.3470962E-04  0.1813695E+04  0.7818609E-02  0.8699050E-01
       -1   -1    0    0    0  501  0.00000000000E+00  0.00000000000E+00  0.11131722056E+04  0.11131722056E+04  0.50400001928E-02 0.  1.
        1   -1    0    0  501    0  0.00000000000E+00  0.00000000000E+00 -0.73876509074E+03  0.73876509076E+03  0.50400001928E-02 0. -1.
    10030    2    1    2    0    0  0.00000000000E+00  0.00000000000E+00  0.37440711486E+03  0.18519372964E+04  0.18136954160E+04 0.  0.
        4    1    3    3  502    0 -0.51459838667E+03  0.54829306963E+03  0.70477823286E+03  0.10306069863E+04  0.12699999809E+01 0.  1.
       -4    1    3    3    0  502  0.51459838667E+03 -0.54829306963E+03 -0.33037111800E+03  0.82133031009E+03  0.12699999809E+01 0. -1.
</event>
<event>
 5   0  0.3404261E-04  0.1807004E+04  0.7818609E-02  0.8702584E-01
       -1   -1    0    0    0  501  0.00000000000E+00  0.00000000000E+00  0.64024154176E+03  0.64024154178E+03  0.50400001928E-02 0. -1.
        1   -1    0    0  501    0  0.00000000000E+00  0.00000000000E+00 -0.12750117102E+04  0.12750117102E+04  0.50400001928E-02 0.  1.
    10030    2    1    2    0    0  0.00000000000E+00  0.00000000000E+00 -0.63477016845E+03  0.19152532520E+04  0.18070035563E+04 0.  0.
        1    1    3    3  502    0  0.59765654825E+03 -0.31928022017E+03  0.31606462072E+03  0.74768312349E+03  0.50400001928E-02 0. -1.
       -1    1    3    3    0  502 -0.59765654825E+03  0.31928022017E+03 -0.95083478917E+03  0.11675701285E+04  0.50400001928E-02 0.  1.
</event>
<event>
 5   0  0.3377273E-04  0.1803747E+04  0.7818609E-02  0.8704309E-01
       -1   -1    0    0    0  501  0.00000000000E+00  0.00000000000E+00  0.10619775802E+04  0.10619775802E+04  0.50400001928E-02 0. -1.
        1   -1    0    0  501    0  0.00000000000E+00  0.00000000000E+00 -0.76590686521E+03  0.76590686522E+03  0.50400001928E-02 0.  1.
    10030    2    1    2    0    0  0.00000000000E+00  0.00000000000E+00  0.29607071502E+03  0.18278844455E+04  0.18037471213E+04 0.  0.
        2    1    3    3  502    0  0.41332575756E+03 -0.63846587977E+03  0.63918487723E+03  0.99349593295E+03  0.25500000920E-02 0.  1.
       -2    1    3    3    0  502 -0.41332575756E+03  0.63846587977E+03 -0.34311416222E+03  0.83438851251E+03  0.25500000920E-02 0. -1.
</event>
<event>
 5   0  0.3308275E-04  0.1826399E+04  0.7818609E-02  0.8692385E-01
        1   -1    0    0  501    0  0.00000000000E+00  0.00000000000E+00  0.12528502528E+04  0.12528502528E+04  0.50400001928E-02 0.  1.
       -1   -1    0    0    0  501  0.00000000000E+00  0.00000000000E+00 -0.66562911586E+03  0.66562911588E+03  0.50400001928E-02 0. -1.
    10030    2    1    2    0    0  0.00000000000E+00  0.00000000000E+00  0.58722113695E+03  0.19184793687E+04  0.18263993059E+04 0.  0.
        3    1    3    3  502    0 -0.55357171434E+02 -0.65515514669E+01  0.12510614565E+04  0.12523027260E+04  0.10100000352E+00 0.  1.
       -3    1    3    3    0  502  0.55357171434E+02  0.65515514669E+01 -0.66384031956E+03  0.66617664274E+03  0.10100000352E+00 0. -1.
</event>
<event>
 5   0  0.6774451E-04  0.1683435E+04  0.7818609E-02  0.8770869E-01
        2   -1    0    0  501    0  0.00000000000E+00  0.00000000000E+00  0.99117179218E+03  0.99117179219E+03  0.25500000920E-02 0. -1.
       -2   -1    0    0    0  501  0.00000000000E+00  0.00000000000E+00 -0.71479874396E+03  0.71479874396E+03  0.25500000920E-02 0.  1.
    10030    2    1    2    0    0  0.00000000000E+00  0.00000000000E+00  0.27637304822E+03  0.17059705361E+04  0.16834350027E+04 0.  0.
        4    1    3    3  502    0  0.20455435012E+03  0.63504631756E+03  0.65824291276E+03  0.93723617765E+03  0.12699999809E+01 0. -1.
       -4    1    3    3    0  502 -0.20455435012E+03 -0.63504631756E+03 -0.38186986453E+03  0.76873435850E+03  0.12699999809E+01 0.  1.
</event>
<event>
 5   0  0.6774451E-04  0.1759325E+04  0.7818609E-02  0.8728234E-01
        2   -1    0    0  501    0  0.00000000000E+00  0.00000000000E+00  0.15216350559E+04  0.15216350559E+04  0.25500000920E-02 0. -1.
       -2   -1    0    0    0  501  0.00000000000E+00  0.00000000000E+00 -0.50853575802E+03  0.50853575803E+03  0.25500000920E-02 0.  1.
    10030    2    1    2    0    0  0.00000000000E+00  0.00000000000E+00  0.10130992979E+04  0.20301708139E+04  0.17593246847E+04 0.  0.
        4    1    3    3  502    0  0.81952563967E+03  0.30024140075E+03  0.37994588073E+03  0.95190737889E+03  0.12699999809E+01 0.  1.
       -4    1    3    3    0  502 -0.81952563967E+03 -0.30024140075E+03  0.63315341714E+03  0.10782634350E+04  0.12699999809E+01 0. -1.
</event>
<event>
 5   0  0.3377273E-04  0.1791962E+04  0.7818609E-02  0.8710586E-01
       -1   -1    0    0    0  501  0.00000000000E+00  0.00000000000E+00  0.53148985354E+03  0.53148985356E+03  0.50400001928E-02 0.  1.
        1   -1    0    0  501    0  0.00000000000E+00  0.00000000000E+00 -0.15104366436E+04  0.15104366436E+04  0.50400001928E-02 0. -1.
    10030    2    1    2    0    0  0.00000000000E+00  0.00000000000E+00 -0.97894679005E+03  0.20419264972E+04  0.17919617747E+04 0.  0.
        2    1    3    3  502    0  0.59400287969E+03 -0.48884132655E+03  0.33920185556E+02  0.77003626058E+03  0.25500000920E-02 0.  1.
       -2    1    3    3    0  502 -0.59400287969E+03  0.48884132655E+03 -0.10128669756E+04  0.12718902366E+04  0.25500000920E-02 0. -1.
</event>
<event>
 5   0  0.6774451E-04  0.1752712E+04  0.7818609E-02  0.8731859E-01
        2   -1    0    0  501    0  0.00000000000E+00  0.00000000000E+00  0.53528576458E+03  0.53528576458E+03  0.25500000920E-02 0.  1.
       -2   -1    0    0    0  501  0.00000000000E+00  0.00000000000E+00 -0.14347478551E+04  0.14347478551E+04  0.25500000920E-02 0. -1.
    10030    2    1    2    0    0  0.00000000000E+00  0.00000000000E+00 -0.89946209056E+03  0.19700336197E+04  0.17527123011E+04 0.  0.
        4    1    3    3  502    0  0.42674477164E+03  0.50573955393E+03 -0.10955273595E+04  0.12798692921E+04  0.12699999809E+01 0. -1.
       -4    1    3    3    0  502 -0.42674477164E+03 -0.50573955393E+03  0.19606526894E+03  0.69016432762E+03  0.12699999809E+01 0.  1.
</event>
<event>
 5   0  0.6771967E-04  0.1764199E+04  0.7818609E-02  0.8725573E-01
       -2   -1    0    0    0  501  0.00000000000E+00  0.00000000000E+00  0.35242124210E+03  0.35242124211E+03  0.25500000920E-02 0.  1.
        2   -1    0    0  501    0  0.00000000000E+00  0.00000000000E+00 -0.22078681103E+04  0.22078681103E+04  0.25500000920E-02 0. -1.
    10030    2    1    2    0    0  0.00000000000E+00  0.00000000000E+00 -0.18554468682E+04  0.25602893524E+04  0.17641991065E+04 0.  0.
        1    1    3    3  502    0 -0.18575207508E+03  0.78368222307E+03 -0.14498457852E+04  0.16585277993E+04  0.50400001928E-02 0. -1.
       -1    1    3    3    0  502  0.18575207508E+03 -0.78368222307E+03 -0.40560108303E+03  0.90176155315E+03  0.50400001928E-02 0.  1.
</event>
<event>
 5   0  0.6774451E-04  0.1823397E+04  0.7818609E-02  0.8693955E-01
       -2   -1    0    0    0  501  0.00000000000E+00  0.00000000000E+00  0.59835849421E+03  0.59835849421E+03  0.25500000920E-02 0. -1.
        2   -1    0    0  501    0  0.00000000000E+00  0.00000000000E+00 -0.13891239674E+04  0.13891239674E+04  0.25500000920E-02 0.  1.
    10030    2    1    2    0    0  0.00000000000E+00  0.00000000000E+00 -0.79076547316E+03  0.19874824616E+04  0.18233969676E+04 0.  0.
        4    1    3    3  502    0 -0.65385328285E+03 -0.17030342911E+02  0.29689183108E+03  0.71830391920E+03  0.12699999809E+01 0. -1.
       -4    1    3    3    0  502  0.65385328285E+03  0.17030342911E+02 -0.10876573042E+04  0.12691785424E+04  0.12699999809E+01 0.  1.
</event>
<event>
 5   0  0.3308275E-04  0.1024958E+04  0.7818609E-02  0.9281587E-01
        1   -1    0    0  501    0  0.00000000000E+00  0.00000000000E+00  0.47489743221E+03  0.47489743223E+03  0.50400001928E-02 0. -1.
       -1   -1    0    0    0  501  0.00000000000E+00  0.00000000000E+00 -0.55303466318E+03  0.55303466320E+03  0.50400001928E-02 0.  1.
    10030    2    1    2    0    0  0.00000000000E+00  0.00000000000E+00 -0.78137230972E+02  0.10279320954E+04  0.10249580313E+04 0.  0.
        3    1    3    3  502    0  0.17557450967E+03  0.11515781718E+03  0.42977798157E+03  0.47832714218E+03  0.10100000352E+00 0. -1.
       -3    1    3    3    0  502 -0.17557450967E+03 -0.11515781718E+03 -0.50791521255E+03  0.54960495325E+03  0.10100000352E+00 0.  1.
</event>
<event>
 5   0  0.6547153E-04  0.1801781E+04  0.7818609E-02  0.8705353E-01
        2   -1    0    0  501    0  0.00000000000E+00  0.00000000000E+00  0.20047462444E+04  0.20047462444E+04  0.25500000920E-02 0. -1.
       -2   -1    0    0    0  501  0.00000000000E+00  0.00000000000E+00 -0.40484109700E+03  0.40484109701E+03  0.25500000920E-02 0.  1.
    10030    2    1    2    0    0  0.00000000000E+00  0.00000000000E+00  0.15999051474E+04  0.24095873415E+04  0.18017809732E+04 0.  0.
        5    1    3    3  502    0 -0.39241261685E+03  0.57039992382E+03  0.29110827830E+02  0.69297421687E+03  0.46999998093E+01 0.  1.
       -5    1    3    3    0  502  0.39241261685E+03 -0.57039992382E+03  0.15707943196E+04  0.17166131246E+04  0.46999998093E+01 0. -1.
</event>
<event>
 5   0  0.3308275E-04  0.1836694E+04  0.7818609E-02  0.8687026E-01
        1   -1    0    0  501    0  0.00000000000E+00  0.00000000000E+00  0.75327106802E+03  0.75327106804E+03  0.50400001928E-02 0. -1.
       -1   -1    0    0    0  501  0.00000000000E+00  0.00000000000E+00 -0.11195984120E+04  0.11195984121E+04  0.50400001928E-02 0.  1.
    10030    2    1    2    0    0  0.00000000000E+00  0.00000000000E+00 -0.36632734403E+03  0.18728694801E+04  0.18366938685E+04 0.  0.
        3    1    3    3  502    0 -0.43482042531E+03  0.45467537539E+01  0.64163845653E+03  0.77510605361E+03  0.10100000352E+00 0. -1.
       -3    1    3    3    0  502  0.43482042531E+03 -0.45467537539E+01 -0.10079658006E+04  0.10977634265E+04  0.10100000352E+00 0.  1.
</event>
<event>
 5   0  0.3308275E-04  0.1875377E+04  0.7818609E-02  0.8667211E-01
       -1   -1    0    0    0  501  0.00000000000E+00  0.00000000000E+00  0.41193976921E+03  0.41193976924E+03  0.50400001928E-02 0.  1.
        1   -1    0    0  501    0  0.00000000000E+00  0.00000000000E+00 -0.21344372337E+04  0.21344372337E+04  0.50400001928E-02 0. -1.
    10030    2    1    2    0    0  0.00000000000E+00  0.00000000000E+00 -0.17224974645E+04  0.25463770029E+04  0.18753768490E+04 0.  0.
        3    1    3    3  502    0  0.89994482133E+02  0.12216951441E+03 -0.21176567098E+04  0.21230860434E+04  0.10100000352E+00 0. -1.
       -3    1    3    3    0  502 -0.89994482133E+02 -0.12216951441E+03  0.39515924530E+03  0.42329095952E+03  0.10100000352E+00 0.  1.
</event>
<event>
 5   0  0.6547153E-04  0.1915901E+04  0.7818609E-02  0.8646982E-01
       -2   -1    0    0    0  501  0.00000000000E+00  0.00000000000E+00  0.56379000107E+03  0.56379000108E+03  0.25500000920E-02 0. -1.
        2   -1    0    0  501    0  0.00000000000E+00  0.00000000000E+00 -0.16276784724E+04  0.16276784724E+04  0.25500000920E-02 0.  1.
    10030    2    1    2    0    0  0.00000000000E+00  0.00000000000E+00 -0.10638884714E+04  0.21914684735E+04  0.19159006736E+04 0.  0.
        5    1    3    3  502    0 -0.57370260621E+03 -0.74008160861E+03 -0.30092616269E+03  0.98358228591E+03  0.46999998093E+01 0. -1.
       -5    1    3    3    0  502  0.57370260621E+03  0.74008160861E+03 -0.76296230868E+03  0.12078861876E+04  0.46999998093E+01 0.  1.
</event>
<event>
 5   0  0.3404261E-04  0.1797071E+04  0.7818609E-02  0.8707859E-01
       -1   -1    0    0    0  501  0.00000000000E+00  0.00000000000E+00  0.62137261553E+03  0.62137261555E+03  0.50400001928E-02 0.  1.
        1   -1    0    0  501    0  0.00000000000E+00  0.00000000000E+00 -0.12993270618E+04  0.12993270618E+04  0.50400001928E-02 0. -1.
    10030    2    1    2    0    0  0.00000000000E+00  0.00000000000E+00 -0.67795444626E+03  0.19206996774E+04  0.17970712338E+04 0.  0.
        1    1    3    3  502    0 -0.22661276378E+03 -0.62479457420E+03 -0.98526178646E+03  0.11884706107E+04  0.50400001928E-02 0. -1.
       -1    1    3    3    0  502  0.22661276378E+03  0.62479457420E+03  0.30730734020E+03  0.73222906663E+03  0.50400001928E-02 0.  1.
</event>
<event>
 5   0  0.3470962E-04  0.1806272E+04  0.7818609E-02  0.8702971E-01
       -1   -1    0    0    0  501  0.00000000000E+00  0.00000000000E+00  0.40542285643E+03  0.40542285646E+03  0.50400001928E-02 0.  1.
        1   -1    0    0  501    0  0.00000000000E+00  0.00000000000E+00 -0.20118608687E+04  0.20118608687E+04  0.50400001928E-02 0. -1.
    10030    2    1    2    0    0  0.00000000000E+00  0.00000000000E+00 -0.16064380123E+04  0.24172837251E+04  0.18062717184E+04 0.  0.
        4    1    3    3  502    0  0.23530277429E+03  0.11277812539E+03 -0.19603151652E+04  0.19776054867E+04  0.12699999809E+01 0. -1.
       -4    1    3    3    0  502 -0.23530277429E+03 -0.11277812539E+03  0.35387715291E+03  0.43967823850E+03  0.12699999809E+01 0.  1.
</event>
<event>
 5   0  0.3413839E-04  0.1774385E+04  0.7818609E-02  0.8720041E-01
       -1   -1    0    0    0  501  0.00000000000E+00  0.00000000000E+00  0.55685994588E+03  0.55685994590E+03  0.50400001928E-02 0. -1.
        1   -1    0    0  501    0  0.00000000000E+00  0.00000000000E+00 -0.14134806353E+04  0.14134806353E+04  0.50400001928E-02 0.  1.
    10030    2    1    2    0    0  0.00000000000E+00  0.00000000000E+00 -0.85662068938E+03  0.19703405812E+04  0.17743852457E+04 0.  0.
        5    1    3    3  502    0  0.52313958637E+03 -0.71051308185E+03 -0.53119682676E+03  0.10299009783E+04  0.46999998093E+01 0.  1.
       -5    1    3    3    0  502 -0.52313958637E+03  0.71051308185E+03 -0.32542386262E+03  0.94043960288E+03  0.46999998093E+01 0. -1.
</event>
<event>
 5   0  0.3470962E-04  0.1524108E+04  0.7818609E-02  0.8868578E-01
        1   -1    0    0  501    0  0.00000000000E+00  0.00000000000E+00  0.12340684104E+04  0.12340684104E+04  0.50400001928E-02 0.  1.
       -1   -1    0    0    0  501  0.00000000000E+00  0.00000000000E+00 -0.47057849716E+03  0.47057849718E+03  0.50400001928E-02 0. -1.
    10030    2    1    2    0    0  0.00000000000E+00  0.00000000000E+00  0.76348991325E+03  0.17046469076E+04  0.15241076838E+04 0.  0.
        4    1    3    3  502    0  0.74981958309E+03  0.10125362323E+03  0.48328904084E+03  0.89780377216E+03  0.12699999809E+01 0.  1.
       -4    1    3    3    0  502 -0.74981958309E+03 -0.10125362323E+03  0.28020087240E+03  0.80684313544E+03  0.12699999809E+01 0. -1.
</event>
<event>
 5   0  0.3404261E-04  0.1794876E+04  0.7818609E-02  0.8709029E-01
        1   -1    0    0  501    0  0.00000000000E+00  0.00000000000E+00  0.69765650054E+03  0.69765650056E+03  0.50400001928E-02 0.  1.
       -1   -1    0    0    0  501  0.00000000000E+00  0.00000000000E+00 -0.11544284569E+04  0.11544284569E+04  0.50400001928E-02 0. -1.
    10030    2    1    2    0    0  0.00000000000E+00  0.00000000000E+00 -0.45677195635E+03  0.18520849575E+04  0.17948755025E+04 0.  0.
        1    1    3    3  502    0  0.31323460147E+03  0.34413652943E+03  0.56343757614E+03  0.73075835177E+03  0.50400001928E-02 0.  1.
       -1    1    3    3    0  502 -0.31323460147E+03 -0.34413652943E+03 -0.10202095325E+04  0.11213266057E+04  0.50400001928E-02 0. -1.
</event>
<event>
 5   0  0.6774451E-04  0.1440719E+04  0.7818609E-02  0.8924860E-01
        2   -1    0    0  501    0  0.00000000000E+00  0.00000000000E+00  0.81043508012E+03  0.81043508013E+03  0.25500000920E-02 0.  1.
       -2   -1    0    0    0  501  0.00000000000E+00  0.00000000000E+00 -0.64029498546E+03  0.64029498546E+03  0.25500000920E-02 0. -1.
    10030    2    1    2    0    0  0.00000000000E+00  0.00000000000E+00  0.17014009467E+03  0.14507300656E+04  0.14407185955E+04 0.  0.
        4    1    3    3  502    0 -0.25122819475E+03  0.37378605911E+03  0.65119057061E+03  0.79175905171E+03  0.12699999809E+01 0.  1.
       -4    1    3    3    0  502  0.25122819475E+03 -0.37378605911E+03 -0.48105047594E+03  0.65897101387E+03  0.12699999809E+01 0. -1.
</event>
<event>
 5   0  0.3470962E-04  0.1817018E+04  0.7818609E-02  0.8697301E-01
       -1   -1    0    0    0  501  0.00000000000E+00  0.00000000000E+00  0.78614054309E+03  0.78614054311E+03  0.50400001928E-02 0. -1.
        1   -1    0    0  501    0  0.00000000000E+00  0.00000000000E+00 -0.10499250192E+04  0.10499250192E+04  0.50400001928E-02 0.  1.
    10030    2    1    2    0    0  0.00000000000E+00  0.00000000000E+00 -0.26378447614E+03  0.18360655623E+04  0.18170180240E+04 0.  0.
        4    1    3    3  502    0 -0.37519103615E+03 -0.23694292020E+03  0.66918346186E+03  0.80294357184E+03  0.12699999809E+01 0. -1.
       -4    1    3    3    0  502  0.37519103615E+03  0.23694292020E+03 -0.93296793799E+03  0.10331219905E+04  0.12699999809E+01 0.  1.
</event>
<event>
 5   0  0.3404261E-04  0.1779841E+04  0.7818609E-02  0.8717094E-01
        1   -1    0    0  501    0  0.00000000000E+00  0.00000000000E+00  0.12716605544E+04  0.12716605544E+04  0.50400001928E-02 0.  1.
       -1   -1    0    0    0  501  0.00000000000E+00  0.00000000000E+00 -0.62277526630E+03  0.62277526632E+03  0.50400001928E-02 0. -1.
    10030    2    1    2    0    0  0.00000000000E+00  0.00000000000E+00  0.64888528805E+03  0.18944358207E+04  0.17798412743E+04 0.  0.
        1    1    3    3  502    0 -0.84284562028E+03 -0.76898241051E+02  0.31675585595E+02  0.84693885366E+03  0.50400001928E-02 0. -1.
       -1    1    3    3    0  502  0.84284562028E+03  0.76898241051E+02  0.61720970246E+03  0.10474969670E+04  0.50400001928E-02 0.  1.
</event>
<event>
 5   0  0.3308275E-04  0.1798316E+04  0.7818609E-02  0.8707195E-01
       -1   -1    0    0    0  501  0.00000000000E+00  0.00000000000E+00  0.60393364855E+03  0.60393364858E+03  0.50400001928E-02 0. -1.
        1   -1    0    0  501    0  0.00000000000E+00  0.00000000000E+00 -0.13386989068E+04  0.13386989068E+04  0.50400001928E-02 0.  1.
    10030    2    1    2    0    0  0.00000000000E+00  0.00000000000E+00 -0.73476525827E+03  0.19426325554E+04  0.17983162293E+04 0.  0.
        3    1    3    3  502    0  0.15722161216E+03 -0.86636212409E+03 -0.17060095800E+03  0.89688720721E+03  0.10100000352E+00 0. -1.
       -3    1    3    3    0  502 -0.15722161216E+03  0.86636212409E+03 -0.56416430027E+03  0.10457453482E+04  0.10100000352E+00 0.  1.
</event>
<event>
 5   0  0.3308275E-04  0.1821245E+04  0.7818609E-02  0.8695082E-01
       -1   -1    0    0    0  501  0.00000000000E+00  0.00000000000E+00  0.48349367034E+03  0.48349367037E+03  0.50400001928E-02 0. -1.
        1   -1    0    0  501    0  0.00000000000E+00  0.00000000000E+00 -0.17150867510E+04  0.17150867510E+04  0.50400001928E-02 0.  1.
    10030    2    1    2    0    0  0.00000000000E+00  0.00000000000E+00 -0.12315930806E+04  0.21985804213E+04  0.18212452753E+04 0.  0.
        3    1    3    3  502    0  0.28212995375E+03 -0.85777054762E+03 -0.75794717689E+03  0.11789196564E+04  0.10100000352E+00 0.  1.
       -3    1    3    3    0  502 -0.28212995375E+03  0.85777054762E+03 -0.47364590373E+03  0.10196607649E+04  0.10100000352E+00 0. -1.
</event>
<event>
 5   0  0.6774451E-04  0.1840644E+04  0.7818609E-02  0.8684979E-01
       -2   -1    0    0    0  501  0.00000000000E+00  0.00000000000E+00  0.83134982567E+03  0.83134982567E+03  0.25500000920E-02 0. -1.
        2   -1    0    0  501    0  0.00000000000E+00  0.00000000000E+00 -0.10188159787E+04  0.10188159787E+04  0.25500000920E-02 0.  1.
    10030    2    1    2    0    0  0.00000000000E+00  0.00000000000E+00 -0.18746615299E+03  0.18501658043E+04  0.18406438941E+04 0.  0.
        4    1    3    3  502    0 -0.65629776124E+03  0.49411884818E+03 -0.51074146658E+03  0.96733584970E+03  0.12699999809E+01 0.  1.
       -4    1    3    3    0  502  0.65629776124E+03 -0.49411884818E+03  0.32327531359E+03  0.88282995464E+03  0.12699999809E+01 0. -1.
</event>
<event>
 5   0  0.3377273E-04  0.1777492E+04  0.7818609E-02  0.8718361E-01
        1   -1    0    0  501    0  0.00000000000E+00  0.00000000000E+00  0.21690982724E+04  0.21690982724E+04  0.50400001928E-02 0.  1.
       -1   -1    0    0    0  501  0.00000000000E+00  0.00000000000E+00 -0.36414655119E+03  0.36414655122E+03  0.50400001928E-02 0. -1.
    10030    2    1    2    0    0  0.00000000000E+00  0.00000000000E+00  0.18049517212E+04  0.25332448236E+04  0.17774922280E+04 0.  0.
        2    1    3    3  502    0 -0.51406693871E+03  0.34979594365E+03  0.18074900078E+04  0.19114502735E+04  0.25500000920E-02 0.  1.
       -2    1    3    3    0  502  0.51406693871E+03 -0.34979594365E+03 -0.25382866132E+01  0.62179455013E+03  0.25500000920E-02 0. -1.
</event>
<event>
 5   0  0.3470962E-04  0.1722422E+04  0.7818609E-02  0.8748678E-01
        1   -1    0    0  501    0  0.00000000000E+00  0.00000000000E+00  0.12422433455E+04  0.12422433455E+04  0.50400001928E-02 0.  1.
       -1   -1    0    0    0  501  0.00000000000E+00  0.00000000000E+00 -0.59705273482E+03  0.59705273484E+03  0.50400001928E-02 0. -1.
    10030    2    1    2    0    0  0.00000000000E+00  0.00000000000E+00  0.64519061067E+03  0.18392960803E+04  0.17224224648E+04 0.  0.
        4    1    3    3  502    0 -0.35008900798E+03  0.11308432314E+02  0.11627414251E+04  0.12143555611E+04  0.12699999809E+01 0.  1.
       -4    1    3    3    0  502  0.35008900798E+03 -0.11308432314E+02 -0.51755081446E+03  0.62494051925E+03  0.12699999809E+01 0. -1.
</event>
<event>
 5   0  0.6774451E-04  0.1996187E+04  0.7818609E-02  0.8608405E-01
       -2   -1    0    0    0  501  0.00000000000E+00  0.00000000000E+00  0.69381057678E+03  0.69381057679E+03  0.25500000920E-02 0. -1.
        2   -1    0    0  501    0  0.00000000000E+00  0.00000000000E+00 -0.14358250979E+04  0.14358250979E+04  0.25500000920E-02 0.  1.
    10030    2    1    2    0    0  0.00000000000E+00  0.00000000000E+00 -0.74201452116E+03  0.21296356747E+04  0.19961870046E+04 0.  0.
        4    1    3    3  502    0  0.49100864963E+03  0.21495841304E+03 -0.12692511129E+04  0.13777868536E+04  0.12699999809E+01 0.  1.
       -4    1    3    3    0  502 -0.49100864963E+03 -0.21495841304E+03  0.52723659173E+03  0.75184882118E+03  0.12699999809E+01 0. -1.
</event>
<event>
 5   0  0.6547153E-04  0.1698458E+04  0.7818609E-02  0.8762244E-01
        2   -1    0    0  501    0  0.00000000000E+00  0.00000000000E+00  0.10698956369E+04  0.10698956369E+04  0.25500000920E-02 0.  1.
       -2   -1    0    0    0  501  0.00000000000E+00  0.00000000000E+00 -0.67407510957E+03  0.67407510957E+03  0.25500000920E-02 0. -1.
    10030    2    1    2    0    0  0.00000000000E+00  0.00000000000E+00  0.39582052733E+03  0.17439707465E+04  0.16984581463E+04 0.  0.
        5    1    3    3  502    0 -0.14793669971E+03  0.61158910737E+03 -0.38767113706E+03  0.73907882116E+03  0.46999998093E+01 0. -1.
       -5    1    3    3    0  502  0.14793669971E+03 -0.61158910737E+03  0.78349166440E+03  0.10048919253E+04  0.46999998093E+01 0.  1.
</event>
<event>
 5   0  0.3470962E-04  0.1817470E+04  0.7818609E-02  0.8697064E-01
        1   -1    0    0  501    0  0.00000000000E+00  0.00000000000E+00  0.44727841153E+03  0.44727841155E+03  0.50400001928E-02 0.  1.
       -1   -1    0    0    0  501  0.00000000000E+00  0.00000000000E+00 -0.18462756246E+04  0.18462756246E+04  0.50400001928E-02 0. -1.
    10030    2    1    2    0    0  0.00000000000E+00  0.00000000000E+00 -0.13989972131E+04  0.22935540362E+04  0.18174699212E+04 0.  0.
        4    1    3    3  502    0 -0.93658387513E+01 -0.49153617465E+03  0.26496561865E+03  0.55848359143E+03  0.12699999809E+01 0.  1.
       -4    1    3    3    0  502  0.93658387513E+01  0.49153617465E+03 -0.16639628317E+04  0.17350704447E+04  0.12699999809E+01 0. -1.
</event>
<event>
 5   0  0.6774451E-04  0.1022149E+04  0.7818609E-02  0.9284581E-01
        2   -1    0    0  501    0  0.00000000000E+00  0.00000000000E+00  0.31458598810E+03  0.31458598811E+03  0.25500000920E-02 0. -1.
       -2   -1    0    0    0  501  0.00000000000E+00  0.00000000000E+00 -0.83028797436E+03  0.83028797436E+03  0.25500000920E-02 0.  1.
    10030    2    1    2    0    0  0.00000000000E+00  0.00000000000E+00 -0.51570198626E+03  0.11448739625E+04  0.10221486444E+04 0.  0.
        4    1    3    3  502    0 -0.45119780221E+03  0.14077649795E+03 -0.47561058292E+03  0.67052555401E+03  0.12699999809E+01 0.  1.
       -4    1    3    3    0  502  0.45119780221E+03 -0.14077649795E+03 -0.40091403337E+02  0.47434840847E+03  0.12699999809E+01 0. -1.
</event>
<event>
 5   0  0.6929121E-04  0.1834676E+04  0.7818609E-02  0.8688073E-01
       -2   -1    0    0    0  501  0.00000000000E+00  0.00000000000E+00  0.92766562586E+03  0.92766562586E+03  0.25500000920E-02 0.  1.
        2   -1    0    0  501    0  0.00000000000E+00  0.00000000000E+00 -0.90712557141E+03  0.90712557141E+03  0.25500000920E-02 0. -1.
    10030    2    1    2    0    0  0.00000000000E+00  0.00000000000E+00  0.20540054453E+02  0.18347911973E+04  0.18346762231E+04 0.  0.
        3    1    3    3  502    0  0.57047414834E+03  0.96071955182E+02 -0.70170058495E+03  0.90942525565E+03  0.10100000352E+00 0. -1.
       -3    1    3    3    0  502 -0.57047414834E+03 -0.96071955182E+02  0.72224063941E+03  0.92536594162E+03  0.10100000352E+00 0.  1.
</event>
<event>
 5   0  0.3413839E-04  0.1788802E+04  0.7818609E-02  0.8712277E-01
        1   -1    0    0  501    0  0.00000000000E+00  0.00000000000E+00  0.89629579060E+03  0.89629579062E+03  0.50400001928E-02 0. -1.
       -1   -1    0    0    0  501  0.00000000000E+00  0.00000000000E+00 -0.89250978868E+03  0.89250978869E+03  0.50400001928E-02 0.  1.
    10030    2    1    2    0    0  0.00000000000E+00  0.00000000000E+00  0.37860019261E+01  0.17888055793E+04  0.17888015728E+04 0.  0.
        5    1    3    3  502    0  0.10941610672E+03 -0.51621011568E+03  0.72403443087E+03  0.89593119994E+03  0.46999998093E+01 0. -1.
       -5    1    3    3    0  502 -0.10941610672E+03  0.51621011568E+03 -0.72024842895E+03  0.89287437937E+03  0.46999998093E+01 0.  1.
</event>
<event>
 5   0  0.6853162E-04  0.1789181E+04  0.7818609E-02  0.8712074E-01
        2   -1    0    0  501    0  0.00000000000E+00  0.00000000000E+00  0.10727607694E+04  0.10727607694E+04  0.25500000920E-02 0. -1.
       -2   -1    0    0    0  501  0.00000000000E+00  0.00000000000E+00 -0.74601199282E+03  0.74601199282E+03  0.25500000920E-02 0.  1.
    10030    2    1    2    0    0  0.00000000000E+00  0.00000000000E+00  0.32674877659E+03  0.18187727622E+04  0.17891812646E+04 0.  0.
        2    1    3    3  502    0 -0.80544188890E+03 -0.26403866618E+03 -0.12743282469E+03  0.85714186600E+03  0.25500000920E-02 0.  1.
       -2    1    3    3    0  502  0.80544188890E+03  0.26403866618E+03  0.45418160128E+03  0.96163089623E+03  0.25500000920E-02 0. -1.
</event>
<event>
 5   0  0.3413839E-04  0.1793996E+04  0.7818609E-02  0.8709499E-01
       -1   -1    0    0    0  501  0.00000000000E+00  0.00000000000E+00  0.13569090859E+04  0.13569090859E+04  0.50400001928E-02 0.  1.
        1   -1    0    0  501    0  0.00000000000E+00  0.00000000000E+00 -0.59296918075E+03  0.59296918077E+03  0.50400001928E-02 0. -1.
    10030    2    1    2    0    0  0.00000000000E+00  0.00000000000E+00  0.76393990518E+03  0.19498782667E+04  0.17939958406E+04 0.  0.
        5    1    3    3  502    0 -0.69651300625E+03 -0.10142590482E+03  0.98631037998E+03  0.12117127703E+04  0.46999998093E+01 0.  1.
       -5    1    3    3    0  502  0.69651300625E+03  0.10142590482E+03 -0.22237047479E+03  0.73816549642E+03  0.46999998093E+01 0. -1.
</event>
<event>
 5   0  0.6853162E-04  0.1816944E+04  0.7818609E-02  0.8697340E-01
       -2   -1    0    0    0  501  0.00000000000E+00  0.00000000000E+00  0.82282092183E+03  0.82282092183E+03  0.25500000920E-02 0. -1.
        2   -1    0    0  501    0  0.00000000000E+00  0.00000000000E+00 -0.10030389029E+04  0.10030389029E+04  0.25500000920E-02 0.  1.
    10030    2    1    2    0    0  0.00000000000E+00  0.00000000000E+00 -0.18021798106E+03  0.18258598247E+04  0.18169440219E+04 0.  0.
        2    1    3    3  502    0  0.57482599834E+03  0.69371925120E+03  0.27297815772E+02  0.90134149944E+03  0.25500000920E-02 0. -1.
       -2    1    3    3    0  502 -0.57482599834E+03 -0.69371925120E+03 -0.20751579683E+03  0.92451832529E+03  0.25500000920E-02 0.  1.
</event>
<event>
 5   0  0.3308275E-04  0.1819258E+04  0.7818609E-02  0.8696125E-01
        1   -1    0    0  501    0  0.00000000000E+00  0.00000000000E+00  0.19198132193E+04  0.19198132194E+04  0.50400001928E-02 0. -1.
       -1   -1    0    0    0  501  0.00000000000E+00  0.00000000000E+00 -0.43099256689E+03  0.43099256692E+03  0.50400001928E-02 0.  1.
    10030    2    1    2    0    0  0.00000000000E+00  0.00000000000E+00  0.14888206525E+04  0.23508057863E+04  0.18192583405E+04 0.  0.
        3    1    3    3  502    0 -0.28223018718E+03 -0.52208290844E+03 -0.14635016612E+03  0.61126330102E+03  0.10100000352E+00 0.  1.
       -3    1    3    3    0  502  0.28223018718E+03  0.52208290844E+03  0.16351708186E+04  0.17395424852E+04  0.10100000352E+00 0. -1.
</event>
<event>
 5   0  0.6929121E-04  0.1814359E+04  0.7818609E-02  0.8698701E-01
       -2   -1    0    0    0  501  0.00000000000E+00  0.00000000000E+00  0.61658820583E+03  0.61658820583E+03  0.25500000920E-02 0.  1.
        2   -1    0    0  501    0  0.00000000000E+00  0.00000000000E+00 -0.13347228736E+04  0.13347228736E+04  0.25500000920E-02 0. -1.
    10030    2    1    2    0    0  0.00000000000E+00  0.00000000000E+00 -0.71813466777E+03  0.19513110794E+04  0.18143587098E+04 0.  0.
        3    1    3    3  502    0 -0.62438045756E+03 -0.29051901389E+03 -0.99416878313E+03  0.12093898597E+04  0.10100000352E+00 0. -1.
       -3    1    3    3    0  502  0.62438045756E+03  0.29051901389E+03  0.27603411537E+03  0.74192121972E+03  0.10100000352E+00 0.  1.
</event>
<event>
 5   0  0.3377273E-04  0.1856049E+04  0.7818609E-02  0.8677048E-01
        1   -1    0    0  501    0  0.00000000000E+00  0.00000000000E+00  0.91486812579E+03  0.91486812580E+03  0.50400001928E-02 0.  1.
       -1   -1    0    0    0  501  0.00000000000E+00  0.00000000000E+00 -0.94136962428E+03  0.94136962429E+03  0.50400001928E-02 0. -1.
    10030    2    1    2    0    0  0.00000000000E+00  0.00000000000E+00 -0.26501498490E+02  0.18562377501E+04  0.18560485596E+04 0.  0.
        2    1    3    3  502    0  0.70533360603E+03  0.24712937284E+03 -0.56345284469E+03  0.93597410803E+03  0.25500000920E-02 0. -1.
       -2    1    3    3    0  502 -0.70533360603E+03 -0.24712937284E+03  0.53695134620E+03  0.92026364206E+03  0.25500000920E-02 0.  1.
</event>
<event>
 5   0  0.3404261E-04  0.1795657E+04  0.7818609E-02  0.8708613E-01
        1   -1    0    0  501    0  0.00000000000E+00  0.00000000000E+00  0.63347582113E+03  0.63347582115E+03  0.50400001928E-02 0. -1.
       -1   -1    0    0    0  501  0.00000000000E+00  0.00000000000E+00 -0.12724967038E+04  0.12724967038E+04  0.50400001928E-02 0.  1.
    10030    2    1    2    0    0  0.00000000000E+00  0.00000000000E+00 -0.63902088269E+03  0.19059725250E+04  0.17956568652E+04 0.  0.
        1    1    3    3  502    0 -0.18810554508E+03  0.87647890057E+03 -0.26647124759E+03  0.93520365967E+03  0.50400001928E-02 0.  1.
       -1    1    3    3    0  502  0.18810554508E+03 -0.87647890057E+03 -0.37254963510E+03  0.97076886532E+03  0.50400001928E-02 0. -1.
</event>
<event>
 5   0  0.6853162E-04  0.1785278E+04  0.7818609E-02  0.8714168E-01
       -2   -1    0    0    0  501  0.00000000000E+00  0.00000000000E+00  0.33228131487E+03  0.33228131487E+03  0.25500000920E-02 0.  1.
        2   -1    0    0  501    0  0.00000000000E+00  0.00000000000E+00 -0.23979807673E+04  0.23979807673E+04  0.25500000920E-02 0. -1.
    10030    2    1    2    0    0  0.00000000000E+00  0.00000000000E+00 -0.20656994524E+04  0.27302620822E+04  0.17852777962E+04 0.  0.
        2    1    3    3  502    0  0.47981191669E+03  0.69940691862E+03 -0.60733928506E+03  0.10431924657E+04  0.25500000920E-02 0. -1.
       -2    1    3    3    0  502 -0.47981191669E+03 -0.69940691862E+03 -0.14583601674E+04  0.16870696165E+04  0.25500000920E-02 0.  1.
</event>
<event>
 5   0  0.3308275E-04  0.1651120E+04  0.7818609E-02  0.8789744E-01
        1   -1    0    0  501    0  0.00000000000E+00  0.00000000000E+00  0.13560080363E+04  0.13560080363E+04  0.50400001928E-02 0. -1.
       -1   -1    0    0    0  501  0.00000000000E+00  0.00000000000E+00 -0.50261447930E+03  0.50261447933E+03  0.50400001928E-02 0.  1.
    10030    2    1    2    0    0  0.00000000000E+00  0.00000000000E+00  0.85339355704E+03  0.18586225157E+04  0.16511199510E+04 0.  0.
        3    1    3    3  502    0 -0.32739131373E+03  0.19601859388E+03  0.12507799016E+04  0.13076921403E+04  0.10100000352E+00 0. -1.
       -3    1    3    3    0  502  0.32739131373E+03 -0.19601859388E+03 -0.39738634454E+03  0.55093037535E+03  0.10100000352E+00 0.  1.
</event>
<event>
 5   0  0.6774451E-04  0.1819589E+04  0.7818609E-02  0.8695951E-01
       -2   -1    0    0    0  501  0.00000000000E+00  0.00000000000E+00  0.14584810693E+04  0.14584810693E+04  0.25500000920E-02 0. -1.
        2   -1    0    0  501    0  0.00000000000E+00  0.00000000000E+00 -0.56752632654E+03  0.56752632654E+03  0.25500000920E-02 0.  1.
    10030    2    1    2    0    0  0.00000000000E+00  0.00000000000E+00  0.89095474274E+03  0.20260073958E+04  0.18195894082E+04 0.  0.
        4    1    3    3  502    0  0.85290126944E+03 -0.19476481414E+03  0.16744911990E+03  0.89073830551E+03  0.12699999809E+01 0.  1.
       -4    1    3    3    0  502 -0.85290126944E+03  0.19476481414E+03  0.72350562284E+03  0.11352690903E+04  0.12699999809E+01 0. -1.
</event>
<event>
 5   0  0.6929121E-04  0.1809879E+04  0.7818609E-02  0.8701064E-01
        2   -1    0    0  501    0  0.00000000000E+00  0.00000000000E+00  0.67824148029E+03  0.67824148029E+03  0.25500000920E-02 0. -1.
       -2   -1    0    0    0  501  0.00000000000E+00  0.00000000000E+00 -0.12074096932E+04  0.12074096932E+04  0.25500000920E-02 0.  1.
    10030    2    1    2    0    0  0.00000000000E+00  0.00000000000E+00 -0.52916821291E+03  0.18856511735E+04  0.18098788221E+04 0.  0.
        3    1    3    3  502    0 -0.32131677961E+03 -0.84246258295E+03 -0.34479865929E+03  0.96533610840E+03  0.10100000352E+00 0.  1.
       -3    1    3    3    0  502  0.32131677961E+03  0.84246258295E+03 -0.18436955362E+03  0.92031506510E+03  0.10100000352E+00 0. -1.
</event>
<event>
 5   0  0.6547153E-04  0.1778546E+04  0.7818609E-02  0.8717792E-01
       -2   -1    0    0    0  501  0.00000000000E+00  0.00000000000E+00  0.68578253714E+03  0.68578253715E+03  0.25500000920E-02 0.  1.
        2   -1    0    0  501    0  0.00000000000E+00  0.00000000000E+00 -0.11531447973E+04  0.11531447973E+04  0.25500000920E-02 0. -1.
    10030    2    1    2    0    0  0.00000000000E+00  0.00000000000E+00 -0.46736226017E+03  0.18389273345E+04  0.17785461083E+04 0.  0.
        5    1    3    3  502    0  0.76297968525E+03  0.32679252885E+03  0.96298098930E+02  0.83559964749E+03  0.46999998093E+01 0.  1.
       -5    1    3    3    0  502 -0.76297968525E+03 -0.32679252885E+03 -0.56366035910E+03  0.10033276870E+04  0.46999998093E+01 0. -1.
</event>
<event>
 5   0  0.3470962E-04  0.1887262E+04  0.7818609E-02  0.8661223E-01
       -1   -1    0    0    0  501  0.00000000000E+00  0.00000000000E+00  0.12880432559E+04  0.12880432559E+04  0.50400001928E-02 0. -1.
        1   -1    0    0  501    0  0.00000000000E+00  0.00000000000E+00 -0.69131169050E+03  0.69131169051E+03  0.50400001928E-02 0.  1.
    10030    2    1    2    0    0  0.00000000000E+00  0.00000000000E+00  0.59673156544E+03  0.19793549465E+04  0.18872618904E+04 0.  0.
        4    1    3    3  502    0 -0.67041837915E+03  0.47049759812E+03 -0.19312630764E+03  0.84150352140E+03  0.12699999809E+01 0.  1.
       -4    1    3    3    0  502  0.67041837915E+03 -0.47049759812E+03  0.78985787308E+03  0.11378514251E+04  0.12699999809E+01 0. -1.
</event>
<event>
 5   0  0.3308275E-04  0.1788171E+04  0.7818609E-02  0.8712615E-01
       -1   -1    0    0    0  501  0.00000000000E+00  0.00000000000E+00  0.38415203703E+03  0.38415203706E+03  0.50400001928E-02 0. -1.
        1   -1    0    0  501    0  0.00000000000E+00  0.00000000000E+00 -0.20809179576E+04  0.20809179576E+04  0.50400001928E-02 0.  1.
    10030    2    1    2    0    0  0.00000000000E+00  0.00000000000E+00 -0.16967659206E+04  0.24650699946E+04  0.17881709900E+04 0.  0.
        3    1    3    3  502    0 -0.33682341745E+03 -0.74889128317E+03 -0.13359676602E+04  0.15681510666E+04  0.10100000352E+00 0. -1.
       -3    1    3    3    0  502  0.33682341745E+03  0.74889128317E+03 -0.36079826040E+03  0.89691892803E+03  0.10100000352E+00 0.  1.
</event>
<event>
 5   0  0.3413839E-04  0.1761720E+04  0.7818609E-02  0.8726926E-01
        1   -1    0    0  501    0  0.00000000000E+00  0.00000000000E+00  0.42039486205E+03  0.42039486208E+03  0.50400001928E-02 0.  1.
       -1   -1    0    0    0  501  0.00000000000E+00  0.00000000000E+00 -0.18456795368E+04  0.18456795368E+04  0.50400001928E-02 0. -1.
    10030    2    1    2    0    0  0.00000000000E+00  0.00000000000E+00 -0.14252846747E+04  0.22660743989E+04  0.17617198350E+04 0.  0.
        5    1    3    3  502    0 -0.71287007741E+03 -0.83150622103E+02 -0.55761801045E+02  0.71988140807E+03  0.46999998093E+01 0.  1.
       -5    1    3    3    0  502  0.71287007741E+03  0.83150622103E+02 -0.13695228737E+04  0.15461929908E+04  0.46999998093E+01 0. -1.
</event>
<event>
 5   0  0.6774451E-04  0.1760042E+04  0.7818609E-02  0.8727842E-01
       -2   -1    0    0    0  501  0.00000000000E+00  0.00000000000E+00  0.61022936735E+03  0.61022936735E+03  0.25500000920E-02 0. -1.
        2   -1    0    0  501    0  0.00000000000E+00  0.00000000000E+00 -0.12690909710E+04  0.12690909710E+04  0.25500000920E-02 0.  1.
    10030    2    1    2    0    0  0.00000000000E+00  0.00000000000E+00 -0.65886160366E+03  0.18793203384E+04  0.17600415681E+04 0.  0.
        4    1    3    3  502    0 -0.46395950233E+03  0.18553915930E+03  0.44405944886E+03  0.66848605555E+03  0.12699999809E+01 0. -1.
       -4    1    3    3    0  502  0.46395950233E+03 -0.18553915930E+03 -0.11029210525E+04  0.12108342828E+04  0.12699999809E+01 0.  1.
</event>
<event>
 5   0  0.6771967E-04  0.1924902E+04  0.7818609E-02  0.8642559E-01
        2   -1    0    0  501    0  0.00000000000E+00  0.00000000000E+00  0.14933823451E+04  0.14933823451E+04  0.25500000920E-02 0. -1.
       -2   -1    0    0    0  501  0.00000000000E+00  0.00000000000E+00 -0.62027785430E+03  0.62027785431E+03  0.25500000920E-02 0.  1.
    10030    2    1    2    0    0  0.00000000000E+00  0.00000000000E+00  0.87310449076E+03  0.21136601994E+04  0.19249020719E+04 0.  0.
        1    1    3    3  502    0 -0.38636826244E+02 -0.44048825627E+03 -0.50213867293E+03  0.66907843721E+03  0.50400001928E-02 0.  1.
       -1    1    3    3    0  502  0.38636826244E+02  0.44048825627E+03  0.13752431637E+04  0.14445817622E+04  0.50400001928E-02 0. -1.
</event>
<event>
 5   0  0.6547153E-04  0.1810857E+04  0.7818609E-02  0.8700547E-01
       -2   -1    0    0    0  501  0.00000000000E+00  0.00000000000E+00  0.53190056593E+03  0.53190056594E+03  0.25500000920E-02 0.  1.
        2   -1    0    0  501    0  0.00000000000E+00  0.00000000000E+00 -0.15412673160E+04  0.15412673160E+04  0.25500000920E-02 0. -1.
    10030    2    1    2    0    0  0.00000000000E+00  0.00000000000E+00 -0.10093667500E+04  0.20731678819E+04  0.18108572087E+04 0.  0.
        5    1    3    3  502    0  0.19808436259E+03  0.77732424030E+03 -0.98539747896E+03  0.12706300291E+04  0.46999998093E+01 0. -1.
       -5    1    3    3    0  502 -0.19808436259E+03 -0.77732424030E+03 -0.23969271068E+02  0.80253785282E+03  0.46999998093E+01 0.  1.
</event>
<event>
 5   0  0.6774451E-04  0.1676141E+04  0.7818609E-02  0.8775090E-01
       -2   -1    0    0    0  501  0.00000000000E+00  0.00000000000E+00  0.89917832526E+03  0.89917832526E+03  0.25500000920E-02 0. -1.
        2   -1    0    0  501    0  0.00000000000E+00  0.00000000000E+00 -0.78111588741E+03  0.78111588742E+03  0.25500000920E-02 0.  1.
    10030    2    1    2    0    0  0.00000000000E+00  0.00000000000E+00  0.11806243784E+03  0.16802942127E+04  0.16761413729E+04 0.  0.
        4    1    3    3  502    0 -0.60869044225E+03 -0.32123364609E+03  0.53840607188E+03  0.87382940040E+03  0.12699999809E+01 0. -1.
       -4    1    3    3    0  502  0.60869044225E+03  0.32123364609E+03 -0.42034363404E+03  0.80646481228E+03  0.12699999809E+01 0.  1.
</event>
<event>
 5   0  0.6853162E-04  0.1798908E+04  0.7818609E-02  0.8706880E-01
        2   -1    0    0  501    0  0.00000000000E+00  0.00000000000E+00  0.91374511995E+03  0.91374511995E+03  0.25500000920E-02 0.  1.
       -2   -1    0    0    0  501  0.00000000000E+00  0.00000000000E+00 -0.88538661936E+03  0.88538661936E+03  0.25500000920E-02 0. -1.
    10030    2    1    2    0    0  0.00000000000E+00  0.00000000000E+00  0.28358500593E+02  0.17991317393E+04  0.17989082275E+04 0.  0.
        2    1    3    3  502    0 -0.80117230516E+03 -0.38743190058E+03 -0.11636344963E+03  0.89750821309E+03  0.25500000920E-02 0. -1.
       -2    1    3    3    0  502  0.80117230516E+03  0.38743190058E+03  0.14472195022E+03  0.90162352622E+03  0.25500000920E-02 0.  1.
</event>
<event>
 5   0  0.6547153E-04  0.1794671E+04  0.7818609E-02  0.8709139E-01
        2   -1    0    0  501    0  0.00000000000E+00  0.00000000000E+00  0.13263487283E+04  0.13263487283E+04  0.25500000920E-02 0.  1.
       -2   -1    0    0    0  501  0.00000000000E+00  0.00000000000E+00 -0.60708820266E+03  0.60708820267E+03  0.25500000920E-02 0. -1.
    10030    2    1    2    0    0  0.00000000000E+00  0.00000000000E+00  0.71926052562E+03  0.19334369310E+04  0.17946706278E+04 0.  0.
        5    1    3    3  502    0 -0.31011756879E+03  0.60259987989E+03  0.99322806776E+03  0.12024240543E+04  0.46999998093E+01 0.  1.
       -5    1    3    3    0  502  0.31011756879E+03 -0.60259987989E+03 -0.27396754214E+03  0.73101287667E+03  0.46999998093E+01 0. -1.
</event>
<event>
 5   0  0.6547153E-04  0.1054023E+04  0.7818609E-02  0.9251200E-01
        2   -1    0    0  501    0  0.00000000000E+00  0.00000000000E+00  0.13133789163E+04  0.13133789163E+04  0.25500000920E-02 0. -1.
       -2   -1    0    0    0  501  0.00000000000E+00  0.00000000000E+00 -0.21147063501E+03  0.21147063502E+03  0.25500000920E-02 0.  1.
    10030    2    1    2    0    0  0.00000000000E+00  0.00000000000E+00  0.11019082813E+04  0.15248495514E+04  0.10540229095E+04 0.  0.
        5    1    3    3  502    0 -0.38823838571E+02  0.31857677720E+03 -0.53758316278E+02  0.32543893434E+03  0.46999998093E+01 0.  1.
       -5    1    3    3    0  502  0.38823838571E+02 -0.31857677720E+03  0.11556665976E+04  0.11994106170E+04  0.46999998093E+01 0. -1.
</event>
<event>
 5   0  0.3377273E-04  0.1801536E+04  0.7818609E-02  0.8705483E-01
       -1   -1    0    0    0  501  0.00000000000E+00  0.00000000000E+00  0.47181287683E+03  0.47181287686E+03  0.50400001928E-02 0. -1.
        1   -1    0    0  501    0  0.00000000000E+00  0.00000000000E+00 -0.17197133288E+04  0.17197133288E+04  0.50400001928E-02 0.  1.
    10030    2    1    2    0    0  0.00000000000E+00  0.00000000000E+00 -0.12479004520E+04  0.21915262057E+04  0.18015358926E+04 0.  0.
        2    1    3    3  502    0 -0.43518781488E+03 -0.15481236813E+01  0.33544194514E+03  0.54946531235E+03  0.25500000920E-02 0. -1.
       -2    1    3    3    0  502  0.43518781488E+03  0.15481236813E+01 -0.15833423971E+04  0.16420608934E+04  0.25500000920E-02 0.  1.
</event>
<event>
 5   0  0.3377273E-04  0.1782204E+04  0.7818609E-02  0.8715821E-01
        1   -1    0    0  501    0  0.00000000000E+00  0.00000000000E+00  0.17202956789E+04  0.17202956789E+04  0.50400001928E-02 0. -1.
       -1   -1    0    0    0  501  0.00000000000E+00  0.00000000000E+00 -0.46158500300E+03  0.46158500303E+03  0.50400001928E-02 0.  1.
    10030    2    1    2    0    0  0.00000000000E+00  0.00000000000E+00  0.12587106759E+04  0.21818806819E+04  0.17822039009E+04 0.  0.
        2    1    3    3  502    0 -0.17934481466E+03  0.28336944082E+03 -0.38138212006E+03  0.50785344741E+03  0.25500000920E-02 0.  1.
       -2    1    3    3    0  502  0.17934481466E+03 -0.28336944082E+03  0.16400927959E+04  0.16740272345E+04  0.25500000920E-02 0. -1.
</event>
<event>
 5   0  0.2467375E-04  0.1767294E+04  0.7818609E-02  0.8723888E-01
        4   -1    0    0  501    0  0.00000000000E+00  0.00000000000E+00  0.93721898687E+03  0.93721984735E+03  0.12699999809E+01 0.  1.
       -4   -1    0    0    0  501  0.00000000000E+00  0.00000000000E+00 -0.83313550207E+03  0.83313647004E+03  0.12699999809E+01 0. -1.
    10030    2    1    2    0    0  0.00000000000E+00  0.00000000000E+00  0.10408348480E+03  0.17703563174E+04  0.17672940103E+04 0.  0.
        5    1    3    3  502    0 -0.35309983773E+03  0.80976515118E+03  0.72346156307E+02  0.88637190378E+03  0.46999998093E+01 0.  1.
       -5    1    3    3    0  502  0.35309983773E+03 -0.80976515118E+03  0.31737328498E+02  0.88398441361E+03  0.46999998093E+01 0. -1.
</event>
<event>
 5   0  0.3413839E-04  0.1798184E+04  0.7818609E-02  0.8707266E-01
       -1   -1    0    0    0  501  0.00000000000E+00  0.00000000000E+00  0.57207557082E+03  0.57207557084E+03  0.50400001928E-02 0.  1.
        1   -1    0    0  501    0  0.00000000000E+00  0.00000000000E+00 -0.14130417279E+04  0.14130417279E+04  0.50400001928E-02 0. -1.
    10030    2    1    2    0    0  0.00000000000E+00  0.00000000000E+00 -0.84096615706E+03  0.19851172987E+04  0.17981842543E+04 0.  0.
        5    1    3    3  502    0  0.66313639290E+02  0.84842985450E+03 -0.74065683379E+03  0.11281956179E+04  0.46999998093E+01 0. -1.
       -5    1    3    3    0  502 -0.66313639290E+02 -0.84842985450E+03 -0.10030932327E+03  0.85692168084E+03  0.46999998093E+01 0.  1.
</event>
<event>
 5   0  0.6929121E-04  0.1814623E+04  0.7818609E-02  0.8698562E-01
       -2   -1    0    0    0  501  0.00000000000E+00  0.00000000000E+00  0.10027242216E+04  0.10027242216E+04  0.25500000920E-02 0.  1.
        2   -1    0    0  501    0  0.00000000000E+00  0.00000000000E+00 -0.82097733154E+03  0.82097733154E+03  0.25500000920E-02 0. -1.
    10030    2    1    2    0    0  0.00000000000E+00  0.00000000000E+00  0.18174689010E+03  0.18237015532E+04  0.18146226668E+04 0.  0.
        3    1    3    3  502    0 -0.41929570352E+03 -0.77122777086E+03 -0.13964870705E+03  0.88887734425E+03  0.10100000352E+00 0.  1.
       -3    1    3    3    0  502  0.41929570352E+03  0.77122777086E+03  0.32139559715E+03  0.93482420893E+03  0.10100000352E+00 0. -1.
</event>
<event>
 5   0  0.3404261E-04  0.1826252E+04  0.7818609E-02  0.8692462E-01
       -1   -1    0    0    0  501  0.00000000000E+00  0.00000000000E+00  0.46724355841E+03  0.46724355844E+03  0.50400001928E-02 0. -1.
        1   -1    0    0  501    0  0.00000000000E+00  0.00000000000E+00 -0.17845066494E+04  0.17845066494E+04  0.50400001928E-02 0.  1.
    10030    2    1    2    0    0  0.00000000000E+00  0.00000000000E+00 -0.13172630910E+04  0.22517502078E+04  0.18262521588E+04 0.  0.
        1    1    3    3  502    0 -0.87567857719E+02  0.81554998722E+03 -0.16388247775E+03  0.83644926798E+03  0.50400001928E-02 0. -1.
       -1    1    3    3    0  502  0.87567857719E+02 -0.81554998722E+03 -0.11533806132E+04  0.14153009399E+04  0.50400001928E-02 0.  1.
</event>
<event>
 5   0  0.3377273E-04  0.1824466E+04  0.7818609E-02  0.8693396E-01
       -1   -1    0    0    0  501  0.00000000000E+00  0.00000000000E+00  0.47118224033E+03  0.47118224036E+03  0.50400001928E-02 0. -1.
        1   -1    0    0  501    0  0.00000000000E+00  0.00000000000E+00 -0.17661290660E+04  0.17661290660E+04  0.50400001928E-02 0.  1.
    10030    2    1    2    0    0  0.00000000000E+00  0.00000000000E+00 -0.12949468256E+04  0.22373113063E+04  0.18244655656E+04 0.  0.
        2    1    3    3  502    0 -0.52869345068E+01  0.75542130267E+03 -0.12745339178E+04  0.14815957626E+04  0.25500000920E-02 0.  1.
       -2    1    3    3    0  502  0.52869345068E+01 -0.75542130267E+03 -0.20412907843E+02  0.75571554372E+03  0.25500000920E-02 0. -1.
</event>
<event>
 5   0  0.3413839E-04  0.1730216E+04  0.7818609E-02  0.8744316E-01
        1   -1    0    0  501    0  0.00000000000E+00  0.00000000000E+00  0.44043110860E+03  0.44043110863E+03  0.50400001928E-02 0.  1.
       -1   -1    0    0    0  501  0.00000000000E+00  0.00000000000E+00 -0.16992718753E+04  0.16992718753E+04  0.50400001928E-02 0. -1.
    10030    2    1    2    0    0  0.00000000000E+00  0.00000000000E+00 -0.12588407667E+04  0.21397029840E+04  0.17302163979E+04 0.  0.
        5    1    3    3  502    0 -0.41003574959E+03 -0.15696797275E+03 -0.15512331636E+04  0.16121769996E+04  0.46999998093E+01 0. -1.
       -5    1    3    3    0  502  0.41003574959E+03  0.15696797275E+03  0.29239239684E+03  0.52752598432E+03  0.46999998093E+01 0.  1.
</event>
<event>
 5   0  0.6853162E-04  0.1098061E+04  0.7818609E-02  0.9207083E-01
        2   -1    0    0  501    0  0.00000000000E+00  0.00000000000E+00  0.18717417670E+04  0.18717417670E+04  0.25500000920E-02 0.  1.
       -2   -1    0    0    0  501  0.00000000000E+00  0.00000000000E+00 -0.16104505198E+03  0.16104505200E+03  0.25500000920E-02 0. -1.
    10030    2    1    2    0    0  0.00000000000E+00  0.00000000000E+00  0.17106967150E+04  0.20327868190E+04  0.10980614740E+04 0.  0.
        2    1    3    3  502    0  0.32715289086E+03  0.12368471455E+02  0.39426105622E+02  0.32975204456E+03  0.25500000920E-02 0. -1.
       -2    1    3    3    0  502 -0.32715289086E+03 -0.12368471455E+02  0.16712706094E+04  0.17030347744E+04  0.25500000920E-02 0.  1.
</event>
<event>
 5   0  0.6774451E-04  0.1895471E+04  0.7818609E-02  0.8657114E-01
        2   -1    0    0  501    0  0.00000000000E+00  0.00000000000E+00  0.16752530212E+04  0.16752530212E+04  0.25500000920E-02 0. -1.
       -2   -1    0    0    0  501  0.00000000000E+00  0.00000000000E+00 -0.53615935887E+03  0.53615935887E+03  0.25500000920E-02 0.  1.
    10030    2    1    2    0    0  0.00000000000E+00  0.00000000000E+00  0.11390936623E+04  0.22114123801E+04  0.18954710083E+04 0.  0.
        4    1    3    3  502    0  0.74752976251E+03 -0.52310387760E+02  0.12464878543E+04  0.14543970250E+04  0.12699999809E+01 0. -1.
       -4    1    3    3    0  502 -0.74752976251E+03  0.52310387760E+02 -0.10739419193E+03  0.75701535511E+03  0.12699999809E+01 0.  1.
</event>
<event>
 5   0  0.3308275E-04  0.1792056E+04  0.7818609E-02  0.8710535E-01
        1   -1    0    0  501    0  0.00000000000E+00  0.00000000000E+00  0.13586973993E+04  0.13586973993E+04  0.50400001928E-02 0. -1.
       -1   -1    0    0    0  501  0.00000000000E+00  0.00000000000E+00 -0.59090870414E+03  0.59090870416E+03  0.50400001928E-02 0.  1.
    10030    2    1    2    0    0  0.00000000000E+00  0.00000000000E+00  0.76778869516E+03  0.19496061035E+04  0.17920559361E+04 0.  0.
        3    1    3    3  502    0  0.30662327800E+02  0.83349430879E+03  0.27673461637E+02  0.83451708899E+03  0.10100000352E+00 0.  1.
       -3    1    3    3    0  502 -0.30662327800E+02 -0.83349430879E+03  0.74011523352E+03  0.11150890145E+04  0.10100000352E+00 0. -1.
</event>
<event>
 5   0  0.6853162E-04  0.1795400E+04  0.7818609E-02  0.8708749E-01
       -2   -1    0    0    0  501  0.00000000000E+00  0.00000000000E+00  0.38872694284E+03  0.38872694285E+03  0.25500000920E-02 0. -1.
        2   -1    0    0  501    0  0.00000000000E+00  0.00000000000E+00 -0.20730888418E+04  0.20730888418E+04  0.25500000920E-02 0.  1.
    10030    2    1    2    0    0  0.00000000000E+00  0.00000000000E+00 -0.16843618989E+04  0.24618157846E+04  0.17954002202E+04 0.  0.
        2    1    3    3  502    0  0.65917626670E+03  0.56060412918E+03 -0.11697612666E+04  0.14550366872E+04  0.25500000920E-02 0.  1.
       -2    1    3    3    0  502 -0.65917626670E+03 -0.56060412918E+03 -0.51460063236E+03  0.10067790975E+04  0.25500000920E-02 0. -1.
</event>
<event>
 5   0  0.3413839E-04  0.1836314E+04  0.7818609E-02  0.8687223E-01
        1   -1    0    0  501    0  0.00000000000E+00  0.00000000000E+00  0.19823333869E+04  0.19823333869E+04  0.50400001928E-02 0. -1.
       -1   -1    0    0    0  501  0.00000000000E+00  0.00000000000E+00 -0.42526253096E+03  0.42526253099E+03  0.50400001928E-02 0.  1.
    10030    2    1    2    0    0  0.00000000000E+00  0.00000000000E+00  0.15570708559E+04  0.24075959179E+04  0.18363138221E+04 0.  0.
        5    1    3    3  502    0  0.86465158431E+03 -0.17539450194E+03  0.11117836522E+04  0.14193204617E+04  0.46999998093E+01 0. -1.
       -5    1    3    3    0  502 -0.86465158431E+03  0.17539450194E+03  0.44528720371E+03  0.98827545621E+03  0.46999998093E+01 0.  1.
</event>
<event>
 5   0  0.2467375E-04  0.1764985E+04  0.7818609E-02  0.8725145E-01
        3   -1    0    0  501    0  0.00000000000E+00  0.00000000000E+00  0.89079437895E+03  0.89079438467E+03  0.10100000352E+00 0. -1.
       -3   -1    0    0    0  501  0.00000000000E+00  0.00000000000E+00 -0.87426809396E+03  0.87426809980E+03  0.10100000352E+00 0.  1.
    10030    2    1    2    0    0  0.00000000000E+00  0.00000000000E+00  0.16526284982E+02  0.17650624845E+04  0.17649851149E+04 0.  0.
        5    1    3    3  502    0 -0.66301927889E+03  0.15377090287E+03 -0.55348291486E+03  0.87727161233E+03  0.46999998093E+01 0.  1.
       -5    1    3    3    0  502  0.66301927889E+03 -0.15377090287E+03  0.57000919985E+03  0.88779087214E+03  0.46999998093E+01 0. -1.
</event>
<event>
 5   0  0.3470962E-04  0.1789608E+04  0.7818609E-02  0.8711846E-01
        1   -1    0    0  501    0  0.00000000000E+00  0.00000000000E+00  0.10167620030E+04  0.10167620030E+04  0.50400001928E-02 0.  1.
       -1   -1    0    0    0  501  0.00000000000E+00  0.00000000000E+00 -0.78747428739E+03  0.78747428741E+03  0.50400001928E-02 0. -1.
    10030    2    1    2    0    0  0.00000000000E+00  0.00000000000E+00  0.22928771562E+03  0.18042362904E+04  0.17896077043E+04 0.  0.
        4    1    3    3  502    0 -0.83025988535E+03 -0.28424730821E+03  0.29084176389E+03  0.92450989934E+03  0.12699999809E+01 0.  1.
       -4    1    3    3    0  502  0.83025988535E+03  0.28424730821E+03 -0.61554048265E+02  0.87972639110E+03  0.12699999809E+01 0. -1.
</event>
<event>
 5   0  0.3377273E-04  0.1790613E+04  0.7818609E-02  0.8711307E-01
        1   -1    0    0  501    0  0.00000000000E+00  0.00000000000E+00  0.63528346092E+03  0.63528346094E+03  0.50400001928E-02 0.  1.
       -1   -1    0    0    0  501  0.00000000000E+00  0.00000000000E+00 -0.12617573011E+04  0.12617573011E+04  0.50400001928E-02 0. -1.
    10030    2    1    2    0    0  0.00000000000E+00  0.00000000000E+00 -0.62647384019E+03  0.18970407621E+04  0.17906127947E+04 0.  0.
        2    1    3    3  502    0  0.41491577349E+03 -0.42519251684E+03  0.39637193063E+03  0.71418098747E+03  0.25500000920E-02 0.  1.
       -2    1    3    3    0  502 -0.41491577349E+03  0.42519251684E+03 -0.10228457708E+04  0.11828597746E+04  0.25500000920E-02 0. -1.
</event>
<event>
 5   0  0.3413839E-04  0.1849973E+04  0.7818609E-02  0.8680167E-01
       -1   -1    0    0    0  501  0.00000000000E+00  0.00000000000E+00  0.57509404947E+03  0.57509404949E+03  0.50400001928E-02 0.  1.
        1   -1    0    0  501    0  0.00000000000E+00  0.00000000000E+00 -0.14877564516E+04  0.14877564516E+04  0.50400001928E-02 0. -1.
    10030    2    1    2    0    0  0.00000000000E+00  0.00000000000E+00 -0.91266240216E+03  0.20628505011E+04  0.18499728457E+04 0.  0.
        5    1    3    3  502    0 -0.82978346373E+03 -0.29397687363E+02 -0.91088217690E+03  0.12325312373E+04  0.46999998093E+01 0. -1.
       -5    1    3    3    0  502  0.82978346373E+03  0.29397687363E+02 -0.17802252617E+01  0.83031926384E+03  0.46999998093E+01 0.  1.
</event>
<event>
 5   0  0.3404261E-04  0.1820191E+04  0.7818609E-02  0.8695635E-01
        1   -1    0    0  501    0  0.00000000000E+00  0.00000000000E+00  0.11643065159E+04  0.11643065159E+04  0.50400001928E-02 0. -1.
       -1   -1    0    0    0  501  0.00000000000E+00  0.00000000000E+00 -0.71138776404E+03  0.71138776406E+03  0.50400001928E-02 0.  1.
    10030    2    1    2    0    0  0.00000000000E+00  0.00000000000E+00  0.45291875189E+03  0.18756942800E+04  0.18201905494E+04 0.  0.
        1    1    3    3  502    0 -0.84763422694E+03  0.31346989793E+03  0.11582522538E+03  0.91113261518E+03  0.50400001928E-02 0.  1.
       -1    1    3    3    0  502  0.84763422694E+03 -0.31346989793E+03  0.33709352651E+03  0.96456166481E+03  0.50400001928E-02 0. -1.
</event>
<event>
 5   0  0.6929121E-04  0.1840987E+04  0.7818609E-02  0.8684802E-01
       -2   -1    0    0    0  501  0.00000000000E+00  0.00000000000E+00  0.59217436640E+03  0.59217436640E+03  0.25500000920E-02 0.  1.
        2   -1    0    0  501    0  0.00000000000E+00  0.00000000000E+00 -0.14308418493E+04  0.14308418493E+04  0.25500000920E-02 0. -1.
    10030    2    1    2    0    0  0.00000000000E+00  0.00000000000E+00 -0.83866748291E+03  0.20230162157E+04  0.18409865459E+04 0.  0.
        3    1    3    3  502    0 -0.89499847974E+03 -0.21508284519E+03 -0.41384526422E+03  0.10092327888E+04  0.10100000352E+00 0. -1.
       -3    1    3    3    0  502  0.89499847974E+03  0.21508284519E+03 -0.42482221869E+03  0.10137834269E+04  0.10100000352E+00 0.  1.
</event>
<event>
 5   0  0.6929121E-04  0.1790780E+04  0.7818609E-02  0.8711218E-01
        2   -1    0    0  501    0  0.00000000000E+00  0.00000000000E+00  0.97486133331E+03  0.97486133331E+03  0.25500000920E-02 0. -1.
       -2   -1    0    0    0  501  0.00000000000E+00  0.00000000000E+00 -0.82239766173E+03  0.82239766173E+03  0.25500000920E-02 0.  1.
    10030    2    1    2    0    0  0.00000000000E+00  0.00000000000E+00  0.15246367158E+03  0.17972589950E+04  0.17907804790E+04 0.  0.
        3    1    3    3  502    0  0.79514438270E+02 -0.89041671818E+03  0.25460355387E+02  0.89432249094E+03  0.10100000352E+00 0. -1.
       -3    1    3    3    0  502 -0.79514438270E+02  0.89041671818E+03  0.12700331620E+03  0.90293650410E+03  0.10100000352E+00 0.  1.
</event>
<event>
 5   0  0.3413839E-04  0.1827775E+04  0.7818609E-02  0.8691667E-01
       -1   -1    0    0    0  501  0.00000000000E+00  0.00000000000E+00  0.79132424303E+03  0.79132424305E+03  0.50400001928E-02 0.  1.
        1   -1    0    0  501    0  0.00000000000E+00  0.00000000000E+00 -0.10554333691E+04  0.10554333691E+04  0.50400001928E-02 0. -1.
    10030    2    1    2    0    0  0.00000000000E+00  0.00000000000E+00 -0.26410912607E+03  0.18467576122E+04  0.18277746162E+04 0.  0.
        5    1    3    3  502    0 -0.85429077537E+00  0.17773801470E+03 -0.10377889165E+04  0.10529099947E+04  0.46999998093E+01 0. -1.
       -5    1    3    3    0  502  0.85429077537E+00 -0.17773801470E+03  0.77367979043E+03  0.79384761749E+03  0.46999998093E+01 0.  1.
</event>
<event>
 5   0  0.3308275E-04  0.1835068E+04  0.7818609E-02  0.8687870E-01
       -1   -1    0    0    0  501  0.00000000000E+00  0.00000000000E+00  0.72021471073E+03  0.72021471075E+03  0.50400001928E-02 0.  1.
        1   -1    0    0  501    0  0.00000000000E+00  0.00000000000E+00 -0.11689131899E+04  0.11689131899E+04  0.50400001928E-02 0. -1.
    10030    2    1    2    0    0  0.00000000000E+00  0.00000000000E+00 -0.44869847918E+03  0.18891279007E+04  0.18350678189E+04 0.  0.
        3    1    3    3  502    0  0.82696295668E+03  0.33719761260E+03 -0.76767523846E+01  0.89310072466E+03  0.10100000352E+00 0.  1.
       -3    1    3    3    0  502 -0.82696295668E+03 -0.33719761260E+03 -0.44102172680E+03  0.99602717602E+03  0.10100000352E+00 0. -1.
</event>
<event>
 5   0  0.3308275E-04  0.1678446E+04  0.7818609E-02  0.8773754E-01
        1   -1    0    0  501    0  0.00000000000E+00  0.00000000000E+00  0.13627807451E+04  0.13627807451E+04  0.50400001928E-02 0. -1.
       -1   -1    0    0    0  501  0.00000000000E+00  0.00000000000E+00 -0.51680768713E+03  0.51680768716E+03  0.50400001928E-02 0.  1.
    10030    2    1    2    0    0  0.00000000000E+00  0.00000000000E+00  0.84597305797E+03  0.18795884323E+04  0.16784463828E+04 0.  0.
        3    1    3    3  502    0 -0.34972940625E+03 -0.69453430420E+03  0.77641392879E+03  0.10988663050E+04  0.10100000352E+00 0. -1.
       -3    1    3    3    0  502  0.34972940625E+03  0.69453430420E+03  0.69559129181E+02  0.78072212724E+03  0.10100000352E+00 0.  1.
</event>
<event>
 5   0  0.6853162E-04  0.1799940E+04  0.7818609E-02  0.8706332E-01
        2   -1    0    0  501    0  0.00000000000E+00  0.00000000000E+00  0.79049562165E+03  0.79049562166E+03  0.25500000920E-02 0.  1.
       -2   -1    0    0    0  501  0.00000000000E+00  0.00000000000E+00 -0.10246047524E+04  0.10246047524E+04  0.25500000920E-02 0. -1.
    10030    2    1    2    0    0  0.00000000000E+00  0.00000000000E+00 -0.23410913075E+03  0.18151003741E+04  0.17999395220E+04 0.  0.
        2    1    3    3  502    0  0.71802529775E+03  0.52853305964E+03 -0.24071718930E+03  0.92350002089E+03  0.25500000920E-02 0. -1.
       -2    1    3    3    0  502 -0.71802529775E+03 -0.52853305964E+03  0.66080585487E+01  0.89160035318E+03  0.25500000920E-02 0.  1.
</event>
<event>
 5   0  0.6853162E-04  0.1808620E+04  0.7818609E-02  0.8701729E-01
       -2   -1    0    0    0  501  0.00000000000E+00  0.00000000000E+00  0.14062439078E+04  0.14062439078E+04  0.25500000920E-02 0. -1.
        2   -1    0    0  501    0  0.00000000000E+00  0.00000000000E+00 -0.58153221450E+03  0.58153221451E+03  0.25500000920E-02 0.  1.
    10030    2    1    2    0    0  0.00000000000E+00  0.00000000000E+00  0.82471169328E+03  0.19877761223E+04  0.18086195109E+04 0.  0.
        2    1    3    3  502    0 -0.67907255877E+03  0.45199623097E+03 -0.16608831646E+02  0.81591420271E+03  0.25500000920E-02 0.  1.
       -2    1    3    3    0  502  0.67907255877E+03 -0.45199623097E+03  0.84132052492E+03  0.11718619196E+04  0.25500000920E-02 0. -1.
</event>
<event>
 5   0  0.3470962E-04  0.1783840E+04  0.7818609E-02  0.8714941E-01
       -1   -1    0    0    0  501  0.00000000000E+00  0.00000000000E+00  0.11310028335E+04  0.11310028335E+04  0.50400001928E-02 0. -1.
        1   -1    0    0  501    0  0.00000000000E+00  0.00000000000E+00 -0.70337708492E+03  0.70337708494E+03  0.50400001928E-02 0.  1.
    10030    2    1    2    0    0  0.00000000000E+00  0.00000000000E+00  0.42762574859E+03  0.18343799185E+04  0.17838402127E+04 0.  0.
        4    1    3    3  502    0  0.38769714584E+03  0.12005526325E+03  0.10305425317E+04  0.11075837962E+04  0.12699999809E+01 0. -1.
       -4    1    3    3    0  502 -0.38769714584E+03 -0.12005526325E+03 -0.60291678307E+03  0.72679612226E+03  0.12699999809E+01 0.  1.
</event>
<event>
 5   0  0.6771967E-04  0.2159664E+04  0.7818609E-02  0.8535407E-01
       -2   -1    0    0    0  501  0.00000000000E+00  0.00000000000E+00  0.71273955696E+03  0.71273955696E+03  0.25500000920E-02 0. -1.
        2   -1    0    0  501    0  0.00000000000E+00  0.00000000000E+00 -0.16359935383E+04  0.16359935384E+04  0.25500000920E-02 0.  1.
    10030    2    1    2    0    0  0.00000000000E+00  0.00000000000E+00 -0.92325398139E+03  0.23487330953E+04  0.21596641495E+04 0.  0.
        1    1    3    3  502    0 -0.85010676448E+01 -0.74927768034E+03  0.38396885838E+03  0.84197469953E+03  0.50400001928E-02 0. -1.
       -1    1    3    3    0  502  0.85010676448E+01  0.74927768034E+03 -0.13072228398E+04  0.15067583958E+04  0.50400001928E-02 0.  1.
</event>
<event>
 5   0  0.2467375E-04  0.9886493E+03  0.7818609E-02  0.9321082E-01
        3   -1    0    0  501    0  0.00000000000E+00  0.00000000000E+00  0.55176579944E+03  0.55176580868E+03  0.10100000352E+00 0.  1.
       -3   -1    0    0    0  501  0.00000000000E+00  0.00000000000E+00 -0.44286333826E+03  0.44286334978E+03  0.10100000352E+00 0. -1.
    10030    2    1    2    0    0  0.00000000000E+00  0.00000000000E+00  0.10890246118E+03  0.99462915846E+03  0.98864928908E+03 0.  0.
        3    1    3    3  502    0  0.44541604291E+03 -0.13170707802E+03  0.22463300945E+03  0.51594787025E+03  0.10100000352E+00 0.  1.
       -3    1    3    3    0  502 -0.44541604291E+03  0.13170707802E+03 -0.11573054827E+03  0.47868128821E+03  0.10100000352E+00 0. -1.
</event>
<event>
 5   0  0.6547153E-04  0.1819667E+04  0.7818609E-02  0.8695910E-01
        2   -1    0    0  501    0  0.00000000000E+00  0.00000000000E+00  0.10394970957E+04  0.10394970957E+04  0.25500000920E-02 0. -1.
       -2   -1    0    0    0  501  0.00000000000E+00  0.00000000000E+00 -0.79634380230E+03  0.79634380230E+03  0.25500000920E-02 0.  1.
    10030    2    1    2    0    0  0.00000000000E+00  0.00000000000E+00  0.24315329340E+03  0.18358408980E+04  0.18196670791E+04 0.  0.
        5    1    3    3  502    0  0.63846893168E+03  0.58068966426E+03  0.41211532346E+03  0.95640169005E+03  0.46999998093E+01 0. -1.
       -5    1    3    3    0  502 -0.63846893168E+03 -0.58068966426E+03 -0.16896203006E+03  0.87943920796E+03  0.46999998093E+01 0.  1.
</event>
<event>
 5   0  0.6547153E-04  0.1799992E+04  0.7818609E-02  0.8706304E-01
        2   -1    0    0  501    0  0.00000000000E+00  0.00000000000E+00  0.18639673156E+04  0.18639673156E+04  0.25500000920E-02 0.  1.
       -2   -1    0    0    0  501  0.00000000000E+00  0.00000000000E+00 -0.43455309260E+03  0.43455309261E+03  0.25500000920E-02 0. -1.
    10030    2    1    2    0    0  0.00000000000E+00  0.00000000000E+00  0.14294142230E+04  0.22985204082E+04  0.17999919572E+04 0.  0.
        5    1    3    3  502    0  0.30504099318E+03  0.84628860702E+03  0.68053180433E+03  0.11280071102E+04  0.46999998093E+01 0.  1.
       -5    1    3    3    0  502 -0.30504099318E+03 -0.84628860702E+03  0.74888241866E+03  0.11705132980E+04  0.46999998093E+01 0. -1.
</event>
<event>
 5   0  0.6853162E-04  0.1826601E+04  0.7818609E-02  0.8692280E-01
        2   -1    0    0  501    0  0.00000000000E+00  0.00000000000E+00  0.11227635795E+04  0.11227635795E+04  0.25500000920E-02 0. -1.
       -2   -1    0    0    0  501  0.00000000000E+00  0.00000000000E+00 -0.74291512891E+03  0.74291512892E+03  0.25500000920E-02 0.  1.
    10030    2    1    2    0    0  0.00000000000E+00  0.00000000000E+00  0.37984845059E+03  0.18656787084E+04  0.18266012695E+04 0.  0.
        2    1    3    3  502    0 -0.34351615055E+03 -0.15064508635E+03 -0.66060946396E+03  0.75967239756E+03  0.25500000920E-02 0.  1.
       -2    1    3    3    0  502  0.34351615055E+03  0.15064508635E+03  0.10404579146E+04  0.11060063109E+04  0.25500000920E-02 0. -1.
</event>
<event>
 5   0  0.3413839E-04  0.2080720E+04  0.7818609E-02  0.8569784E-01
        1   -1    0    0  501    0  0.00000000000E+00  0.00000000000E+00  0.91770815279E+03  0.91770815280E+03  0.50400001928E-02 0.  1.
       -1   -1    0    0    0  501  0.00000000000E+00  0.00000000000E+00 -0.11794044869E+04  0.11794044869E+04  0.50400001928E-02 0. -1.
    10030    2    1    2    0    0  0.00000000000E+00  0.00000000000E+00 -0.26169633414E+03  0.20971126397E+04  0.20807201764E+04 0.  0.
        5    1    3    3  502    0 -0.61182205643E+03  0.10350612073E+03 -0.97246410249E+03  0.11535806285E+04  0.46999998093E+01 0. -1.
       -5    1    3    3    0  502  0.61182205643E+03 -0.10350612073E+03  0.71076776835E+03  0.94353201127E+03  0.46999998093E+01 0.  1.
</event>
<event>
 5   0  0.6929121E-04  0.1819795E+04  0.7818609E-02  0.8695843E-01
        2   -1    0    0  501    0  0.00000000000E+00  0.00000000000E+00  0.61994484373E+03  0.61994484373E+03  0.25500000920E-02 0. -1.
       -2   -1    0    0    0  501  0.00000000000E+00  0.00000000000E+00 -0.13354631545E+04  0.13354631545E+04  0.25500000920E-02 0.  1.
    10030    2    1    2    0    0  0.00000000000E+00  0.00000000000E+00 -0.71551831080E+03  0.19554079983E+04  0.18197950397E+04 0.  0.
        3    1    3    3  502    0 -0.79032865783E+03 -0.26681181979E+02  0.12587344350E+03  0.80073429229E+03  0.10100000352E+00 0. -1.
       -3    1    3    3    0  502  0.79032865783E+03  0.26681181979E+02 -0.84139175430E+03  0.11546737060E+04  0.10100000352E+00 0.  1.
</event>
<event>
 5   0  0.3308275E-04  0.1746985E+04  0.7818609E-02  0.8735012E-01
        1   -1    0    0  501    0  0.00000000000E+00  0.00000000000E+00  0.13991587979E+04  0.13991587979E+04  0.50400001928E-02 0.  1.
       -1   -1    0    0    0  501  0.00000000000E+00  0.00000000000E+00 -0.54531966608E+03  0.54531966610E+03  0.50400001928E-02 0. -1.
    10030    2    1    2    0    0  0.00000000000E+00  0.00000000000E+00  0.85383913184E+03  0.19444784640E+04  0.17469846118E+04 0.  0.
        3    1    3    3  502    0  0.34520262490E+03  0.30619309488E+03  0.12524306961E+04  0.13347290820E+04  0.10100000352E+00 0.  1.
       -3    1    3    3    0  502 -0.34520262490E+03 -0.30619309488E+03 -0.39859156426E+03  0.60974938203E+03  0.10100000352E+00 0. -1.
</event>
<event>
 5   0  0.6774451E-04  0.1803375E+04  0.7818609E-02  0.8704507E-01
        2   -1    0    0  501    0  0.00000000000E+00  0.00000000000E+00  0.12958017317E+04  0.12958017317E+04  0.25500000920E-02 0. -1.
       -2   -1    0    0    0  501  0.00000000000E+00  0.00000000000E+00 -0.62744211324E+03  0.62744211324E+03  0.25500000920E-02 0.  1.
    10030    2    1    2    0    0  0.00000000000E+00  0.00000000000E+00  0.66835961848E+03  0.19232438450E+04  0.18033752542E+04 0.  0.
        4    1    3    3  502    0  0.67232180065E+03  0.59935326600E+03  0.37940140184E+03  0.97733718732E+03  0.12699999809E+01 0. -1.
       -4    1    3    3    0  502 -0.67232180065E+03 -0.59935326600E+03  0.28895821664E+03  0.94590665764E+03  0.12699999809E+01 0.  1.
</event>
<event>
 5   0  0.3377273E-04  0.1812149E+04  0.7818609E-02  0.8699865E-01
       -1   -1    0    0    0  501  0.00000000000E+00  0.00000000000E+00  0.14536945700E+04  0.14536945701E+04  0.50400001928E-02 0.  1.
        1   -1    0    0  501    0  0.00000000000E+00  0.00000000000E+00 -0.56474819549E+03  0.56474819551E+03  0.50400001928E-02 0. -1.
    10030    2    1    2    0    0  0.00000000000E+00  0.00000000000E+00  0.88894637456E+03  0.20184427656E+04  0.18121494257E+04 0.  0.
        2    1    3    3  502    0 -0.31602023498E+02 -0.13501116418E+03 -0.55286047483E+03  0.56998369010E+03  0.25500000920E-02 0. -1.
       -2    1    3    3    0  502  0.31602023498E+02  0.13501116418E+03  0.14418068494E+04  0.14484590755E+04  0.25500000920E-02 0.  1.
</event>
<event>
 5   0  0.3404261E-04  0.1800407E+04  0.7818609E-02  0.8706083E-01
        1   -1    0    0  501    0  0.00000000000E+00  0.00000000000E+00  0.23412085093E+04  0.23412085093E+04  0.50400001928E-02 0. -1.
       -1   -1    0    0    0  501  0.00000000000E+00  0.00000000000E+00 -0.34613158860E+03  0.34613158864E+03  0.50400001928E-02 0.  1.
    10030    2    1    2    0    0  0.00000000000E+00  0.00000000000E+00  0.19950769207E+04  0.26873400980E+04  0.18004068658E+04 0.  0.
        1    1    3    3  502    0  0.22539263507E+02  0.89397012536E+03  0.84331570155E+03  0.12291753235E+04  0.50400001928E-02 0. -1.
       -1    1    3    3    0  502 -0.22539263507E+02 -0.89397012536E+03  0.11517612192E+04  0.14581647744E+04  0.50400001928E-02 0.  1.
</event>
<event>
 5   0  0.6547153E-04  0.1696550E+04  0.7818609E-02  0.8763334E-01
       -2   -1    0    0    0  501  0.00000000000E+00  0.00000000000E+00  0.11433816153E+04  0.11433816153E+04  0.25500000920E-02 0.  1.
        2   -1    0    0  501    0  0.00000000000E+00  0.00000000000E+00 -0.62933564946E+03  0.62933564946E+03  0.25500000920E-02 0. -1.
    10030    2    1    2    0    0  0.00000000000E+00  0.00000000000E+00  0.51404596583E+03  0.17727172648E+04  0.16965503959E+04 0.  0.
        5    1    3    3  502    0 -0.70885134380E+03 -0.34865906471E+03  0.57995365483E+03  0.98000086876E+03  0.46999998093E+01 0. -1.
       -5    1    3    3    0  502  0.70885134380E+03  0.34865906471E+03 -0.65907689001E+02  0.79271639600E+03  0.46999998093E+01 0.  1.
</event>
<event>
 5   0  0.3413839E-04  0.1814340E+04  0.7818609E-02  0.8698710E-01
       -1   -1    0    0    0  501  0.00000000000E+00  0.00000000000E+00  0.61736140822E+03  0.61736140824E+03  0.50400001928E-02 0. -1.
        1   -1    0    0  501    0  0.00000000000E+00  0.00000000000E+00 -0.13330241008E+04  0.13330241008E+04  0.50400001928E-02 0.  1.
    10030    2    1    2    0    0  0.00000000000E+00  0.00000000000E+00 -0.71566269257E+03  0.19503855090E+04  0.18143402504E+04 0.  0.
        5    1    3    3  502    0  0.25393899578E+03 -0.46778840097E+03  0.43184217120E+03  0.68543471789E+03  0.46999998093E+01 0. -1.
       -5    1    3    3    0  502 -0.25393899578E+03  0.46778840097E+03 -0.11475048638E+04  0.12649507912E+04  0.46999998093E+01 0.  1.
</event>
<event>
 5   0  0.6929121E-04  0.1906730E+04  0.7818609E-02  0.8651514E-01
       -2   -1    0    0    0  501  0.00000000000E+00  0.00000000000E+00  0.11692537385E+04  0.11692537385E+04  0.25500000920E-02 0.  1.
        2   -1    0    0  501    0  0.00000000000E+00  0.00000000000E+00 -0.77733764073E+03  0.77733764073E+03  0.25500000920E-02 0. -1.
    10030    2    1    2    0    0  0.00000000000E+00  0.00000000000E+00  0.39191609774E+03  0.19465913792E+04  0.19067301251E+04 0.  0.
        3    1    3    3  502    0 -0.69501391370E+03  0.64102602907E+03  0.32076859492E+03  0.99842436462E+03  0.10100000352E+00 0.  1.
       -3    1    3    3    0  502  0.69501391370E+03 -0.64102602907E+03  0.71147502812E+02  0.94816701458E+03  0.10100000352E+00 0. -1.
</event>
<event>
 5   0  0.6771967E-04  0.1750242E+04  0.7818609E-02  0.8733217E-01
       -2   -1    0    0    0  501  0.00000000000E+00  0.00000000000E+00  0.16004226393E+04  0.16004226393E+04  0.25500000920E-02 0.  1.
        2   -1    0    0  501    0  0.00000000000E+00  0.00000000000E+00 -0.47852149864E+03  0.47852149865E+03  0.25500000920E-02 0. -1.
    10030    2    1    2    0    0  0.00000000000E+00  0.00000000000E+00  0.11219011407E+04  0.20789441380E+04  0.17502418574E+04 0.  0.
        1    1    3    3  502    0 -0.32743561768E+03 -0.25574936584E+03  0.14758023755E+04  0.15331713777E+04  0.50400001928E-02 0.  1.
       -1    1    3    3    0  502  0.32743561768E+03  0.25574936584E+03 -0.35390123481E+03  0.54577276029E+03  0.50400001928E-02 0. -1.
</event>
<event>
 5   0  0.3377273E-04  0.1592162E+04  0.7818609E-02  0.8825378E-01
        1   -1    0    0  501    0  0.00000000000E+00  0.00000000000E+00  0.66439680630E+03  0.66439680632E+03  0.50400001928E-02 0. -1.
       -1   -1    0    0    0  501  0.00000000000E+00  0.00000000000E+00 -0.95386490933E+03  0.95386490934E+03  0.50400001928E-02 0.  1.
    10030    2    1    2    0    0  0.00000000000E+00  0.00000000000E+00 -0.28946810303E+03  0.16182617157E+04  0.15921618001E+04 0.  0.
        2    1    3    3  502    0 -0.28174348216E+03 -0.30157191184E+02 -0.90087558143E+03  0.94438639293E+03  0.25500000920E-02 0.  1.
       -2    1    3    3    0  502  0.28174348216E+03  0.30157191184E+02  0.61140747841E+03  0.67387532273E+03  0.25500000920E-02 0. -1.
</event>
<event>
 5   0  0.3377273E-04  0.1716673E+04  0.7818609E-02  0.8751912E-01
        1   -1    0    0  501    0  0.00000000000E+00  0.00000000000E+00  0.95453756640E+03  0.95453756641E+03  0.50400001928E-02 0. -1.
       -1   -1    0    0    0  501  0.00000000000E+00  0.00000000000E+00 -0.77183075772E+03  0.77183075774E+03  0.50400001928E-02 0.  1.
    10030    2    1    2    0    0  0.00000000000E+00  0.00000000000E+00  0.18270680868E+03  0.17263683241E+04  0.17166728904E+04 0.  0.
        2    1    3    3  502    0 -0.85068693418E+03  0.11301501971E+03  0.73911908020E+02  0.86133827549E+03  0.25500000920E-02 0.  1.
       -2    1    3    3    0  502  0.85068693418E+03 -0.11301501971E+03  0.10879490066E+03  0.86503004866E+03  0.25500000920E-02 0. -1.
</event>
<event>
 5   0  0.6929121E-04  0.1703387E+04  0.7818609E-02  0.8759435E-01
       -2   -1    0    0    0  501  0.00000000000E+00  0.00000000000E+00  0.71315273473E+03  0.71315273473E+03  0.25500000920E-02 0. -1.
        2   -1    0    0  501    0  0.00000000000E+00  0.00000000000E+00 -0.10171481339E+04  0.10171481339E+04  0.25500000920E-02 0.  1.
    10030    2    1    2    0    0  0.00000000000E+00  0.00000000000E+00 -0.30399539922E+03  0.17303008687E+04  0.17033871825E+04 0.  0.
        3    1    3    3  502    0  0.16004682004E+03 -0.83004883817E+03 -0.25749383292E+03  0.88368497925E+03  0.10100000352E+00 0.  1.
       -3    1    3    3    0  502 -0.16004682004E+03  0.83004883817E+03 -0.46501566297E+02  0.84661588943E+03  0.10100000352E+00 0. -1.
</event>
<event>
 5   0  0.6547153E-04  0.9167007E+03  0.7818609E-02  0.9404942E-01
       -2   -1    0    0    0  501  0.00000000000E+00  0.00000000000E+00  0.13004218043E+03  0.13004218046E+03  0.25500000920E-02 0. -1.
        2   -1    0    0  501    0  0.00000000000E+00  0.00000000000E+00 -0.16155146005E+04  0.16155146005E+04  0.25500000920E-02 0.  1.
    10030    2    1    2    0    0  0.00000000000E+00  0.00000000000E+00 -0.14854724201E+04  0.17455567810E+04  0.91670069531E+03 0.  0.
        5    1    3    3  502    0 -0.21217476675E+03  0.26512834033E+03 -0.13288745292E+04  0.13715833088E+04  0.46999998093E+01 0.  1.
       -5    1    3    3    0  502  0.21217476675E+03 -0.26512834033E+03 -0.15659789087E+03  0.37397347221E+03  0.46999998093E+01 0. -1.
</event>
<event>
 5   0  0.3470962E-04  0.1761378E+04  0.7818609E-02  0.8727112E-01
       -1   -1    0    0    0  501  0.00000000000E+00  0.00000000000E+00  0.15885829241E+04  0.15885829242E+04  0.50400001928E-02 0.  1.
        1   -1    0    0  501    0  0.00000000000E+00  0.00000000000E+00 -0.48824207598E+03  0.48824207601E+03  0.50400001928E-02 0. -1.
    10030    2    1    2    0    0  0.00000000000E+00  0.00000000000E+00  0.11003408482E+04  0.20768250002E+04  0.17613778979E+04 0.  0.
        4    1    3    3  502    0  0.19832584229E+03  0.50462042907E+03 -0.26811921842E+03  0.60486729564E+03  0.12699999809E+01 0. -1.
       -4    1    3    3    0  502 -0.19832584229E+03 -0.50462042907E+03  0.13684600666E+04  0.14719577045E+04  0.12699999809E+01 0.  1.
</event>
<event>
 5   0  0.3470962E-04  0.1844813E+04  0.7818609E-02  0.8682825E-01
        1   -1    0    0  501    0  0.00000000000E+00  0.00000000000E+00  0.93563381411E+03  0.93563381412E+03  0.50400001928E-02 0. -1.
       -1   -1    0    0    0  501  0.00000000000E+00  0.00000000000E+00 -0.90936601142E+03  0.90936601144E+03  0.50400001928E-02 0.  1.
    10030    2    1    2    0    0  0.00000000000E+00  0.00000000000E+00  0.26267802684E+02  0.18449998256E+04  0.18448128249E+04 0.  0.
        4    1    3    3  502    0  0.44417401682E+03  0.29814140118E+03 -0.73837631361E+03  0.91180044183E+03  0.12699999809E+01 0.  1.
       -4    1    3    3    0  502 -0.44417401682E+03 -0.29814140118E+03  0.76464411629E+03  0.93319938373E+03  0.12699999809E+01 0. -1.
</event>
<event>
 5   0  0.3404261E-04  0.1770331E+04  0.7818609E-02  0.8722238E-01
       -1   -1    0    0    0  501  0.00000000000E+00  0.00000000000E+00  0.10531064292E+04  0.10531064292E+04  0.50400001928E-02 0.  1.
        1   -1    0    0  501    0  0.00000000000E+00  0.00000000000E+00 -0.74400654967E+03  0.74400654969E+03  0.50400001928E-02 0. -1.
    10030    2    1    2    0    0  0.00000000000E+00  0.00000000000E+00  0.30909987955E+03  0.17971129789E+04  0.17703311339E+04 0.  0.
        1    1    3    3  502    0  0.61935915106E+03  0.43175401269E+03 -0.31450166076E+03  0.81788054147E+03  0.50400001928E-02 0. -1.
       -1    1    3    3    0  502 -0.61935915106E+03 -0.43175401269E+03  0.62360154031E+03  0.97923243746E+03  0.50400001928E-02 0.  1.
</event>
<event>
 5   0  0.3404261E-04  0.1830297E+04  0.7818609E-02  0.8690352E-01
        1   -1    0    0  501    0  0.00000000000E+00  0.00000000000E+00  0.13666877848E+04  0.13666877848E+04  0.50400001928E-02 0.  1.
       -1   -1    0    0    0  501  0.00000000000E+00  0.00000000000E+00 -0.61279292325E+03  0.61279292327E+03  0.50400001928E-02 0. -1.
    10030    2    1    2    0    0  0.00000000000E+00  0.00000000000E+00  0.75389486152E+03  0.19794807080E+04  0.18302968096E+04 0.  0.
        1    1    3    3  502    0 -0.15484517493E+03 -0.22238829499E+03  0.13223011592E+04  0.13497829224E+04  0.50400001928E-02 0.  1.
       -1    1    3    3    0  502  0.15484517493E+03  0.22238829499E+03 -0.56840629769E+03  0.62969778563E+03  0.50400001928E-02 0. -1.
</event>
<event>
 5   0  0.3377273E-04  0.1739542E+04  0.7818609E-02  0.8739128E-01
       -1   -1    0    0    0  501  0.00000000000E+00  0.00000000000E+00  0.98180992834E+03  0.98180992835E+03  0.50400001928E-02 0.  1.
        1   -1    0    0  501    0  0.00000000000E+00  0.00000000000E+00 -0.77051767578E+03  0.77051767580E+03  0.50400001928E-02 0. -1.
    10030    2    1    2    0    0  0.00000000000E+00  0.00000000000E+00  0.21129225256E+03  0.17523276042E+04  0.17395423583E+04 0.  0.
        2    1    3    3  502    0  0.45817808738E+03 -0.17424783026E+02 -0.63888766786E+03  0.78638936601E+03  0.25500000920E-02 0. -1.
       -2    1    3    3    0  502 -0.45817808738E+03  0.17424783026E+02  0.85017992042E+03  0.96593823814E+03  0.25500000920E-02 0.  1.
</event>
<event>
 5   0  0.3413839E-04  0.1814404E+04  0.7818609E-02  0.8698677E-01
       -1   -1    0    0    0  501  0.00000000000E+00  0.00000000000E+00  0.83291042231E+03  0.83291042233E+03  0.50400001928E-02 0.  1.
        1   -1    0    0  501    0  0.00000000000E+00  0.00000000000E+00 -0.98812004103E+03  0.98812004104E+03  0.50400001928E-02 0. -1.
    10030    2    1    2    0    0  0.00000000000E+00  0.00000000000E+00 -0.15520961871E+03  0.18210304634E+04  0.18144040131E+04 0.  0.
        5    1    3    3  502    0  0.83194217059E+03  0.34785008511E+03 -0.17729497359E+03  0.91901199914E+03  0.46999998093E+01 0. -1.
       -5    1    3    3    0  502 -0.83194217059E+03 -0.34785008511E+03  0.22085354872E+02  0.90201846423E+03  0.46999998093E+01 0.  1.
</event>
<event>
 5   0  0.3377273E-04  0.1783056E+04  0.7818609E-02  0.8715362E-01
       -1   -1    0    0    0  501  0.00000000000E+00  0.00000000000E+00  0.10896825115E+04  0.10896825115E+04  0.50400001928E-02 0.  1.
        1   -1    0    0  501    0  0.00000000000E+00  0.00000000000E+00 -0.72940747360E+03  0.72940747362E+03  0.50400001928E-02 0. -1.
    10030    2    1    2    0    0  0.00000000000E+00  0.00000000000E+00  0.36027503793E+03  0.18190899852E+04  0.17830564408E+04 0.  0.
        2    1    3    3  502    0 -0.18035981132E+03 -0.41876035742E+03  0.96173514946E+03  0.10643422364E+04  0.25500000920E-02 0.  1.
       -2    1    3    3    0  502  0.18035981132E+03  0.41876035742E+03 -0.60146011152E+03  0.75474774875E+03  0.25500000920E-02 0. -1.
</event>
<event>
 5   0  0.6771967E-04  0.1843382E+04  0.7818609E-02  0.8683563E-01
        2   -1    0    0  501    0  0.00000000000E+00  0.00000000000E+00  0.22468076188E+04  0.22468076188E+04  0.25500000920E-02 0.  1.
       -2   -1    0    0    0  501  0.00000000000E+00  0.00000000000E+00 -0.37809849210E+03  0.37809849211E+03  0.25500000920E-02 0. -1.
    10030    2    1    2    0    0  0.00000000000E+00  0.00000000000E+00  0.18687091267E+04  0.26249061109E+04  0.18433822964E+04 0.  0.
        1    1    3    3  502    0  0.10441132409E+03  0.87873500729E+03  0.56732128402E+03  0.10511566853E+04  0.50400001928E-02 0. -1.
       -1    1    3    3    0  502 -0.10441132409E+03 -0.87873500729E+03  0.13013878427E+04  0.15737494257E+04  0.50400001928E-02 0.  1.
</event>
<event>
 5   0  0.6771967E-04  0.1619441E+04  0.7818609E-02  0.8808693E-01
        2   -1    0    0  501    0  0.00000000000E+00  0.00000000000E+00  0.10376885864E+04  0.10376885864E+04  0.25500000920E-02 0.  1.
       -2   -1    0    0    0  501  0.00000000000E+00  0.00000000000E+00 -0.63183465809E+03  0.63183465810E+03  0.25500000920E-02 0. -1.
    10030    2    1    2    0    0  0.00000000000E+00  0.00000000000E+00  0.40585392829E+03  0.16695232445E+04  0.16194414015E+04 0.  0.
        1    1    3    3  502    0  0.13826168802E+03  0.77496614559E+03  0.39841931932E+03  0.88228497393E+03  0.50400001928E-02 0.  1.
       -1    1    3    3    0  502 -0.13826168802E+03 -0.77496614559E+03  0.74346089685E+01  0.78723827055E+03  0.50400001928E-02 0. -1.
</event>
<event>
 5   0  0.6853162E-04  0.1843067E+04  0.7818609E-02  0.8683726E-01
        2   -1    0    0  501    0  0.00000000000E+00  0.00000000000E+00  0.17427650347E+04  0.17427650347E+04  0.25500000920E-02 0.  1.
       -2   -1    0    0    0  501  0.00000000000E+00  0.00000000000E+00 -0.48728540879E+03  0.48728540880E+03  0.25500000920E-02 0. -1.
    10030    2    1    2    0    0  0.00000000000E+00  0.00000000000E+00  0.12554796259E+04  0.22300504435E+04  0.18430669791E+04 0.  0.
        2    1    3    3  502    0  0.43892328708E+03  0.36097389085E+03 -0.25002288464E+03  0.62086008462E+03  0.25500000920E-02 0. -1.
       -2    1    3    3    0  502 -0.43892328708E+03 -0.36097389085E+03  0.15055025106E+04  0.16091903589E+04  0.25500000920E-02 0.  1.
</event>
<event>
 5   0  0.3470962E-04  0.1796541E+04  0.7818609E-02  0.8708141E-01
       -1   -1    0    0    0  501  0.00000000000E+00  0.00000000000E+00  0.10003087793E+04  0.10003087793E+04  0.50400001928E-02 0. -1.
        1   -1    0    0  501    0  0.00000000000E+00  0.00000000000E+00 -0.80664123248E+03  0.80664123250E+03  0.50400001928E-02 0.  1.
    10030    2    1    2    0    0  0.00000000000E+00  0.00000000000E+00  0.19366754679E+03  0.18069500118E+04  0.17965414625E+04 0.  0.
        4    1    3    3  502    0  0.87613856574E+03 -0.44904102827E+02  0.29096375010E+03  0.92428171117E+03  0.12699999809E+01 0. -1.
       -4    1    3    3    0  502 -0.87613856574E+03  0.44904102827E+02 -0.97296203304E+02  0.88266830062E+03  0.12699999809E+01 0.  1.
</event>
<event>
 5   0  0.3470962E-04  0.1804163E+04  0.7818609E-02  0.8704089E-01
       -1   -1    0    0    0  501  0.00000000000E+00  0.00000000000E+00  0.12160181937E+04  0.12160181937E+04  0.50400001928E-02 0.  1.
        1   -1    0    0  501    0  0.00000000000E+00  0.00000000000E+00 -0.66919314880E+03  0.66919314882E+03  0.50400001928E-02 0. -1.
    10030    2    1    2    0    0  0.00000000000E+00  0.00000000000E+00  0.54682504492E+03  0.18852113426E+04  0.18041630127E+04 0.  0.
        4    1    3    3  502    0  0.75071773798E+03  0.44260423359E+03  0.51684548807E+03  0.10132159203E+04  0.12699999809E+01 0.  1.
       -4    1    3    3    0  502 -0.75071773798E+03 -0.44260423359E+03  0.29979556857E+02  0.87199542226E+03  0.12699999809E+01 0. -1.
</event>
<event>
 5   0  0.3404261E-04  0.1677155E+04  0.7818609E-02  0.8774502E-01
       -1   -1    0    0    0  501  0.00000000000E+00  0.00000000000E+00  0.73782302775E+03  0.73782302776E+03  0.50400001928E-02 0.  1.
        1   -1    0    0  501    0  0.00000000000E+00  0.00000000000E+00 -0.95309111462E+03  0.95309111463E+03  0.50400001928E-02 0. -1.
    10030    2    1    2    0    0  0.00000000000E+00  0.00000000000E+00 -0.21526808688E+03  0.16909141424E+04  0.16771554155E+04 0.  0.
        1    1    3    3  502    0 -0.54176153173E+03  0.29425707661E+03  0.46546545042E+03  0.77249651777E+03  0.50400001928E-02 0.  1.
       -1    1    3    3    0  502  0.54176153173E+03 -0.29425707661E+03 -0.68073353730E+03  0.91841762463E+03  0.50400001928E-02 0. -1.
</event>
<event>
 5   0  0.3377273E-04  0.1648142E+04  0.7818609E-02  0.8791506E-01
        1   -1    0    0  501    0  0.00000000000E+00  0.00000000000E+00  0.14553974809E+04  0.14553974810E+04  0.50400001928E-02 0.  1.
       -1   -1    0    0    0  501  0.00000000000E+00  0.00000000000E+00 -0.46660326402E+03  0.46660326405E+03  0.50400001928E-02 0. -1.
    10030    2    1    2    0    0  0.00000000000E+00  0.00000000000E+00  0.98879421693E+03  0.19220007450E+04  0.16481422452E+04 0.  0.
        2    1    3    3  502    0 -0.16617986702E+03 -0.77968133155E+03  0.25096659939E+03  0.83576489576E+03  0.25500000920E-02 0. -1.
       -2    1    3    3    0  502  0.16617986702E+03  0.77968133155E+03  0.73782761754E+03  0.10862358492E+04  0.25500000920E-02 0.  1.
</event>
<event>
 5   0  0.3377273E-04  0.1794525E+04  0.7818609E-02  0.8709216E-01
       -1   -1    0    0    0  501  0.00000000000E+00  0.00000000000E+00  0.15966665763E+04  0.15966665763E+04  0.50400001928E-02 0. -1.
        1   -1    0    0  501    0  0.00000000000E+00  0.00000000000E+00 -0.50422542740E+03  0.50422542742E+03  0.50400001928E-02 0.  1.
    10030    2    1    2    0    0  0.00000000000E+00  0.00000000000E+00  0.10924411489E+04  0.21008920037E+04  0.17945248807E+04 0.  0.
        2    1    3    3  502    0  0.71420733370E+03 -0.52054472771E+03  0.72766741233E+03  0.11447963976E+04  0.25500000920E-02 0. -1.
       -2    1    3    3    0  502 -0.71420733370E+03  0.52054472771E+03  0.36477373654E+03  0.95609560606E+03  0.25500000920E-02 0.  1.
</event>
<event>
 5   0  0.6929121E-04  0.1526000E+04  0.7818609E-02  0.8867345E-01
        2   -1    0    0  501    0  0.00000000000E+00  0.00000000000E+00  0.97983002428E+03  0.97983002428E+03  0.25500000920E-02 0.  1.
       -2   -1    0    0    0  501  0.00000000000E+00  0.00000000000E+00 -0.59415305437E+03  0.59415305438E+03  0.25500000920E-02 0. -1.
    10030    2    1    2    0    0  0.00000000000E+00  0.00000000000E+00  0.38567696990E+03  0.15739830787E+04  0.15260000022E+04 0.  0.
        3    1    3    3  502    0 -0.48807976699E+03 -0.39330379352E+03  0.64155710564E+03  0.89694217369E+03  0.10100000352E+00 0.  1.
       -3    1    3    3    0  502  0.48807976699E+03  0.39330379352E+03 -0.25588013573E+03  0.67704090497E+03  0.10100000352E+00 0. -1.
</event>
<event>
 5   0  0.6771967E-04  0.1679662E+04  0.7818609E-02  0.8773050E-01
       -2   -1    0    0    0  501  0.00000000000E+00  0.00000000000E+00  0.32149497431E+03  0.32149497432E+03  0.25500000920E-02 0.  1.
        2   -1    0    0  501    0  0.00000000000E+00  0.00000000000E+00 -0.21938628768E+04  0.21938628768E+04  0.25500000920E-02 0. -1.
    10030    2    1    2    0    0  0.00000000000E+00  0.00000000000E+00 -0.18723679025E+04  0.25153578511E+04  0.16796617388E+04 0.  0.
        1    1    3    3  502    0  0.12704993585E+03 -0.71934157466E+03 -0.31561392548E+03  0.79574250686E+03  0.50400001928E-02 0.  1.
       -1    1    3    3    0  502 -0.12704993585E+03  0.71934157466E+03 -0.15567539770E+04  0.17196153443E+04  0.50400001928E-02 0. -1.
</event>
<event>
 5   0  0.6929121E-04  0.1808936E+04  0.7818609E-02  0.8701562E-01
       -2   -1    0    0    0  501  0.00000000000E+00  0.00000000000E+00  0.68611748248E+03  0.68611748248E+03  0.25500000920E-02 0.  1.
        2   -1    0    0  501    0  0.00000000000E+00  0.00000000000E+00 -0.11923069236E+04  0.11923069236E+04  0.25500000920E-02 0. -1.
    10030    2    1    2    0    0  0.00000000000E+00  0.00000000000E+00 -0.50618944111E+03  0.18784244061E+04  0.18089362894E+04 0.  0.
        3    1    3    3  502    0 -0.76218196817E+03  0.33473196125E+03 -0.62037006431E+03  0.10381839266E+04  0.10100000352E+00 0. -1.
       -3    1    3    3    0  502  0.76218196817E+03 -0.33473196125E+03  0.11418062320E+03  0.84024047950E+03  0.10100000352E+00 0.  1.
</event>
<event>
 5   0  0.3404261E-04  0.1803260E+04  0.7818609E-02  0.8704568E-01
        1   -1    0    0  501    0  0.00000000000E+00  0.00000000000E+00  0.16156726633E+04  0.16156726633E+04  0.50400001928E-02 0.  1.
       -1   -1    0    0    0  501  0.00000000000E+00  0.00000000000E+00 -0.50315652330E+03  0.50315652332E+03  0.50400001928E-02 0. -1.
    10030    2    1    2    0    0  0.00000000000E+00  0.00000000000E+00  0.11125161400E+04  0.21188291866E+04  0.18032595377E+04 0.  0.
        1    1    3    3  502    0 -0.18984024949E+03 -0.42981143793E+03  0.14604422275E+04  0.15341671005E+04  0.50400001928E-02 0.  1.
       -1    1    3    3    0  502  0.18984024949E+03  0.42981143793E+03 -0.34792608751E+03  0.58466208608E+03  0.50400001928E-02 0. -1.
</event>
<event>
 5   0  0.6853162E-04  0.1798701E+04  0.7818609E-02  0.8706991E-01
       -2   -1    0    0    0  501  0.00000000000E+00  0.00000000000E+00  0.81552962896E+03  0.81552962896E+03  0.25500000920E-02 0.  1.
        2   -1    0    0  501    0  0.00000000000E+00  0.00000000000E+00 -0.99178657726E+03  0.99178657726E+03  0.25500000920E-02 0. -1.
    10030    2    1    2    0    0  0.00000000000E+00  0.00000000000E+00 -0.17625694830E+03  0.18073162062E+04  0.17987010195E+04 0.  0.
        2    1    3    3  502    0  0.69305728037E+03 -0.70218137518E+02  0.48343026493E+03  0.84791733192E+03  0.25500000920E-02 0.  1.
       -2    1    3    3    0  502 -0.69305728037E+03  0.70218137518E+02 -0.65968721323E+03  0.95939887430E+03  0.25500000920E-02 0. -1.
</event>
<event>
 5   0  0.6853162E-04  0.1800681E+04  0.7818609E-02  0.8705937E-01
        2   -1    0    0  501    0  0.00000000000E+00  0.00000000000E+00  0.24786351941E+04  0.24786351941E+04  0.25500000920E-02 0.  1.
       -2   -1    0    0    0  501  0.00000000000E+00  0.00000000000E+00 -0.32704002146E+03  0.32704002147E+03  0.25500000920E-02 0. -1.
    10030    2    1    2    0    0  0.00000000000E+00  0.00000000000E+00  0.21515951726E+04  0.28056752155E+04  0.18006808791E+04 0.  0.
        2    1    3    3  502    0  0.50127222224E+03 -0.32432692968E+03  0.25769701869E+02  0.59760009676E+03  0.25500000920E-02 0. -1.
       -2    1    3    3    0  502 -0.50127222224E+03  0.32432692968E+03  0.21258254707E+04  0.22080751188E+04  0.25500000920E-02 0.  1.
</event>
<event>
 5   0  0.3404261E-04  0.1905218E+04  0.7818609E-02  0.8652263E-01
        1   -1    0    0  501    0  0.00000000000E+00  0.00000000000E+00  0.71043964096E+03  0.71043964097E+03  0.50400001928E-02 0.  1.
       -1   -1    0    0    0  501  0.00000000000E+00  0.00000000000E+00 -0.12773276177E+04  0.12773276177E+04  0.50400001928E-02 0. -1.
    10030    2    1    2    0    0  0.00000000000E+00  0.00000000000E+00 -0.56688797674E+03  0.19877672587E+04  0.19052182805E+04 0.  0.
        1    1    3    3  502    0 -0.73470285262E+03 -0.50842527157E+03  0.61295960891E+02  0.89556782728E+03  0.50400001928E-02 0. -1.
       -1    1    3    3    0  502  0.73470285262E+03  0.50842527157E+03 -0.62818393763E+03  0.10921994314E+04  0.50400001928E-02 0.  1.
</event>
<event>
 5   0  0.3470962E-04  0.1801026E+04  0.7818609E-02  0.8705754E-01
       -1   -1    0    0    0  501  0.00000000000E+00  0.00000000000E+00  0.14453695131E+04  0.14453695131E+04  0.50400001928E-02 0. -1.
        1   -1    0    0  501    0  0.00000000000E+00  0.00000000000E+00 -0.56104952986E+03  0.56104952989E+03  0.50400001928E-02 0.  1.
    10030    2    1    2    0    0  0.00000000000E+00  0.00000000000E+00  0.88431998319E+03  0.20064190429E+04  0.18010262472E+04 0.  0.
        4    1    3    3  502    0  0.71683524561E+03 -0.51078817545E+03  0.65401829682E+03  0.10965850970E+04  0.12699999809E+01 0. -1.
       -4    1    3    3    0  502 -0.71683524561E+03  0.51078817545E+03  0.23030168638E+03  0.90983394593E+03  0.12699999809E+01 0.  1.
</event>
<event>
 5   0  0.3413839E-04  0.1814920E+04  0.7818609E-02  0.8698405E-01
        1   -1    0    0  501    0  0.00000000000E+00  0.00000000000E+00  0.15295355785E+04  0.15295355785E+04  0.50400001928E-02 0.  1.
       -1   -1    0    0    0  501  0.00000000000E+00  0.00000000000E+00 -0.53838816886E+03  0.53838816888E+03  0.50400001928E-02 0. -1.
    10030    2    1    2    0    0  0.00000000000E+00  0.00000000000E+00  0.99114740961E+03  0.20679237474E+04  0.18149202289E+04 0.  0.
        5    1    3    3  502    0  0.39203460879E+03 -0.38132820309E+03  0.13206450860E+04  0.14294152183E+04  0.46999998093E+01 0.  1.
       -5    1    3    3    0  502 -0.39203460879E+03  0.38132820309E+03 -0.32949767642E+03  0.63850852909E+03  0.46999998093E+01 0. -1.
</event>
<event>
 5   0  0.6774451E-04  0.1764642E+04  0.7818609E-02  0.8725332E-01
       -2   -1    0    0    0  501  0.00000000000E+00  0.00000000000E+00  0.71245325278E+03  0.71245325278E+03  0.25500000920E-02 0. -1.
        2   -1    0    0  501    0  0.00000000000E+00  0.00000000000E+00 -0.10926895430E+04  0.10926895430E+04  0.25500000920E-02 0.  1.
    10030    2    1    2    0    0  0.00000000000E+00  0.00000000000E+00 -0.38023629024E+03  0.18051427958E+04  0.17646418551E+04 0.  0.
        4    1    3    3  502    0  0.66375645014E+03  0.23914925614E+03  0.35187583145E+03  0.78840548291E+03  0.12699999809E+01 0. -1.
       -4    1    3    3    0  502 -0.66375645014E+03 -0.23914925614E+03 -0.73211212170E+03  0.10167373129E+04  0.12699999809E+01 0.  1.
</event>
<event>
 5   0  0.3413839E-04  0.1319500E+04  0.7818609E-02  0.9014243E-01
       -1   -1    0    0    0  501  0.00000000000E+00  0.00000000000E+00  0.10535706980E+04  0.10535706980E+04  0.50400001928E-02 0. -1.
        1   -1    0    0  501    0  0.00000000000E+00  0.00000000000E+00 -0.41313777261E+03  0.41313777264E+03  0.50400001928E-02 0.  1.
    10030    2    1    2    0    0  0.00000000000E+00  0.00000000000E+00  0.64043292539E+03  0.14667084706E+04  0.13194996802E+04 0.  0.
        5    1    3    3  502    0 -0.25767076430E+02 -0.52398275672E+03 -0.12444514759E+03  0.53919435858E+03  0.46999998093E+01 0.  1.
       -5    1    3    3    0  502  0.25767076430E+02  0.52398275672E+03  0.76487807297E+03  0.92751411206E+03  0.46999998093E+01 0. -1.
</event>
<event>
 5   0  0.6771967E-04  0.1760795E+04  0.7818609E-02  0.8727430E-01
        2   -1    0    0  501    0  0.00000000000E+00  0.00000000000E+00  0.54323318337E+03  0.54323318337E+03  0.25500000920E-02 0.  1.
       -2   -1    0    0    0  501  0.00000000000E+00  0.00000000000E+00 -0.14268275077E+04  0.14268275077E+04  0.25500000920E-02 0. -1.
    10030    2    1    2    0    0  0.00000000000E+00  0.00000000000E+00 -0.88359432433E+03  0.19700606911E+04  0.17607953307E+04 0.  0.
        1    1    3    3  502    0  0.67448106789E+03 -0.20260252653E+03 -0.10329123022E+04  0.12501521182E+04  0.50400001928E-02 0. -1.
       -1    1    3    3    0  502 -0.67448106789E+03  0.20260252653E+03  0.14931797786E+03  0.71990857283E+03  0.50400001928E-02 0.  1.
</event>
<event>
 5   0  0.3413839E-04  0.1791780E+04  0.7818609E-02  0.8710683E-01
        1   -1    0    0  501    0  0.00000000000E+00  0.00000000000E+00  0.13506447038E+04  0.13506447038E+04  0.50400001928E-02 0. -1.
       -1   -1    0    0    0  501  0.00000000000E+00  0.00000000000E+00 -0.59424872258E+03  0.59424872260E+03  0.50400001928E-02 0.  1.
    10030    2    1    2    0    0  0.00000000000E+00  0.00000000000E+00  0.75639598126E+03  0.19448934264E+04  0.17917799976E+04 0.  0.
        5    1    3    3  502    0 -0.12571721030E+03  0.73861161192E+03 -0.15494065897E+03  0.76510171091E+03  0.46999998093E+01 0.  1.
       -5    1    3    3    0  502  0.12571721030E+03 -0.73861161192E+03  0.91133664023E+03  0.11797917155E+04  0.46999998093E+01 0. -1.
</event>
<event>
 5   0  0.3308275E-04  0.1784890E+04  0.7818609E-02  0.8714376E-01
        1   -1    0    0  501    0  0.00000000000E+00  0.00000000000E+00  0.12992692044E+04  0.12992692044E+04  0.50400001928E-02 0.  1.
       -1   -1    0    0    0  501  0.00000000000E+00  0.00000000000E+00 -0.61300489307E+03  0.61300489309E+03  0.50400001928E-02 0. -1.
    10030    2    1    2    0    0  0.00000000000E+00  0.00000000000E+00  0.68626431135E+03  0.19122740975E+04  0.17848903381E+04 0.  0.
        3    1    3    3  502    0 -0.17603851132E+03  0.68504685510E+03 -0.23993179152E+03  0.74689090631E+03  0.10100000352E+00 0. -1.
       -3    1    3    3    0  502  0.17603851132E+03 -0.68504685510E+03  0.92619610287E+03  0.11653831912E+04  0.10100000352E+00 0.  1.
</event>
<event>
 5   0  0.3308275E-04  0.1399120E+04  0.7818609E-02  0.8954456E-01
       -1   -1    0    0    0  501  0.00000000000E+00  0.00000000000E+00  0.66615555842E+03  0.66615555844E+03  0.50400001928E-02 0.  1.
        1   -1    0    0  501    0  0.00000000000E+00  0.00000000000E+00 -0.73463919074E+03  0.73463919076E+03  0.50400001928E-02 0. -1.
    10030    2    1    2    0    0  0.00000000000E+00  0.00000000000E+00 -0.68483632317E+02  0.14007947492E+04  0.13991196952E+04 0.  0.
        3    1    3    3  502    0  0.27116382588E+03  0.57821048361E+03  0.25162898366E+03  0.68642140078E+03  0.10100000352E+00 0.  1.
       -3    1    3    3    0  502 -0.27116382588E+03 -0.57821048361E+03 -0.32011261598E+03  0.71437334842E+03  0.10100000352E+00 0. -1.
</event>
<event>
 5   0  0.3413839E-04  0.1846881E+04  0.7818609E-02  0.8681758E-01
        1   -1    0    0  501    0  0.00000000000E+00  0.00000000000E+00  0.13958005667E+04  0.13958005668E+04  0.50400001928E-02 0.  1.
       -1   -1    0    0    0  501  0.00000000000E+00  0.00000000000E+00 -0.61093443183E+03  0.61093443185E+03  0.50400001928E-02 0. -1.
    10030    2    1    2    0    0  0.00000000000E+00  0.00000000000E+00  0.78486613492E+03  0.20067349986E+04  0.18468812915E+04 0.  0.
        5    1    3    3  502    0  0.54463949784E+03 -0.36949807111E+03 -0.31136462359E+03  0.72810097238E+03  0.46999998093E+01 0. -1.
       -5    1    3    3    0  502 -0.54463949784E+03  0.36949807111E+03  0.10962307585E+04  0.12786340262E+04  0.46999998093E+01 0.  1.
</event>
<event>
 5   0  0.6774451E-04  0.1679633E+04  0.7818609E-02  0.8773066E-01
       -2   -1    0    0    0  501  0.00000000000E+00  0.00000000000E+00  0.88934335315E+03  0.88934335315E+03  0.25500000920E-02 0. -1.
        2   -1    0    0  501    0  0.00000000000E+00  0.00000000000E+00 -0.79304820847E+03  0.79304820848E+03  0.25500000920E-02 0.  1.
    10030    2    1    2    0    0  0.00000000000E+00  0.00000000000E+00  0.96295144675E+02  0.16823915616E+04  0.16796334754E+04 0.  0.
        4    1    3    3  502    0  0.42530432492E+02 -0.68470272574E+02  0.88545895577E+03  0.88912102167E+03  0.12699999809E+01 0. -1.
       -4    1    3    3    0  502 -0.42530432492E+02  0.68470272574E+02 -0.78916381110E+03  0.79327053996E+03  0.12699999809E+01 0.  1.
</event>
<event>
 5   0  0.6929121E-04  0.1730620E+04  0.7818609E-02  0.8744091E-01
        2   -1    0    0  501    0  0.00000000000E+00  0.00000000000E+00  0.60653033107E+03  0.60653033108E+03  0.25500000920E-02 0.  1.
       -2   -1    0    0    0  501  0.00000000000E+00  0.00000000000E+00 -0.12345000830E+04  0.12345000830E+04  0.25500000920E-02 0. -1.
    10030    2    1    2    0    0  0.00000000000E+00  0.00000000000E+00 -0.62796975196E+03  0.18410304141E+04  0.17306204021E+04 0.  0.
        3    1    3    3  502    0  0.11990613451E+03  0.29801770805E+03  0.54074859805E+03  0.62896827575E+03  0.10100000352E+00 0.  1.
       -3    1    3    3    0  502 -0.11990613451E+03 -0.29801770805E+03 -0.11687183500E+04  0.12120621384E+04  0.10100000352E+00 0. -1.
</event>
<event>
 5   0  0.6853162E-04  0.1566910E+04  0.7818609E-02  0.8841138E-01
        2   -1    0    0  501    0  0.00000000000E+00  0.00000000000E+00  0.71601152649E+03  0.71601152650E+03  0.25500000920E-02 0.  1.
       -2   -1    0    0    0  501  0.00000000000E+00  0.00000000000E+00 -0.85725126613E+03  0.85725126614E+03  0.25500000920E-02 0. -1.
    10030    2    1    2    0    0  0.00000000000E+00  0.00000000000E+00 -0.14123973964E+03  0.15732627926E+04  0.15669100646E+04 0.  0.
        2    1    3    3  502    0  0.46827674521E+03  0.60760464025E+03  0.89196052194E+02  0.77228391456E+03  0.25500000920E-02 0. -1.
       -2    1    3    3    0  502 -0.46827674521E+03 -0.60760464025E+03 -0.23043579183E+03  0.80097887807E+03  0.25500000920E-02 0.  1.
</event>
<event>
 5   0  0.6771967E-04  0.1824300E+04  0.7818609E-02  0.8693483E-01
       -2   -1    0    0    0  501  0.00000000000E+00  0.00000000000E+00  0.62070290948E+03  0.62070290948E+03  0.25500000920E-02 0. -1.
        2   -1    0    0  501    0  0.00000000000E+00  0.00000000000E+00 -0.13404441701E+04  0.13404441701E+04  0.25500000920E-02 0.  1.
    10030    2    1    2    0    0  0.00000000000E+00  0.00000000000E+00 -0.71974126060E+03  0.19611470796E+04  0.18242999713E+04 0.  0.
        1    1    3    3  502    0  0.55007244391E+03  0.12784438770E+03 -0.11299088155E+04  0.12631776646E+04  0.50400001928E-02 0.  1.
       -1    1    3    3    0  502 -0.55007244391E+03 -0.12784438770E+03  0.41016755493E+03  0.69796941492E+03  0.50400001928E-02 0. -1.
</event>
<event>
 5   0  0.6547153E-04  0.1761436E+04  0.7818609E-02  0.8727081E-01
        2   -1    0    0  501    0  0.00000000000E+00  0.00000000000E+00  0.20754118079E+04  0.20754118079E+04  0.25500000920E-02 0. -1.
       -2   -1    0    0    0  501  0.00000000000E+00  0.00000000000E+00 -0.37373981401E+03  0.37373981402E+03  0.25500000920E-02 0.  1.
    10030    2    1    2    0    0  0.00000000000E+00  0.00000000000E+00  0.17016719939E+04  0.24491516219E+04  0.17614358042E+04 0.  0.
        5    1    3    3  502    0  0.46034639385E+03  0.31820456669E+01  0.18947816244E+04  0.19499098496E+04  0.46999998093E+01 0. -1.
       -5    1    3    3    0  502 -0.46034639385E+03 -0.31820456669E+01 -0.19310963050E+03  0.49924177223E+03  0.46999998093E+01 0.  1.
</event>
<event>
 5   0  0.6929121E-04  0.1764964E+04  0.7818609E-02  0.8725157E-01
       -2   -1    0    0    0  501  0.00000000000E+00  0.00000000000E+00  0.37885997270E+03  0.37885997271E+03  0.25500000920E-02 0. -1.
        2   -1    0    0  501    0  0.00000000000E+00  0.00000000000E+00 -0.20555722591E+04  0.20555722591E+04  0.25500000920E-02 0.  1.
    10030    2    1    2    0    0  0.00000000000E+00  0.00000000000E+00 -0.16767122864E+04  0.24344322318E+04  0.17649635123E+04 0.  0.
        3    1    3    3  502    0  0.27563972244E+03 -0.36314246729E+03  0.20384425317E+03  0.49940184009E+03  0.10100000352E+00 0. -1.
       -3    1    3    3    0  502 -0.27563972244E+03  0.36314246729E+03 -0.18805565395E+04  0.19350303917E+04  0.10100000352E+00 0.  1.
</event>
<event>
 5   0  0.3404261E-04  0.1852531E+04  0.7818609E-02  0.8678852E-01
       -1   -1    0    0    0  501  0.00000000000E+00  0.00000000000E+00  0.43583572652E+03  0.43583572655E+03  0.50400001928E-02 0. -1.
        1   -1    0    0  501    0  0.00000000000E+00  0.00000000000E+00 -0.19685570391E+04  0.19685570391E+04  0.50400001928E-02 0.  1.
    10030    2    1    2    0    0  0.00000000000E+00  0.00000000000E+00 -0.15327213126E+04  0.24043927657E+04  0.18525306879E+04 0.  0.
        1    1    3    3  502    0 -0.42806488582E+03 -0.26067091931E+03  0.24464860508E+03  0.55771122872E+03  0.50400001928E-02 0. -1.
       -1    1    3    3    0  502  0.42806488582E+03  0.26067091931E+03 -0.17773699177E+04  0.18466815370E+04  0.50400001928E-02 0.  1.
</event>
<event>
 5   0  0.3308275E-04  0.1759688E+04  0.7818609E-02  0.8728036E-01
       -1   -1    0    0    0  501  0.00000000000E+00  0.00000000000E+00  0.34265202536E+03  0.34265202540E+03  0.50400001928E-02 0. -1.
        1   -1    0    0  501    0  0.00000000000E+00  0.00000000000E+00 -0.22592171563E+04  0.22592171563E+04  0.50400001928E-02 0.  1.
    10030    2    1    2    0    0  0.00000000000E+00  0.00000000000E+00 -0.19165651309E+04  0.26018691817E+04  0.17596878523E+04 0.  0.
        3    1    3    3  502    0 -0.32394496803E+03  0.92802163490E+02 -0.21600215363E+04  0.21861485840E+04  0.10100000352E+00 0.  1.
       -3    1    3    3    0  502  0.32394496803E+03 -0.92802163490E+02  0.24345640534E+03  0.41572059772E+03  0.10100000352E+00 0. -1.
</event>
<event>
 5   0  0.3413839E-04  0.1817651E+04  0.7818609E-02  0.8696969E-01
       -1   -1    0    0    0  501  0.00000000000E+00  0.00000000000E+00  0.51149693085E+03  0.51149693088E+03  0.50400001928E-02 0. -1.
        1   -1    0    0  501    0  0.00000000000E+00  0.00000000000E+00 -0.16147973186E+04  0.16147973186E+04  0.50400001928E-02 0.  1.
    10030    2    1    2    0    0  0.00000000000E+00  0.00000000000E+00 -0.11033003877E+04  0.21262942495E+04  0.18176510913E+04 0.  0.
        5    1    3    3  502    0  0.30247573563E+03 -0.68117505574E+03  0.56704610806E+02  0.74748145803E+03  0.46999998093E+01 0. -1.
       -5    1    3    3    0  502 -0.30247573563E+03  0.68117505574E+03 -0.11600049985E+04  0.13788127914E+04  0.46999998093E+01 0.  1.
</event>
<event>
 5   0  0.3308275E-04  0.1657442E+04  0.7818609E-02  0.8786016E-01
       -1   -1    0    0    0  501  0.00000000000E+00  0.00000000000E+00  0.59919112895E+03  0.59919112897E+03  0.50400001928E-02 0. -1.
        1   -1    0    0  501    0  0.00000000000E+00  0.00000000000E+00 -0.11461760057E+04  0.11461760057E+04  0.50400001928E-02 0.  1.
    10030    2    1    2    0    0  0.00000000000E+00  0.00000000000E+00 -0.54698487671E+03  0.17453671346E+04  0.16574419988E+04 0.  0.
        3    1    3    3  502    0  0.60143001218E+03 -0.39129038115E+03  0.16317660224E+03  0.73583478829E+03  0.10100000352E+00 0. -1.
       -3    1    3    3    0  502 -0.60143001218E+03  0.39129038115E+03 -0.71016147895E+03  0.10095323463E+04  0.10100000352E+00 0.  1.
</event>
<event>
 5   0  0.6853162E-04  0.1775750E+04  0.7818609E-02  0.8719303E-01
       -2   -1    0    0    0  501  0.00000000000E+00  0.00000000000E+00  0.11217853185E+04  0.11217853186E+04  0.25500000920E-02 0.  1.
        2   -1    0    0  501    0  0.00000000000E+00  0.00000000000E+00 -0.70273876551E+03  0.70273876551E+03  0.25500000920E-02 0. -1.
    10030    2    1    2    0    0  0.00000000000E+00  0.00000000000E+00  0.41904655304E+03  0.18245240841E+04  0.17757500161E+04 0.  0.
        2    1    3    3  502    0  0.20771768941E+03  0.59537502995E+03  0.85175489438E+03  0.10597662312E+04  0.25500000920E-02 0.  1.
       -2    1    3    3    0  502 -0.20771768941E+03 -0.59537502995E+03 -0.43270834134E+03  0.76475785282E+03  0.25500000920E-02 0. -1.
</event>
<event>
 5   0  0.6929121E-04  0.1731077E+04  0.7818609E-02  0.8743836E-01
       -2   -1    0    0    0  501  0.00000000000E+00  0.00000000000E+00  0.84881005641E+03  0.84881005641E+03  0.25500000920E-02 0.  1.
        2   -1    0    0  501    0  0.00000000000E+00  0.00000000000E+00 -0.88259687172E+03  0.88259687172E+03  0.25500000920E-02 0. -1.
    10030    2    1    2    0    0  0.00000000000E+00  0.00000000000E+00 -0.33786815309E+02  0.17314069281E+04  0.17310772374E+04 0.  0.
        3    1    3    3  502    0  0.13876966162E+03 -0.25364070905E+03  0.79908453680E+03  0.84978040424E+03  0.10100000352E+00 0.  1.
       -3    1    3    3    0  502 -0.13876966162E+03  0.25364070905E+03 -0.83287135211E+03  0.88162652390E+03  0.10100000352E+00 0. -1.
</event>
<event>
 5   0  0.3308275E-04  0.1356960E+04  0.7818609E-02  0.8985576E-01
        1   -1    0    0  501    0  0.00000000000E+00  0.00000000000E+00  0.17407683019E+04  0.17407683019E+04  0.50400001928E-02 0. -1.
       -1   -1    0    0    0  501  0.00000000000E+00  0.00000000000E+00 -0.26444365032E+03  0.26444365036E+03  0.50400001928E-02 0.  1.
    10030    2    1    2    0    0  0.00000000000E+00  0.00000000000E+00  0.14763246515E+04  0.20052119522E+04  0.13569600203E+04 0.  0.
        3    1    3    3  502    0  0.24199950360E+03 -0.47268421539E+03  0.13622115029E+04  0.14620582464E+04  0.10100000352E+00 0. -1.
       -3    1    3    3    0  502 -0.24199950360E+03  0.47268421539E+03  0.11411314867E+03  0.54315370580E+03  0.10100000352E+00 0.  1.
</event>
<event>
 5   0  0.3377273E-04  0.1682962E+04  0.7818609E-02  0.8771142E-01
        1   -1    0    0  501    0  0.00000000000E+00  0.00000000000E+00  0.59964397419E+03  0.59964397421E+03  0.50400001928E-02 0.  1.
       -1   -1    0    0    0  501  0.00000000000E+00  0.00000000000E+00 -0.11808517884E+04  0.11808517884E+04  0.50400001928E-02 0. -1.
    10030    2    1    2    0    0  0.00000000000E+00  0.00000000000E+00 -0.58120781418E+03  0.17804957626E+04  0.16829624587E+04 0.  0.
        2    1    3    3  502    0 -0.48549133863E+03  0.46724912647E+03  0.24265818035E+03  0.71617496366E+03  0.25500000920E-02 0.  1.
       -2    1    3    3    0  502  0.48549133863E+03 -0.46724912647E+03 -0.82386599453E+03  0.10643207989E+04  0.25500000920E-02 0. -1.
</event>
<event>
 5   0  0.6853162E-04  0.1839983E+04  0.7818609E-02  0.8685321E-01
       -2   -1    0    0    0  501  0.00000000000E+00  0.00000000000E+00  0.62269727832E+03  0.62269727833E+03  0.25500000920E-02 0.  1.
        2   -1    0    0  501    0  0.00000000000E+00  0.00000000000E+00 -0.13592225529E+04  0.13592225530E+04  0.25500000920E-02 0. -1.
    10030    2    1    2    0    0  0.00000000000E+00  0.00000000000E+00 -0.73652527463E+03  0.19819198313E+04  0.18399828090E+04 0.  0.
        2    1    3    3  502    0 -0.31926632520E+03  0.65990212518E+03 -0.96700388376E+03  0.12134654146E+04  0.25500000920E-02 0. -1.
       -2    1    3    3    0  502  0.31926632520E+03 -0.65990212518E+03  0.23047860913E+03  0.76845441667E+03  0.25500000920E-02 0.  1.
</event>
<event>
 5   0  0.3470962E-04  0.1793180E+04  0.7818609E-02  0.8709935E-01
        1   -1    0    0  501    0  0.00000000000E+00  0.00000000000E+00  0.88654671139E+03  0.88654671141E+03  0.50400001928E-02 0. -1.
       -1   -1    0    0    0  501  0.00000000000E+00  0.00000000000E+00 -0.90674709476E+03  0.90674709477E+03  0.50400001928E-02 0.  1.
    10030    2    1    2    0    0  0.00000000000E+00  0.00000000000E+00 -0.20200383362E+02  0.17932938062E+04  0.17931800299E+04 0.  0.
        4    1    3    3  502    0  0.62024572642E+03 -0.17506520454E+03  0.61325264524E+03  0.88962520579E+03  0.12699999809E+01 0. -1.
       -4    1    3    3    0  502 -0.62024572642E+03  0.17506520454E+03 -0.63345302860E+03  0.90366860039E+03  0.12699999809E+01 0.  1.
</event>
<event>
 5   0  0.2467375E-04  0.1805437E+04  0.7818609E-02  0.8703414E-01
        3   -1    0    0  501    0  0.00000000000E+00  0.00000000000E+00  0.87574108109E+03  0.87574108691E+03  0.10100000352E+00 0.  1.
       -3   -1    0    0    0  501  0.00000000000E+00  0.00000000000E+00 -0.93052645839E+03  0.93052646387E+03  0.10100000352E+00 0. -1.
    10030    2    1    2    0    0  0.00000000000E+00  0.00000000000E+00 -0.54785377300E+02  0.18062675508E+04  0.18054365199E+04 0.  0.
        5    1    3    3  502    0  0.14200843227E+03 -0.75559671169E+03 -0.50067003090E+03  0.91748861322E+03  0.46999998093E+01 0. -1.
       -5    1    3    3    0  502 -0.14200843227E+03  0.75559671169E+03  0.44588465360E+03  0.88877893756E+03  0.46999998093E+01 0.  1.
</event>
<event>
 5   0  0.6771967E-04  0.1786478E+04  0.7818609E-02  0.8713524E-01
       -2   -1    0    0    0  501  0.00000000000E+00  0.00000000000E+00  0.12981454462E+04  0.12981454462E+04  0.25500000920E-02 0. -1.
        2   -1    0    0  501    0  0.00000000000E+00  0.00000000000E+00 -0.61462747069E+03  0.61462747070E+03  0.25500000920E-02 0.  1.
    10030    2    1    2    0    0  0.00000000000E+00  0.00000000000E+00  0.68351797554E+03  0.19127729169E+04  0.17864779341E+04 0.  0.
        1    1    3    3  502    0  0.49420654257E+03 -0.25258023562E+03  0.10911222956E+04  0.12241669600E+04  0.50400001928E-02 0. -1.
       -1    1    3    3    0  502 -0.49420654257E+03  0.25258023562E+03 -0.40760432002E+03  0.68860595689E+03  0.50400001928E-02 0.  1.
</event>
<event>
 5   0  0.3470962E-04  0.1803004E+04  0.7818609E-02  0.8704704E-01
        1   -1    0    0  501    0  0.00000000000E+00  0.00000000000E+00  0.19254702343E+04  0.19254702344E+04  0.50400001928E-02 0.  1.
       -1   -1    0    0    0  501  0.00000000000E+00  0.00000000000E+00 -0.42208165815E+03  0.42208165818E+03  0.50400001928E-02 0. -1.
    10030    2    1    2    0    0  0.00000000000E+00  0.00000000000E+00  0.15033885762E+04  0.23475518925E+04  0.18030037929E+04 0.  0.
        4    1    3    3  502    0 -0.67115875739E+03  0.34795866607E+03  0.13911117249E+04  0.15832633246E+04  0.12699999809E+01 0.  1.
       -4    1    3    3    0  502  0.67115875739E+03 -0.34795866607E+03  0.11227685133E+03  0.76428856799E+03  0.12699999809E+01 0. -1.
</event>
<event>
 5   0  0.3308275E-04  0.1847112E+04  0.7818609E-02  0.8681639E-01
        1   -1    0    0  501    0  0.00000000000E+00  0.00000000000E+00  0.75064946817E+03  0.75064946819E+03  0.50400001928E-02 0. -1.
       -1   -1    0    0    0  501  0.00000000000E+00  0.00000000000E+00 -0.11362902117E+04  0.11362902118E+04  0.50400001928E-02 0.  1.
    10030    2    1    2    0    0  0.00000000000E+00  0.00000000000E+00 -0.38564074358E+03  0.18869396799E+04  0.18471119545E+04 0.  0.
        3    1    3    3  502    0 -0.90889542790E+03 -0.41782987416E+02 -0.30913513560E+02  0.91038034492E+03  0.10100000352E+00 0. -1.
       -3    1    3    3    0  502  0.90889542790E+03  0.41782987416E+02 -0.35472723002E+03  0.97655933502E+03  0.10100000352E+00 0.  1.
</event>
<event>
 5   0  0.3377273E-04  0.1785466E+04  0.7818609E-02  0.8714067E-01
        1   -1    0    0  501    0  0.00000000000E+00  0.00000000000E+00  0.10087593791E+04  0.10087593791E+04  0.50400001928E-02 0. -1.
       -1   -1    0    0    0  501  0.00000000000E+00  0.00000000000E+00 -0.79005176745E+03  0.79005176747E+03  0.50400001928E-02 0.  1.
    10030    2    1    2    0    0  0.00000000000E+00  0.00000000000E+00  0.21870761164E+03  0.17988111466E+04  0.17854659116E+04 0.  0.
        2    1    3    3  502    0 -0.43760108535E+03  0.60223295657E+03 -0.38706929875E+03  0.83904820238E+03  0.25500000920E-02 0.  1.
       -2    1    3    3    0  502  0.43760108535E+03 -0.60223295657E+03  0.60577691039E+03  0.95976294419E+03  0.25500000920E-02 0. -1.
</event>
<event>
 5   0  0.6771967E-04  0.1847869E+04  0.7818609E-02  0.8681250E-01
        2   -1    0    0  501    0  0.00000000000E+00  0.00000000000E+00  0.14225935936E+04  0.14225935936E+04  0.25500000920E-02 0. -1.
       -2   -1    0    0    0  501  0.00000000000E+00  0.00000000000E+00 -0.60006922469E+03  0.60006922470E+03  0.25500000920E-02 0.  1.
    10030    2    1    2    0    0  0.00000000000E+00  0.00000000000E+00  0.82252436891E+03  0.20226628183E+04  0.18478686477E+04 0.  0.
        1    1    3    3  502    0 -0.51774874003E+03 -0.68717196040E+03  0.42682583764E+02  0.86144695945E+03  0.50400001928E-02 0.  1.
       -1    1    3    3    0  502  0.51774874003E+03  0.68717196040E+03  0.77984178515E+03  0.11612158589E+04  0.50400001928E-02 0. -1.
</event>
<event>
 5   0  0.6547153E-04  0.1086892E+04  0.7818609E-02  0.9218063E-01
       -2   -1    0    0    0  501  0.00000000000E+00  0.00000000000E+00  0.34556266169E+03  0.34556266170E+03  0.25500000920E-02 0.  1.
        2   -1    0    0  501    0  0.00000000000E+00  0.00000000000E+00 -0.85464536784E+03  0.85464536784E+03  0.25500000920E-02 0. -1.
    10030    2    1    2    0    0  0.00000000000E+00  0.00000000000E+00 -0.50908270615E+03  0.12002080295E+04  0.10868919507E+04 0.  0.
        5    1    3    3  502    0  0.32717218983E+03  0.25640324706E+03  0.13199145251E+03  0.43615146501E+03  0.46999998093E+01 0.  1.
       -5    1    3    3    0  502 -0.32717218983E+03 -0.25640324706E+03 -0.64107415866E+03  0.76405656453E+03  0.46999998093E+01 0. -1.
</event>
<event>
 5   0  0.3413839E-04  0.1972313E+04  0.7818609E-02  0.8619676E-01
        1   -1    0    0  501    0  0.00000000000E+00  0.00000000000E+00  0.11699103249E+04  0.11699103249E+04  0.50400001928E-02 0.  1.
       -1   -1    0    0    0  501  0.00000000000E+00  0.00000000000E+00 -0.83126465966E+03  0.83126465967E+03  0.50400001928E-02 0. -1.
    10030    2    1    2    0    0  0.00000000000E+00  0.00000000000E+00  0.33864566522E+03  0.20011749846E+04  0.19723134721E+04 0.  0.
        5    1    3    3  502    0  0.58532540929E+03 -0.38342430903E+03 -0.53572905635E+03  0.88127620377E+03  0.46999998093E+01 0. -1.
       -5    1    3    3    0  502 -0.58532540929E+03  0.38342430903E+03  0.87437472156E+03  0.11198987808E+04  0.46999998093E+01 0.  1.
</event>
<event>
 5   0  0.6774451E-04  0.1808861E+04  0.7818609E-02  0.8701602E-01
       -2   -1    0    0    0  501  0.00000000000E+00  0.00000000000E+00  0.42435770152E+03  0.42435770153E+03  0.25500000920E-02 0. -1.
        2   -1    0    0  501    0  0.00000000000E+00  0.00000000000E+00 -0.19276053995E+04  0.19276053995E+04  0.25500000920E-02 0.  1.
    10030    2    1    2    0    0  0.00000000000E+00  0.00000000000E+00 -0.15032476980E+04  0.23519631011E+04  0.18088606323E+04 0.  0.
        4    1    3    3  502    0 -0.76671966750E+03  0.38517320958E+03 -0.11234466595E+04  0.14136305951E+04  0.12699999809E+01 0.  1.
       -4    1    3    3    0  502  0.76671966750E+03 -0.38517320958E+03 -0.37980103854E+03  0.93833250593E+03  0.12699999809E+01 0. -1.
</event>
<event>
 5   0  0.3404261E-04  0.1738785E+04  0.7818609E-02  0.8739548E-01
       -1   -1    0    0    0  501  0.00000000000E+00  0.00000000000E+00  0.11909417879E+04  0.11909417879E+04  0.50400001928E-02 0. -1.
        1   -1    0    0  501    0  0.00000000000E+00  0.00000000000E+00 -0.63465993038E+03  0.63465993040E+03  0.50400001928E-02 0.  1.
    10030    2    1    2    0    0  0.00000000000E+00  0.00000000000E+00  0.55628185753E+03  0.18256017183E+04  0.17387846701E+04 0.  0.
        1    1    3    3  502    0 -0.80967769564E+02  0.85962603676E+03  0.38485392612E+03  0.94531753779E+03  0.50400001928E-02 0. -1.
       -1    1    3    3    0  502  0.80967769564E+02 -0.85962603676E+03  0.17142793142E+03  0.88028418053E+03  0.50400001928E-02 0.  1.
</event>
<event>
 5   0  0.3413839E-04  0.1767169E+04  0.7818609E-02  0.8723956E-01
        1   -1    0    0  501    0  0.00000000000E+00  0.00000000000E+00  0.23438212645E+04  0.23438212645E+04  0.50400001928E-02 0.  1.
       -1   -1    0    0    0  501  0.00000000000E+00  0.00000000000E+00 -0.33309781170E+03  0.33309781174E+03  0.50400001928E-02 0. -1.
    10030    2    1    2    0    0  0.00000000000E+00  0.00000000000E+00  0.20107234528E+04  0.26769190762E+04  0.17671691875E+04 0.  0.
        5    1    3    3  502    0 -0.67018210557E+03 -0.42892086446E+03  0.42342667512E+03  0.90134865718E+03  0.46999998093E+01 0. -1.
       -5    1    3    3    0  502  0.67018210557E+03  0.42892086446E+03  0.15872967777E+04  0.17755704191E+04  0.46999998093E+01 0.  1.
</event>
<event>
 5   0  0.3377273E-04  0.1882452E+04  0.7818609E-02  0.8663641E-01
       -1   -1    0    0    0  501  0.00000000000E+00  0.00000000000E+00  0.77040886176E+03  0.77040886178E+03  0.50400001928E-02 0.  1.
        1   -1    0    0  501    0  0.00000000000E+00  0.00000000000E+00 -0.11499169102E+04  0.11499169102E+04  0.50400001928E-02 0. -1.
    10030    2    1    2    0    0  0.00000000000E+00  0.00000000000E+00 -0.37950804842E+03  0.19203257720E+04  0.18824517820E+04 0.  0.
        2    1    3    3  502    0  0.76118587882E+03 -0.53587834786E+03 -0.33160798513E+03  0.98819704595E+03  0.25500000920E-02 0.  1.
       -2    1    3    3    0  502 -0.76118587882E+03  0.53587834786E+03 -0.47900063288E+02  0.93212872602E+03  0.25500000920E-02 0. -1.
</event>
<event>
 5   0  0.3377273E-04  0.1842190E+04  0.7818609E-02  0.8684179E-01
       -1   -1    0    0    0  501  0.00000000000E+00  0.00000000000E+00  0.10691062097E+04  0.10691062097E+04  0.50400001928E-02 0. -1.
        1   -1    0    0  501    0  0.00000000000E+00  0.00000000000E+00 -0.79357544894E+03  0.79357544895E+03  0.50400001928E-02 0.  1.
    10030    2    1    2    0    0  0.00000000000E+00  0.00000000000E+00  0.27553076073E+03  0.18626816586E+04  0.18421904791E+04 0.  0.
        2    1    3    3  502    0 -0.20404588141E+03  0.89736732581E+03  0.17710315890E+03  0.93715973455E+03  0.25500000920E-02 0. -1.
       -2    1    3    3    0  502  0.20404588141E+03 -0.89736732581E+03  0.98427601830E+02  0.92552192409E+03  0.25500000920E-02 0.  1.
</event>
<event>
 5   0  0.3413839E-04  0.9195346E+03  0.7818609E-02  0.9401486E-01
        1   -1    0    0  501    0  0.00000000000E+00  0.00000000000E+00  0.78600396727E+03  0.78600396729E+03  0.50400001928E-02 0. -1.
       -1   -1    0    0    0  501  0.00000000000E+00  0.00000000000E+00 -0.26893751650E+03  0.26893751655E+03  0.50400001928E-02 0.  1.
    10030    2    1    2    0    0  0.00000000000E+00  0.00000000000E+00  0.51706645076E+03  0.10549414838E+04  0.91953456695E+03 0.  0.
        5    1    3    3  502    0  0.68426254858E+02  0.14826584390E+03  0.75158500032E+03  0.76913393861E+03  0.46999998093E+01 0. -1.
       -5    1    3    3    0  502 -0.68426254858E+02 -0.14826584390E+03 -0.23451854956E+03  0.28580754522E+03  0.46999998093E+01 0.  1.
</event>
<event>
 5   0  0.3413839E-04  0.1697967E+04  0.7818609E-02  0.8762525E-01
        1   -1    0    0  501    0  0.00000000000E+00  0.00000000000E+00  0.13548296129E+04  0.13548296129E+04  0.50400001928E-02 0.  1.
       -1   -1    0    0    0  501  0.00000000000E+00  0.00000000000E+00 -0.53200273893E+03  0.53200273895E+03  0.50400001928E-02 0. -1.
    10030    2    1    2    0    0  0.00000000000E+00  0.00000000000E+00  0.82282687396E+03  0.18868323519E+04  0.16979670961E+04 0.  0.
        5    1    3    3  502    0 -0.43971960743E+03  0.63547754304E+03  0.20794384551E+02  0.77307149559E+03  0.46999998093E+01 0. -1.
       -5    1    3    3    0  502  0.43971960743E+03 -0.63547754304E+03  0.80203248941E+03  0.11137608563E+04  0.46999998093E+01 0.  1.
</event>
<event>
 5   0  0.3377273E-04  0.1707075E+04  0.7818609E-02  0.8757339E-01
        1   -1    0    0  501    0  0.00000000000E+00  0.00000000000E+00  0.11320712210E+04  0.11320712211E+04  0.50400001928E-02 0. -1.
       -1   -1    0    0    0  501  0.00000000000E+00  0.00000000000E+00 -0.64353430410E+03  0.64353430412E+03  0.50400001928E-02 0.  1.
    10030    2    1    2    0    0  0.00000000000E+00  0.00000000000E+00  0.48853691694E+03  0.17756055252E+04  0.17070754704E+04 0.  0.
        2    1    3    3  502    0  0.75510829419E+03 -0.39002239366E+03  0.16223102491E+03  0.86523113037E+03  0.25500000920E-02 0.  1.
       -2    1    3    3    0  502 -0.75510829419E+03  0.39002239366E+03  0.32630589203E+03  0.91037439479E+03  0.25500000920E-02 0. -1.
</event>
<event>
 5   0  0.3377273E-04  0.1823044E+04  0.7818609E-02  0.8694140E-01
        1   -1    0    0  501    0  0.00000000000E+00  0.00000000000E+00  0.16887363750E+04  0.16887363750E+04  0.50400001928E-02 0.  1.
       -1   -1    0    0    0  501  0.00000000000E+00  0.00000000000E+00 -0.49200857851E+03  0.49200857854E+03  0.50400001928E-02 0. -1.
    10030    2    1    2    0    0  0.00000000000E+00  0.00000000000E+00  0.11967277965E+04  0.21807449535E+04  0.18230444683E+04 0.  0.
        2    1    3    3  502    0 -0.89309108857E+03  0.15986146635E+03  0.49336003503E+03  0.10327494881E+04  0.25500000920E-02 0.  1.
       -2    1    3    3    0  502  0.89309108857E+03 -0.15986146635E+03  0.70336776145E+03  0.11479954655E+04  0.25500000920E-02 0. -1.
</event>
<event>
 5   0  0.2467375E-04  0.1717289E+04  0.7818609E-02  0.8751565E-01
        4   -1    0    0  501    0  0.00000000000E+00  0.00000000000E+00  0.64907467333E+03  0.64907591579E+03  0.12699999809E+01 0. -1.
       -4   -1    0    0    0  501  0.00000000000E+00  0.00000000000E+00 -0.11358765940E+04  0.11358773039E+04  0.12699999809E+01 0.  1.
    10030    2    1    2    0    0  0.00000000000E+00  0.00000000000E+00 -0.48680192063E+03  0.17849532197E+04  0.17172891098E+04 0.  0.
        3    1    3    3  502    0 -0.31862553281E+03  0.39121008477E+02  0.58435559461E+03  0.66672644662E+03  0.10100000352E+00 0. -1.
       -3    1    3    3    0  502  0.31862553281E+03 -0.39121008477E+02 -0.10711575152E+04  0.11182267731E+04  0.10100000352E+00 0.  1.
</event>
<event>
 5   0  0.6771967E-04  0.1727867E+04  0.7818609E-02  0.8745629E-01
       -2   -1    0    0    0  501  0.00000000000E+00  0.00000000000E+00  0.54507297734E+03  0.54507297734E+03  0.25500000920E-02 0.  1.
        2   -1    0    0  501    0  0.00000000000E+00  0.00000000000E+00 -0.13693230976E+04  0.13693230976E+04  0.25500000920E-02 0. -1.
    10030    2    1    2    0    0  0.00000000000E+00  0.00000000000E+00 -0.82425012026E+03  0.19143960749E+04  0.17278669136E+04 0.  0.
        1    1    3    3  502    0 -0.29521262912E+03  0.76742898984E+03 -0.70585449972E+03  0.10836643049E+04  0.50400001928E-02 0. -1.
       -1    1    3    3    0  502  0.29521262912E+03 -0.76742898984E+03 -0.11839562054E+03  0.83073177008E+03  0.50400001928E-02 0.  1.
</event>
<event>
 5   0  0.3413839E-04  0.1910787E+04  0.7818609E-02  0.8649506E-01
       -1   -1    0    0    0  501  0.00000000000E+00  0.00000000000E+00  0.18100535130E+04  0.18100535130E+04  0.50400001928E-02 0. -1.
        1   -1    0    0  501    0  0.00000000000E+00  0.00000000000E+00 -0.50428157887E+03  0.50428157890E+03  0.50400001928E-02 0.  1.
    10030    2    1    2    0    0  0.00000000000E+00  0.00000000000E+00  0.13057719341E+04  0.23143350919E+04  0.19107868991E+04 0.  0.
        5    1    3    3  502    0 -0.23157634254E+03  0.57738751574E+03 -0.22533515325E+03  0.66166605402E+03  0.46999998093E+01 0. -1.
       -5    1    3    3    0  502  0.23157634254E+03 -0.57738751574E+03  0.15311070874E+04  0.16526690379E+04  0.46999998093E+01 0.  1.
</event>
<event>
 5   0  0.3377273E-04  0.1799481E+04  0.7818609E-02  0.8706576E-01
       -1   -1    0    0    0  501  0.00000000000E+00  0.00000000000E+00  0.78033062877E+03  0.78033062879E+03  0.50400001928E-02 0. -1.
        1   -1    0    0  501    0  0.00000000000E+00  0.00000000000E+00 -0.10374227710E+04  0.10374227710E+04  0.50400001928E-02 0.  1.
    10030    2    1    2    0    0  0.00000000000E+00  0.00000000000E+00 -0.25709214223E+03  0.18177533998E+04  0.17994807731E+04 0.  0.
        2    1    3    3  502    0 -0.65818644852E+03 -0.23525190304E+03 -0.70084993296E+03  0.98981992678E+03  0.25500000920E-02 0.  1.
       -2    1    3    3    0  502  0.65818644852E+03  0.23525190304E+03  0.44375779073E+03  0.82793347302E+03  0.25500000920E-02 0. -1.
</event>
<event>
 5   0  0.3404261E-04  0.1826408E+04  0.7818609E-02  0.8692380E-01
       -1   -1    0    0    0  501  0.00000000000E+00  0.00000000000E+00  0.12441770972E+04  0.12441770972E+04  0.50400001928E-02 0. -1.
        1   -1    0    0  501    0  0.00000000000E+00  0.00000000000E+00 -0.67027596096E+03  0.67027596098E+03  0.50400001928E-02 0.  1.
    10030    2    1    2    0    0  0.00000000000E+00  0.00000000000E+00  0.57390113625E+03  0.19144530582E+04  0.18264084970E+04 0.  0.
        1    1    3    3  502    0  0.18271634763E+03  0.39218013103E+03 -0.55602603107E+03  0.70452499326E+03  0.50400001928E-02 0.  1.
       -1    1    3    3    0  502 -0.18271634763E+03 -0.39218013103E+03  0.11299271673E+04  0.12099280649E+04  0.50400001928E-02 0. -1.
</event>
<event>
 5   0  0.6547153E-04  0.1718756E+04  0.7818609E-02  0.8750739E-01
        2   -1    0    0  501    0  0.00000000000E+00  0.00000000000E+00  0.68489219733E+03  0.68489219734E+03  0.25500000920E-02 0.  1.
       -2   -1    0    0    0  501  0.00000000000E+00  0.00000000000E+00 -0.10783163595E+04  0.10783163595E+04  0.25500000920E-02 0. -1.
    10030    2    1    2    0    0  0.00000000000E+00  0.00000000000E+00 -0.39342416220E+03  0.17632085569E+04  0.17187559000E+04 0.  0.
        5    1    3    3  502    0  0.72847648311E+03 -0.23673021746E+02 -0.66375595265E+03  0.98581562834E+03  0.46999998093E+01 0. -1.
       -5    1    3    3    0  502 -0.72847648311E+03  0.23673021746E+02  0.27033179045E+03  0.77739292853E+03  0.46999998093E+01 0.  1.
</event>
<event>
 5   0  0.6547153E-04  0.1750655E+04  0.7818609E-02  0.8732990E-01
        2   -1    0    0  501    0  0.00000000000E+00  0.00000000000E+00  0.11332461789E+04  0.11332461789E+04  0.25500000920E-02 0. -1.
       -2   -1    0    0    0  501  0.00000000000E+00  0.00000000000E+00 -0.67610894389E+03  0.67610894389E+03  0.25500000920E-02 0.  1.
    10030    2    1    2    0    0  0.00000000000E+00  0.00000000000E+00  0.45713723502E+03  0.18093551228E+04  0.17506545944E+04 0.  0.
        5    1    3    3  502    0  0.77793421290E+03  0.74518645938E+02 -0.17891138815E+03  0.80172691298E+03  0.46999998093E+01 0. -1.
       -5    1    3    3    0  502 -0.77793421290E+03 -0.74518645938E+02  0.63604862317E+03  0.10076282098E+04  0.46999998093E+01 0.  1.
</event>
<event>
 5   0  0.6774451E-04  0.1769010E+04  0.7818609E-02  0.8722955E-01
       -2   -1    0    0    0  501  0.00000000000E+00  0.00000000000E+00  0.59633306016E+03  0.59633306016E+03  0.25500000920E-02 0.  1.
        2   -1    0    0  501    0  0.00000000000E+00  0.00000000000E+00 -0.13119331283E+04  0.13119331283E+04  0.25500000920E-02 0. -1.
    10030    2    1    2    0    0  0.00000000000E+00  0.00000000000E+00 -0.71560006811E+03  0.19082661884E+04  0.17690100024E+04 0.  0.
        4    1    3    3  502    0 -0.54375707844E+03 -0.69046285549E+03 -0.46533043491E+03  0.99445700848E+03  0.12699999809E+01 0.  1.
       -4    1    3    3    0  502  0.54375707844E+03  0.69046285549E+03 -0.25026963320E+03  0.91380917995E+03  0.12699999809E+01 0. -1.
</event>
<event>
 5   0  0.3413839E-04  0.1790477E+04  0.7818609E-02  0.8711380E-01
       -1   -1    0    0    0  501  0.00000000000E+00  0.00000000000E+00  0.65096760270E+03  0.65096760272E+03  0.50400001928E-02 0. -1.
        1   -1    0    0  501    0  0.00000000000E+00  0.00000000000E+00 -0.12311696153E+04  0.12311696153E+04  0.50400001928E-02 0.  1.
    10030    2    1    2    0    0  0.00000000000E+00  0.00000000000E+00 -0.58020201259E+03  0.18821372180E+04  0.17904765098E+04 0.  0.
        5    1    3    3  502    0 -0.65350043465E+02 -0.84379871980E+03 -0.59686681028E+03  0.10356345818E+04  0.46999998093E+01 0.  1.
       -5    1    3    3    0  502  0.65350043465E+02  0.84379871980E+03  0.16664797689E+02  0.84650263626E+03  0.46999998093E+01 0. -1.
</event>
<event>
 5   0  0.6853162E-04  0.1814473E+04  0.7818609E-02  0.8698641E-01
       -2   -1    0    0    0  501  0.00000000000E+00  0.00000000000E+00  0.63670602286E+03  0.63670602287E+03  0.25500000920E-02 0. -1.
        2   -1    0    0  501    0  0.00000000000E+00  0.00000000000E+00 -0.12927129131E+04  0.12927129131E+04  0.25500000920E-02 0.  1.
    10030    2    1    2    0    0  0.00000000000E+00  0.00000000000E+00 -0.65600689022E+03  0.19294189360E+04  0.18144730338E+04 0.  0.
        2    1    3    3  502    0 -0.82500855525E+03 -0.33437717613E+03 -0.14189940818E+03  0.90143366600E+03  0.25500000920E-02 0.  1.
       -2    1    3    3    0  502  0.82500855525E+03  0.33437717613E+03 -0.51410748204E+03  0.10279852700E+04  0.25500000920E-02 0. -1.
</event>
<event>
 5   0  0.3377273E-04  0.1698978E+04  0.7818609E-02  0.8761947E-01
        1   -1    0    0  501    0  0.00000000000E+00  0.00000000000E+00  0.12253926610E+04  0.12253926610E+04  0.50400001928E-02 0.  1.
       -1   -1    0    0    0  501  0.00000000000E+00  0.00000000000E+00 -0.58889850981E+03  0.58889850984E+03  0.50400001928E-02 0. -1.
    10030    2    1    2    0    0  0.00000000000E+00  0.00000000000E+00  0.63649415115E+03  0.18142911708E+04  0.16989784131E+04 0.  0.
        2    1    3    3  502    0  0.38828626199E+03 -0.75512853878E+03  0.34540086735E+03  0.91667174632E+03  0.25500000920E-02 0.  1.
       -2    1    3    3    0  502 -0.38828626199E+03  0.75512853878E+03  0.29109328379E+03  0.89761942448E+03  0.25500000920E-02 0. -1.
</event>
<event>
 5   0  0.6853162E-04  0.1811131E+04  0.7818609E-02  0.8700402E-01
       -2   -1    0    0    0  501  0.00000000000E+00  0.00000000000E+00  0.10958751384E+04  0.10958751384E+04  0.25500000920E-02 0.  1.
        2   -1    0    0  501    0  0.00000000000E+00  0.00000000000E+00 -0.74830513195E+03  0.74830513195E+03  0.25500000920E-02 0. -1.
    10030    2    1    2    0    0  0.00000000000E+00  0.00000000000E+00  0.34757000642E+03  0.18441802703E+04  0.18111311273E+04 0.  0.
        2    1    3    3  502    0  0.48682571140E+02  0.74689853909E+02 -0.74382543485E+03  0.74914941403E+03  0.25500000920E-02 0. -1.
       -2    1    3    3    0  502 -0.48682571140E+02 -0.74689853909E+02  0.10913954413E+04  0.10950308563E+04  0.25500000920E-02 0.  1.
</event>
<event>
 5   0  0.3413839E-04  0.1805749E+04  0.7818609E-02  0.8703248E-01
       -1   -1    0    0    0  501  0.00000000000E+00  0.00000000000E+00  0.10978353569E+04  0.10978353569E+04  0.50400001928E-02 0. -1.
        1   -1    0    0  501    0  0.00000000000E+00  0.00000000000E+00 -0.74253630955E+03  0.74253630957E+03  0.50400001928E-02 0.  1.
    10030    2    1    2    0    0  0.00000000000E+00  0.00000000000E+00  0.35529904735E+03  0.18403716665E+04  0.18057492788E+04 0.  0.
        5    1    3    3  502    0 -0.54336591205E+03  0.52646747586E+03 -0.32448968717E+03  0.82324368482E+03  0.46999998093E+01 0. -1.
       -5    1    3    3    0  502  0.54336591205E+03 -0.52646747586E+03  0.67978873452E+03  0.10171279817E+04  0.46999998093E+01 0.  1.
</event>
<event>
 5   0  0.6774451E-04  0.1804564E+04  0.7818609E-02  0.8703876E-01
       -2   -1    0    0    0  501  0.00000000000E+00  0.00000000000E+00  0.67140415345E+03  0.67140415345E+03  0.25500000920E-02 0. -1.
        2   -1    0    0  501    0  0.00000000000E+00  0.00000000000E+00 -0.12125523507E+04  0.12125523507E+04  0.25500000920E-02 0.  1.
    10030    2    1    2    0    0  0.00000000000E+00  0.00000000000E+00 -0.54114819725E+03  0.18839565042E+04  0.18045638637E+04 0.  0.
        4    1    3    3  502    0  0.62805439506E+03  0.49220753221E+02 -0.94493058058E+03  0.11356805980E+04  0.12699999809E+01 0.  1.
       -4    1    3    3    0  502 -0.62805439506E+03 -0.49220753221E+02  0.40378238333E+03  0.74827590613E+03  0.12699999809E+01 0. -1.
</event>
<event>
 5   0  0.3404261E-04  0.1791819E+04  0.7818609E-02  0.8710662E-01
       -1   -1    0    0    0  501  0.00000000000E+00  0.00000000000E+00  0.98277654345E+03  0.98277654346E+03  0.50400001928E-02 0. -1.
        1   -1    0    0  501    0  0.00000000000E+00  0.00000000000E+00 -0.81672031605E+03  0.81672031607E+03  0.50400001928E-02 0.  1.
    10030    2    1    2    0    0  0.00000000000E+00  0.00000000000E+00  0.16605622740E+03  0.17994968595E+04  0.17918187065E+04 0.  0.
        1    1    3    3  502    0  0.53018968700E+03 -0.12379308658E+03  0.79757378927E+03  0.96568617151E+03  0.50400001928E-02 0. -1.
       -1    1    3    3    0  502 -0.53018968700E+03  0.12379308658E+03 -0.63151756187E+03  0.83381068802E+03  0.50400001928E-02 0.  1.
</event>
<event>
 5   0  0.3413839E-04  0.1858713E+04  0.7818609E-02  0.8675685E-01
       -1   -1    0    0    0  501  0.00000000000E+00  0.00000000000E+00  0.11044837011E+04  0.11044837011E+04  0.50400001928E-02 0. -1.
        1   -1    0    0  501    0  0.00000000000E+00  0.00000000000E+00 -0.78199769032E+03  0.78199769034E+03  0.50400001928E-02 0.  1.
    10030    2    1    2    0    0  0.00000000000E+00  0.00000000000E+00  0.32248601080E+03  0.18864813915E+04  0.18587132144E+04 0.  0.
        5    1    3    3  502    0 -0.71942786128E+03 -0.58590534088E+03  0.21514094725E+03  0.95245432081E+03  0.46999998093E+01 0. -1.
       -5    1    3    3    0  502  0.71942786128E+03  0.58590534088E+03  0.10734506354E+03  0.93402707066E+03  0.46999998093E+01 0.  1.
</event>
<event>
 5   0  0.3404261E-04  0.1820111E+04  0.7818609E-02  0.8695677E-01
       -1   -1    0    0    0  501  0.00000000000E+00  0.00000000000E+00  0.63069131041E+03  0.63069131043E+03  0.50400001928E-02 0.  1.
        1   -1    0    0  501    0  0.00000000000E+00  0.00000000000E+00 -0.13131635634E+04  0.13131635634E+04  0.50400001928E-02 0. -1.
    10030    2    1    2    0    0  0.00000000000E+00  0.00000000000E+00 -0.68247225302E+03  0.19438548739E+04  0.18201108193E+04 0.  0.
        1    1    3    3  502    0  0.44685073573E+03 -0.78844574423E+03 -0.42981197227E+03  0.10030257241E+04  0.50400001928E-02 0.  1.
       -1    1    3    3    0  502 -0.44685073573E+03  0.78844574423E+03 -0.25266028076E+03  0.94082914980E+03  0.50400001928E-02 0. -1.
</event>
<event>
 5   0  0.6853162E-04  0.1789262E+04  0.7818609E-02  0.8712030E-01
        2   -1    0    0  501    0  0.00000000000E+00  0.00000000000E+00  0.14602709290E+04  0.14602709290E+04  0.25500000920E-02 0.  1.
       -2   -1    0    0    0  501  0.00000000000E+00  0.00000000000E+00 -0.54809354394E+03  0.54809354394E+03  0.25500000920E-02 0. -1.
    10030    2    1    2    0    0  0.00000000000E+00  0.00000000000E+00  0.91217738505E+03  0.20083644729E+04  0.17892624945E+04 0.  0.
        2    1    3    3  502    0  0.85005453865E+03 -0.45192846302E+02  0.76497760917E+03  0.11444762359E+04  0.25500000920E-02 0.  1.
       -2    1    3    3    0  502 -0.85005453865E+03  0.45192846302E+02  0.14719977588E+03  0.86388823702E+03  0.25500000920E-02 0. -1.
</event>
<event>
 5   0  0.6929121E-04  0.1694667E+04  0.7818609E-02  0.8764412E-01
       -2   -1    0    0    0  501  0.00000000000E+00  0.00000000000E+00  0.13332194686E+04  0.13332194686E+04  0.25500000920E-02 0.  1.
        2   -1    0    0  501    0  0.00000000000E+00  0.00000000000E+00 -0.53852648023E+03  0.53852648023E+03  0.25500000920E-02 0. -1.
    10030    2    1    2    0    0  0.00000000000E+00  0.00000000000E+00  0.79469298837E+03  0.18717459488E+04  0.16946669145E+04 0.  0.
        3    1    3    3  502    0 -0.32143773177E+03  0.48974433259E+02  0.12615740443E+04  0.13028007484E+04  0.10100000352E+00 0.  1.
       -3    1    3    3    0  502  0.32143773177E+03 -0.48974433259E+02 -0.46688105594E+03  0.56894520045E+03  0.10100000352E+00 0. -1.
</event>
<event>
 5   0  0.3413839E-04  0.1084278E+04  0.7818609E-02  0.9220652E-01
       -1   -1    0    0    0  501  0.00000000000E+00  0.00000000000E+00  0.69267759641E+03  0.69267759643E+03  0.50400001928E-02 0.  1.
        1   -1    0    0  501    0  0.00000000000E+00  0.00000000000E+00 -0.42431684659E+03  0.42431684662E+03  0.50400001928E-02 0. -1.
    10030    2    1    2    0    0  0.00000000000E+00  0.00000000000E+00  0.26836074982E+03  0.11169944430E+04  0.10842781441E+04 0.  0.
        5    1    3    3  502    0  0.76928071527E+02  0.81875718673E+02 -0.41217205828E+03  0.42723466283E+03  0.46999998093E+01 0. -1.
       -5    1    3    3    0  502 -0.76928071527E+02 -0.81875718673E+02  0.68053280810E+03  0.68975978021E+03  0.46999998093E+01 0.  1.
</event>
<event>
 5   0  0.6547153E-04  0.1553571E+04  0.7818609E-02  0.8849590E-01
       -2   -1    0    0    0  501  0.00000000000E+00  0.00000000000E+00  0.26456686742E+03  0.26456686743E+03  0.25500000920E-02 0.  1.
        2   -1    0    0  501    0  0.00000000000E+00  0.00000000000E+00 -0.22806936429E+04  0.22806936429E+04  0.25500000920E-02 0. -1.
    10030    2    1    2    0    0  0.00000000000E+00  0.00000000000E+00 -0.20161267755E+04  0.25452605103E+04  0.15535713343E+04 0.  0.
        5    1    3    3  502    0  0.36130728251E+03  0.53949080331E+03 -0.17065768983E+04  0.18259299217E+04  0.46999998093E+01 0. -1.
       -5    1    3    3    0  502 -0.36130728251E+03 -0.53949080331E+03 -0.30954987721E+03  0.71933058863E+03  0.46999998093E+01 0.  1.
</event>
<event>
 5   0  0.6547153E-04  0.1827842E+04  0.7818609E-02  0.8691632E-01
       -2   -1    0    0    0  501  0.00000000000E+00  0.00000000000E+00  0.54716799747E+03  0.54716799747E+03  0.25500000920E-02 0. -1.
        2   -1    0    0  501    0  0.00000000000E+00  0.00000000000E+00 -0.15264993825E+04  0.15264993826E+04  0.25500000920E-02 0.  1.
    10030    2    1    2    0    0  0.00000000000E+00  0.00000000000E+00 -0.97933138508E+03  0.20736673800E+04  0.18278420176E+04 0.  0.
        5    1    3    3  502    0 -0.62190204963E+02  0.30725261900E+03 -0.14635822020E+04  0.14967854708E+04  0.46999998093E+01 0.  1.
       -5    1    3    3    0  502  0.62190204963E+02 -0.30725261900E+03  0.48425081696E+03  0.57688190923E+03  0.46999998093E+01 0. -1.
</event>
<event>
 5   0  0.6547153E-04  0.1818279E+04  0.7818609E-02  0.8696639E-01
       -2   -1    0    0    0  501  0.00000000000E+00  0.00000000000E+00  0.12074138151E+04  0.12074138151E+04  0.25500000920E-02 0. -1.
        2   -1    0    0  501    0  0.00000000000E+00  0.00000000000E+00 -0.68454966136E+03  0.68454966137E+03  0.25500000920E-02 0.  1.
    10030    2    1    2    0    0  0.00000000000E+00  0.00000000000E+00  0.52286415372E+03  0.18919634765E+04  0.18182790966E+04 0.  0.
        5    1    3    3  502    0 -0.58386887941E+03  0.35771163648E+03 -0.36084330406E+03  0.77400934316E+03  0.46999998093E+01 0.  1.
       -5    1    3    3    0  502  0.58386887941E+03 -0.35771163648E+03  0.88370745778E+03  0.11179541333E+04  0.46999998093E+01 0. -1.
</event>
<event>
 5   0  0.3404261E-04  0.1828515E+04  0.7818609E-02  0.8691281E-01
       -1   -1    0    0    0  501  0.00000000000E+00  0.00000000000E+00  0.11801648435E+04  0.11801648435E+04  0.50400001928E-02 0.  1.
        1   -1    0    0  501    0  0.00000000000E+00  0.00000000000E+00 -0.70826269922E+03  0.70826269924E+03  0.50400001928E-02 0. -1.
    10030    2    1    2    0    0  0.00000000000E+00  0.00000000000E+00  0.47190214429E+03  0.18884275428E+04  0.18285149577E+04 0.  0.
        1    1    3    3  502    0  0.28957848060E+03 -0.15600504622E+03  0.11169392456E+04  0.11643652989E+04  0.50400001928E-02 0.  1.
       -1    1    3    3    0  502 -0.28957848060E+03  0.15600504622E+03 -0.64503710132E+03  0.72406224386E+03  0.50400001928E-02 0. -1.
</event>
<event>
 5   0  0.6774451E-04  0.1814616E+04  0.7818609E-02  0.8698565E-01
       -2   -1    0    0    0  501  0.00000000000E+00  0.00000000000E+00  0.50865500027E+03  0.50865500028E+03  0.25500000920E-02 0.  1.
        2   -1    0    0  501    0  0.00000000000E+00  0.00000000000E+00 -0.16184018105E+04  0.16184018105E+04  0.25500000920E-02 0. -1.
    10030    2    1    2    0    0  0.00000000000E+00  0.00000000000E+00 -0.11097468102E+04  0.21270568108E+04  0.18146164039E+04 0.  0.
        4    1    3    3  502    0 -0.16966727611E+03  0.14139350230E+03  0.47666315989E+03  0.52534606496E+03  0.12699999809E+01 0.  1.
       -4    1    3    3    0  502  0.16966727611E+03 -0.14139350230E+03 -0.15864099701E+04  0.16017107458E+04  0.12699999809E+01 0. -1.
</event>
<event>
 5   0  0.3404261E-04  0.1815442E+04  0.7818609E-02  0.8698130E-01
       -1   -1    0    0    0  501  0.00000000000E+00  0.00000000000E+00  0.36705903540E+03  0.36705903544E+03  0.50400001928E-02 0. -1.
        1   -1    0    0  501    0  0.00000000000E+00  0.00000000000E+00 -0.22447543290E+04  0.22447543290E+04  0.50400001928E-02 0.  1.
    10030    2    1    2    0    0  0.00000000000E+00  0.00000000000E+00 -0.18776952936E+04  0.26118133644E+04  0.18154419393E+04 0.  0.
        1    1    3    3  502    0 -0.82960748587E+03  0.33973445604E+03 -0.11437717611E+04  0.14532315448E+04  0.50400001928E-02 0. -1.
       -1    1    3    3    0  502  0.82960748587E+03 -0.33973445604E+03 -0.73392353245E+03  0.11585818196E+04  0.50400001928E-02 0.  1.
</event>
<event>
 5   0  0.3404261E-04  0.1723846E+04  0.7818609E-02  0.8747880E-01
        1   -1    0    0  501    0  0.00000000000E+00  0.00000000000E+00  0.13138749630E+04  0.13138749630E+04  0.50400001928E-02 0.  1.
       -1   -1    0    0    0  501  0.00000000000E+00  0.00000000000E+00 -0.56543543907E+03  0.56543543910E+03  0.50400001928E-02 0. -1.
    10030    2    1    2    0    0  0.00000000000E+00  0.00000000000E+00  0.74843952395E+03  0.18793104021E+04  0.17238462421E+04 0.  0.
        1    1    3    3  502    0  0.13708273172E+03  0.35754993305E+03  0.12160496190E+04  0.12749158034E+04  0.50400001928E-02 0.  1.
       -1    1    3    3    0  502 -0.13708273172E+03 -0.35754993305E+03 -0.46761009503E+03  0.60439459871E+03  0.50400001928E-02 0. -1.
</event>
<event>
 5   0  0.3377273E-04  0.1758190E+04  0.7818609E-02  0.8728855E-01
       -1   -1    0    0    0  501  0.00000000000E+00  0.00000000000E+00  0.74351566549E+03  0.74351566551E+03  0.50400001928E-02 0.  1.
        1   -1    0    0  501    0  0.00000000000E+00  0.00000000000E+00 -0.10393974755E+04  0.10393974755E+04  0.50400001928E-02 0. -1.
    10030    2    1    2    0    0  0.00000000000E+00  0.00000000000E+00 -0.29588180997E+03  0.17829131410E+04  0.17581903261E+04 0.  0.
        2    1    3    3  502    0  0.51336621242E+02  0.32128066886E+03 -0.97609557564E+03  0.10288922634E+04  0.25500000920E-02 0. -1.
       -2    1    3    3    0  502 -0.51336621242E+02 -0.32128066886E+03  0.68021376566E+03  0.75402087761E+03  0.25500000920E-02 0.  1.
</event>
<event>
 5   0  0.6774451E-04  0.1795692E+04  0.7818609E-02  0.8708594E-01
       -2   -1    0    0    0  501  0.00000000000E+00  0.00000000000E+00  0.72724773116E+03  0.72724773117E+03  0.25500000920E-02 0. -1.
        2   -1    0    0  501    0  0.00000000000E+00  0.00000000000E+00 -0.11084637273E+04  0.11084637273E+04  0.25500000920E-02 0.  1.
    10030    2    1    2    0    0  0.00000000000E+00  0.00000000000E+00 -0.38121599611E+03  0.18357114584E+04  0.17956923241E+04 0.  0.
        4    1    3    3  502    0 -0.22511026080E+02  0.40848967413E+03  0.62642545426E+03  0.74818515275E+03  0.12699999809E+01 0. -1.
       -4    1    3    3    0  502  0.22511026080E+02 -0.40848967413E+03 -0.10076414504E+04  0.10875263057E+04  0.12699999809E+01 0.  1.
</event>
<event>
 5   0  0.3470962E-04  0.1763345E+04  0.7818609E-02  0.8726039E-01
       -1   -1    0    0    0  501  0.00000000000E+00  0.00000000000E+00  0.46342015067E+03  0.46342015070E+03  0.50400001928E-02 0.  1.
        1   -1    0    0  501    0  0.00000000000E+00  0.00000000000E+00 -0.16774113612E+04  0.16774113612E+04  0.50400001928E-02 0. -1.
    10030    2    1    2    0    0  0.00000000000E+00  0.00000000000E+00 -0.12139912105E+04  0.21408315119E+04  0.17633448055E+04 0.  0.
        4    1    3    3  502    0  0.43394282193E+03  0.41717968939E+03  0.17511640050E+03  0.62690719614E+03  0.12699999809E+01 0.  1.
       -4    1    3    3    0  502 -0.43394282193E+03 -0.41717968939E+03 -0.13891076110E+04  0.15139243157E+04  0.12699999809E+01 0. -1.
</event>
<event>
 5   0  0.3308275E-04  0.1814349E+04  0.7818609E-02  0.8698706E-01
        1   -1    0    0  501    0  0.00000000000E+00  0.00000000000E+00  0.81344949651E+03  0.81344949653E+03  0.50400001928E-02 0. -1.
       -1   -1    0    0    0  501  0.00000000000E+00  0.00000000000E+00 -0.10116989505E+04  0.10116989506E+04  0.50400001928E-02 0.  1.
    10030    2    1    2    0    0  0.00000000000E+00  0.00000000000E+00 -0.19824945404E+03  0.18251484471E+04  0.18143494724E+04 0.  0.
        3    1    3    3  502    0 -0.85442981149E+03  0.18040221622E+03 -0.34629171314E+03  0.93942174936E+03  0.10100000352E+00 0.  1.
       -3    1    3    3    0  502  0.85442981149E+03 -0.18040221622E+03  0.14804225910E+03  0.88572669772E+03  0.10100000352E+00 0. -1.
</event>
<event>
 5   0  0.6771967E-04  0.1806245E+04  0.7818609E-02  0.8702985E-01
       -2   -1    0    0    0  501  0.00000000000E+00  0.00000000000E+00  0.49677553110E+03  0.49677553111E+03  0.25500000920E-02 0. -1.
        2   -1    0    0  501    0  0.00000000000E+00  0.00000000000E+00 -0.16418486642E+04  0.16418486642E+04  0.25500000920E-02 0.  1.
    10030    2    1    2    0    0  0.00000000000E+00  0.00000000000E+00 -0.11450731331E+04  0.21386241953E+04  0.18062449913E+04 0.  0.
        1    1    3    3  502    0 -0.47247980026E+03 -0.13931816239E+03  0.32371285724E+03  0.58943763538E+03  0.50400001928E-02 0. -1.
       -1    1    3    3    0  502  0.47247980026E+03  0.13931816239E+03 -0.14687859903E+04  0.15491865599E+04  0.50400001928E-02 0.  1.
</event>
<event>
 5   0  0.6547153E-04  0.1803313E+04  0.7818609E-02  0.8704539E-01
       -2   -1    0    0    0  501  0.00000000000E+00  0.00000000000E+00  0.62276563797E+03  0.62276563797E+03  0.25500000920E-02 0.  1.
        2   -1    0    0  501    0  0.00000000000E+00  0.00000000000E+00 -0.13054427474E+04  0.13054427475E+04  0.25500000920E-02 0. -1.
    10030    2    1    2    0    0  0.00000000000E+00  0.00000000000E+00 -0.68267710948E+03  0.19282083854E+04  0.18033134896E+04 0.  0.
        5    1    3    3  502    0 -0.77430097380E+03  0.45610032764E+03 -0.41986384745E+03  0.99190586615E+03  0.46999998093E+01 0. -1.
       -5    1    3    3    0  502  0.77430097380E+03 -0.45610032764E+03 -0.26281326203E+03  0.93630251928E+03  0.46999998093E+01 0.  1.
</event>
<event>
 5   0  0.3470962E-04  0.1843378E+04  0.7818609E-02  0.8683566E-01
        1   -1    0    0  501    0  0.00000000000E+00  0.00000000000E+00  0.52263263962E+03  0.52263263964E+03  0.50400001928E-02 0. -1.
       -1   -1    0    0    0  501  0.00000000000E+00  0.00000000000E+00 -0.16254455863E+04  0.16254455863E+04  0.50400001928E-02 0.  1.
    10030    2    1    2    0    0  0.00000000000E+00  0.00000000000E+00 -0.11028129466E+04  0.21480782259E+04  0.18433783305E+04 0.  0.
        4    1    3    3  502    0 -0.74159240259E+03 -0.54707282123E+02 -0.11859914659E+04  0.13998319715E+04  0.12699999809E+01 0.  1.
       -4    1    3    3    0  502  0.74159240259E+03  0.54707282123E+02  0.83178519256E+02  0.74824625443E+03  0.12699999809E+01 0. -1.
</event>
<event>
 5   0  0.6774451E-04  0.1895675E+04  0.7818609E-02  0.8657012E-01
        2   -1    0    0  501    0  0.00000000000E+00  0.00000000000E+00  0.28882747684E+04  0.28882747684E+04  0.25500000920E-02 0. -1.
       -2   -1    0    0    0  501  0.00000000000E+00  0.00000000000E+00 -0.31104942743E+03  0.31104942744E+03  0.25500000920E-02 0.  1.
    10030    2    1    2    0    0  0.00000000000E+00  0.00000000000E+00  0.25772253410E+04  0.31993241959E+04  0.18956753024E+04 0.  0.
        4    1    3    3  502    0  0.26189789723E+02  0.67417915812E+03  0.24121560425E+04  0.25047358800E+04  0.12699999809E+01 0. -1.
       -4    1    3    3    0  502 -0.26189789723E+02 -0.67417915812E+03  0.16506929852E+03  0.69458831587E+03  0.12699999809E+01 0.  1.
</event>
<event>
 5   0  0.6853162E-04  0.1604651E+04  0.7818609E-02  0.8817696E-01
       -2   -1    0    0    0  501  0.00000000000E+00  0.00000000000E+00  0.52698711742E+03  0.52698711743E+03  0.25500000920E-02 0.  1.
        2   -1    0    0  501    0  0.00000000000E+00  0.00000000000E+00 -0.12215218235E+04  0.12215218235E+04  0.25500000920E-02 0. -1.
    10030    2    1    2    0    0  0.00000000000E+00  0.00000000000E+00 -0.69453470612E+03  0.17485089410E+04  0.16046510707E+04 0.  0.
        2    1    3    3  502    0  0.11948426907E+03 -0.12518541912E+03  0.50640858847E+03  0.53516122636E+03  0.25500000920E-02 0.  1.
       -2    1    3    3    0  502 -0.11948426907E+03  0.12518541912E+03 -0.12009432946E+04  0.12133477146E+04  0.25500000920E-02 0. -1.
</event>
<event>
 5   0  0.3404261E-04  0.1838017E+04  0.7818609E-02  0.8686340E-01
       -1   -1    0    0    0  501  0.00000000000E+00  0.00000000000E+00  0.62751959400E+03  0.62751959402E+03  0.50400001928E-02 0. -1.
        1   -1    0    0  501    0  0.00000000000E+00  0.00000000000E+00 -0.13458962242E+04  0.13458962243E+04  0.50400001928E-02 0.  1.
    10030    2    1    2    0    0  0.00000000000E+00  0.00000000000E+00 -0.71837663025E+03  0.19734158183E+04  0.18380165965E+04 0.  0.
        1    1    3    3  502    0 -0.55549015490E+03  0.28199818122E+03  0.36621901572E+03  0.72264005833E+03  0.50400001928E-02 0. -1.
       -1    1    3    3    0  502  0.55549015490E+03 -0.28199818122E+03 -0.10845956460E+04  0.12507757600E+04  0.50400001928E-02 0.  1.
</event>
<event>
 5   0  0.6853162E-04  0.1928429E+04  0.7818609E-02  0.8640834E-01
        2   -1    0    0  501    0  0.00000000000E+00  0.00000000000E+00  0.11053334012E+04  0.11053334012E+04  0.25500000920E-02 0.  1.
       -2   -1    0    0    0  501  0.00000000000E+00  0.00000000000E+00 -0.84111219278E+03  0.84111219278E+03  0.25500000920E-02 0. -1.
    10030    2    1    2    0    0  0.00000000000E+00  0.00000000000E+00  0.26422120837E+03  0.19464455939E+04  0.19284287913E+04 0.  0.
        2    1    3    3  502    0  0.94168674347E+03 -0.13576993550E+03 -0.25882980488E+02  0.95177588060E+03  0.25500000920E-02 0.  1.
       -2    1    3    3    0  502 -0.94168674347E+03  0.13576993550E+03  0.29010418886E+03  0.99466971333E+03  0.25500000920E-02 0. -1.
</event>
<event>
 5   0  0.3377273E-04  0.2437905E+04  0.7818609E-02  0.8425447E-01
        1   -1    0    0  501    0  0.00000000000E+00  0.00000000000E+00  0.19373994382E+04  0.19373994382E+04  0.50400001928E-02 0.  1.
       -1   -1    0    0    0  501  0.00000000000E+00  0.00000000000E+00 -0.76692792720E+03  0.76692792722E+03  0.50400001928E-02 0. -1.
    10030    2    1    2    0    0  0.00000000000E+00  0.00000000000E+00  0.11704715110E+04  0.27043273654E+04  0.24379054414E+04 0.  0.
        2    1    3    3  502    0 -0.99133249863E+03 -0.69845710654E+03  0.72228176111E+03  0.14114791514E+04  0.25500000920E-02 0.  1.
       -2    1    3    3    0  502  0.99133249863E+03  0.69845710654E+03  0.44818974990E+03  0.12928482140E+04  0.25500000920E-02 0. -1.
</event>
<event>
 5   0  0.3470962E-04  0.1817018E+04  0.7818609E-02  0.8697302E-01
       -1   -1    0    0    0  501  0.00000000000E+00  0.00000000000E+00  0.43697277124E+03  0.43697277126E+03  0.50400001928E-02 0.  1.
        1   -1    0    0  501    0  0.00000000000E+00  0.00000000000E+00 -0.18888787664E+04  0.18888787664E+04  0.50400001928E-02 0. -1.
    10030    2    1    2    0    0  0.00000000000E+00  0.00000000000E+00 -0.14519059951E+04  0.23258515376E+04  0.18170179846E+04 0.  0.
        4    1    3    3  502    0  0.44411584608E+02  0.39192882678E+03  0.32165162088E+03  0.50896166086E+03  0.12699999809E+01 0.  1.
       -4    1    3    3    0  502 -0.44411584608E+02 -0.39192882678E+03 -0.17735576160E+04  0.18168898768E+04  0.12699999809E+01 0. -1.
</event>
<event>
 5   0  0.6771967E-04  0.1771799E+04  0.7818609E-02  0.8721442E-01
       -2   -1    0    0    0  501  0.00000000000E+00  0.00000000000E+00  0.91272380178E+03  0.91272380178E+03  0.25500000920E-02 0.  1.
        2   -1    0    0  501    0  0.00000000000E+00  0.00000000000E+00 -0.85986380318E+03  0.85986380319E+03  0.25500000920E-02 0. -1.
    10030    2    1    2    0    0  0.00000000000E+00  0.00000000000E+00  0.52859998599E+02  0.17725876050E+04  0.17717992657E+04 0.  0.
        1    1    3    3  502    0 -0.62323961451E+03  0.37845135201E+01 -0.60343429027E+03  0.86751073903E+03  0.50400001928E-02 0. -1.
       -1    1    3    3    0  502  0.62323961451E+03 -0.37845135201E+01  0.65629428887E+03  0.90507686594E+03  0.50400001928E-02 0.  1.
</event>
<event>
 5   0  0.6853162E-04  0.1814209E+04  0.7818609E-02  0.8698780E-01
        2   -1    0    0  501    0  0.00000000000E+00  0.00000000000E+00  0.14809851391E+04  0.14809851391E+04  0.25500000920E-02 0.  1.
       -2   -1    0    0    0  501  0.00000000000E+00  0.00000000000E+00 -0.55560225911E+03  0.55560225912E+03  0.25500000920E-02 0. -1.
    10030    2    1    2    0    0  0.00000000000E+00  0.00000000000E+00  0.92538287996E+03  0.20365873982E+04  0.18142091268E+04 0.  0.
        2    1    3    3  502    0  0.21763919010E+03 -0.67121520898E+01 -0.52583004619E+03  0.56913013234E+03  0.25500000920E-02 0. -1.
       -2    1    3    3    0  502 -0.21763919010E+03  0.67121520898E+01  0.14512129261E+04  0.14674572658E+04  0.25500000920E-02 0.  1.
</event>
<event>
 5   0  0.3404261E-04  0.1853398E+04  0.7818609E-02  0.8678407E-01
       -1   -1    0    0    0  501  0.00000000000E+00  0.00000000000E+00  0.18953413152E+04  0.18953413152E+04  0.50400001928E-02 0.  1.
        1   -1    0    0  501    0  0.00000000000E+00  0.00000000000E+00 -0.45309587403E+03  0.45309587406E+03  0.50400001928E-02 0. -1.
    10030    2    1    2    0    0  0.00000000000E+00  0.00000000000E+00  0.14422454412E+04  0.23484371893E+04  0.18533983165E+04 0.  0.
        1    1    3    3  502    0  0.42899688941E+02  0.19782014171E+03 -0.42474172373E+03  0.47050900489E+03  0.50400001928E-02 0. -1.
       -1    1    3    3    0  502 -0.42899688941E+02 -0.19782014171E+03  0.18669871649E+04  0.18779281844E+04  0.50400001928E-02 0.  1.
</event>
<event>
 5   0  0.3377273E-04  0.1930517E+04  0.7818609E-02  0.8639814E-01
        1   -1    0    0  501    0  0.00000000000E+00  0.00000000000E+00  0.11983620308E+04  0.11983620308E+04  0.50400001928E-02 0. -1.
       -1   -1    0    0    0  501  0.00000000000E+00  0.00000000000E+00 -0.77749768003E+03  0.77749768004E+03  0.50400001928E-02 0.  1.
    10030    2    1    2    0    0  0.00000000000E+00  0.00000000000E+00  0.42086435073E+03  0.19758597108E+04  0.19305167171E+04 0.  0.
        2    1    3    3  502    0 -0.28656090075E+03 -0.33933766538E+03 -0.66670108144E+03  0.80109770502E+03  0.25500000920E-02 0.  1.
       -2    1    3    3    0  502  0.28656090075E+03  0.33933766538E+03  0.10875654322E+04  0.11747620058E+04  0.25500000920E-02 0. -1.
</event>
<event>
 5   0  0.6771967E-04  0.1763628E+04  0.7818609E-02  0.8725884E-01
        2   -1    0    0  501    0  0.00000000000E+00  0.00000000000E+00  0.12932705777E+04  0.12932705777E+04  0.25500000920E-02 0.  1.
       -2   -1    0    0    0  501  0.00000000000E+00  0.00000000000E+00 -0.60126329465E+03  0.60126329466E+03  0.25500000920E-02 0. -1.
    10030    2    1    2    0    0  0.00000000000E+00  0.00000000000E+00  0.69200728304E+03  0.18945338724E+04  0.17636282244E+04 0.  0.
        1    1    3    3  502    0  0.27863338589E+03 -0.83320921455E+03  0.42726201066E+03  0.97694779017E+03  0.50400001928E-02 0. -1.
       -1    1    3    3    0  502 -0.27863338589E+03  0.83320921455E+03  0.26474527238E+03  0.91758608218E+03  0.50400001928E-02 0.  1.
</event>
<event>
 5   0  0.3377273E-04  0.1762275E+04  0.7818609E-02  0.8726623E-01
        1   -1    0    0  501    0  0.00000000000E+00  0.00000000000E+00  0.11156397541E+04  0.11156397541E+04  0.50400001928E-02 0. -1.
       -1   -1    0    0    0  501  0.00000000000E+00  0.00000000000E+00 -0.69592646364E+03  0.69592646366E+03  0.50400001928E-02 0.  1.
    10030    2    1    2    0    0  0.00000000000E+00  0.00000000000E+00  0.41971329043E+03  0.18115662177E+04  0.17622749261E+04 0.  0.
        2    1    3    3  502    0  0.68814180479E+02  0.11700122338E+03 -0.68511445051E+03  0.69843144833E+03  0.25500000920E-02 0.  1.
       -2    1    3    3    0  502 -0.68814180479E+02 -0.11700122338E+03  0.11048277409E+04  0.11131347694E+04  0.25500000920E-02 0. -1.
</event>
<event>
 5   0  0.3308275E-04  0.1723307E+04  0.7818609E-02  0.8748182E-01
        1   -1    0    0  501    0  0.00000000000E+00  0.00000000000E+00  0.10554719239E+04  0.10554719239E+04  0.50400001928E-02 0. -1.
       -1   -1    0    0    0  501  0.00000000000E+00  0.00000000000E+00 -0.70342641426E+03  0.70342641428E+03  0.50400001928E-02 0.  1.
    10030    2    1    2    0    0  0.00000000000E+00  0.00000000000E+00  0.35204550965E+03  0.17588983382E+04  0.17233070891E+04 0.  0.
        3    1    3    3  502    0  0.39228835053E+02 -0.84884692304E+03  0.32168254518E+03  0.90860314237E+03  0.10100000352E+00 0. -1.
       -3    1    3    3    0  502 -0.39228835053E+02  0.84884692304E+03  0.30362964469E+02  0.85029519584E+03  0.10100000352E+00 0.  1.
</event>
<event>
 5   0  0.6774451E-04  0.1484808E+04  0.7818609E-02  0.8894619E-01
       -2   -1    0    0    0  501  0.00000000000E+00  0.00000000000E+00  0.59635866690E+03  0.59635866690E+03  0.25500000920E-02 0. -1.
        2   -1    0    0  501    0  0.00000000000E+00  0.00000000000E+00 -0.92421502181E+03  0.92421502182E+03  0.25500000920E-02 0.  1.
    10030    2    1    2    0    0  0.00000000000E+00  0.00000000000E+00 -0.32785635491E+03  0.15205736887E+04  0.14848079180E+04 0.  0.
        4    1    3    3  502    0 -0.48966027134E+03  0.53615854281E+03 -0.32234387383E+03  0.79444342168E+03  0.12699999809E+01 0.  1.
       -4    1    3    3    0  502  0.48966027134E+03 -0.53615854281E+03 -0.55124810868E+01  0.72613026704E+03  0.12699999809E+01 0. -1.
</event>
<event>
 5   0  0.6774451E-04  0.1815072E+04  0.7818609E-02  0.8698325E-01
        2   -1    0    0  501    0  0.00000000000E+00  0.00000000000E+00  0.76866459828E+03  0.76866459828E+03  0.25500000920E-02 0.  1.
       -2   -1    0    0    0  501  0.00000000000E+00  0.00000000000E+00 -0.10714969076E+04  0.10714969076E+04  0.25500000920E-02 0. -1.
    10030    2    1    2    0    0  0.00000000000E+00  0.00000000000E+00 -0.30283230929E+03  0.18401615058E+04  0.18150721639E+04 0.  0.
        4    1    3    3  502    0 -0.74062508266E+03  0.39838125148E+03  0.19445493972E+03  0.86316132390E+03  0.12699999809E+01 0. -1.
       -4    1    3    3    0  502  0.74062508266E+03 -0.39838125148E+03 -0.49728724901E+03  0.97700018195E+03  0.12699999809E+01 0.  1.
</event>
<event>
 5   0  0.6774451E-04  0.1157968E+04  0.7818609E-02  0.9150464E-01
       -2   -1    0    0    0  501  0.00000000000E+00  0.00000000000E+00  0.20622179763E+03  0.20622179765E+03  0.25500000920E-02 0.  1.
        2   -1    0    0  501    0  0.00000000000E+00  0.00000000000E+00 -0.16255420411E+04  0.16255420411E+04  0.25500000920E-02 0. -1.
    10030    2    1    2    0    0  0.00000000000E+00  0.00000000000E+00 -0.14193202435E+04  0.18317638388E+04  0.11579675330E+04 0.  0.
        4    1    3    3  502    0  0.26179798017E+03 -0.28365978995E+03 -0.27029585661E+02  0.38695383478E+03  0.12699999809E+01 0.  1.
       -4    1    3    3    0  502 -0.26179798017E+03  0.28365978995E+03 -0.13922906578E+04  0.14448100040E+04  0.12699999809E+01 0. -1.
</event>
<event>
 5   0  0.6929121E-04  0.1650153E+04  0.7818609E-02  0.8790316E-01
        2   -1    0    0  501    0  0.00000000000E+00  0.00000000000E+00  0.76225662801E+03  0.76225662801E+03  0.25500000920E-02 0. -1.
       -2   -1    0    0    0  501  0.00000000000E+00  0.00000000000E+00 -0.89307301792E+03  0.89307301792E+03  0.25500000920E-02 0.  1.
    10030    2    1    2    0    0  0.00000000000E+00  0.00000000000E+00 -0.13081638991E+03  0.16553296459E+04  0.16501525108E+04 0.  0.
        3    1    3    3  502    0  0.78616637112E+03  0.13335946308E+03  0.14717293912E+03  0.81086508970E+03  0.10100000352E+00 0. -1.
       -3    1    3    3    0  502 -0.78616637112E+03 -0.13335946308E+03 -0.27798932903E+03  0.84446455623E+03  0.10100000352E+00 0.  1.
</event>
<event>
 5   0  0.3404261E-04  0.1867832E+04  0.7818609E-02  0.8671036E-01
        1   -1    0    0  501    0  0.00000000000E+00  0.00000000000E+00  0.12210924498E+04  0.12210924498E+04  0.50400001928E-02 0.  1.
       -1   -1    0    0    0  501  0.00000000000E+00  0.00000000000E+00 -0.71427784096E+03  0.71427784098E+03  0.50400001928E-02 0. -1.
    10030    2    1    2    0    0  0.00000000000E+00  0.00000000000E+00  0.50681460882E+03  0.19353702908E+04  0.18678321966E+04 0.  0.
        1    1    3    3  502    0  0.51608293398E+03 -0.49987311853E+03  0.87162550568E+03  0.11295776873E+04  0.50400001928E-02 0.  1.
       -1    1    3    3    0  502 -0.51608293398E+03  0.49987311853E+03 -0.36481089686E+03  0.80579260351E+03  0.50400001928E-02 0. -1.
</event>
<event>
 5   0  0.6853162E-04  0.1928701E+04  0.7818609E-02  0.8640701E-01
       -2   -1    0    0    0  501  0.00000000000E+00  0.00000000000E+00  0.35484540238E+03  0.35484540239E+03  0.25500000920E-02 0.  1.
        2   -1    0    0  501    0  0.00000000000E+00  0.00000000000E+00 -0.26207794750E+04  0.26207794750E+04  0.25500000920E-02 0. -1.
    10030    2    1    2    0    0  0.00000000000E+00  0.00000000000E+00 -0.22659340727E+04  0.29756248774E+04  0.19287006480E+04 0.  0.
        2    1    3    3  502    0 -0.16670585303E+03  0.30021923435E+03 -0.25232541707E+04  0.25465140958E+04  0.25500000920E-02 0. -1.
       -2    1    3    3    0  502  0.16670585303E+03 -0.30021923435E+03  0.25732009800E+03  0.42911078168E+03  0.25500000920E-02 0.  1.
</event>
<event>
 5   0  0.6771967E-04  0.1414898E+04  0.7818609E-02  0.8943104E-01
       -2   -1    0    0    0  501  0.00000000000E+00  0.00000000000E+00  0.27128845241E+03  0.27128845242E+03  0.25500000920E-02 0. -1.
        2   -1    0    0  501    0  0.00000000000E+00  0.00000000000E+00 -0.18448421629E+04  0.18448421629E+04  0.25500000920E-02 0.  1.
    10030    2    1    2    0    0  0.00000000000E+00  0.00000000000E+00 -0.15735537105E+04  0.21161306153E+04  0.14148984067E+04 0.  0.
        1    1    3    3  502    0 -0.15874441356E+03 -0.45774097512E+03 -0.15766498988E+02  0.48474237659E+03  0.50400001928E-02 0. -1.
       -1    1    3    3    0  502  0.15874441356E+03  0.45774097512E+03 -0.15577872115E+04  0.16313882387E+04  0.50400001928E-02 0.  1.
</event>
<event>
 5   0  0.3377273E-04  0.1759796E+04  0.7818609E-02  0.8727976E-01
       -1   -1    0    0    0  501  0.00000000000E+00  0.00000000000E+00  0.59689472337E+03  0.59689472339E+03  0.50400001928E-02 0.  1.
        1   -1    0    0  501    0  0.00000000000E+00  0.00000000000E+00 -0.12970807459E+04  0.12970807459E+04  0.50400001928E-02 0. -1.
    10030    2    1    2    0    0  0.00000000000E+00  0.00000000000E+00 -0.70018602249E+03  0.18939754693E+04  0.17597961848E+04 0.  0.
        2    1    3    3  502    0 -0.18197791486E+03 -0.85642271033E+03 -0.25599163566E+03  0.91219928623E+03  0.25500000920E-02 0.  1.
       -2    1    3    3    0  502  0.18197791486E+03  0.85642271033E+03 -0.44419438683E+03  0.98177618303E+03  0.25500000920E-02 0. -1.
</event>
<event>
 5   0  0.3377273E-04  0.1850264E+04  0.7818609E-02  0.8680017E-01
       -1   -1    0    0    0  501  0.00000000000E+00  0.00000000000E+00  0.94288972259E+03  0.94288972260E+03  0.50400001928E-02 0. -1.
        1   -1    0    0  501    0  0.00000000000E+00  0.00000000000E+00 -0.90770892904E+03  0.90770892906E+03  0.50400001928E-02 0.  1.
    10030    2    1    2    0    0  0.00000000000E+00  0.00000000000E+00  0.35180793548E+02  0.18505986517E+04  0.18502642193E+04 0.  0.
        2    1    3    3  502    0 -0.79696198590E+03  0.25191377156E+03  0.41422287067E+03  0.93283950488E+03  0.25500000920E-02 0. -1.
       -2    1    3    3    0  502  0.79696198590E+03 -0.25191377156E+03 -0.37904207712E+03  0.91775914678E+03  0.25500000920E-02 0.  1.
</event>
<event>
 5   0  0.6771967E-04  0.1784954E+04  0.7818609E-02  0.8714342E-01
       -2   -1    0    0    0  501  0.00000000000E+00  0.00000000000E+00  0.61434292615E+03  0.61434292616E+03  0.25500000920E-02 0. -1.
        2   -1    0    0  501    0  0.00000000000E+00  0.00000000000E+00 -0.12965318652E+04  0.12965318652E+04  0.25500000920E-02 0.  1.
    10030    2    1    2    0    0  0.00000000000E+00  0.00000000000E+00 -0.68218893900E+03  0.19108747913E+04  0.17849539825E+04 0.  0.
        1    1    3    3  502    0 -0.47452360200E+03  0.47788058990E+03 -0.96804744228E+03  0.11792617850E+04  0.50400001928E-02 0.  1.
       -1    1    3    3    0  502  0.47452360200E+03 -0.47788058990E+03  0.28585850328E+03  0.73161300630E+03  0.50400001928E-02 0. -1.
</event>
<event>
 5   0  0.6774451E-04  0.1564678E+04  0.7818609E-02  0.8842546E-01
        2   -1    0    0  501    0  0.00000000000E+00  0.00000000000E+00  0.16720708099E+04  0.16720708099E+04  0.25500000920E-02 0.  1.
       -2   -1    0    0    0  501  0.00000000000E+00  0.00000000000E+00 -0.36604583907E+03  0.36604583908E+03  0.25500000920E-02 0. -1.
    10030    2    1    2    0    0  0.00000000000E+00  0.00000000000E+00  0.13060249709E+04  0.20381166490E+04  0.15646783217E+04 0.  0.
        4    1    3    3  502    0 -0.65482270828E+03  0.28016307257E+02  0.12094366252E+04  0.13756148647E+04  0.12699999809E+01 0.  1.
       -4    1    3    3    0  502  0.65482270828E+03 -0.28016307257E+02  0.96588345646E+02  0.66250178428E+03  0.12699999809E+01 0. -1.
</event>
<event>
 5   0  0.6774451E-04  0.1796839E+04  0.7818609E-02  0.8707982E-01
        2   -1    0    0  501    0  0.00000000000E+00  0.00000000000E+00  0.15523398835E+04  0.15523398835E+04  0.25500000920E-02 0. -1.
       -2   -1    0    0    0  501  0.00000000000E+00  0.00000000000E+00 -0.51996169636E+03  0.51996169637E+03  0.25500000920E-02 0.  1.
    10030    2    1    2    0    0  0.00000000000E+00  0.00000000000E+00  0.10323781871E+04  0.20723015798E+04  0.17968386451E+04 0.  0.
        4    1    3    3  502    0  0.31722446721E+03 -0.82404437740E+03  0.70735659097E+03  0.11313865203E+04  0.12699999809E+01 0.  1.
       -4    1    3    3    0  502 -0.31722446721E+03  0.82404437740E+03  0.32502159615E+03  0.94091505960E+03  0.12699999809E+01 0. -1.
</event>
<event>
 5   0  0.3308275E-04  0.1785506E+04  0.7818609E-02  0.8714045E-01
       -1   -1    0    0    0  501  0.00000000000E+00  0.00000000000E+00  0.50577192995E+03  0.50577192997E+03  0.50400001928E-02 0.  1.
        1   -1    0    0  501    0  0.00000000000E+00  0.00000000000E+00 -0.15758254554E+04  0.15758254554E+04  0.50400001928E-02 0. -1.
    10030    2    1    2    0    0  0.00000000000E+00  0.00000000000E+00 -0.10700535255E+04  0.20815973854E+04  0.17855064065E+04 0.  0.
        3    1    3    3  502    0 -0.41472245197E+03  0.72271928581E+03 -0.16143247280E+03  0.84875104225E+03  0.10100000352E+00 0.  1.
       -3    1    3    3    0  502  0.41472245197E+03 -0.72271928581E+03 -0.90862105265E+03  0.12328463431E+04  0.10100000352E+00 0. -1.
</event>
<event>
 5   0  0.3413839E-04  0.1772670E+04  0.7818609E-02  0.8720970E-01
        1   -1    0    0  501    0  0.00000000000E+00  0.00000000000E+00  0.19911921593E+04  0.19911921594E+04  0.50400001928E-02 0. -1.
       -1   -1    0    0    0  501  0.00000000000E+00  0.00000000000E+00 -0.39453225762E+03  0.39453225765E+03  0.50400001928E-02 0.  1.
    10030    2    1    2    0    0  0.00000000000E+00  0.00000000000E+00  0.15966599017E+04  0.23857244170E+04  0.17726697809E+04 0.  0.
        5    1    3    3  502    0  0.66353707818E+03  0.46962385743E+03  0.32300095741E+03  0.87474552303E+03  0.46999998093E+01 0. -1.
       -5    1    3    3    0  502 -0.66353707818E+03 -0.46962385743E+03  0.12736589443E+04  0.15109788940E+04  0.46999998093E+01 0.  1.
</event>
<event>
 5   0  0.6853162E-04  0.1497215E+04  0.7818609E-02  0.8886307E-01
        2   -1    0    0  501    0  0.00000000000E+00  0.00000000000E+00  0.24201973486E+03  0.24201973487E+03  0.25500000920E-02 0.  1.
       -2   -1    0    0    0  501  0.00000000000E+00  0.00000000000E+00 -0.23155674816E+04  0.23155674816E+04  0.25500000920E-02 0. -1.
    10030    2    1    2    0    0  0.00000000000E+00  0.00000000000E+00 -0.20735477468E+04  0.25575872165E+04  0.14972147848E+04 0.  0.
        2    1    3    3  502    0  0.26050254226E+03 -0.14994416515E+03  0.13441457972E+03  0.32925993748E+03  0.25500000920E-02 0.  1.
       -2    1    3    3    0  502 -0.26050254226E+03  0.14994416515E+03 -0.22079623265E+04  0.22283272790E+04  0.25500000920E-02 0. -1.
</event>
<event>
 5   0  0.3377273E-04  0.1822579E+04  0.7818609E-02  0.8694384E-01
        1   -1    0    0  501    0  0.00000000000E+00  0.00000000000E+00  0.90721551570E+03  0.90721551571E+03  0.50400001928E-02 0. -1.
       -1   -1    0    0    0  501  0.00000000000E+00  0.00000000000E+00 -0.91538159629E+03  0.91538159631E+03  0.50400001928E-02 0.  1.
    10030    2    1    2    0    0  0.00000000000E+00  0.00000000000E+00 -0.81660805931E+01  0.18225971120E+04  0.18225788180E+04 0.  0.
        2    1    3    3  502    0 -0.74258411134E+03  0.29373126249E+03  0.43494206059E+03  0.90933151989E+03  0.25500000920E-02 0. -1.
       -2    1    3    3    0  502  0.74258411134E+03 -0.29373126249E+03 -0.44310814119E+03  0.91326559213E+03  0.25500000920E-02 0.  1.
</event>
<event>
 5   0  0.3377273E-04  0.1819889E+04  0.7818609E-02  0.8695794E-01
        1   -1    0    0  501    0  0.00000000000E+00  0.00000000000E+00  0.69063862897E+03  0.69063862899E+03  0.50400001928E-02 0. -1.
       -1   -1    0    0    0  501  0.00000000000E+00  0.00000000000E+00 -0.11988890210E+04  0.11988890210E+04  0.50400001928E-02 0.  1.
    10030    2    1    2    0    0  0.00000000000E+00  0.00000000000E+00 -0.50825039204E+03  0.18895276500E+04  0.18198890843E+04 0.  0.
        2    1    3    3  502    0  0.20768100500E+03  0.29298129894E+03  0.61394755376E+03  0.71126720727E+03  0.25500000920E-02 0. -1.
       -2    1    3    3    0  502 -0.20768100500E+03 -0.29298129894E+03 -0.11221979458E+04  0.11782604427E+04  0.25500000920E-02 0.  1.
</event>
<event>
 5   0  0.3404261E-04  0.1828772E+04  0.7818609E-02  0.8691147E-01
        1   -1    0    0  501    0  0.00000000000E+00  0.00000000000E+00  0.11885678342E+04  0.11885678342E+04  0.50400001928E-02 0.  1.
       -1   -1    0    0    0  501  0.00000000000E+00  0.00000000000E+00 -0.70345325025E+03  0.70345325027E+03  0.50400001928E-02 0. -1.
    10030    2    1    2    0    0  0.00000000000E+00  0.00000000000E+00  0.48511458395E+03  0.18920210845E+04  0.18287721631E+04 0.  0.
        1    1    3    3  502    0  0.20771774190E+03 -0.88346609781E+03  0.12715161523E+03  0.91642050367E+03  0.50400001928E-02 0.  1.
       -1    1    3    3    0  502 -0.20771774190E+03  0.88346609781E+03  0.35796296872E+03  0.97560058081E+03  0.50400001928E-02 0. -1.
</event>
<event>
 5   0  0.6853162E-04  0.1771840E+04  0.7818609E-02  0.8721420E-01
        2   -1    0    0  501    0  0.00000000000E+00  0.00000000000E+00  0.18889775806E+04  0.18889775806E+04  0.25500000920E-02 0.  1.
       -2   -1    0    0    0  501  0.00000000000E+00  0.00000000000E+00 -0.41549139687E+03  0.41549139687E+03  0.25500000920E-02 0. -1.
    10030    2    1    2    0    0  0.00000000000E+00  0.00000000000E+00  0.14734861838E+04  0.23044689775E+04  0.17718396470E+04 0.  0.
        2    1    3    3  502    0  0.29438907762E+03 -0.72476977433E+03  0.19593751958E+03  0.80644135955E+03  0.25500000920E-02 0. -1.
       -2    1    3    3    0  502 -0.29438907762E+03  0.72476977433E+03  0.12775486642E+04  0.14980276180E+04  0.25500000920E-02 0.  1.
</event>
<event>
 5   0  0.6774451E-04  0.1736484E+04  0.7818609E-02  0.8740825E-01
       -2   -1    0    0    0  501  0.00000000000E+00  0.00000000000E+00  0.89941888078E+03  0.89941888078E+03  0.25500000920E-02 0. -1.
        2   -1    0    0  501    0  0.00000000000E+00  0.00000000000E+00 -0.83814629461E+03  0.83814629462E+03  0.25500000920E-02 0.  1.
    10030    2    1    2    0    0  0.00000000000E+00  0.00000000000E+00  0.61272586165E+02  0.17375651754E+04  0.17364844972E+04 0.  0.
        4    1    3    3  502    0 -0.85273153581E+03 -0.50091298060E+02  0.18624120321E+03  0.87426975756E+03  0.12699999809E+01 0. -1.
       -4    1    3    3    0  502  0.85273153581E+03  0.50091298060E+02 -0.12496861705E+03  0.86329541784E+03  0.12699999809E+01 0.  1.
</event>
<event>
 5   0  0.3404261E-04  0.1793172E+04  0.7818609E-02  0.8709939E-01
       -1   -1    0    0    0  501  0.00000000000E+00  0.00000000000E+00  0.39141156471E+03  0.39141156475E+03  0.50400001928E-02 0. -1.
        1   -1    0    0  501    0  0.00000000000E+00  0.00000000000E+00 -0.20537627305E+04  0.20537627305E+04  0.50400001928E-02 0.  1.
    10030    2    1    2    0    0  0.00000000000E+00  0.00000000000E+00 -0.16623511657E+04  0.24451742952E+04  0.17931720318E+04 0.  0.
        1    1    3    3  502    0 -0.69155753764E+03  0.38462764802E+03 -0.25639441764E+03  0.83182230849E+03  0.50400001928E-02 0. -1.
       -1    1    3    3    0  502  0.69155753764E+03 -0.38462764802E+03 -0.14059567481E+04  0.16133519867E+04  0.50400001928E-02 0.  1.
</event>
<event>
 5   0  0.6771967E-04  0.1761694E+04  0.7818609E-02  0.8726940E-01
        2   -1    0    0  501    0  0.00000000000E+00  0.00000000000E+00  0.10999471791E+04  0.10999471791E+04  0.25500000920E-02 0. -1.
       -2   -1    0    0    0  501  0.00000000000E+00  0.00000000000E+00 -0.70538933932E+03  0.70538933933E+03  0.25500000920E-02 0.  1.
    10030    2    1    2    0    0  0.00000000000E+00  0.00000000000E+00  0.39455783981E+03  0.18053365185E+04  0.17616935193E+04 0.  0.
        1    1    3    3  502    0 -0.63758715815E+03  0.58235336898E+03  0.37547808239E+03  0.94161383857E+03  0.50400001928E-02 0.  1.
       -1    1    3    3    0  502  0.63758715815E+03 -0.58235336898E+03  0.19079757421E+02  0.86372267990E+03  0.50400001928E-02 0. -1.
</event>
<event>
 5   0  0.3377273E-04  0.1788244E+04  0.7818609E-02  0.8712576E-01
        1   -1    0    0  501    0  0.00000000000E+00  0.00000000000E+00  0.12240069433E+04  0.12240069433E+04  0.50400001928E-02 0. -1.
       -1   -1    0    0    0  501  0.00000000000E+00  0.00000000000E+00 -0.65314543642E+03  0.65314543644E+03  0.50400001928E-02 0.  1.
    10030    2    1    2    0    0  0.00000000000E+00  0.00000000000E+00  0.57086150688E+03  0.18771523798E+04  0.17882444455E+04 0.  0.
        2    1    3    3  502    0 -0.20732623427E+03 -0.79400579676E+03  0.65808090375E+03  0.10519029654E+04  0.25500000920E-02 0. -1.
       -2    1    3    3    0  502  0.20732623427E+03  0.79400579676E+03 -0.87219396878E+02  0.82524941436E+03  0.25500000920E-02 0.  1.
</event>
<event>
 5   0  0.3404261E-04  0.1738983E+04  0.7818609E-02  0.8739438E-01
       -1   -1    0    0    0  501  0.00000000000E+00  0.00000000000E+00  0.91816609910E+03  0.91816609911E+03  0.50400001928E-02 0. -1.
        1   -1    0    0  501    0  0.00000000000E+00  0.00000000000E+00 -0.82339721982E+03  0.82339721983E+03  0.50400001928E-02 0.  1.
    10030    2    1    2    0    0  0.00000000000E+00  0.00000000000E+00  0.94768879279E+02  0.17415633189E+04  0.17389829365E+04 0.  0.
        1    1    3    3  502    0  0.42555445502E+03  0.22839761545E+03  0.77147412336E+03  0.91018371111E+03  0.50400001928E-02 0. -1.
       -1    1    3    3    0  502 -0.42555445502E+03 -0.22839761545E+03 -0.67670524408E+03  0.83137960783E+03  0.50400001928E-02 0.  1.
</event>
<event>
 5   0  0.3404261E-04  0.1720099E+04  0.7818609E-02  0.8749984E-01
       -1   -1    0    0    0  501  0.00000000000E+00  0.00000000000E+00  0.70174970073E+03  0.70174970075E+03  0.50400001928E-02 0. -1.
        1   -1    0    0  501    0  0.00000000000E+00  0.00000000000E+00 -0.10540581340E+04  0.10540581341E+04  0.50400001928E-02 0.  1.
    10030    2    1    2    0    0  0.00000000000E+00  0.00000000000E+00 -0.35230843331E+03  0.17558078348E+04  0.17200988113E+04 0.  0.
        1    1    3    3  502    0  0.80751718000E+02 -0.49572681681E+03 -0.88880184184E+03  0.10208989328E+04  0.50400001928E-02 0.  1.
       -1    1    3    3    0  502 -0.80751718000E+02  0.49572681681E+03  0.53649340853E+03  0.73490890203E+03  0.50400001928E-02 0. -1.
</event>
<event>
 5   0  0.3404261E-04  0.1755710E+04  0.7818609E-02  0.8730213E-01
       -1   -1    0    0    0  501  0.00000000000E+00  0.00000000000E+00  0.10747949962E+04  0.10747949962E+04  0.50400001928E-02 0.  1.
        1   -1    0    0  501    0  0.00000000000E+00  0.00000000000E+00 -0.71700161987E+03  0.71700161989E+03  0.50400001928E-02 0. -1.
    10030    2    1    2    0    0  0.00000000000E+00  0.00000000000E+00  0.35779337629E+03  0.17917966161E+04  0.17557104013E+04 0.  0.
        1    1    3    3  502    0 -0.29487164077E+03  0.13021504765E+03 -0.65441800704E+03  0.72949857514E+03  0.50400001928E-02 0. -1.
       -1    1    3    3    0  502  0.29487164077E+03 -0.13021504765E+03  0.10122113833E+04  0.10622980409E+04  0.50400001928E-02 0.  1.
</event>
<event>
 5   0  0.3404261E-04  0.1711003E+04  0.7818609E-02  0.8755114E-01
       -1   -1    0    0    0  501  0.00000000000E+00  0.00000000000E+00  0.65458357087E+03  0.65458357089E+03  0.50400001928E-02 0.  1.
        1   -1    0    0  501    0  0.00000000000E+00  0.00000000000E+00 -0.11180887156E+04  0.11180887156E+04  0.50400001928E-02 0. -1.
    10030    2    1    2    0    0  0.00000000000E+00  0.00000000000E+00 -0.46350514475E+03  0.17726722865E+04  0.17110026348E+04 0.  0.
        1    1    3    3  502    0 -0.14486384360E+02 -0.26095460010E+02  0.65404399397E+03  0.65472465544E+03  0.50400001928E-02 0.  1.
       -1    1    3    3    0  502  0.14486384360E+02  0.26095460010E+02 -0.11175491387E+04  0.11179476311E+04  0.50400001928E-02 0. -1.
</event>
<event>
 5   0  0.3377273E-04  0.1780782E+04  0.7818609E-02  0.8716587E-01
        1   -1    0    0  501    0  0.00000000000E+00  0.00000000000E+00  0.17369483027E+04  0.17369483027E+04  0.50400001928E-02 0. -1.
       -1   -1    0    0    0  501  0.00000000000E+00  0.00000000000E+00 -0.45643051849E+03  0.45643051851E+03  0.50400001928E-02 0.  1.
    10030    2    1    2    0    0  0.00000000000E+00  0.00000000000E+00  0.12805177842E+04  0.21933788212E+04  0.17807820916E+04 0.  0.
        2    1    3    3  502    0 -0.79860529171E+03  0.73205486038E+02  0.16375599695E+03  0.81850197414E+03  0.25500000920E-02 0.  1.
       -2    1    3    3    0  502  0.79860529171E+03 -0.73205486038E+02  0.11167617873E+04  0.13748768471E+04  0.25500000920E-02 0. -1.
</event>
<event>
 5   0  0.3404261E-04  0.1779009E+04  0.7818609E-02  0.8717542E-01
       -1   -1    0    0    0  501  0.00000000000E+00  0.00000000000E+00  0.71300732711E+03  0.71300732712E+03  0.50400001928E-02 0.  1.
        1   -1    0    0  501    0  0.00000000000E+00  0.00000000000E+00 -0.11096919386E+04  0.11096919386E+04  0.50400001928E-02 0. -1.
    10030    2    1    2    0    0  0.00000000000E+00  0.00000000000E+00 -0.39668461147E+03  0.18226992657E+04  0.17790092558E+04 0.  0.
        1    1    3    3  502    0  0.31966613201E+03 -0.35314278055E+03 -0.96800491329E+03  0.10788557696E+04  0.50400001928E-02 0. -1.
       -1    1    3    3    0  502 -0.31966613201E+03  0.35314278055E+03  0.57132030182E+03  0.74384349611E+03  0.50400001928E-02 0.  1.
</event>
<event>
 5   0  0.6853162E-04  0.1792987E+04  0.7818609E-02  0.8710038E-01
        2   -1    0    0  501    0  0.00000000000E+00  0.00000000000E+00  0.16727085783E+04  0.16727085783E+04  0.25500000920E-02 0.  1.
       -2   -1    0    0    0  501  0.00000000000E+00  0.00000000000E+00 -0.48047851017E+03  0.48047851018E+03  0.25500000920E-02 0. -1.
    10030    2    1    2    0    0  0.00000000000E+00  0.00000000000E+00  0.11922300681E+04  0.21531870885E+04  0.17929869220E+04 0.  0.
        2    1    3    3  502    0  0.13424851578E+03 -0.70054277337E+03 -0.56046309448E+02  0.71548866526E+03  0.25500000920E-02 0. -1.
       -2    1    3    3    0  502 -0.13424851578E+03  0.70054277337E+03  0.12482763776E+04  0.14376984232E+04  0.25500000920E-02 0.  1.
</event>
<event>
 5   0  0.3377273E-04  0.1820662E+04  0.7818609E-02  0.8695388E-01
        1   -1    0    0  501    0  0.00000000000E+00  0.00000000000E+00  0.14374144689E+04  0.14374144689E+04  0.50400001928E-02 0.  1.
       -1   -1    0    0    0  501  0.00000000000E+00  0.00000000000E+00 -0.57652318399E+03  0.57652318401E+03  0.50400001928E-02 0. -1.
    10030    2    1    2    0    0  0.00000000000E+00  0.00000000000E+00  0.86089128491E+03  0.20139376529E+04  0.18206622601E+04 0.  0.
        2    1    3    3  502    0 -0.44638353303E+03 -0.50833667523E+03 -0.24334662301E+03  0.71894506945E+03  0.25500000920E-02 0. -1.
       -2    1    3    3    0  502  0.44638353303E+03  0.50833667523E+03  0.11042379079E+04  0.12949925835E+04  0.25500000920E-02 0.  1.
</event>
<event>
 5   0  0.3413839E-04  0.1783686E+04  0.7818609E-02  0.8715023E-01
       -1   -1    0    0    0  501  0.00000000000E+00  0.00000000000E+00  0.64245188858E+03  0.64245188860E+03  0.50400001928E-02 0. -1.
        1   -1    0    0  501    0  0.00000000000E+00  0.00000000000E+00 -0.12380445014E+04  0.12380445014E+04  0.50400001928E-02 0.  1.
    10030    2    1    2    0    0  0.00000000000E+00  0.00000000000E+00 -0.59559261286E+03  0.18804963900E+04  0.17836861026E+04 0.  0.
        5    1    3    3  502    0  0.23614284236E+03  0.83369105456E+03 -0.75252473535E+02  0.86976389970E+03  0.46999998093E+01 0. -1.
       -5    1    3    3    0  502 -0.23614284236E+03 -0.83369105456E+03 -0.52034013932E+03  0.10107324903E+04  0.46999998093E+01 0.  1.
</event>
<event>
 5   0  0.6771967E-04  0.1842739E+04  0.7818609E-02  0.8683896E-01
        2   -1    0    0  501    0  0.00000000000E+00  0.00000000000E+00  0.17144470467E+04  0.17144470467E+04  0.25500000920E-02 0.  1.
       -2   -1    0    0    0  501  0.00000000000E+00  0.00000000000E+00 -0.49515800966E+03  0.49515800966E+03  0.25500000920E-02 0. -1.
    10030    2    1    2    0    0  0.00000000000E+00  0.00000000000E+00  0.12192890370E+04  0.22096050563E+04  0.18427394686E+04 0.  0.
        1    1    3    3  502    0  0.20271952325E+02 -0.77204597999E+03  0.71629405661E+01  0.77234529520E+03  0.50400001928E-02 0. -1.
       -1    1    3    3    0  502 -0.20271952325E+02  0.77204597999E+03  0.12121260965E+04  0.14372597611E+04  0.50400001928E-02 0.  1.
</event>
<event>
 5   0  0.6771967E-04  0.1812621E+04  0.7818609E-02  0.8699616E-01
        2   -1    0    0  501    0  0.00000000000E+00  0.00000000000E+00  0.10410621050E+04  0.10410621050E+04  0.25500000920E-02 0. -1.
       -2   -1    0    0    0  501  0.00000000000E+00  0.00000000000E+00 -0.78900102459E+03  0.78900102459E+03  0.25500000920E-02 0.  1.
    10030    2    1    2    0    0  0.00000000000E+00  0.00000000000E+00  0.25206108036E+03  0.18300631295E+04  0.18126213807E+04 0.  0.
        1    1    3    3  502    0  0.38427628242E+02  0.82775888268E+03 -0.24456774371E+03  0.86398774977E+03  0.50400001928E-02 0.  1.
       -1    1    3    3    0  502 -0.38427628242E+02 -0.82775888268E+03  0.49662882407E+03  0.96607537977E+03  0.50400001928E-02 0. -1.
</event>
<event>
 5   0  0.6853162E-04  0.1778061E+04  0.7818609E-02  0.8718054E-01
        2   -1    0    0  501    0  0.00000000000E+00  0.00000000000E+00  0.13422075844E+04  0.13422075844E+04  0.25500000920E-02 0.  1.
       -2   -1    0    0    0  501  0.00000000000E+00  0.00000000000E+00 -0.58886220547E+03  0.58886220547E+03  0.25500000920E-02 0. -1.
    10030    2    1    2    0    0  0.00000000000E+00  0.00000000000E+00  0.75334537890E+03  0.19310697898E+04  0.17780610994E+04 0.  0.
        2    1    3    3  502    0 -0.52099159608E+03 -0.36762158012E+03  0.10494980163E+04  0.12280162684E+04  0.25500000920E-02 0.  1.
       -2    1    3    3    0  502  0.52099159608E+03  0.36762158012E+03 -0.29615263737E+03  0.70305352142E+03  0.25500000920E-02 0. -1.
</event>
<event>
 5   0  0.6547153E-04  0.1821601E+04  0.7818609E-02  0.8694896E-01
        2   -1    0    0  501    0  0.00000000000E+00  0.00000000000E+00  0.14472333502E+04  0.14472333502E+04  0.25500000920E-02 0. -1.
       -2   -1    0    0    0  501  0.00000000000E+00  0.00000000000E+00 -0.57320240180E+03  0.57320240181E+03  0.25500000920E-02 0.  1.
    10030    2    1    2    0    0  0.00000000000E+00  0.00000000000E+00  0.87403094840E+03  0.20204357520E+04  0.18216010895E+04 0.  0.
        5    1    3    3  502    0 -0.49136496824E+03  0.51030695099E+03 -0.19790394124E+03  0.73555474045E+03  0.46999998093E+01 0.  1.
       -5    1    3    3    0  502  0.49136496824E+03 -0.51030695099E+03  0.10719348896E+04  0.12848810116E+04  0.46999998093E+01 0. -1.
</event>
<event>
 5   0  0.3470962E-04  0.1768837E+04  0.7818609E-02  0.8723049E-01
        1   -1    0    0  501    0  0.00000000000E+00  0.00000000000E+00  0.77211386840E+03  0.77211386841E+03  0.50400001928E-02 0.  1.
       -1   -1    0    0    0  501  0.00000000000E+00  0.00000000000E+00 -0.10130578480E+04  0.10130578480E+04  0.50400001928E-02 0. -1.
    10030    2    1    2    0    0  0.00000000000E+00  0.00000000000E+00 -0.24094397959E+03  0.17851717164E+04  0.17688369218E+04 0.  0.
        4    1    3    3  502    0  0.22782319889E+03 -0.84451929133E+03  0.11418266367E+02  0.87478467813E+03  0.12699999809E+01 0.  1.
       -4    1    3    3    0  502 -0.22782319889E+03  0.84451929133E+03 -0.25236224596E+03  0.91038703828E+03  0.12699999809E+01 0. -1.
</event>
<event>
 5   0  0.6771967E-04  0.1770166E+04  0.7818609E-02  0.8722328E-01
        2   -1    0    0  501    0  0.00000000000E+00  0.00000000000E+00  0.14373695675E+04  0.14373695675E+04  0.25500000920E-02 0.  1.
       -2   -1    0    0    0  501  0.00000000000E+00  0.00000000000E+00 -0.54500376490E+03  0.54500376491E+03  0.25500000920E-02 0. -1.
    10030    2    1    2    0    0  0.00000000000E+00  0.00000000000E+00  0.89236580260E+03  0.19823733324E+04  0.17701658971E+04 0.  0.
        1    1    3    3  502    0  0.72966297743E+03 -0.46724227937E+03  0.24383321040E+03  0.90009890722E+03  0.50400001928E-02 0. -1.
       -1    1    3    3    0  502 -0.72966297743E+03  0.46724227937E+03  0.64853259219E+03  0.10822744252E+04  0.50400001928E-02 0.  1.
</event>
<event>
 5   0  0.3404261E-04  0.1775843E+04  0.7818609E-02  0.8719253E-01
       -1   -1    0    0    0  501  0.00000000000E+00  0.00000000000E+00  0.37636396621E+03  0.37636396624E+03  0.50400001928E-02 0.  1.
        1   -1    0    0  501    0  0.00000000000E+00  0.00000000000E+00 -0.20947919962E+04  0.20947919962E+04  0.50400001928E-02 0. -1.
    10030    2    1    2    0    0  0.00000000000E+00  0.00000000000E+00 -0.17184280300E+04  0.24711559624E+04  0.17758425877E+04 0.  0.
        1    1    3    3  502    0 -0.22602523228E+03  0.78407198400E+03 -0.37207972534E+03  0.89682752174E+03  0.50400001928E-02 0.  1.
       -1    1    3    3    0  502  0.22602523228E+03 -0.78407198400E+03 -0.13463483046E+04  0.15743284407E+04  0.50400001928E-02 0. -1.
</event>
<event>
 5   0  0.3377273E-04  0.1815517E+04  0.7818609E-02  0.8698091E-01
       -1   -1    0    0    0  501  0.00000000000E+00  0.00000000000E+00  0.72087998766E+03  0.72087998768E+03  0.50400001928E-02 0.  1.
        1   -1    0    0  501    0  0.00000000000E+00  0.00000000000E+00 -0.11430829840E+04  0.11430829840E+04  0.50400001928E-02 0. -1.
    10030    2    1    2    0    0  0.00000000000E+00  0.00000000000E+00 -0.42220299634E+03  0.18639629717E+04  0.18155171687E+04 0.  0.
        2    1    3    3  502    0  0.19041319945E+03  0.16136122516E+03 -0.11071628377E+04  0.11349467744E+04  0.25500000920E-02 0. -1.
       -2    1    3    3    0  502 -0.19041319945E+03 -0.16136122516E+03  0.68495984141E+03  0.72901619726E+03  0.25500000920E-02 0.  1.
</event>
<event>
 5   0  0.3404261E-04  0.1774536E+04  0.7818609E-02  0.8719959E-01
       -1   -1    0    0    0  501  0.00000000000E+00  0.00000000000E+00  0.43194613888E+03  0.43194613891E+03  0.50400001928E-02 0.  1.
        1   -1    0    0  501    0  0.00000000000E+00  0.00000000000E+00 -0.18225519978E+04  0.18225519978E+04  0.50400001928E-02 0. -1.
    10030    2    1    2    0    0  0.00000000000E+00  0.00000000000E+00 -0.13906058589E+04  0.22544981367E+04  0.17745357685E+04 0.  0.
        1    1    3    3  502    0  0.44630840411E+03  0.47914420491E+03 -0.14559687745E+04  0.15964383587E+04  0.50400001928E-02 0. -1.
       -1    1    3    3    0  502 -0.44630840411E+03 -0.47914420491E+03  0.65362915623E+02  0.65805977801E+03  0.50400001928E-02 0.  1.
</event>
<event>
 5   0  0.3413839E-04  0.1780724E+04  0.7818609E-02  0.8716618E-01
       -1   -1    0    0    0  501  0.00000000000E+00  0.00000000000E+00  0.73296494358E+03  0.73296494359E+03  0.50400001928E-02 0.  1.
        1   -1    0    0  501    0  0.00000000000E+00  0.00000000000E+00 -0.10815590732E+04  0.10815590732E+04  0.50400001928E-02 0. -1.
    10030    2    1    2    0    0  0.00000000000E+00  0.00000000000E+00 -0.34859412965E+03  0.18145240168E+04  0.17807244426E+04 0.  0.
        5    1    3    3  502    0  0.83593246212E+03 -0.11814758912E+03  0.11387975115E+03  0.85189941998E+03  0.46999998093E+01 0.  1.
       -5    1    3    3    0  502 -0.83593246212E+03  0.11814758912E+03 -0.46247388081E+03  0.96262459686E+03  0.46999998093E+01 0. -1.
</event>
<event>
 5   0  0.3377273E-04  0.1888863E+04  0.7818609E-02  0.8660420E-01
       -1   -1    0    0    0  501  0.00000000000E+00  0.00000000000E+00  0.81427678899E+03  0.81427678900E+03  0.50400001928E-02 0.  1.
        1   -1    0    0  501    0  0.00000000000E+00  0.00000000000E+00 -0.10953903126E+04  0.10953903126E+04  0.50400001928E-02 0. -1.
    10030    2    1    2    0    0  0.00000000000E+00  0.00000000000E+00 -0.28111352364E+03  0.19096671016E+04  0.18888630511E+04 0.  0.
        2    1    3    3  502    0 -0.42970713596E+03 -0.28406206369E+03  0.65974975015E+03  0.83702402089E+03  0.25500000920E-02 0.  1.
       -2    1    3    3    0  502  0.42970713596E+03  0.28406206369E+03 -0.94086327379E+03  0.10726430808E+04  0.25500000920E-02 0. -1.
</event>
<event>
 5   0  0.6771967E-04  0.1729128E+04  0.7818609E-02  0.8744924E-01
        2   -1    0    0  501    0  0.00000000000E+00  0.00000000000E+00  0.94295248189E+03  0.94295248189E+03  0.25500000920E-02 0.  1.
       -2   -1    0    0    0  501  0.00000000000E+00  0.00000000000E+00 -0.79269243788E+03  0.79269243788E+03  0.25500000920E-02 0. -1.
    10030    2    1    2    0    0  0.00000000000E+00  0.00000000000E+00  0.15026004401E+03  0.17356449198E+04  0.17291284529E+04 0.  0.
        1    1    3    3  502    0 -0.34119128681E+03 -0.61455007898E+03  0.58040367486E+03  0.91156553224E+03  0.50400001928E-02 0.  1.
       -1    1    3    3    0  502  0.34119128681E+03  0.61455007898E+03 -0.43014363085E+03  0.82407938753E+03  0.50400001928E-02 0. -1.
</event>
<event>
 5   0  0.6929121E-04  0.1157607E+04  0.7818609E-02  0.9150794E-01
       -2   -1    0    0    0  501  0.00000000000E+00  0.00000000000E+00  0.18236837699E+03  0.18236837701E+03  0.25500000920E-02 0. -1.
        2   -1    0    0  501    0  0.00000000000E+00  0.00000000000E+00 -0.18370157534E+04  0.18370157534E+04  0.25500000920E-02 0.  1.
    10030    2    1    2    0    0  0.00000000000E+00  0.00000000000E+00 -0.16546473764E+04  0.20193841304E+04  0.11576071553E+04 0.  0.
        3    1    3    3  502    0  0.25631001075E+03 -0.44951182187E+03 -0.37491670852E+03  0.63899784674E+03  0.10100000352E+00 0. -1.
       -3    1    3    3    0  502 -0.25631001075E+03  0.44951182187E+03 -0.12797306679E+04  0.13803862837E+04  0.10100000352E+00 0.  1.
</event>
<event>
 5   0  0.3404261E-04  0.1596989E+04  0.7818609E-02  0.8822400E-01
       -1   -1    0    0    0  501  0.00000000000E+00  0.00000000000E+00  0.48477358675E+03  0.48477358678E+03  0.50400001928E-02 0. -1.
        1   -1    0    0  501    0  0.00000000000E+00  0.00000000000E+00 -0.13152396124E+04  0.13152396125E+04  0.50400001928E-02 0.  1.
    10030    2    1    2    0    0  0.00000000000E+00  0.00000000000E+00 -0.83046602570E+03  0.18000131992E+04  0.15969889472E+04 0.  0.
        1    1    3    3  502    0 -0.76263147364E+03  0.10265537046E+03 -0.17494410569E+03  0.78914531603E+03  0.50400001928E-02 0. -1.
       -1    1    3    3    0  502  0.76263147364E+03 -0.10265537046E+03 -0.65552192000E+03  0.10108678832E+04  0.50400001928E-02 0.  1.
</event>
<event>
 5   0  0.3377273E-04  0.1804977E+04  0.7818609E-02  0.8703657E-01
       -1   -1    0    0    0  501  0.00000000000E+00  0.00000000000E+00  0.12839735253E+04  0.12839735253E+04  0.50400001928E-02 0.  1.
        1   -1    0    0  501    0  0.00000000000E+00  0.00000000000E+00 -0.63434774123E+03  0.63434774125E+03  0.50400001928E-02 0. -1.
    10030    2    1    2    0    0  0.00000000000E+00  0.00000000000E+00  0.64962578404E+03  0.19183212665E+04  0.18049772360E+04 0.  0.
        2    1    3    3  502    0 -0.56565166368E+03  0.47918973881E+03  0.87181813533E+03  0.11444000487E+04  0.25500000920E-02 0.  1.
       -2    1    3    3    0  502  0.56565166368E+03 -0.47918973881E+03 -0.22219235128E+03  0.77392121781E+03  0.25500000920E-02 0. -1.
</event>
<event>
 5   0  0.2467375E-04  0.1453872E+04  0.7818609E-02  0.8915721E-01
       -3   -1    0    0    0  501  0.00000000000E+00  0.00000000000E+00  0.13841271196E+04  0.13841271233E+04  0.10100000352E+00 0. -1.
        3   -1    0    0  501    0  0.00000000000E+00  0.00000000000E+00 -0.38178259624E+03  0.38178260960E+03  0.10100000352E+00 0.  1.
    10030    2    1    2    0    0  0.00000000000E+00  0.00000000000E+00  0.10023445234E+04  0.17659097329E+04  0.14538716041E+04 0.  0.
        5    1    3    3  502    0 -0.14431894937E+03 -0.61146263424E+03  0.57045830808E+02  0.63086514330E+03  0.46999998093E+01 0.  1.
       -5    1    3    3    0  502  0.14431894937E+03  0.61146263424E+03  0.94529869256E+03  0.11350445896E+04  0.46999998093E+01 0. -1.
</event>
<event>
 5   0  0.3404261E-04  0.1675102E+04  0.7818609E-02  0.8775693E-01
       -1   -1    0    0    0  501  0.00000000000E+00  0.00000000000E+00  0.65232134199E+03  0.65232134201E+03  0.50400001928E-02 0.  1.
        1   -1    0    0  501    0  0.00000000000E+00  0.00000000000E+00 -0.10753780783E+04  0.10753780783E+04  0.50400001928E-02 0. -1.
    10030    2    1    2    0    0  0.00000000000E+00  0.00000000000E+00 -0.42305673628E+03  0.17276994203E+04  0.16751024699E+04 0.  0.
        1    1    3    3  502    0 -0.70414958106E+03 -0.43764899881E+03 -0.88931512334E+02  0.83382977434E+03  0.50400001928E-02 0.  1.
       -1    1    3    3    0  502  0.70414958106E+03  0.43764899881E+03 -0.33412522395E+03  0.89386964596E+03  0.50400001928E-02 0. -1.
</event>
<event>
 5   0  0.3377273E-04  0.1784898E+04  0.7818609E-02  0.8714372E-01
       -1   -1    0    0    0  501  0.00000000000E+00  0.00000000000E+00  0.34801173532E+03  0.34801173536E+03  0.50400001928E-02 0.  1.
        1   -1    0    0  501    0  0.00000000000E+00  0.00000000000E+00 -0.22886165179E+04  0.22886165179E+04  0.50400001928E-02 0. -1.
    10030    2    1    2    0    0  0.00000000000E+00  0.00000000000E+00 -0.19406047826E+04  0.26366282533E+04  0.17848982110E+04 0.  0.
        2    1    3    3  502    0 -0.72413834680E+03 -0.25409169298E+03 -0.16432359689E+04  0.18136050792E+04  0.25500000920E-02 0. -1.
       -2    1    3    3    0  502  0.72413834680E+03  0.25409169298E+03 -0.29736881370E+03  0.82302317410E+03  0.25500000920E-02 0.  1.
</event>
<event>
 5   0  0.3308275E-04  0.1785069E+04  0.7818609E-02  0.8714280E-01
        1   -1    0    0  501    0  0.00000000000E+00  0.00000000000E+00  0.92614449325E+03  0.92614449326E+03  0.50400001928E-02 0. -1.
       -1   -1    0    0    0  501  0.00000000000E+00  0.00000000000E+00 -0.86014414290E+03  0.86014414292E+03  0.50400001928E-02 0.  1.
    10030    2    1    2    0    0  0.00000000000E+00  0.00000000000E+00  0.66000350347E+02  0.17862886362E+04  0.17850689190E+04 0.  0.
        3    1    3    3  502    0  0.34611519556E+02 -0.17413202970E+03 -0.84229620466E+03  0.86080359411E+03  0.10100000352E+00 0.  1.
       -3    1    3    3    0  502 -0.34611519556E+02  0.17413202970E+03  0.90829655501E+03  0.92548504207E+03  0.10100000352E+00 0. -1.
</event>
<event>
 5   0  0.6771967E-04  0.1728346E+04  0.7818609E-02  0.8745361E-01
        2   -1    0    0  501    0  0.00000000000E+00  0.00000000000E+00  0.87138222028E+03  0.87138222029E+03  0.25500000920E-02 0. -1.
       -2   -1    0    0    0  501  0.00000000000E+00  0.00000000000E+00 -0.85702345058E+03  0.85702345059E+03  0.25500000920E-02 0.  1.
    10030    2    1    2    0    0  0.00000000000E+00  0.00000000000E+00  0.14358769699E+02  0.17284056709E+04  0.17283460269E+04 0.  0.
        1    1    3    3  502    0  0.19063712531E+02 -0.44776320966E+03  0.74608219356E+03  0.87034128744E+03  0.50400001928E-02 0. -1.
       -1    1    3    3    0  502 -0.19063712531E+02  0.44776320966E+03 -0.73172342386E+03  0.85806438343E+03  0.50400001928E-02 0.  1.
</event>
<event>
 5   0  0.3413839E-04  0.1859130E+04  0.7818609E-02  0.8675472E-01
       -1   -1    0    0    0  501  0.00000000000E+00  0.00000000000E+00  0.12446931705E+04  0.12446931705E+04  0.50400001928E-02 0. -1.
        1   -1    0    0  501    0  0.00000000000E+00  0.00000000000E+00 -0.69421995749E+03  0.69421995751E+03  0.50400001928E-02 0.  1.
    10030    2    1    2    0    0  0.00000000000E+00  0.00000000000E+00  0.55047321305E+03  0.19389131281E+04  0.18591297319E+04 0.  0.
        5    1    3    3  502    0 -0.77505381551E+03  0.20022757930E+03  0.76802799640E+03  0.11093640492E+04  0.46999998093E+01 0. -1.
       -5    1    3    3    0  502  0.77505381551E+03 -0.20022757930E+03 -0.21755478335E+03  0.82954907884E+03  0.46999998093E+01 0.  1.
</event>
<event>
 5   0  0.6853162E-04  0.1868454E+04  0.7818609E-02  0.8670720E-01
       -2   -1    0    0    0  501  0.00000000000E+00  0.00000000000E+00  0.80465907511E+03  0.80465907511E+03  0.25500000920E-02 0.  1.
        2   -1    0    0  501    0  0.00000000000E+00  0.00000000000E+00 -0.10846581973E+04  0.10846581973E+04  0.25500000920E-02 0. -1.
    10030    2    1    2    0    0  0.00000000000E+00  0.00000000000E+00 -0.27999912222E+03  0.18893172724E+04  0.18684539725E+04 0.  0.
        2    1    3    3  502    0  0.15592698169E+02 -0.38250193450E+03 -0.10017060125E+04  0.10723645825E+04  0.25500000920E-02 0. -1.
       -2    1    3    3    0  502 -0.15592698169E+02  0.38250193450E+03  0.72170689032E+03  0.81695268999E+03  0.25500000920E-02 0.  1.
</event>
<event>
 5   0  0.3377273E-04  0.1528809E+04  0.7818609E-02  0.8865518E-01
        1   -1    0    0  501    0  0.00000000000E+00  0.00000000000E+00  0.10522588101E+04  0.10522588101E+04  0.50400001928E-02 0. -1.
       -1   -1    0    0    0  501  0.00000000000E+00  0.00000000000E+00 -0.55529550382E+03  0.55529550384E+03  0.50400001928E-02 0.  1.
    10030    2    1    2    0    0  0.00000000000E+00  0.00000000000E+00  0.49696330625E+03  0.16075543139E+04  0.15288094533E+04 0.  0.
        2    1    3    3  502    0 -0.12123124754E+03 -0.67768372693E+03  0.59780108076E+03  0.91176662655E+03  0.25500000920E-02 0. -1.
       -2    1    3    3    0  502  0.12123124754E+03  0.67768372693E+03 -0.10083777451E+03  0.69578768737E+03  0.25500000920E-02 0.  1.
</event>
<event>
 5   0  0.6929121E-04  0.1889306E+04  0.7818609E-02  0.8660198E-01
       -2   -1    0    0    0  501  0.00000000000E+00  0.00000000000E+00  0.54476556303E+03  0.54476556304E+03  0.25500000920E-02 0. -1.
        2   -1    0    0  501    0  0.00000000000E+00  0.00000000000E+00 -0.16380790831E+04  0.16380790831E+04  0.25500000920E-02 0.  1.
    10030    2    1    2    0    0  0.00000000000E+00  0.00000000000E+00 -0.10933135201E+04  0.21828446462E+04  0.18893057709E+04 0.  0.
        3    1    3    3  502    0  0.72076823482E+03  0.37575089601E+03 -0.11027642413E+04  0.13699578702E+04  0.10100000352E+00 0.  1.
       -3    1    3    3    0  502 -0.72076823482E+03 -0.37575089601E+03  0.94507211632E+01  0.81288677595E+03  0.10100000352E+00 0. -1.
</event>
<event>
 5   0  0.3404261E-04  0.1798004E+04  0.7818609E-02  0.8707362E-01
       -1   -1    0    0    0  501  0.00000000000E+00  0.00000000000E+00  0.13140602930E+04  0.13140602930E+04  0.50400001928E-02 0.  1.
        1   -1    0    0  501    0  0.00000000000E+00  0.00000000000E+00 -0.61504347423E+03  0.61504347425E+03  0.50400001928E-02 0. -1.
    10030    2    1    2    0    0  0.00000000000E+00  0.00000000000E+00  0.69901681872E+03  0.19291037672E+04  0.17980035684E+04 0.  0.
        1    1    3    3  502    0 -0.16498534388E+03 -0.87382472500E+03  0.20792276372E+03  0.91324787950E+03  0.50400001928E-02 0.  1.
       -1    1    3    3    0  502  0.16498534388E+03  0.87382472500E+03  0.49109405500E+03  0.10158558877E+04  0.50400001928E-02 0. -1.
</event>
<event>
 5   0  0.6929121E-04  0.1785162E+04  0.7818609E-02  0.8714230E-01
        2   -1    0    0  501    0  0.00000000000E+00  0.00000000000E+00  0.67591062578E+03  0.67591062579E+03  0.25500000920E-02 0.  1.
       -2   -1    0    0    0  501  0.00000000000E+00  0.00000000000E+00 -0.11787079975E+04  0.11787079975E+04  0.25500000920E-02 0. -1.
    10030    2    1    2    0    0  0.00000000000E+00  0.00000000000E+00 -0.50279737176E+03  0.18546186233E+04  0.17851624691E+04 0.  0.
        3    1    3    3  502    0 -0.35585164199E+03  0.81779790610E+03 -0.28853063571E+03  0.93737598874E+03  0.10100000352E+00 0.  1.
       -3    1    3    3    0  502  0.35585164199E+03 -0.81779790610E+03 -0.21426673605E+03  0.91724263459E+03  0.10100000352E+00 0. -1.
</event>
<event>
 5   0  0.3308275E-04  0.1088246E+04  0.7818609E-02  0.9216725E-01
        1   -1    0    0  501    0  0.00000000000E+00  0.00000000000E+00  0.33978286254E+03  0.33978286258E+03  0.50400001928E-02 0. -1.
       -1   -1    0    0    0  501  0.00000000000E+00  0.00000000000E+00 -0.87134996816E+03  0.87134996817E+03  0.50400001928E-02 0.  1.
    10030    2    1    2    0    0  0.00000000000E+00  0.00000000000E+00 -0.53156710562E+03  0.12111328307E+04  0.10882459032E+04 0.  0.
        3    1    3    3  502    0  0.36486492601E+03 -0.28007085751E+03  0.57737493844E+02  0.46357278593E+03  0.10100000352E+00 0. -1.
       -3    1    3    3    0  502 -0.36486492601E+03  0.28007085751E+03 -0.58930459946E+03  0.74756004482E+03  0.10100000352E+00 0.  1.
</event>
<event>
 5   0  0.3413839E-04  0.1156645E+04  0.7818609E-02  0.9151675E-01
        1   -1    0    0  501    0  0.00000000000E+00  0.00000000000E+00  0.22906987334E+04  0.22906987334E+04  0.50400001928E-02 0. -1.
       -1   -1    0    0    0  501  0.00000000000E+00  0.00000000000E+00 -0.14600642597E+03  0.14600642606E+03  0.50400001928E-02 0.  1.
    10030    2    1    2    0    0  0.00000000000E+00  0.00000000000E+00  0.21446923074E+04  0.24367051594E+04  0.11566446907E+04 0.  0.
        5    1    3    3  502    0 -0.25124639858E+03  0.46069408519E+02 -0.20679764781E+02  0.25631403760E+03  0.46999998093E+01 0.  1.
       -5    1    3    3    0  502  0.25124639858E+03 -0.46069408519E+02  0.21653720722E+04  0.21803911218E+04  0.46999998093E+01 0. -1.
</event>
<event>
 5   0  0.3308275E-04  0.1764224E+04  0.7818609E-02  0.8725559E-01
        1   -1    0    0  501    0  0.00000000000E+00  0.00000000000E+00  0.20929549380E+04  0.20929549380E+04  0.50400001928E-02 0.  1.
       -1   -1    0    0    0  501  0.00000000000E+00  0.00000000000E+00 -0.37178140018E+03  0.37178140021E+03  0.50400001928E-02 0. -1.
    10030    2    1    2    0    0  0.00000000000E+00  0.00000000000E+00  0.17211735378E+04  0.24647363382E+04  0.17642241552E+04 0.  0.
        3    1    3    3  502    0 -0.69754458428E+03 -0.53984466582E+03  0.87595429228E+03  0.12430996109E+04  0.10100000352E+00 0.  1.
       -3    1    3    3    0  502  0.69754458428E+03  0.53984466582E+03  0.84521924556E+03  0.12216367273E+04  0.10100000352E+00 0. -1.
</event>
<event>
 5   0  0.6547153E-04  0.1802860E+04  0.7818609E-02  0.8704780E-01
       -2   -1    0    0    0  501  0.00000000000E+00  0.00000000000E+00  0.54397746917E+03  0.54397746918E+03  0.25500000920E-02 0. -1.
        2   -1    0    0  501    0  0.00000000000E+00  0.00000000000E+00 -0.14937684012E+04  0.14937684012E+04  0.25500000920E-02 0.  1.
    10030    2    1    2    0    0  0.00000000000E+00  0.00000000000E+00 -0.94979093198E+03  0.20377458703E+04  0.18028603433E+04 0.  0.
        5    1    3    3  502    0  0.15798421287E+03 -0.10520241411E+03  0.52112075962E+03  0.55463095438E+03  0.46999998093E+01 0. -1.
       -5    1    3    3    0  502 -0.15798421287E+03  0.10520241411E+03 -0.14709116916E+04  0.14831149160E+04  0.46999998093E+01 0.  1.
</event>
<event>
 5   0  0.6771967E-04  0.1831324E+04  0.7818609E-02  0.8689817E-01
       -2   -1    0    0    0  501  0.00000000000E+00  0.00000000000E+00  0.10200070135E+04  0.10200070135E+04  0.25500000920E-02 0.  1.
        2   -1    0    0  501    0  0.00000000000E+00  0.00000000000E+00 -0.82199172344E+03  0.82199172344E+03  0.25500000920E-02 0. -1.
    10030    2    1    2    0    0  0.00000000000E+00  0.00000000000E+00  0.19801529009E+03  0.18419987370E+04  0.18313244638E+04 0.  0.
        1    1    3    3  502    0 -0.72838539375E+03  0.15474934323E+03 -0.43696287218E+03  0.86338241397E+03  0.50400001928E-02 0.  1.
       -1    1    3    3    0  502  0.72838539375E+03 -0.15474934323E+03  0.63497816227E+03  0.97861632300E+03  0.50400001928E-02 0. -1.
</event>
<event>
 5   0  0.6771967E-04  0.1772920E+04  0.7818609E-02  0.8720834E-01
       -2   -1    0    0    0  501  0.00000000000E+00  0.00000000000E+00  0.54240359170E+03  0.54240359170E+03  0.25500000920E-02 0. -1.
        2   -1    0    0  501    0  0.00000000000E+00  0.00000000000E+00 -0.14487574949E+04  0.14487574949E+04  0.25500000920E-02 0.  1.
    10030    2    1    2    0    0  0.00000000000E+00  0.00000000000E+00 -0.90635390325E+03  0.19911610867E+04  0.17729199291E+04 0.  0.
        1    1    3    3  502    0 -0.30146862842E+03 -0.11257630270E+03 -0.13808404797E+04  0.14178424413E+04  0.50400001928E-02 0.  1.
       -1    1    3    3    0  502  0.30146862842E+03  0.11257630270E+03  0.47448657647E+03  0.57331864537E+03  0.50400001928E-02 0. -1.
</event>
<event>
 5   0  0.3377273E-04  0.1821438E+04  0.7818609E-02  0.8694981E-01
       -1   -1    0    0    0  501  0.00000000000E+00  0.00000000000E+00  0.12008969166E+04  0.12008969167E+04  0.50400001928E-02 0.  1.
        1   -1    0    0  501    0  0.00000000000E+00  0.00000000000E+00 -0.69065817777E+03  0.69065817778E+03  0.50400001928E-02 0. -1.
    10030    2    1    2    0    0  0.00000000000E+00  0.00000000000E+00  0.51023873888E+03  0.18915550944E+04  0.18214381968E+04 0.  0.
        2    1    3    3  502    0  0.18458914897E+03 -0.85929946211E+03  0.73113196846E+01  0.87893240633E+03  0.25500000920E-02 0. -1.
       -2    1    3    3    0  502 -0.18458914897E+03  0.85929946211E+03  0.50292741920E+03  0.10126226881E+04  0.25500000920E-02 0.  1.
</event>
<event>
 5   0  0.2467375E-04  0.1763154E+04  0.7818609E-02  0.8726143E-01
       -4   -1    0    0    0  501  0.00000000000E+00  0.00000000000E+00  0.14689459475E+04  0.14689464965E+04  0.12699999809E+01 0.  1.
        4   -1    0    0  501    0  0.00000000000E+00  0.00000000000E+00 -0.52907051441E+03  0.52907203868E+03  0.12699999809E+01 0. -1.
    10030    2    1    2    0    0  0.00000000000E+00  0.00000000000E+00  0.93987543305E+03  0.19980185351E+04  0.17631540594E+04 0.  0.
        1    1    3    3  502    0 -0.64902299822E+03 -0.59184212113E+03  0.55526835989E+03  0.10391491231E+04  0.50400001928E-02 0. -1.
       -1    1    3    3    0  502  0.64902299822E+03  0.59184212113E+03  0.38460707315E+03  0.95886941201E+03  0.50400001928E-02 0.  1.
</event>
<event>
 5   0  0.6853162E-04  0.1788709E+04  0.7818609E-02  0.8712327E-01
        2   -1    0    0  501    0  0.00000000000E+00  0.00000000000E+00  0.15179850604E+04  0.15179850604E+04  0.25500000920E-02 0. -1.
       -2   -1    0    0    0  501  0.00000000000E+00  0.00000000000E+00 -0.52692877861E+03  0.52692877862E+03  0.25500000920E-02 0.  1.
    10030    2    1    2    0    0  0.00000000000E+00  0.00000000000E+00  0.99105628176E+03  0.20449138390E+04  0.17887090471E+04 0.  0.
        2    1    3    3  502    0 -0.29370707138E+02 -0.87019083910E+03  0.72919385322E+03  0.11357017260E+04  0.25500000920E-02 0. -1.
       -2    1    3    3    0  502  0.29370707138E+02  0.87019083910E+03  0.26186242854E+03  0.90921211298E+03  0.25500000920E-02 0.  1.
</event>
<event>
 5   0  0.3413839E-04  0.1360492E+04  0.7818609E-02  0.8982923E-01
        1   -1    0    0  501    0  0.00000000000E+00  0.00000000000E+00  0.40435216171E+03  0.40435216174E+03  0.50400001928E-02 0.  1.
       -1   -1    0    0    0  501  0.00000000000E+00  0.00000000000E+00 -0.11443855693E+04  0.11443855693E+04  0.50400001928E-02 0. -1.
    10030    2    1    2    0    0  0.00000000000E+00  0.00000000000E+00 -0.74003340759E+03  0.15487377310E+04  0.13604922327E+04 0.  0.
        5    1    3    3  502    0  0.74570942659E+02  0.67600285002E+03 -0.35508673984E+03  0.76723488029E+03  0.46999998093E+01 0.  1.
       -5    1    3    3    0  502 -0.74570942659E+02 -0.67600285002E+03 -0.38494666775E+03  0.78150285076E+03  0.46999998093E+01 0. -1.
</event>
<event>
 5   0  0.3470962E-04  0.1799877E+04  0.7818609E-02  0.8706365E-01
       -1   -1    0    0    0  501  0.00000000000E+00  0.00000000000E+00  0.66473791719E+03  0.66473791721E+03  0.50400001928E-02 0. -1.
        1   -1    0    0  501    0  0.00000000000E+00  0.00000000000E+00 -0.12183587062E+04  0.12183587062E+04  0.50400001928E-02 0.  1.
    10030    2    1    2    0    0  0.00000000000E+00  0.00000000000E+00 -0.55362078901E+03  0.18830966234E+04  0.17998769167E+04 0.  0.
        4    1    3    3  502    0  0.70130297991E+03  0.52901334218E+03 -0.48131314995E+03  0.10016710773E+04  0.12699999809E+01 0.  1.
       -4    1    3    3    0  502 -0.70130297991E+03 -0.52901334218E+03 -0.72307639056E+02  0.88142554614E+03  0.12699999809E+01 0. -1.
</event>
<event>
 5   0  0.3308275E-04  0.1769870E+04  0.7818609E-02  0.8722489E-01
       -1   -1    0    0    0  501  0.00000000000E+00  0.00000000000E+00  0.36280202330E+03  0.36280202333E+03  0.50400001928E-02 0. -1.
        1   -1    0    0  501    0  0.00000000000E+00  0.00000000000E+00 -0.21585041708E+04  0.21585041708E+04  0.50400001928E-02 0.  1.
    10030    2    1    2    0    0  0.00000000000E+00  0.00000000000E+00 -0.17957021475E+04  0.25213061942E+04  0.17698696907E+04 0.  0.
        3    1    3    3  502    0 -0.93360163169E+02  0.55966995515E+03 -0.18652632956E+04  0.19496547774E+04  0.10100000352E+00 0.  1.
       -3    1    3    3    0  502  0.93360163169E+02 -0.55966995515E+03  0.69561148113E+02  0.57165141677E+03  0.10100000352E+00 0. -1.
</event>
<event>
 5   0  0.3413839E-04  0.9077227E+03  0.7818609E-02  0.9415979E-01
       -1   -1    0    0    0  501  0.00000000000E+00  0.00000000000E+00  0.16200865303E+04  0.16200865303E+04  0.50400001928E-02 0.  1.
        1   -1    0    0  501    0  0.00000000000E+00  0.00000000000E+00 -0.12714760397E+03  0.12714760407E+03  0.50400001928E-02 0. -1.
    10030    2    1    2    0    0  0.00000000000E+00  0.00000000000E+00  0.14929389264E+04  0.17472341344E+04  0.90772269035E+03 0.  0.
        5    1    3    3  502    0 -0.37114486114E+03  0.22238182335E+02  0.24554484512E+03  0.44559780707E+03  0.46999998093E+01 0. -1.
       -5    1    3    3    0  502  0.37114486114E+03 -0.22238182335E+02  0.12473940813E+04  0.13016363273E+04  0.46999998093E+01 0.  1.
</event>
<event>
 5   0  0.6853162E-04  0.1803846E+04  0.7818609E-02  0.8704257E-01
       -2   -1    0    0    0  501  0.00000000000E+00  0.00000000000E+00  0.70047544227E+03  0.70047544227E+03  0.25500000920E-02 0.  1.
        2   -1    0    0  501    0  0.00000000000E+00  0.00000000000E+00 -0.11613042005E+04  0.11613042005E+04  0.25500000920E-02 0. -1.
    10030    2    1    2    0    0  0.00000000000E+00  0.00000000000E+00 -0.46082875820E+03  0.18617796427E+04  0.18038459728E+04 0.  0.
        2    1    3    3  502    0  0.48894429159E+03  0.57381322717E+03  0.28060009412E+03  0.80440322773E+03  0.25500000920E-02 0.  1.
       -2    1    3    3    0  502 -0.48894429159E+03 -0.57381322717E+03 -0.74142885232E+03  0.10573764150E+04  0.25500000920E-02 0. -1.
</event>
<event>
 5   0  0.6853162E-04  0.1811084E+04  0.7818609E-02  0.8700427E-01
       -2   -1    0    0    0  501  0.00000000000E+00  0.00000000000E+00  0.49306744894E+03  0.49306744894E+03  0.25500000920E-02 0. -1.
        2   -1    0    0  501    0  0.00000000000E+00  0.00000000000E+00 -0.16630718724E+04  0.16630718724E+04  0.25500000920E-02 0.  1.
    10030    2    1    2    0    0  0.00000000000E+00  0.00000000000E+00 -0.11700044235E+04  0.21561393214E+04  0.18110843222E+04 0.  0.
        2    1    3    3  502    0 -0.57085694759E+03 -0.14865901266E+03 -0.14029445635E+04  0.15219167536E+04  0.25500000920E-02 0.  1.
       -2    1    3    3    0  502  0.57085694759E+03  0.14865901266E+03  0.23294013999E+03  0.63422256778E+03  0.25500000920E-02 0. -1.
</event>
<event>
 5   0  0.3470962E-04  0.1805850E+04  0.7818609E-02  0.8703195E-01
       -1   -1    0    0    0  501  0.00000000000E+00  0.00000000000E+00  0.95651854061E+03  0.95651854062E+03  0.50400001928E-02 0.  1.
        1   -1    0    0  501    0  0.00000000000E+00  0.00000000000E+00 -0.85233396858E+03  0.85233396859E+03  0.50400001928E-02 0. -1.
    10030    2    1    2    0    0  0.00000000000E+00  0.00000000000E+00  0.10418457203E+03  0.18088525092E+04  0.18058496546E+04 0.  0.
        4    1    3    3  502    0  0.16221885731E+02  0.14703069986E+03 -0.84011353374E+03  0.85303782961E+03  0.12699999809E+01 0. -1.
       -4    1    3    3    0  502 -0.16221885731E+02 -0.14703069986E+03  0.94429810577E+03  0.95581467960E+03  0.12699999809E+01 0.  1.
</event>
<event>
 5   0  0.3404261E-04  0.1795867E+04  0.7818609E-02  0.8708500E-01
        1   -1    0    0  501    0  0.00000000000E+00  0.00000000000E+00  0.18030411166E+04  0.18030411167E+04  0.50400001928E-02 0.  1.
       -1   -1    0    0    0  501  0.00000000000E+00  0.00000000000E+00 -0.44718056963E+03  0.44718056966E+03  0.50400001928E-02 0. -1.
    10030    2    1    2    0    0  0.00000000000E+00  0.00000000000E+00  0.13558605470E+04  0.22502216863E+04  0.17958674268E+04 0.  0.
        1    1    3    3  502    0  0.35626854161E+03  0.96846806823E+02 -0.34767778686E+03  0.50713550579E+03  0.50400001928E-02 0. -1.
       -1    1    3    3    0  502 -0.35626854161E+03 -0.96846806823E+02  0.17035383339E+04  0.17430861805E+04  0.50400001928E-02 0.  1.
</event>
<event>
 5   0  0.3404261E-04  0.1793757E+04  0.7818609E-02  0.8709626E-01
       -1   -1    0    0    0  501  0.00000000000E+00  0.00000000000E+00  0.63026050278E+03  0.63026050280E+03  0.50400001928E-02 0. -1.
        1   -1    0    0  501    0  0.00000000000E+00  0.00000000000E+00 -0.12762837254E+04  0.12762837254E+04  0.50400001928E-02 0.  1.
    10030    2    1    2    0    0  0.00000000000E+00  0.00000000000E+00 -0.64602322265E+03  0.19065442282E+04  0.17937571993E+04 0.  0.
        1    1    3    3  502    0 -0.84965617532E+03 -0.16813908469E+03 -0.57047007859E+03  0.10371222101E+04  0.50400001928E-02 0. -1.
       -1    1    3    3    0  502  0.84965617532E+03  0.16813908469E+03 -0.75553144054E+02  0.86942201816E+03  0.50400001928E-02 0.  1.
</event>
<event>
 5   0  0.3413839E-04  0.1773522E+04  0.7818609E-02  0.8720508E-01
        1   -1    0    0  501    0  0.00000000000E+00  0.00000000000E+00  0.12496612235E+04  0.12496612235E+04  0.50400001928E-02 0.  1.
       -1   -1    0    0    0  501  0.00000000000E+00  0.00000000000E+00 -0.62924679682E+03  0.62924679684E+03  0.50400001928E-02 0. -1.
    10030    2    1    2    0    0  0.00000000000E+00  0.00000000000E+00  0.62041442667E+03  0.18789080203E+04  0.17735222829E+04 0.  0.
        5    1    3    3  502    0 -0.27341894804E+03 -0.58245409701E+03 -0.33622456854E+03  0.72600258040E+03  0.46999998093E+01 0. -1.
       -5    1    3    3    0  502  0.27341894804E+03  0.58245409701E+03  0.95663899521E+03  0.11529054399E+04  0.46999998093E+01 0.  1.
</event>
<event>
 5   0  0.6771967E-04  0.1744356E+04  0.7818609E-02  0.8736463E-01
        2   -1    0    0  501    0  0.00000000000E+00  0.00000000000E+00  0.22366781010E+04  0.22366781010E+04  0.25500000920E-02 0. -1.
       -2   -1    0    0    0  501  0.00000000000E+00  0.00000000000E+00 -0.34010017238E+03  0.34010017239E+03  0.25500000920E-02 0.  1.
    10030    2    1    2    0    0  0.00000000000E+00  0.00000000000E+00  0.18965779286E+04  0.25767782734E+04  0.17443561652E+04 0.  0.
        1    1    3    3  502    0  0.19327890480E+03 -0.79945386443E+03  0.13769631256E+04  0.16039048181E+04  0.50400001928E-02 0. -1.
       -1    1    3    3    0  502 -0.19327890480E+03  0.79945386443E+03  0.51961480305E+03  0.97287345527E+03  0.50400001928E-02 0.  1.
</event>
<event>
 5   0  0.6929121E-04  0.1743563E+04  0.7818609E-02  0.8736902E-01
       -2   -1    0    0    0  501  0.00000000000E+00  0.00000000000E+00  0.52373494618E+03  0.52373494619E+03  0.25500000920E-02 0.  1.
        2   -1    0    0  501    0  0.00000000000E+00  0.00000000000E+00 -0.14511209722E+04  0.14511209722E+04  0.25500000920E-02 0. -1.
    10030    2    1    2    0    0  0.00000000000E+00  0.00000000000E+00 -0.92738602599E+03  0.19748559184E+04  0.17435627482E+04 0.  0.
        3    1    3    3  502    0  0.64839696675E+03 -0.36527537915E+03  0.50584999338E+02  0.74592464865E+03  0.10100000352E+00 0.  1.
       -3    1    3    3    0  502 -0.64839696675E+03  0.36527537915E+03 -0.97797102533E+03  0.12289312697E+04  0.10100000352E+00 0. -1.
</event>
<event>
 5   0  0.6771967E-04  0.1800822E+04  0.7818609E-02  0.8705863E-01
        2   -1    0    0  501    0  0.00000000000E+00  0.00000000000E+00  0.15631634085E+04  0.15631634085E+04  0.25500000920E-02 0.  1.
       -2   -1    0    0    0  501  0.00000000000E+00  0.00000000000E+00 -0.51865314057E+03  0.51865314058E+03  0.25500000920E-02 0. -1.
    10030    2    1    2    0    0  0.00000000000E+00  0.00000000000E+00  0.10445102679E+04  0.20818165490E+04  0.18008216025E+04 0.  0.
        1    1    3    3  502    0  0.55682016730E+03  0.59415148221E+03  0.78007473473E+02  0.81801579965E+03  0.50400001928E-02 0. -1.
       -1    1    3    3    0  502 -0.55682016730E+03 -0.59415148221E+03  0.96650279443E+03  0.12638007494E+04  0.50400001928E-02 0.  1.
</event>
<event>
 5   0  0.6929121E-04  0.1512445E+04  0.7818609E-02  0.8876219E-01
       -2   -1    0    0    0  501  0.00000000000E+00  0.00000000000E+00  0.25991496079E+03  0.25991496080E+03  0.25500000920E-02 0. -1.
        2   -1    0    0  501    0  0.00000000000E+00  0.00000000000E+00 -0.22002288581E+04  0.22002288581E+04  0.25500000920E-02 0.  1.
    10030    2    1    2    0    0  0.00000000000E+00  0.00000000000E+00 -0.19403138973E+04  0.24601438189E+04  0.15124449047E+04 0.  0.
        3    1    3    3  502    0  0.26659596167E+03  0.41346946143E+03 -0.35969773175E+02  0.49327906615E+03  0.10100000352E+00 0. -1.
       -3    1    3    3    0  502 -0.26659596167E+03 -0.41346946143E+03 -0.19043441242E+04  0.19668647528E+04  0.10100000352E+00 0.  1.
</event>
<event>
 5   0  0.6547153E-04  0.1754084E+04  0.7818609E-02  0.8731105E-01
       -2   -1    0    0    0  501  0.00000000000E+00  0.00000000000E+00  0.98571378274E+03  0.98571378274E+03  0.25500000920E-02 0.  1.
        2   -1    0    0  501    0  0.00000000000E+00  0.00000000000E+00 -0.78035126541E+03  0.78035126541E+03  0.25500000920E-02 0. -1.
    10030    2    1    2    0    0  0.00000000000E+00  0.00000000000E+00  0.20536251733E+03  0.17660650482E+04  0.17540843739E+04 0.  0.
        5    1    3    3  502    0 -0.79082876676E+03 -0.14098678089E+03 -0.25170793584E+03  0.84182325085E+03  0.46999998093E+01 0. -1.
       -5    1    3    3    0  502  0.79082876676E+03  0.14098678089E+03  0.45707045317E+03  0.92424179730E+03  0.46999998093E+01 0.  1.
</event>
<event>
 5   0  0.2467375E-04  0.1869354E+04  0.7818609E-02  0.8670263E-01
       -4   -1    0    0    0  501  0.00000000000E+00  0.00000000000E+00  0.15449549236E+04  0.15449554456E+04  0.12699999809E+01 0.  1.
        4   -1    0    0  501    0  0.00000000000E+00  0.00000000000E+00 -0.56546584471E+03  0.56546727088E+03  0.12699999809E+01 0. -1.
    10030    2    1    2    0    0  0.00000000000E+00  0.00000000000E+00  0.97948907889E+03  0.21104227165E+04  0.18693542164E+04 0.  0.
        4    1    3    3  502    0 -0.58745820629E+03 -0.45312188346E+03  0.11315581018E+04  0.13530897738E+04  0.12699999809E+01 0.  1.
       -4    1    3    3    0  502  0.58745820629E+03  0.45312188346E+03 -0.15206902289E+03  0.75733294265E+03  0.12699999809E+01 0. -1.
</event>
<event>
 5   0  0.3308275E-04  0.1806250E+04  0.7818609E-02  0.8702983E-01
       -1   -1    0    0    0  501  0.00000000000E+00  0.00000000000E+00  0.72271510966E+03  0.72271510968E+03  0.50400001928E-02 0. -1.
        1   -1    0    0  501    0  0.00000000000E+00  0.00000000000E+00 -0.11285706334E+04  0.11285706334E+04  0.50400001928E-02 0.  1.
    10030    2    1    2    0    0  0.00000000000E+00  0.00000000000E+00 -0.40585552374E+03  0.18512857431E+04  0.18062503139E+04 0.  0.
        3    1    3    3  502    0  0.58258946478E+03  0.43770857597E+03  0.34388702407E+03  0.80576521237E+03  0.10100000352E+00 0. -1.
       -3    1    3    3    0  502 -0.58258946478E+03 -0.43770857597E+03 -0.74974254781E+03  0.10455205307E+04  0.10100000352E+00 0.  1.
</event>
<event>
 5   0  0.6771967E-04  0.1730396E+04  0.7818609E-02  0.8744216E-01
        2   -1    0    0  501    0  0.00000000000E+00  0.00000000000E+00  0.12719823980E+04  0.12719823980E+04  0.25500000920E-02 0.  1.
       -2   -1    0    0    0  501  0.00000000000E+00  0.00000000000E+00 -0.58850480489E+03  0.58850480489E+03  0.25500000920E-02 0. -1.
    10030    2    1    2    0    0  0.00000000000E+00  0.00000000000E+00  0.68347759315E+03  0.18604872029E+04  0.17303962009E+04 0.  0.
        1    1    3    3  502    0 -0.57411735259E+03 -0.32058439430E+03 -0.26283617167E+03  0.70814401189E+03  0.50400001928E-02 0. -1.
       -1    1    3    3    0  502  0.57411735259E+03  0.32058439430E+03  0.94631376482E+03  0.11523431910E+04  0.50400001928E-02 0.  1.
</event>
<event>
 5   0  0.3308275E-04  0.1798668E+04  0.7818609E-02  0.8707008E-01
        1   -1    0    0  501    0  0.00000000000E+00  0.00000000000E+00  0.83770564666E+03  0.83770564668E+03  0.50400001928E-02 0.  1.
       -1   -1    0    0    0  501  0.00000000000E+00  0.00000000000E+00 -0.96549596674E+03  0.96549596675E+03  0.50400001928E-02 0. -1.
    10030    2    1    2    0    0  0.00000000000E+00  0.00000000000E+00 -0.12779032008E+03  0.18032016134E+04  0.17986677550E+04 0.  0.
        3    1    3    3  502    0  0.52028449114E+03 -0.58061700538E+03  0.38555326794E+03  0.86974903926E+03  0.10100000352E+00 0.  1.
       -3    1    3    3    0  502 -0.52028449114E+03  0.58061700538E+03 -0.51334358802E+03  0.93345257417E+03  0.10100000352E+00 0. -1.
</event>
<event>
 5   0  0.3377273E-04  0.1906440E+04  0.7818609E-02  0.8651657E-01
        1   -1    0    0  501    0  0.00000000000E+00  0.00000000000E+00  0.18630663625E+04  0.18630663625E+04  0.50400001928E-02 0. -1.
       -1   -1    0    0    0  501  0.00000000000E+00  0.00000000000E+00 -0.48770596685E+03  0.48770596688E+03  0.50400001928E-02 0.  1.
    10030    2    1    2    0    0  0.00000000000E+00  0.00000000000E+00  0.13753603957E+04  0.23507723294E+04  0.19064402238E+04 0.  0.
        2    1    3    3  502    0 -0.79179865195E+03  0.13730396182E+02  0.33461904763E+02  0.79262432973E+03  0.25500000920E-02 0.  1.
       -2    1    3    3    0  502  0.79179865195E+03 -0.13730396182E+02  0.13418984909E+04  0.15581479997E+04  0.25500000920E-02 0. -1.
</event>
<event>
 5   0  0.3470962E-04  0.1799391E+04  0.7818609E-02  0.8706623E-01
        1   -1    0    0  501    0  0.00000000000E+00  0.00000000000E+00  0.70160785038E+03  0.70160785040E+03  0.50400001928E-02 0.  1.
       -1   -1    0    0    0  501  0.00000000000E+00  0.00000000000E+00 -0.11537099058E+04  0.11537099058E+04  0.50400001928E-02 0. -1.
    10030    2    1    2    0    0  0.00000000000E+00  0.00000000000E+00 -0.45210205542E+03  0.18553177562E+04  0.17993909269E+04 0.  0.
        4    1    3    3  502    0  0.22774506830E+03  0.20836473065E+03 -0.10974008633E+04  0.11399885722E+04  0.12699999809E+01 0. -1.
       -4    1    3    3    0  502 -0.22774506830E+03 -0.20836473065E+03  0.64529880788E+03  0.71532918399E+03  0.12699999809E+01 0.  1.
</event>
<event>
 5   0  0.6774451E-04  0.1789057E+04  0.7818609E-02  0.8712141E-01
       -2   -1    0    0    0  501  0.00000000000E+00  0.00000000000E+00  0.53401389605E+03  0.53401389606E+03  0.25500000920E-02 0. -1.
        2   -1    0    0  501    0  0.00000000000E+00  0.00000000000E+00 -0.14984270139E+04  0.14984270139E+04  0.25500000920E-02 0.  1.
    10030    2    1    2    0    0  0.00000000000E+00  0.00000000000E+00 -0.96441311788E+03  0.20324409100E+04  0.17890565644E+04 0.  0.
        4    1    3    3  502    0 -0.52539356517E+03  0.60030354678E+03 -0.94195433106E+03  0.12343752757E+04  0.12699999809E+01 0.  1.
       -4    1    3    3    0  502  0.52539356517E+03 -0.60030354678E+03 -0.22458786819E+02  0.79806563427E+03  0.12699999809E+01 0. -1.
</event>
<event>
 5   0  0.3413839E-04  0.1577661E+04  0.7818609E-02  0.8834390E-01
       -1   -1    0    0    0  501  0.00000000000E+00  0.00000000000E+00  0.52983033007E+03  0.52983033009E+03  0.50400001928E-02 0. -1.
        1   -1    0    0  501    0  0.00000000000E+00  0.00000000000E+00 -0.11744399329E+04  0.11744399329E+04  0.50400001928E-02 0.  1.
    10030    2    1    2    0    0  0.00000000000E+00  0.00000000000E+00 -0.64460960279E+03  0.17042702630E+04  0.15776614305E+04 0.  0.
        5    1    3    3  502    0  0.69906714868E+03  0.10146590598E+03 -0.70153535486E+03  0.99557227390E+03  0.46999998093E+01 0.  1.
       -5    1    3    3    0  502 -0.69906714868E+03 -0.10146590598E+03  0.56925752075E+02  0.70869798905E+03  0.46999998093E+01 0. -1.
</event>
<event>
 5   0  0.3413839E-04  0.9878609E+03  0.7818609E-02  0.9321960E-01
       -1   -1    0    0    0  501  0.00000000000E+00  0.00000000000E+00  0.14499427974E+03  0.14499427983E+03  0.50400001928E-02 0.  1.
        1   -1    0    0  501    0  0.00000000000E+00  0.00000000000E+00 -0.16825994487E+04  0.16825994487E+04  0.50400001928E-02 0. -1.
    10030    2    1    2    0    0  0.00000000000E+00  0.00000000000E+00 -0.15376051690E+04  0.18275937285E+04  0.98786091176E+03 0.  0.
        5    1    3    3  502    0  0.27096900028E+03 -0.28243174429E+03 -0.21146913504E+03  0.44489681317E+03  0.46999998093E+01 0.  1.
       -5    1    3    3    0  502 -0.27096900028E+03  0.28243174429E+03 -0.13261360339E+04  0.13826969154E+04  0.46999998093E+01 0. -1.
</event>
<event>
 5   0  0.3413839E-04  0.1845381E+04  0.7818609E-02  0.8682532E-01
        1   -1    0    0  501    0  0.00000000000E+00  0.00000000000E+00  0.13843589989E+04  0.13843589989E+04  0.50400001928E-02 0. -1.
       -1   -1    0    0    0  501  0.00000000000E+00  0.00000000000E+00 -0.61498329983E+03  0.61498329986E+03  0.50400001928E-02 0.  1.
    10030    2    1    2    0    0  0.00000000000E+00  0.00000000000E+00  0.76937569903E+03  0.19993422987E+04  0.18453808987E+04 0.  0.
        5    1    3    3  502    0 -0.14708361606E+03 -0.88797632393E+03  0.16477534889E+03  0.91504565327E+03  0.46999998093E+01 0.  1.
       -5    1    3    3    0  502  0.14708361606E+03  0.88797632393E+03  0.60460035014E+03  0.10842966455E+04  0.46999998093E+01 0. -1.
</event>
<event>
 5   0  0.6547153E-04  0.1794862E+04  0.7818609E-02  0.8709037E-01
       -2   -1    0    0    0  501  0.00000000000E+00  0.00000000000E+00  0.44707122273E+03  0.44707122274E+03  0.25500000920E-02 0. -1.
        2   -1    0    0  501    0  0.00000000000E+00  0.00000000000E+00 -0.18014625936E+04  0.18014625936E+04  0.25500000920E-02 0.  1.
    10030    2    1    2    0    0  0.00000000000E+00  0.00000000000E+00 -0.13543913708E+04  0.22485338163E+04  0.17948616486E+04 0.  0.
        5    1    3    3  502    0 -0.53435925345E+03  0.54582047355E+03 -0.12673251319E+04  0.14797279754E+04  0.46999998093E+01 0.  1.
       -5    1    3    3    0  502  0.53435925345E+03 -0.54582047355E+03 -0.87066238905E+02  0.76880584093E+03  0.46999998093E+01 0. -1.
</event>
<event>
 5   0  0.6771967E-04  0.1796999E+04  0.7818609E-02  0.8707897E-01
       -2   -1    0    0    0  501  0.00000000000E+00  0.00000000000E+00  0.31085261303E+03  0.31085261304E+03  0.25500000920E-02 0. -1.
        2   -1    0    0  501    0  0.00000000000E+00  0.00000000000E+00 -0.25970548609E+04  0.25970548609E+04  0.25500000920E-02 0.  1.
    10030    2    1    2    0    0  0.00000000000E+00  0.00000000000E+00 -0.22862022479E+04  0.29079074739E+04  0.17969989312E+04 0.  0.
        1    1    3    3  502    0 -0.46904622118E+03 -0.23291933667E+03  0.38347692437E+02  0.52509648689E+03  0.50400001928E-02 0. -1.
       -1    1    3    3    0  502  0.46904622118E+03  0.23291933667E+03 -0.23245499403E+04  0.23828109871E+04  0.50400001928E-02 0.  1.
</event>
<event>
 5   0  0.3377273E-04  0.1738589E+04  0.7818609E-02  0.8739656E-01
       -1   -1    0    0    0  501  0.00000000000E+00  0.00000000000E+00  0.50347908283E+03  0.50347908286E+03  0.50400001928E-02 0.  1.
        1   -1    0    0  501    0  0.00000000000E+00  0.00000000000E+00 -0.15009026676E+04  0.15009026676E+04  0.50400001928E-02 0. -1.
    10030    2    1    2    0    0  0.00000000000E+00  0.00000000000E+00 -0.99742358481E+03  0.20043817505E+04  0.17385891965E+04 0.  0.
        2    1    3    3  502    0 -0.69967627734E+03 -0.20720443555E+03  0.45945456813E+02  0.73115768216E+03  0.25500000920E-02 0.  1.
       -2    1    3    3    0  502  0.69967627734E+03  0.20720443555E+03 -0.10433690416E+04  0.12732240683E+04  0.25500000920E-02 0. -1.
</event>
<event>
 5   0  0.2467375E-04  0.1019895E+04  0.7818609E-02  0.9286989E-01
        4   -1    0    0  501    0  0.00000000000E+00  0.00000000000E+00  0.22267528149E+03  0.22267890310E+03  0.12699999809E+01 0. -1.
       -4   -1    0    0    0  501  0.00000000000E+00  0.00000000000E+00 -0.11678153263E+04  0.11678160168E+04  0.12699999809E+01 0.  1.
    10030    2    1    2    0    0  0.00000000000E+00  0.00000000000E+00 -0.94514004477E+03  0.13904949199E+04  0.10198952976E+04 0.  0.
        4    1    3    3  502    0 -0.64167965060E+02  0.48382292598E+03 -0.67406692345E+03  0.83220789568E+03  0.12699999809E+01 0.  1.
       -4    1    3    3    0  502  0.64167965060E+02 -0.48382292598E+03 -0.27107312133E+03  0.55828702425E+03  0.12699999809E+01 0. -1.
</event>
<event>
 5   0  0.6771967E-04  0.1626249E+04  0.7818609E-02  0.8804583E-01
        2   -1    0    0  501    0  0.00000000000E+00  0.00000000000E+00  0.12050106283E+04  0.12050106283E+04  0.25500000920E-02 0. -1.
       -2   -1    0    0    0  501  0.00000000000E+00  0.00000000000E+00 -0.54868505076E+03  0.54868505076E+03  0.25500000920E-02 0.  1.
    10030    2    1    2    0    0  0.00000000000E+00  0.00000000000E+00  0.65632557752E+03  0.17536956790E+04  0.16262488343E+04 0.  0.
        1    1    3    3  502    0  0.82966161168E+02 -0.77597277012E+03  0.57443298254E+03  0.96901515743E+03  0.50400001928E-02 0. -1.
       -1    1    3    3    0  502 -0.82966161168E+02  0.77597277012E+03  0.81892594979E+02  0.78468052162E+03  0.50400001928E-02 0.  1.
</event>
<event>
 5   0  0.2467375E-04  0.1473416E+04  0.7818609E-02  0.8902326E-01
        3   -1    0    0  501    0  0.00000000000E+00  0.00000000000E+00  0.11205927288E+04  0.11205927333E+04  0.10100000352E+00 0. -1.
       -3   -1    0    0    0  501  0.00000000000E+00  0.00000000000E+00 -0.48433208667E+03  0.48433209720E+03  0.10100000352E+00 0.  1.
    10030    2    1    2    0    0  0.00000000000E+00  0.00000000000E+00  0.63626064211E+03  0.16049248305E+04  0.14734164744E+04 0.  0.
        3    1    3    3  502    0 -0.49391869607E+03 -0.27043353433E+03  0.83555354975E+03  0.10075910478E+04  0.10100000352E+00 0. -1.
       -3    1    3    3    0  502  0.49391869607E+03  0.27043353433E+03 -0.19929290764E+03  0.59733378278E+03  0.10100000352E+00 0.  1.
</event>
<event>
 5   0  0.6771967E-04  0.1228447E+04  0.7818609E-02  0.9088315E-01
        2   -1    0    0  501    0  0.00000000000E+00  0.00000000000E+00  0.11652018013E+04  0.11652018013E+04  0.25500000920E-02 0. -1.
       -2   -1    0    0    0  501  0.00000000000E+00  0.00000000000E+00 -0.32378105298E+03  0.32378105299E+03  0.25500000920E-02 0.  1.
    10030    2    1    2    0    0  0.00000000000E+00  0.00000000000E+00  0.84142074832E+03  0.14889828543E+04  0.12284466064E+04 0.  0.
        1    1    3    3  502    0 -0.29734966392E+03 -0.46806089279E+03  0.74087649960E+03  0.92541656009E+03  0.50400001928E-02 0. -1.
       -1    1    3    3    0  502  0.29734966392E+03  0.46806089279E+03  0.10054424872E+03  0.56356629421E+03  0.50400001928E-02 0.  1.
</event>
<event>
 5   0  0.6929121E-04  0.1777897E+04  0.7818609E-02  0.8718143E-01
        2   -1    0    0  501    0  0.00000000000E+00  0.00000000000E+00  0.75791206372E+03  0.75791206373E+03  0.25500000920E-02 0. -1.
       -2   -1    0    0    0  501  0.00000000000E+00  0.00000000000E+00 -0.10426400231E+04  0.10426400231E+04  0.25500000920E-02 0.  1.
    10030    2    1    2    0    0  0.00000000000E+00  0.00000000000E+00 -0.28472795934E+03  0.18005520868E+04  0.17778970179E+04 0.  0.
        3    1    3    3  502    0  0.36713742964E+03 -0.24856924261E+03  0.63794279513E+03  0.77688324778E+03  0.10100000352E+00 0. -1.
       -3    1    3    3    0  502 -0.36713742964E+03  0.24856924261E+03 -0.92267075447E+03  0.10236688390E+04  0.10100000352E+00 0.  1.
</event>
<event>
 5   0  0.3470962E-04  0.1819989E+04  0.7818609E-02  0.8695741E-01
        1   -1    0    0  501    0  0.00000000000E+00  0.00000000000E+00  0.12642641713E+04  0.12642641713E+04  0.50400001928E-02 0. -1.
       -1   -1    0    0    0  501  0.00000000000E+00  0.00000000000E+00 -0.65499795228E+03  0.65499795230E+03  0.50400001928E-02 0.  1.
    10030    2    1    2    0    0  0.00000000000E+00  0.00000000000E+00  0.60926621898E+03  0.19192621236E+04  0.18199894981E+04 0.  0.
        4    1    3    3  502    0 -0.52741162026E+03 -0.39614981824E+03  0.96571732442E+03  0.11694910257E+04  0.12699999809E+01 0. -1.
       -4    1    3    3    0  502  0.52741162026E+03  0.39614981824E+03 -0.35645110544E+03  0.74977109783E+03  0.12699999809E+01 0.  1.
</event>
<event>
 5   0  0.3470962E-04  0.1794948E+04  0.7818609E-02  0.8708990E-01
        1   -1    0    0  501    0  0.00000000000E+00  0.00000000000E+00  0.68604295749E+03  0.68604295751E+03  0.50400001928E-02 0. -1.
       -1   -1    0    0    0  501  0.00000000000E+00  0.00000000000E+00 -0.11740663863E+04  0.11740663863E+04  0.50400001928E-02 0.  1.
    10030    2    1    2    0    0  0.00000000000E+00  0.00000000000E+00 -0.48802342878E+03  0.18601093438E+04  0.17949484404E+04 0.  0.
        4    1    3    3  502    0 -0.62799433942E+03  0.63324908439E+03 -0.13998290443E+03  0.90276138578E+03  0.12699999809E+01 0. -1.
       -4    1    3    3    0  502  0.62799433942E+03 -0.63324908439E+03 -0.34804052435E+03  0.95734795801E+03  0.12699999809E+01 0.  1.
</event>
<event>
 5   0  0.3404261E-04  0.1879338E+04  0.7818609E-02  0.8665210E-01
       -1   -1    0    0    0  501  0.00000000000E+00  0.00000000000E+00  0.40514652782E+03  0.40514652785E+03  0.50400001928E-02 0. -1.
        1   -1    0    0  501    0  0.00000000000E+00  0.00000000000E+00 -0.21794025540E+04  0.21794025540E+04  0.50400001928E-02 0.  1.
    10030    2    1    2    0    0  0.00000000000E+00  0.00000000000E+00 -0.17742560262E+04  0.25845490819E+04  0.18793375189E+04 0.  0.
        1    1    3    3  502    0  0.29042064422E+03 -0.30367315337E+03  0.26874524272E+03  0.49878406167E+03  0.50400001928E-02 0. -1.
       -1    1    3    3    0  502 -0.29042064422E+03  0.30367315337E+03 -0.20430012689E+04  0.20857650202E+04  0.50400001928E-02 0.  1.
</event>
<event>
 5   0  0.6547153E-04  0.9170738E+03  0.7818609E-02  0.9404486E-01
        2   -1    0    0  501    0  0.00000000000E+00  0.00000000000E+00  0.12045906286E+04  0.12045906286E+04  0.25500000920E-02 0.  1.
       -2   -1    0    0    0  501  0.00000000000E+00  0.00000000000E+00 -0.17454567584E+03  0.17454567586E+03  0.25500000920E-02 0. -1.
    10030    2    1    2    0    0  0.00000000000E+00  0.00000000000E+00  0.10300449528E+04  0.13791363045E+04  0.91707379288E+03 0.  0.
        5    1    3    3  502    0  0.81073111487E+02  0.66015978321E+02 -0.15634433141E+03  0.18813983832E+03  0.46999998093E+01 0. -1.
       -5    1    3    3    0  502 -0.81073111487E+02 -0.66015978321E+02  0.11863892842E+04  0.11909964662E+04  0.46999998093E+01 0.  1.
</event>
<event>
 5   0  0.3404261E-04  0.1643962E+04  0.7818609E-02  0.8793987E-01
       -1   -1    0    0    0  501  0.00000000000E+00  0.00000000000E+00  0.31511088941E+03  0.31511088945E+03  0.50400001928E-02 0.  1.
        1   -1    0    0  501    0  0.00000000000E+00  0.00000000000E+00 -0.21441745463E+04  0.21441745463E+04  0.50400001928E-02 0. -1.
    10030    2    1    2    0    0  0.00000000000E+00  0.00000000000E+00 -0.18290636569E+04  0.24592854358E+04  0.16439619806E+04 0.  0.
        1    1    3    3  502    0  0.29050493309E+03 -0.10789453096E+03 -0.20534387992E+04  0.20766909370E+04  0.50400001928E-02 0. -1.
       -1    1    3    3    0  502 -0.29050493309E+03  0.10789453096E+03  0.22437514228E+03  0.38259449874E+03  0.50400001928E-02 0.  1.
</event>
<event>
 5   0  0.2467375E-04  0.1809556E+04  0.7818609E-02  0.8701234E-01
       -3   -1    0    0    0  501  0.00000000000E+00  0.00000000000E+00  0.10747524643E+04  0.10747524691E+04  0.10100000352E+00 0. -1.
        3   -1    0    0  501    0  0.00000000000E+00  0.00000000000E+00 -0.76168530739E+03  0.76168531408E+03  0.10100000352E+00 0.  1.
    10030    2    1    2    0    0  0.00000000000E+00  0.00000000000E+00  0.31306715696E+03  0.18364377832E+04  0.18095559363E+04 0.  0.
        5    1    3    3  502    0  0.29556965744E+03 -0.57905559401E+03 -0.48204707714E+03  0.80935670623E+03  0.46999998093E+01 0.  1.
       -5    1    3    3    0  502 -0.29556965744E+03  0.57905559401E+03  0.79511423409E+03  0.10270810769E+04  0.46999998093E+01 0. -1.
</event>
<event>
 5   0  0.6547153E-04  0.1755750E+04  0.7818609E-02  0.8730192E-01
        2   -1    0    0  501    0  0.00000000000E+00  0.00000000000E+00  0.16389770936E+04  0.16389770936E+04  0.25500000920E-02 0. -1.
       -2   -1    0    0    0  501  0.00000000000E+00  0.00000000000E+00 -0.47021042851E+03  0.47021042852E+03  0.25500000920E-02 0.  1.
    10030    2    1    2    0    0  0.00000000000E+00  0.00000000000E+00  0.11687666651E+04  0.21091875221E+04  0.17557495510E+04 0.  0.
        5    1    3    3  502    0  0.80682473742E+03  0.31803837220E+03  0.74789948811E+03  0.11452031686E+04  0.46999998093E+01 0. -1.
       -5    1    3    3    0  502 -0.80682473742E+03 -0.31803837220E+03  0.42086717695E+03  0.96398435347E+03  0.46999998093E+01 0.  1.
</event>
<event>
 5   0  0.6771967E-04  0.1669071E+04  0.7818609E-02  0.8779204E-01
       -2   -1    0    0    0  501  0.00000000000E+00  0.00000000000E+00  0.50850156624E+03  0.50850156625E+03  0.25500000920E-02 0. -1.
        2   -1    0    0  501    0  0.00000000000E+00  0.00000000000E+00 -0.13696108004E+04  0.13696108004E+04  0.25500000920E-02 0.  1.
    10030    2    1    2    0    0  0.00000000000E+00  0.00000000000E+00 -0.86110923415E+03  0.18781123666E+04  0.16690706841E+04 0.  0.
        1    1    3    3  502    0 -0.42018844235E+03 -0.44107784151E+03 -0.10723792885E+04  0.12333309888E+04  0.50400001928E-02 0.  1.
       -1    1    3    3    0  502  0.42018844235E+03  0.44107784151E+03  0.21127005438E+03  0.64478137788E+03  0.50400001928E-02 0. -1.
</event>
<event>
 5   0  0.6774451E-04  0.1682472E+04  0.7818609E-02  0.8771425E-01
        2   -1    0    0  501    0  0.00000000000E+00  0.00000000000E+00  0.10239939619E+04  0.10239939619E+04  0.25500000920E-02 0. -1.
       -2   -1    0    0    0  501  0.00000000000E+00  0.00000000000E+00 -0.69109612995E+03  0.69109612995E+03  0.25500000920E-02 0.  1.
    10030    2    1    2    0    0  0.00000000000E+00  0.00000000000E+00  0.33289783195E+03  0.17150900919E+04  0.16824723049E+04 0.  0.
        4    1    3    3  502    0  0.92736767809E+02 -0.79526522283E+03  0.42958061271E+03  0.90861873108E+03  0.12699999809E+01 0.  1.
       -4    1    3    3    0  502 -0.92736767809E+02  0.79526522283E+03 -0.96682780761E+02  0.80647136077E+03  0.12699999809E+01 0. -1.
</event>
<event>
 5   0  0.6547153E-04  0.1819366E+04  0.7818609E-02  0.8696068E-01
        2   -1    0    0  501    0  0.00000000000E+00  0.00000000000E+00  0.72014977589E+03  0.72014977589E+03  0.25500000920E-02 0.  1.
       -2   -1    0    0    0  501  0.00000000000E+00  0.00000000000E+00 -0.11490986969E+04  0.11490986969E+04  0.25500000920E-02 0. -1.
    10030    2    1    2    0    0  0.00000000000E+00  0.00000000000E+00 -0.42894892100E+03  0.18692484728E+04  0.18193660094E+04 0.  0.
        5    1    3    3  502    0 -0.79042697788E+02 -0.79961165302E+03  0.22368571935E+03  0.83407669597E+03  0.46999998093E+01 0.  1.
       -5    1    3    3    0  502  0.79042697788E+02  0.79961165302E+03 -0.65263464035E+03  0.10351717768E+04  0.46999998093E+01 0. -1.
</event>
<event>
 5   0  0.3470962E-04  0.1784894E+04  0.7818609E-02  0.8714374E-01
        1   -1    0    0  501    0  0.00000000000E+00  0.00000000000E+00  0.22888264701E+04  0.22888264701E+04  0.50400001928E-02 0. -1.
       -1   -1    0    0    0  501  0.00000000000E+00  0.00000000000E+00 -0.34797806046E+03  0.34797806050E+03  0.50400001928E-02 0.  1.
    10030    2    1    2    0    0  0.00000000000E+00  0.00000000000E+00  0.19408484096E+04  0.26368045306E+04  0.17848937177E+04 0.  0.
        4    1    3    3  502    0 -0.22917333601E+03 -0.81688133579E+03  0.56144110739E+03  0.10173658460E+04  0.12699999809E+01 0.  1.
       -4    1    3    3    0  502  0.22917333601E+03  0.81688133579E+03  0.13794073022E+04  0.16194386846E+04  0.12699999809E+01 0. -1.
</event>
<event>
 5   0  0.6771967E-04  0.1732816E+04  0.7818609E-02  0.8742866E-01
        2   -1    0    0  501    0  0.00000000000E+00  0.00000000000E+00  0.29988029228E+04  0.29988029228E+04  0.25500000920E-02 0. -1.
       -2   -1    0    0    0  501  0.00000000000E+00  0.00000000000E+00 -0.25032095459E+03  0.25032095460E+03  0.25500000920E-02 0.  1.
    10030    2    1    2    0    0  0.00000000000E+00  0.00000000000E+00  0.27484819682E+04  0.32491238774E+04  0.17328164476E+04 0.  0.
        1    1    3    3  502    0  0.17807061196E+03 -0.32082414487E+03 -0.97438401694E+02  0.37964656844E+03  0.50400001928E-02 0.  1.
       -1    1    3    3    0  502 -0.17807061196E+03  0.32082414487E+03  0.28459203699E+04  0.28694773090E+04  0.50400001928E-02 0. -1.
</event>
<event>
 5   0  0.3470962E-04  0.1715883E+04  0.7818609E-02  0.8752357E-01
        1   -1    0    0  501    0  0.00000000000E+00  0.00000000000E+00  0.64428740807E+03  0.64428740809E+03  0.50400001928E-02 0.  1.
       -1   -1    0    0    0  501  0.00000000000E+00  0.00000000000E+00 -0.11424464891E+04  0.11424464892E+04  0.50400001928E-02 0. -1.
    10030    2    1    2    0    0  0.00000000000E+00  0.00000000000E+00 -0.49815908107E+03  0.17867338972E+04  0.17158833147E+04 0.  0.
        4    1    3    3  502    0  0.14954482193E+03 -0.92554792371E+02 -0.11234740236E+04  0.11371567781E+04  0.12699999809E+01 0. -1.
       -4    1    3    3    0  502 -0.14954482193E+03  0.92554792371E+02  0.62531494258E+03  0.64957711911E+03  0.12699999809E+01 0.  1.
</event>
<event>
 5   0  0.3377273E-04  0.1735962E+04  0.7818609E-02  0.8741116E-01
        1   -1    0    0  501    0  0.00000000000E+00  0.00000000000E+00  0.13055984683E+04  0.13055984683E+04  0.50400001928E-02 0. -1.
       -1   -1    0    0    0  501  0.00000000000E+00  0.00000000000E+00 -0.57704634363E+03  0.57704634365E+03  0.50400001928E-02 0.  1.
    10030    2    1    2    0    0  0.00000000000E+00  0.00000000000E+00  0.72855212464E+03  0.18826448119E+04  0.17359617765E+04 0.  0.
        2    1    3    3  502    0  0.42626943792E+03 -0.20355186153E+02 -0.45541324041E+03  0.62411632478E+03  0.25500000920E-02 0.  1.
       -2    1    3    3    0  502 -0.42626943792E+03  0.20355186153E+02  0.11839653650E+04  0.12585284871E+04  0.25500000920E-02 0. -1.
</event>
<event>
 5   0  0.3377273E-04  0.1779739E+04  0.7818609E-02  0.8717149E-01
        1   -1    0    0  501    0  0.00000000000E+00  0.00000000000E+00  0.51937359063E+03  0.51937359066E+03  0.50400001928E-02 0. -1.
       -1   -1    0    0    0  501  0.00000000000E+00  0.00000000000E+00 -0.15246597662E+04  0.15246597662E+04  0.50400001928E-02 0.  1.
    10030    2    1    2    0    0  0.00000000000E+00  0.00000000000E+00 -0.10052861756E+04  0.20440333569E+04  0.17797393262E+04 0.  0.
        2    1    3    3  502    0 -0.43031005072E+03 -0.21896580893E+03  0.35586104670E+03  0.59979150527E+03  0.25500000920E-02 0. -1.
       -2    1    3    3    0  502  0.43031005072E+03  0.21896580893E+03 -0.13611472223E+04  0.14442418516E+04  0.25500000920E-02 0.  1.
</event>
<event>
 5   0  0.3404261E-04  0.1827783E+04  0.7818609E-02  0.8691663E-01
        1   -1    0    0  501    0  0.00000000000E+00  0.00000000000E+00  0.25400272513E+04  0.25400272513E+04  0.50400001928E-02 0. -1.
       -1   -1    0    0    0  501  0.00000000000E+00  0.00000000000E+00 -0.32881436621E+03  0.32881436625E+03  0.50400001928E-02 0.  1.
    10030    2    1    2    0    0  0.00000000000E+00  0.00000000000E+00  0.22112128851E+04  0.28688416176E+04  0.18277827561E+04 0.  0.
        1    1    3    3  502    0  0.17910967953E+03  0.89209822202E+03  0.12395081475E+04  0.15376280313E+04  0.50400001928E-02 0. -1.
       -1    1    3    3    0  502 -0.17910967953E+03 -0.89209822202E+03  0.97170473760E+03  0.13312135862E+04  0.50400001928E-02 0.  1.
</event>
<event>
 5   0  0.3470962E-04  0.1631692E+04  0.7818609E-02  0.8801311E-01
        1   -1    0    0  501    0  0.00000000000E+00  0.00000000000E+00  0.95207712619E+03  0.95207712620E+03  0.50400001928E-02 0.  1.
       -1   -1    0    0    0  501  0.00000000000E+00  0.00000000000E+00 -0.69910807324E+03  0.69910807326E+03  0.50400001928E-02 0. -1.
    10030    2    1    2    0    0  0.00000000000E+00  0.00000000000E+00  0.25296905294E+03  0.16511851995E+04  0.16316921343E+04 0.  0.
        4    1    3    3  502    0 -0.29774316951E+03  0.53355041710E+03 -0.42059977887E+03  0.74177680569E+03  0.12699999809E+01 0. -1.
       -4    1    3    3    0  502  0.29774316951E+03 -0.53355041710E+03  0.67356883181E+03  0.90940839377E+03  0.12699999809E+01 0.  1.
</event>
<event>
 5   0  0.6774451E-04  0.1817764E+04  0.7818609E-02  0.8696910E-01
        2   -1    0    0  501    0  0.00000000000E+00  0.00000000000E+00  0.54791954202E+03  0.54791954202E+03  0.25500000920E-02 0.  1.
       -2   -1    0    0    0  501  0.00000000000E+00  0.00000000000E+00 -0.15076414834E+04  0.15076414834E+04  0.25500000920E-02 0. -1.
    10030    2    1    2    0    0  0.00000000000E+00  0.00000000000E+00 -0.95972194140E+03  0.20555610254E+04  0.18177637153E+04 0.  0.
        4    1    3    3  502    0  0.18574060494E+03 -0.83144735158E+03 -0.83792240514E+03  0.11949559995E+04  0.12699999809E+01 0. -1.
       -4    1    3    3    0  502 -0.18574060494E+03  0.83144735158E+03 -0.12179953626E+03  0.86060502596E+03  0.12699999809E+01 0.  1.
</event>
<event>
 5   0  0.6774451E-04  0.1829635E+04  0.7818609E-02  0.8690697E-01
       -2   -1    0    0    0  501  0.00000000000E+00  0.00000000000E+00  0.12153063245E+04  0.12153063245E+04  0.25500000920E-02 0. -1.
        2   -1    0    0  501    0  0.00000000000E+00  0.00000000000E+00 -0.68862593737E+03  0.68862593737E+03  0.25500000920E-02 0.  1.
    10030    2    1    2    0    0  0.00000000000E+00  0.00000000000E+00  0.52668038709E+03  0.19039322618E+04  0.18296354357E+04 0.  0.
        4    1    3    3  502    0 -0.80199128119E+03  0.50903375627E+02  0.71825191901E+03  0.10778073115E+04  0.12699999809E+01 0. -1.
       -4    1    3    3    0  502  0.80199128119E+03 -0.50903375627E+02 -0.19157153192E+03  0.82612495029E+03  0.12699999809E+01 0.  1.
</event>
<event>
 5   0  0.3413839E-04  0.1780464E+04  0.7818609E-02  0.8716758E-01
        1   -1    0    0  501    0  0.00000000000E+00  0.00000000000E+00  0.16832695382E+04  0.16832695382E+04  0.50400001928E-02 0. -1.
       -1   -1    0    0    0  501  0.00000000000E+00  0.00000000000E+00 -0.47081751366E+03  0.47081751368E+03  0.50400001928E-02 0.  1.
    10030    2    1    2    0    0  0.00000000000E+00  0.00000000000E+00  0.12124520245E+04  0.21540870519E+04  0.17804637360E+04 0.  0.
        5    1    3    3  502    0  0.48835962945E+03 -0.68853302808E+03  0.26420565191E+03  0.88453353522E+03  0.46999998093E+01 0.  1.
       -5    1    3    3    0  502 -0.48835962945E+03  0.68853302808E+03  0.94824637260E+03  0.12695535166E+04  0.46999998093E+01 0. -1.
</event>
<event>
 5   0  0.6853162E-04  0.1435401E+04  0.7818609E-02  0.8928585E-01
       -2   -1    0    0    0  501  0.00000000000E+00  0.00000000000E+00  0.87559131118E+03  0.87559131118E+03  0.25500000920E-02 0.  1.
        2   -1    0    0  501    0  0.00000000000E+00  0.00000000000E+00 -0.58828140921E+03  0.58828140922E+03  0.25500000920E-02 0. -1.
    10030    2    1    2    0    0  0.00000000000E+00  0.00000000000E+00  0.28730990197E+03  0.14638727204E+04  0.14354011153E+04 0.  0.
        2    1    3    3  502    0 -0.70943471059E+02  0.42774718788E+03  0.72692001903E+03  0.84641204322E+03  0.25500000920E-02 0.  1.
       -2    1    3    3    0  502  0.70943471059E+02 -0.42774718788E+03 -0.43961011707E+03  0.61746067718E+03  0.25500000920E-02 0. -1.
</event>
<event>
 5   0  0.3413839E-04  0.1804183E+04  0.7818609E-02  0.8704078E-01
        1   -1    0    0  501    0  0.00000000000E+00  0.00000000000E+00  0.15767690600E+04  0.15767690600E+04  0.50400001928E-02 0.  1.
       -1   -1    0    0    0  501  0.00000000000E+00  0.00000000000E+00 -0.51609888522E+03  0.51609888524E+03  0.50400001928E-02 0. -1.
    10030    2    1    2    0    0  0.00000000000E+00  0.00000000000E+00  0.10606701748E+04  0.20928679452E+04  0.18041826450E+04 0.  0.
        5    1    3    3  502    0 -0.30829420360E+03 -0.66875098631E+03  0.11347358723E+04  0.13527456478E+04  0.46999998093E+01 0.  1.
       -5    1    3    3    0  502  0.30829420360E+03  0.66875098631E+03 -0.74065697531E+02  0.74012229747E+03  0.46999998093E+01 0. -1.
</event>
<event>
 5   0  0.6771967E-04  0.1744534E+04  0.7818609E-02  0.8736365E-01
        2   -1    0    0  501    0  0.00000000000E+00  0.00000000000E+00  0.10665373412E+04  0.10665373412E+04  0.25500000920E-02 0. -1.
       -2   -1    0    0    0  501  0.00000000000E+00  0.00000000000E+00 -0.71338304388E+03  0.71338304388E+03  0.25500000920E-02 0.  1.
    10030    2    1    2    0    0  0.00000000000E+00  0.00000000000E+00  0.35315429733E+03  0.17799203851E+04  0.17445339262E+04 0.  0.
        1    1    3    3  502    0  0.47359370188E+03  0.35676917931E+03  0.82929945480E+03  0.10194669330E+04  0.50400001928E-02 0. -1.
       -1    1    3    3    0  502 -0.47359370188E+03 -0.35676917931E+03 -0.47614515747E+03  0.76045345207E+03  0.50400001928E-02 0.  1.
</event>
<event>
 5   0  0.6774451E-04  0.1461387E+04  0.7818609E-02  0.8910544E-01
        2   -1    0    0  501    0  0.00000000000E+00  0.00000000000E+00  0.11463207232E+04  0.11463207232E+04  0.25500000920E-02 0. -1.
       -2   -1    0    0    0  501  0.00000000000E+00  0.00000000000E+00 -0.46576228261E+03  0.46576228262E+03  0.25500000920E-02 0.  1.
    10030    2    1    2    0    0  0.00000000000E+00  0.00000000000E+00  0.68055844059E+03  0.16120830058E+04  0.14613869531E+04 0.  0.
        4    1    3    3  502    0 -0.47106669857E+03 -0.26768045618E+03  0.88109389547E+03  0.10343523223E+04  0.12699999809E+01 0. -1.
       -4    1    3    3    0  502  0.47106669857E+03  0.26768045618E+03 -0.20053545488E+03  0.57773068352E+03  0.12699999809E+01 0.  1.
</event>
<event>
 5   0  0.3308275E-04  0.1793111E+04  0.7818609E-02  0.8709971E-01
        1   -1    0    0  501    0  0.00000000000E+00  0.00000000000E+00  0.12714971035E+04  0.12714971035E+04  0.50400001928E-02 0.  1.
       -1   -1    0    0    0  501  0.00000000000E+00  0.00000000000E+00 -0.63217762280E+03  0.63217762282E+03  0.50400001928E-02 0. -1.
    10030    2    1    2    0    0  0.00000000000E+00  0.00000000000E+00  0.63931948070E+03  0.19036747263E+04  0.17931112808E+04 0.  0.
        3    1    3    3  502    0  0.58483692714E+03  0.67655592240E+03  0.38722219701E+03  0.97452716101E+03  0.10100000352E+00 0.  1.
       -3    1    3    3    0  502 -0.58483692714E+03 -0.67655592240E+03  0.25209728369E+03  0.92914756531E+03  0.10100000352E+00 0. -1.
</event>
<event>
 5   0  0.6774451E-04  0.1535074E+04  0.7818609E-02  0.8861458E-01
       -2   -1    0    0    0  501  0.00000000000E+00  0.00000000000E+00  0.45901559483E+03  0.45901559483E+03  0.25500000920E-02 0.  1.
        2   -1    0    0  501    0  0.00000000000E+00  0.00000000000E+00 -0.12834277833E+04  0.12834277833E+04  0.25500000920E-02 0. -1.
    10030    2    1    2    0    0  0.00000000000E+00  0.00000000000E+00 -0.82441218843E+03  0.17424433781E+04  0.15350744182E+04 0.  0.
        4    1    3    3  502    0  0.46865447055E+03 -0.58553503512E+03 -0.59741485391E+03  0.95885056745E+03  0.12699999809E+01 0. -1.
       -4    1    3    3    0  502 -0.46865447055E+03  0.58553503512E+03 -0.22699733452E+03  0.78359281065E+03  0.12699999809E+01 0.  1.
</event>
<event>
 5   0  0.6547153E-04  0.1782072E+04  0.7818609E-02  0.8715892E-01
       -2   -1    0    0    0  501  0.00000000000E+00  0.00000000000E+00  0.14456339844E+04  0.14456339844E+04  0.25500000920E-02 0.  1.
        2   -1    0    0  501    0  0.00000000000E+00  0.00000000000E+00 -0.54920202673E+03  0.54920202674E+03  0.25500000920E-02 0. -1.
    10030    2    1    2    0    0  0.00000000000E+00  0.00000000000E+00  0.89643195767E+03  0.19948360111E+04  0.17820719561E+04 0.  0.
        5    1    3    3  502    0 -0.21719372979E+03  0.80429680586E+03  0.94487313601E+02  0.83846073886E+03  0.46999998093E+01 0. -1.
       -5    1    3    3    0  502  0.21719372979E+03 -0.80429680586E+03  0.80194464407E+03  0.11563752723E+04  0.46999998093E+01 0.  1.
</event>
<event>
 5   0  0.6771967E-04  0.1887693E+04  0.7818609E-02  0.8661007E-01
       -2   -1    0    0    0  501  0.00000000000E+00  0.00000000000E+00  0.56835507292E+03  0.56835507292E+03  0.25500000920E-02 0.  1.
        2   -1    0    0  501    0  0.00000000000E+00  0.00000000000E+00 -0.15674110604E+04  0.15674110604E+04  0.25500000920E-02 0. -1.
    10030    2    1    2    0    0  0.00000000000E+00  0.00000000000E+00 -0.99905598748E+03  0.21357661333E+04  0.18876928008E+04 0.  0.
        1    1    3    3  502    0 -0.77981747922E+03  0.35930634943E+03 -0.56062400318E+02  0.86044136720E+03  0.50400001928E-02 0.  1.
       -1    1    3    3    0  502  0.77981747922E+03 -0.35930634943E+03 -0.94299358716E+03  0.12753247661E+04  0.50400001928E-02 0. -1.
</event>
<event>
 5   0  0.3470962E-04  0.1815079E+04  0.7818609E-02  0.8698322E-01
        1   -1    0    0  501    0  0.00000000000E+00  0.00000000000E+00  0.11463580589E+04  0.11463580589E+04  0.50400001928E-02 0. -1.
       -1   -1    0    0    0  501  0.00000000000E+00  0.00000000000E+00 -0.71847340152E+03  0.71847340154E+03  0.50400001928E-02 0.  1.
    10030    2    1    2    0    0  0.00000000000E+00  0.00000000000E+00  0.42788465740E+03  0.18648314605E+04  0.18150788126E+04 0.  0.
        4    1    3    3  502    0  0.34298572949E+03  0.43490071091E+03  0.95257013898E+03  0.11018935164E+04  0.12699999809E+01 0. -1.
       -4    1    3    3    0  502 -0.34298572949E+03 -0.43490071091E+03 -0.52468548157E+03  0.76293794404E+03  0.12699999809E+01 0.  1.
</event>
<event>
 5   0  0.6771967E-04  0.1722762E+04  0.7818609E-02  0.8748488E-01
        2   -1    0    0  501    0  0.00000000000E+00  0.00000000000E+00  0.10772075458E+04  0.10772075458E+04  0.25500000920E-02 0.  1.
       -2   -1    0    0    0  501  0.00000000000E+00  0.00000000000E+00 -0.68879700487E+03  0.68879700487E+03  0.25500000920E-02 0. -1.
    10030    2    1    2    0    0  0.00000000000E+00  0.00000000000E+00  0.38841054096E+03  0.17660045507E+04  0.17227621208E+04 0.  0.
        1    1    3    3  502    0  0.11375556776E+03  0.49159342243E+03  0.90984953772E+03  0.10403992520E+04  0.50400001928E-02 0.  1.
       -1    1    3    3    0  502 -0.11375556776E+03 -0.49159342243E+03 -0.52143899676E+03  0.72560529873E+03  0.50400001928E-02 0. -1.
</event>
<event>
 5   0  0.3377273E-04  0.1866680E+04  0.7818609E-02  0.8671622E-01
       -1   -1    0    0    0  501  0.00000000000E+00  0.00000000000E+00  0.34702807444E+03  0.34702807448E+03  0.50400001928E-02 0.  1.
        1   -1    0    0  501    0  0.00000000000E+00  0.00000000000E+00 -0.25102382302E+04  0.25102382302E+04  0.50400001928E-02 0. -1.
    10030    2    1    2    0    0  0.00000000000E+00  0.00000000000E+00 -0.21632101558E+04  0.28572663047E+04  0.18666795542E+04 0.  0.
        2    1    3    3  502    0  0.34165293103E+03  0.34181890529E+02 -0.24100519193E+04  0.24343880916E+04  0.25500000920E-02 0. -1.
       -2    1    3    3    0  502 -0.34165293103E+03 -0.34181890529E+02  0.24684176349E+03  0.42287821312E+03  0.25500000920E-02 0.  1.
</event>
<event>
 5   0  0.6929121E-04  0.1679153E+04  0.7818609E-02  0.8773344E-01
       -2   -1    0    0    0  501  0.00000000000E+00  0.00000000000E+00  0.94549018259E+03  0.94549018259E+03  0.25500000920E-02 0.  1.
        2   -1    0    0  501    0  0.00000000000E+00  0.00000000000E+00 -0.74552749299E+03  0.74552749300E+03  0.25500000920E-02 0. -1.
    10030    2    1    2    0    0  0.00000000000E+00  0.00000000000E+00  0.19996268960E+03  0.16910176756E+04  0.16791532693E+04 0.  0.
        3    1    3    3  502    0 -0.57047345436E+03 -0.52155816312E+03  0.43005630710E+03  0.88454017270E+03  0.10100000352E+00 0. -1.
       -3    1    3    3    0  502  0.57047345436E+03  0.52155816312E+03 -0.23009361750E+03  0.80647750289E+03  0.10100000352E+00 0.  1.
</event>
<event>
 5   0  0.3470962E-04  0.1744208E+04  0.7818609E-02  0.8736545E-01
       -1   -1    0    0    0  501  0.00000000000E+00  0.00000000000E+00  0.69451037153E+03  0.69451037155E+03  0.50400001928E-02 0. -1.
        1   -1    0    0  501    0  0.00000000000E+00  0.00000000000E+00 -0.10951097488E+04  0.10951097489E+04  0.50400001928E-02 0.  1.
    10030    2    1    2    0    0  0.00000000000E+00  0.00000000000E+00 -0.40059937731E+03  0.17896201204E+04  0.17442076465E+04 0.  0.
        4    1    3    3  502    0 -0.42170201225E+02  0.38420356257E+03 -0.10024295111E+04  0.10743636446E+04  0.12699999809E+01 0.  1.
       -4    1    3    3    0  502  0.42170201225E+02 -0.38420356257E+03  0.60183013375E+03  0.71525647578E+03  0.12699999809E+01 0. -1.
</event>
<event>
 5   0  0.3470962E-04  0.1765354E+04  0.7818609E-02  0.8724944E-01
       -1   -1    0    0    0  501  0.00000000000E+00  0.00000000000E+00  0.13605506736E+04  0.13605506736E+04  0.50400001928E-02 0.  1.
        1   -1    0    0  501    0  0.00000000000E+00  0.00000000000E+00 -0.57264923431E+03  0.57264923434E+03  0.50400001928E-02 0. -1.
    10030    2    1    2    0    0  0.00000000000E+00  0.00000000000E+00  0.78790143924E+03  0.19331999079E+04  0.17653535640E+04 0.  0.
        4    1    3    3  502    0 -0.47064368434E+03 -0.10647138972E+03 -0.41542608012E+03  0.63672763045E+03  0.12699999809E+01 0. -1.
       -4    1    3    3    0  502  0.47064368434E+03  0.10647138972E+03  0.12033275194E+04  0.12964722774E+04  0.12699999809E+01 0.  1.
</event>
<event>
 5   0  0.6771967E-04  0.1807706E+04  0.7818609E-02  0.8702212E-01
       -2   -1    0    0    0  501  0.00000000000E+00  0.00000000000E+00  0.77129846370E+03  0.77129846371E+03  0.25500000920E-02 0.  1.
        2   -1    0    0  501    0  0.00000000000E+00  0.00000000000E+00 -0.10591886467E+04  0.10591886467E+04  0.25500000920E-02 0. -1.
    10030    2    1    2    0    0  0.00000000000E+00  0.00000000000E+00 -0.28789018304E+03  0.18304871105E+04  0.18077063656E+04 0.  0.
        1    1    3    3  502    0 -0.62525029535E+03 -0.13216842306E+03  0.50328438353E+03  0.81345042542E+03  0.50400001928E-02 0.  1.
       -1    1    3    3    0  502  0.62525029535E+03  0.13216842306E+03 -0.79117456657E+03  0.10170366850E+04  0.50400001928E-02 0. -1.
</event>
<event>
 5   0  0.6774451E-04  0.1705754E+04  0.7818609E-02  0.8758089E-01
        2   -1    0    0  501    0  0.00000000000E+00  0.00000000000E+00  0.34540315622E+04  0.34540315622E+04  0.25500000920E-02 0.  1.
       -2   -1    0    0    0  501  0.00000000000E+00  0.00000000000E+00 -0.21059424298E+03  0.21059424299E+03  0.25500000920E-02 0. -1.
    10030    2    1    2    0    0  0.00000000000E+00  0.00000000000E+00  0.32434373192E+04  0.36646258052E+04  0.17057539824E+04 0.  0.
        4    1    3    3  502    0 -0.22723455005E+03 -0.17816528293E+03  0.33458193629E+04  0.33582565761E+04  0.12699999809E+01 0.  1.
       -4    1    3    3    0  502  0.22723455005E+03  0.17816528293E+03 -0.10238204367E+03  0.30636922911E+03  0.12699999809E+01 0. -1.
</event>
<event>
 5   0  0.3413839E-04  0.1836138E+04  0.7818609E-02  0.8687315E-01
       -1   -1    0    0    0  501  0.00000000000E+00  0.00000000000E+00  0.61812827079E+03  0.61812827081E+03  0.50400001928E-02 0. -1.
        1   -1    0    0  501    0  0.00000000000E+00  0.00000000000E+00 -0.13635524859E+04  0.13635524859E+04  0.50400001928E-02 0.  1.
    10030    2    1    2    0    0  0.00000000000E+00  0.00000000000E+00 -0.74542421512E+03  0.19816807567E+04  0.18361376204E+04 0.  0.
        5    1    3    3  502    0 -0.59493940822E+03  0.42640746368E+03 -0.97075791029E+03  0.12157998334E+04  0.46999998093E+01 0.  1.
       -5    1    3    3    0  502  0.59493940822E+03 -0.42640746368E+03  0.22533369517E+03  0.76588092333E+03  0.46999998093E+01 0. -1.
</event>
<event>
 5   0  0.6771967E-04  0.1782634E+04  0.7818609E-02  0.8715590E-01
        2   -1    0    0  501    0  0.00000000000E+00  0.00000000000E+00  0.57043873436E+03  0.57043873436E+03  0.25500000920E-02 0.  1.
       -2   -1    0    0    0  501  0.00000000000E+00  0.00000000000E+00 -0.13926922917E+04  0.13926922917E+04  0.25500000920E-02 0. -1.
    10030    2    1    2    0    0  0.00000000000E+00  0.00000000000E+00 -0.82225355737E+03  0.19631310261E+04  0.17826335891E+04 0.  0.
        1    1    3    3  502    0 -0.26299900426E+03 -0.82529993758E+03 -0.17971375714E+03  0.88463862551E+03  0.50400001928E-02 0. -1.
       -1    1    3    3    0  502  0.26299900426E+03  0.82529993758E+03 -0.64253980023E+03  0.10784924006E+04  0.50400001928E-02 0.  1.
</event>
<event>
 5   0  0.6929121E-04  0.1769548E+04  0.7818609E-02  0.8722663E-01
       -2   -1    0    0    0  501  0.00000000000E+00  0.00000000000E+00  0.10668109537E+04  0.10668109537E+04  0.25500000920E-02 0.  1.
        2   -1    0    0  501    0  0.00000000000E+00  0.00000000000E+00 -0.73379948219E+03  0.73379948219E+03  0.25500000920E-02 0. -1.
    10030    2    1    2    0    0  0.00000000000E+00  0.00000000000E+00  0.33301147155E+03  0.18006104359E+04  0.17695483327E+04 0.  0.
        3    1    3    3  502    0 -0.78055432472E+03 -0.45814130069E+02 -0.25484176648E+03  0.82237967174E+03  0.10100000352E+00 0. -1.
       -3    1    3    3    0  502  0.78055432472E+03  0.45814130069E+02  0.58785323803E+03  0.97823076420E+03  0.10100000352E+00 0.  1.
</event>
<event>
 5   0  0.3404261E-04  0.1836465E+04  0.7818609E-02  0.8687145E-01
       -1   -1    0    0    0  501  0.00000000000E+00  0.00000000000E+00  0.33083046247E+03  0.33083046251E+03  0.50400001928E-02 0. -1.
        1   -1    0    0  501    0  0.00000000000E+00  0.00000000000E+00 -0.25485882712E+04  0.25485882712E+04  0.50400001928E-02 0.  1.
    10030    2    1    2    0    0  0.00000000000E+00  0.00000000000E+00 -0.22177578087E+04  0.28794187337E+04  0.18364646868E+04 0.  0.
        1    1    3    3  502    0 -0.63346133736E+03 -0.14215304203E+03 -0.90736475920E+02  0.65552563746E+03  0.50400001928E-02 0. -1.
       -1    1    3    3    0  502  0.63346133736E+03  0.14215304203E+03 -0.21270213328E+04  0.22238930962E+04  0.50400001928E-02 0.  1.
</event>
<event>
 5   0  0.3404261E-04  0.1792769E+04  0.7818609E-02  0.8710154E-01
       -1   -1    0    0    0  501  0.00000000000E+00  0.00000000000E+00  0.10870489829E+04  0.10870489829E+04  0.50400001928E-02 0. -1.
        1   -1    0    0  501    0  0.00000000000E+00  0.00000000000E+00 -0.73916220306E+03  0.73916220308E+03  0.50400001928E-02 0.  1.
    10030    2    1    2    0    0  0.00000000000E+00  0.00000000000E+00  0.34788677980E+03  0.18262111860E+04  0.17927693896E+04 0.  0.
        1    1    3    3  502    0 -0.19816963615E+03 -0.37280145320E+02  0.10636454210E+04  0.10825906870E+04  0.50400001928E-02 0. -1.
       -1    1    3    3    0  502  0.19816963615E+03  0.37280145320E+02 -0.71575864123E+03  0.74362049894E+03  0.50400001928E-02 0.  1.
</event>
<event>
 5   0  0.3308275E-04  0.1861946E+04  0.7818609E-02  0.8674034E-01
       -1   -1    0    0    0  501  0.00000000000E+00  0.00000000000E+00  0.65909997060E+03  0.65909997062E+03  0.50400001928E-02 0.  1.
        1   -1    0    0  501    0  0.00000000000E+00  0.00000000000E+00 -0.13149907731E+04  0.13149907731E+04  0.50400001928E-02 0. -1.
    10030    2    1    2    0    0  0.00000000000E+00  0.00000000000E+00 -0.65589080254E+03  0.19740907438E+04  0.18619456275E+04 0.  0.
        3    1    3    3  502    0  0.26459482158E+03 -0.88380732015E+03 -0.19558820975E+03  0.94306975180E+03  0.10100000352E+00 0. -1.
       -3    1    3    3    0  502 -0.26459482158E+03  0.88380732015E+03 -0.46030259279E+03  0.10310209920E+04  0.10100000352E+00 0.  1.
</event>
<event>
 5   0  0.3413839E-04  0.1207290E+04  0.7818609E-02  0.9106500E-01
        1   -1    0    0  501    0  0.00000000000E+00  0.00000000000E+00  0.52479313739E+03  0.52479313742E+03  0.50400001928E-02 0. -1.
       -1   -1    0    0    0  501  0.00000000000E+00  0.00000000000E+00 -0.69434436859E+03  0.69434436861E+03  0.50400001928E-02 0.  1.
    10030    2    1    2    0    0  0.00000000000E+00  0.00000000000E+00 -0.16955123120E+03  0.12191375060E+04  0.12072897906E+04 0.  0.
        5    1    3    3  502    0  0.46366866982E+02  0.29517490650E+03 -0.61440999062E+03  0.68322751581E+03  0.46999998093E+01 0.  1.
       -5    1    3    3    0  502 -0.46366866982E+02 -0.29517490650E+03  0.44485875943E+03  0.53590999022E+03  0.46999998093E+01 0. -1.
</event>
<event>
 5   0  0.3308275E-04  0.1798162E+04  0.7818609E-02  0.8707277E-01
       -1   -1    0    0    0  501  0.00000000000E+00  0.00000000000E+00  0.62389965157E+03  0.62389965159E+03  0.50400001928E-02 0.  1.
        1   -1    0    0  501    0  0.00000000000E+00  0.00000000000E+00 -0.12956357892E+04  0.12956357893E+04  0.50400001928E-02 0. -1.
    10030    2    1    2    0    0  0.00000000000E+00  0.00000000000E+00 -0.67173613767E+03  0.19195354408E+04  0.17981620811E+04 0.  0.
        3    1    3    3  502    0  0.29827295327E+03 -0.80339765076E+03 -0.45610188837E+02  0.85819277521E+03  0.10100000352E+00 0.  1.
       -3    1    3    3    0  502 -0.29827295327E+03  0.80339765076E+03 -0.62612594884E+03  0.10613426656E+04  0.10100000352E+00 0. -1.
</event>
<event>
 5   0  0.6774451E-04  0.1809496E+04  0.7818609E-02  0.8701266E-01
        2   -1    0    0  501    0  0.00000000000E+00  0.00000000000E+00  0.61574889335E+03  0.61574889335E+03  0.25500000920E-02 0. -1.
       -2   -1    0    0    0  501  0.00000000000E+00  0.00000000000E+00 -0.13293876701E+04  0.13293876701E+04  0.25500000920E-02 0.  1.
    10030    2    1    2    0    0  0.00000000000E+00  0.00000000000E+00 -0.71363877676E+03  0.19451365635E+04  0.18094960478E+04 0.  0.
        4    1    3    3  502    0 -0.28800521958E+03 -0.30114986751E+03 -0.12200929759E+04  0.12892892352E+04  0.12699999809E+01 0.  1.
       -4    1    3    3    0  502  0.28800521958E+03  0.30114986751E+03  0.50645419918E+03  0.65584732825E+03  0.12699999809E+01 0. -1.
</event>
<event>
 5   0  0.6771967E-04  0.1761048E+04  0.7818609E-02  0.8727292E-01
       -2   -1    0    0    0  501  0.00000000000E+00  0.00000000000E+00  0.32416072889E+03  0.32416072890E+03  0.25500000920E-02 0. -1.
        2   -1    0    0  501    0  0.00000000000E+00  0.00000000000E+00 -0.23917853488E+04  0.23917853488E+04  0.25500000920E-02 0.  1.
    10030    2    1    2    0    0  0.00000000000E+00  0.00000000000E+00 -0.20676246199E+04  0.27159460777E+04  0.17610484173E+04 0.  0.
        1    1    3    3  502    0 -0.85288261879E+03 -0.67453758042E+02 -0.71265702662E+03  0.11134804931E+04  0.50400001928E-02 0. -1.
       -1    1    3    3    0  502  0.85288261879E+03  0.67453758042E+02 -0.13549675933E+04  0.16024655846E+04  0.50400001928E-02 0.  1.
</event>
<event>
 5   0  0.3377273E-04  0.1809032E+04  0.7818609E-02  0.8701511E-01
        1   -1    0    0  501    0  0.00000000000E+00  0.00000000000E+00  0.11569407912E+04  0.11569407912E+04  0.50400001928E-02 0.  1.
       -1   -1    0    0    0  501  0.00000000000E+00  0.00000000000E+00 -0.70716580854E+03  0.70716580856E+03  0.50400001928E-02 0. -1.
    10030    2    1    2    0    0  0.00000000000E+00  0.00000000000E+00  0.44977498265E+03  0.18641065998E+04  0.18090317521E+04 0.  0.
        2    1    3    3  502    0  0.75790445969E+03 -0.13860329077E+03  0.71314736475E+03  0.10498615176E+04  0.25500000920E-02 0.  1.
       -2    1    3    3    0  502 -0.75790445969E+03  0.13860329077E+03 -0.26337238210E+03  0.81424508220E+03  0.25500000920E-02 0. -1.
</event>
<event>
 5   0  0.6547153E-04  0.1796838E+04  0.7818609E-02  0.8707983E-01
        2   -1    0    0  501    0  0.00000000000E+00  0.00000000000E+00  0.74367962711E+03  0.74367962711E+03  0.25500000920E-02 0. -1.
       -2   -1    0    0    0  501  0.00000000000E+00  0.00000000000E+00 -0.10853555380E+04  0.10853555380E+04  0.25500000920E-02 0.  1.
    10030    2    1    2    0    0  0.00000000000E+00  0.00000000000E+00 -0.34167591084E+03  0.18290351651E+04  0.17968381137E+04 0.  0.
        5    1    3    3  502    0  0.61942304944E+03  0.51408608140E+03 -0.57694198448E+03  0.99038051107E+03  0.46999998093E+01 0.  1.
       -5    1    3    3    0  502 -0.61942304944E+03 -0.51408608140E+03  0.23526607363E+03  0.83865465400E+03  0.46999998093E+01 0. -1.
</event>
<event>
 5   0  0.3377273E-04  0.1828960E+04  0.7818609E-02  0.8691049E-01
        1   -1    0    0  501    0  0.00000000000E+00  0.00000000000E+00  0.77153782295E+03  0.77153782297E+03  0.50400001928E-02 0. -1.
       -1   -1    0    0    0  501  0.00000000000E+00  0.00000000000E+00 -0.10839048199E+04  0.10839048199E+04  0.50400001928E-02 0.  1.
    10030    2    1    2    0    0  0.00000000000E+00  0.00000000000E+00 -0.31236699698E+03  0.18554426429E+04  0.18289598848E+04 0.  0.
        2    1    3    3  502    0  0.32268983629E+03  0.73850651168E+03 -0.59459012360E+03  0.10015278395E+04  0.25500000920E-02 0.  1.
       -2    1    3    3    0  502 -0.32268983629E+03 -0.73850651168E+03  0.28222312662E+03  0.85391480339E+03  0.25500000920E-02 0. -1.
</event>
<event>
 5   0  0.6853162E-04  0.1997414E+04  0.7818609E-02  0.8607831E-01
       -2   -1    0    0    0  501  0.00000000000E+00  0.00000000000E+00  0.11859647142E+04  0.11859647142E+04  0.25500000920E-02 0.  1.
        2   -1    0    0  501    0  0.00000000000E+00  0.00000000000E+00 -0.84101596677E+03  0.84101596677E+03  0.25500000920E-02 0. -1.
    10030    2    1    2    0    0  0.00000000000E+00  0.00000000000E+00  0.34494874741E+03  0.20269806810E+04  0.19974135883E+04 0.  0.
        2    1    3    3  502    0  0.36784313009E+03  0.84685720260E+03 -0.21387044722E+03  0.94774271728E+03  0.25500000920E-02 0. -1.
       -2    1    3    3    0  502 -0.36784313009E+03 -0.84685720260E+03  0.55881919464E+03  0.10792379637E+04  0.25500000920E-02 0.  1.
</event>
<event>
 5   0  0.6929121E-04  0.1799272E+04  0.7818609E-02  0.8706687E-01
        2   -1    0    0  501    0  0.00000000000E+00  0.00000000000E+00  0.15806108168E+04  0.15806108168E+04  0.25500000920E-02 0.  1.
       -2   -1    0    0    0  501  0.00000000000E+00  0.00000000000E+00 -0.51204567035E+03  0.51204567036E+03  0.25500000920E-02 0. -1.
    10030    2    1    2    0    0  0.00000000000E+00  0.00000000000E+00  0.10685651465E+04  0.20926564872E+04  0.17992719920E+04 0.  0.
        3    1    3    3  502    0  0.19861377243E+03  0.65891008444E+03  0.12081887298E+04  0.13904423566E+04  0.10100000352E+00 0.  1.
       -3    1    3    3    0  502 -0.19861377243E+03 -0.65891008444E+03 -0.13962358333E+03  0.70221413059E+03  0.10100000352E+00 0. -1.
</event>
<event>
 5   0  0.2467375E-04  0.1028657E+04  0.7818609E-02  0.9277661E-01
        3   -1    0    0  501    0  0.00000000000E+00  0.00000000000E+00  0.25020331651E+03  0.25020333690E+03  0.10100000352E+00 0. -1.
       -3   -1    0    0    0  501  0.00000000000E+00  0.00000000000E+00 -0.10572756157E+04  0.10572756206E+04  0.10100000352E+00 0.  1.
    10030    2    1    2    0    0  0.00000000000E+00  0.00000000000E+00 -0.80707229923E+03  0.13074789575E+04  0.10286571479E+04 0.  0.
        3    1    3    3  502    0 -0.25307129800E+02 -0.42430572176E+03 -0.77161130609E+03  0.88094257147E+03  0.10100000352E+00 0.  1.
       -3    1    3    3    0  502  0.25307129800E+02  0.42430572176E+03 -0.35460993140E+02  0.42653638599E+03  0.10100000352E+00 0. -1.
</event>
<event>
 5   0  0.6771967E-04  0.1795040E+04  0.7818609E-02  0.8708942E-01
       -2   -1    0    0    0  501  0.00000000000E+00  0.00000000000E+00  0.97107547283E+03  0.97107547284E+03  0.25500000920E-02 0. -1.
        2   -1    0    0  501    0  0.00000000000E+00  0.00000000000E+00 -0.82953580129E+03  0.82953580130E+03  0.25500000920E-02 0.  1.
    10030    2    1    2    0    0  0.00000000000E+00  0.00000000000E+00  0.14153967154E+03  0.18006112741E+04  0.17950396881E+04 0.  0.
        1    1    3    3  502    0  0.73610387310E+03 -0.48381492341E+03  0.24339721807E+03  0.91387526386E+03  0.50400001928E-02 0. -1.
       -1    1    3    3    0  502 -0.73610387310E+03  0.48381492341E+03 -0.10185754653E+03  0.88673601027E+03  0.50400001928E-02 0.  1.
</event>
<event>
 5   0  0.6774451E-04  0.1852519E+04  0.7818609E-02  0.8678859E-01
        2   -1    0    0  501    0  0.00000000000E+00  0.00000000000E+00  0.10108818549E+04  0.10108818549E+04  0.25500000920E-02 0. -1.
       -2   -1    0    0    0  501  0.00000000000E+00  0.00000000000E+00 -0.84872085026E+03  0.84872085026E+03  0.25500000920E-02 0.  1.
    10030    2    1    2    0    0  0.00000000000E+00  0.00000000000E+00  0.16216100460E+03  0.18596027051E+04  0.18525188338E+04 0.  0.
        4    1    3    3  502    0  0.80681601488E+03  0.22704714451E+03 -0.31470170156E+03  0.89528836782E+03  0.12699999809E+01 0.  1.
       -4    1    3    3    0  502 -0.80681601488E+03 -0.22704714451E+03  0.47686270616E+03  0.96431433730E+03  0.12699999809E+01 0. -1.
</event>
<event>
 5   0  0.3413839E-04  0.1876781E+04  0.7818609E-02  0.8666501E-01
        1   -1    0    0  501    0  0.00000000000E+00  0.00000000000E+00  0.17737568861E+04  0.17737568861E+04  0.50400001928E-02 0.  1.
       -1   -1    0    0    0  501  0.00000000000E+00  0.00000000000E+00 -0.49644749019E+03  0.49644749022E+03  0.50400001928E-02 0. -1.
    10030    2    1    2    0    0  0.00000000000E+00  0.00000000000E+00  0.12773093959E+04  0.22702043763E+04  0.18767814517E+04 0.  0.
        5    1    3    3  502    0 -0.87657701464E+03 -0.33464001428E+03  0.62225265466E+03  0.11258737309E+04  0.46999998093E+01 0. -1.
       -5    1    3    3    0  502  0.87657701464E+03  0.33464001428E+03  0.65505674126E+03  0.11443306454E+04  0.46999998093E+01 0.  1.
</event>
<event>
 5   0  0.3470962E-04  0.1710597E+04  0.7818609E-02  0.8755344E-01
        1   -1    0    0  501    0  0.00000000000E+00  0.00000000000E+00  0.14579178825E+04  0.14579178825E+04  0.50400001928E-02 0. -1.
       -1   -1    0    0    0  501  0.00000000000E+00  0.00000000000E+00 -0.50176721355E+03  0.50176721357E+03  0.50400001928E-02 0.  1.
    10030    2    1    2    0    0  0.00000000000E+00  0.00000000000E+00  0.95615066895E+03  0.19596850961E+04  0.17105968473E+04 0.  0.
        4    1    3    3  502    0  0.46588693681E+03  0.26672051438E+03 -0.28472118385E+03  0.60766622097E+03  0.12699999809E+01 0.  1.
       -4    1    3    3    0  502 -0.46588693681E+03 -0.26672051438E+03  0.12408718528E+04  0.13520188751E+04  0.12699999809E+01 0. -1.
</event>
<event>
 5   0  0.3413839E-04  0.1824956E+04  0.7818609E-02  0.8693140E-01
       -1   -1    0    0    0  501  0.00000000000E+00  0.00000000000E+00  0.48362109206E+03  0.48362109209E+03  0.50400001928E-02 0. -1.
        1   -1    0    0  501    0  0.00000000000E+00  0.00000000000E+00 -0.17216282982E+04  0.17216282982E+04  0.50400001928E-02 0.  1.
    10030    2    1    2    0    0  0.00000000000E+00  0.00000000000E+00 -0.12380072061E+04  0.22052493903E+04  0.18249556244E+04 0.  0.
        5    1    3    3  502    0  0.66235816425E+03 -0.35649506067E+03  0.51441474274E+01  0.75223375242E+03  0.46999998093E+01 0. -1.
       -5    1    3    3    0  502 -0.66235816425E+03  0.35649506067E+03 -0.12431513535E+04  0.14530156378E+04  0.46999998093E+01 0.  1.
</event>
<event>
 5   0  0.6929121E-04  0.1817659E+04  0.7818609E-02  0.8696965E-01
       -2   -1    0    0    0  501  0.00000000000E+00  0.00000000000E+00  0.20597838422E+04  0.20597838422E+04  0.25500000920E-02 0.  1.
        2   -1    0    0  501    0  0.00000000000E+00  0.00000000000E+00 -0.40099879829E+03  0.40099879830E+03  0.25500000920E-02 0. -1.
    10030    2    1    2    0    0  0.00000000000E+00  0.00000000000E+00  0.16587850439E+04  0.24607826405E+04  0.18176587639E+04 0.  0.
        3    1    3    3  502    0 -0.54759152849E+03  0.20342555681E+03  0.17719588532E+04  0.18657643546E+04  0.10100000352E+00 0.  1.
       -3    1    3    3    0  502  0.54759152849E+03 -0.20342555681E+03 -0.11317380930E+03  0.59501828590E+03  0.10100000352E+00 0. -1.
</event>
<event>
 5   0  0.6853162E-04  0.1760483E+04  0.7818609E-02  0.8727601E-01
        2   -1    0    0  501    0  0.00000000000E+00  0.00000000000E+00  0.65745969506E+03  0.65745969506E+03  0.25500000920E-02 0.  1.
       -2   -1    0    0    0  501  0.00000000000E+00  0.00000000000E+00 -0.11785129529E+04  0.11785129529E+04  0.25500000920E-02 0. -1.
    10030    2    1    2    0    0  0.00000000000E+00  0.00000000000E+00 -0.52105325786E+03  0.18359726480E+04  0.17604826232E+04 0.  0.
        2    1    3    3  502    0  0.42111734141E+03 -0.35623679590E+03  0.45487732107E+03  0.71495303847E+03  0.25500000920E-02 0.  1.
       -2    1    3    3    0  502 -0.42111734141E+03  0.35623679590E+03 -0.97593057894E+03  0.11210196095E+04  0.25500000920E-02 0. -1.
</event>
<event>
 5   0  0.6547153E-04  0.1793781E+04  0.7818609E-02  0.8709613E-01
       -2   -1    0    0    0  501  0.00000000000E+00  0.00000000000E+00  0.86363142333E+03  0.86363142333E+03  0.25500000920E-02 0. -1.
        2   -1    0    0  501    0  0.00000000000E+00  0.00000000000E+00 -0.93143089390E+03  0.93143089391E+03  0.25500000920E-02 0.  1.
    10030    2    1    2    0    0  0.00000000000E+00  0.00000000000E+00 -0.67799470576E+02  0.17950623172E+04  0.17937814679E+04 0.  0.
        5    1    3    3  502    0  0.86530089755E+02  0.51562775315E+03 -0.76313913287E+03  0.92507451720E+03  0.46999998093E+01 0.  1.
       -5    1    3    3    0  502 -0.86530089755E+02 -0.51562775315E+03  0.69533966230E+03  0.86998780004E+03  0.46999998093E+01 0. -1.
</event>
<event>
 5   0  0.3470962E-04  0.1792120E+04  0.7818609E-02  0.8710501E-01
        1   -1    0    0  501    0  0.00000000000E+00  0.00000000000E+00  0.14603899944E+04  0.14603899944E+04  0.50400001928E-02 0. -1.
       -1   -1    0    0    0  501  0.00000000000E+00  0.00000000000E+00 -0.54980068172E+03  0.54980068175E+03  0.50400001928E-02 0.  1.
    10030    2    1    2    0    0  0.00000000000E+00  0.00000000000E+00  0.91058931267E+03  0.20101906761E+04  0.17921198783E+04 0.  0.
        4    1    3    3  502    0 -0.23126724093E+03  0.45421272026E+03  0.12819439926E+04  0.13795563580E+04  0.12699999809E+01 0. -1.
       -4    1    3    3    0  502  0.23126724093E+03 -0.45421272026E+03 -0.37135467993E+03  0.63063431811E+03  0.12699999809E+01 0.  1.
</event>
<event>
 5   0  0.3404261E-04  0.1822469E+04  0.7818609E-02  0.8694441E-01
        1   -1    0    0  501    0  0.00000000000E+00  0.00000000000E+00  0.55874162825E+03  0.55874162827E+03  0.50400001928E-02 0.  1.
       -1   -1    0    0    0  501  0.00000000000E+00  0.00000000000E+00 -0.14861046752E+04  0.14861046752E+04  0.50400001928E-02 0. -1.
    10030    2    1    2    0    0  0.00000000000E+00  0.00000000000E+00 -0.92736304698E+03  0.20448463035E+04  0.18224692546E+04 0.  0.
        1    1    3    3  502    0 -0.90122917935E+02 -0.26580309574E+03  0.50903581632E+03  0.58128382771E+03  0.50400001928E-02 0.  1.
       -1    1    3    3    0  502  0.90122917935E+02  0.26580309574E+03 -0.14363988633E+04  0.14635624758E+04  0.50400001928E-02 0. -1.
</event>
<event>
 5   0  0.6853162E-04  0.1822054E+04  0.7818609E-02  0.8694658E-01
       -2   -1    0    0    0  501  0.00000000000E+00  0.00000000000E+00  0.13428121097E+04  0.13428121097E+04  0.25500000920E-02 0.  1.
        2   -1    0    0  501    0  0.00000000000E+00  0.00000000000E+00 -0.61808393085E+03  0.61808393085E+03  0.25500000920E-02 0. -1.
    10030    2    1    2    0    0  0.00000000000E+00  0.00000000000E+00  0.72472817883E+03  0.19608960405E+04  0.18220544307E+04 0.  0.
        2    1    3    3  502    0 -0.59240157516E+03  0.69198343241E+03  0.34753397646E+03  0.97496695420E+03  0.25500000920E-02 0. -1.
       -2    1    3    3    0  502  0.59240157516E+03 -0.69198343241E+03  0.37719420237E+03  0.98592908634E+03  0.25500000920E-02 0.  1.
</event>
<event>
 5   0  0.2467375E-04  0.1702561E+04  0.7818609E-02  0.8759905E-01
        3   -1    0    0  501    0  0.00000000000E+00  0.00000000000E+00  0.41406860689E+03  0.41406861921E+03  0.10100000352E+00 0.  1.
       -3   -1    0    0    0  501  0.00000000000E+00  0.00000000000E+00 -0.17501415775E+04  0.17501415804E+04  0.10100000352E+00 0. -1.
    10030    2    1    2    0    0  0.00000000000E+00  0.00000000000E+00 -0.13360729706E+04  0.21642101996E+04  0.17025612486E+04 0.  0.
        1    1    3    3  502    0  0.36024858726E+03  0.16689043542E+03  0.28917150515E+03  0.49117371823E+03  0.50400001928E-02 0.  1.
       -1    1    3    3    0  502 -0.36024858726E+03 -0.16689043542E+03 -0.16252444757E+04  0.16730364814E+04  0.50400001928E-02 0. -1.
</event>
<event>
 5   0  0.3470962E-04  0.1796732E+04  0.7818609E-02  0.8708039E-01
       -1   -1    0    0    0  501  0.00000000000E+00  0.00000000000E+00  0.84406271795E+03  0.84406271797E+03  0.50400001928E-02 0.  1.
        1   -1    0    0  501    0  0.00000000000E+00  0.00000000000E+00 -0.95616298237E+03  0.95616298239E+03  0.50400001928E-02 0. -1.
    10030    2    1    2    0    0  0.00000000000E+00  0.00000000000E+00 -0.11210026442E+03  0.18002257004E+04  0.17967320621E+04 0.  0.
        4    1    3    3  502    0 -0.32251021024E+03 -0.45483264177E+03 -0.76181622935E+03  0.94406098740E+03  0.12699999809E+01 0. -1.
       -4    1    3    3    0  502  0.32251021024E+03  0.45483264177E+03  0.64971596493E+03  0.85616471296E+03  0.12699999809E+01 0.  1.
</event>
<event>
 5   0  0.6774451E-04  0.1515816E+04  0.7818609E-02  0.8874003E-01
       -2   -1    0    0    0  501  0.00000000000E+00  0.00000000000E+00  0.13050998615E+04  0.13050998615E+04  0.25500000920E-02 0.  1.
        2   -1    0    0  501    0  0.00000000000E+00  0.00000000000E+00 -0.44013842941E+03  0.44013842942E+03  0.25500000920E-02 0. -1.
    10030    2    1    2    0    0  0.00000000000E+00  0.00000000000E+00  0.86496143208E+03  0.17452382909E+04  0.15158160881E+04 0.  0.
        4    1    3    3  502    0 -0.58579546240E+03 -0.18576856117E+03 -0.78227676700E+02  0.61950582273E+03  0.12699999809E+01 0. -1.
       -4    1    3    3    0  502  0.58579546240E+03  0.18576856117E+03  0.94318910878E+03  0.11257324682E+04  0.12699999809E+01 0.  1.
</event>
<event>
 5   0  0.3413839E-04  0.1712400E+04  0.7818609E-02  0.8754323E-01
        1   -1    0    0  501    0  0.00000000000E+00  0.00000000000E+00  0.64959869762E+03  0.64959869764E+03  0.50400001928E-02 0. -1.
       -1   -1    0    0    0  501  0.00000000000E+00  0.00000000000E+00 -0.11285103657E+04  0.11285103657E+04  0.50400001928E-02 0.  1.
    10030    2    1    2    0    0  0.00000000000E+00  0.00000000000E+00 -0.47891166809E+03  0.17781090634E+04  0.17124004950E+04 0.  0.
        5    1    3    3  502    0  0.45369438712E+03 -0.30368635422E+03 -0.92430364645E+03  0.10735098134E+04  0.46999998093E+01 0.  1.
       -5    1    3    3    0  502 -0.45369438712E+03  0.30368635422E+03  0.44539197836E+03  0.70459924995E+03  0.46999998093E+01 0. -1.
</event>
<event>
 5   0  0.6547153E-04  0.1774171E+04  0.7818609E-02  0.8720157E-01
       -2   -1    0    0    0  501  0.00000000000E+00  0.00000000000E+00  0.42900577694E+03  0.42900577694E+03  0.25500000920E-02 0.  1.
        2   -1    0    0  501    0  0.00000000000E+00  0.00000000000E+00 -0.18342896224E+04  0.18342896224E+04  0.25500000920E-02 0. -1.
    10030    2    1    2    0    0  0.00000000000E+00  0.00000000000E+00 -0.14052838454E+04  0.22632953993E+04  0.17741711807E+04 0.  0.
        5    1    3    3  502    0 -0.74542323627E+03 -0.14001245442E+03 -0.11576903187E+03  0.76725735402E+03  0.46999998093E+01 0.  1.
       -5    1    3    3    0  502  0.74542323627E+03  0.14001245442E+03 -0.12895148136E+04  0.14960380453E+04  0.46999998093E+01 0. -1.
</event>
<event>
 5   0  0.6771967E-04  0.1812894E+04  0.7818609E-02  0.8699472E-01
       -2   -1    0    0    0  501  0.00000000000E+00  0.00000000000E+00  0.12238636517E+04  0.12238636517E+04  0.25500000920E-02 0.  1.
        2   -1    0    0  501    0  0.00000000000E+00  0.00000000000E+00 -0.67135438103E+03  0.67135438104E+03  0.25500000920E-02 0. -1.
    10030    2    1    2    0    0  0.00000000000E+00  0.00000000000E+00  0.55250927068E+03  0.18952180328E+04  0.18128940668E+04 0.  0.
        1    1    3    3  502    0 -0.35553365346E+03  0.41760548107E+03 -0.47821563457E+03  0.72765974860E+03  0.50400001928E-02 0. -1.
       -1    1    3    3    0  502  0.35553365346E+03 -0.41760548107E+03  0.10307249052E+04  0.11675582841E+04  0.50400001928E-02 0.  1.
</event>
<event>
 5   0  0.3308275E-04  0.1750786E+04  0.7818609E-02  0.8732918E-01
        1   -1    0    0  501    0  0.00000000000E+00  0.00000000000E+00  0.10239364310E+04  0.10239364310E+04  0.50400001928E-02 0. -1.
       -1   -1    0    0    0  501  0.00000000000E+00  0.00000000000E+00 -0.74839906928E+03  0.74839906930E+03  0.50400001928E-02 0.  1.
    10030    2    1    2    0    0  0.00000000000E+00  0.00000000000E+00  0.27553736171E+03  0.17723355003E+04  0.17507861914E+04 0.  0.
        3    1    3    3  502    0 -0.66399371951E+03 -0.21922002607E+02 -0.43928689052E+03  0.79645540750E+03  0.10100000352E+00 0.  1.
       -3    1    3    3    0  502  0.66399371951E+03  0.21922002607E+02  0.71482425223E+03  0.97588009280E+03  0.10100000352E+00 0. -1.
</event>
<event>
 5   0  0.3470962E-04  0.1771923E+04  0.7818609E-02  0.8721374E-01
       -1   -1    0    0    0  501  0.00000000000E+00  0.00000000000E+00  0.61613434563E+03  0.61613434565E+03  0.50400001928E-02 0. -1.
        1   -1    0    0  501    0  0.00000000000E+00  0.00000000000E+00 -0.12739560251E+04  0.12739560251E+04  0.50400001928E-02 0.  1.
    10030    2    1    2    0    0  0.00000000000E+00  0.00000000000E+00 -0.65782167950E+03  0.18900903708E+04  0.17719233188E+04 0.  0.
        4    1    3    3  502    0 -0.34972277094E+03 -0.63664565679E+03  0.21216712987E+03  0.75672994702E+03  0.12699999809E+01 0.  1.
       -4    1    3    3    0  502  0.34972277094E+03  0.63664565679E+03 -0.86998880937E+03  0.11333604238E+04  0.12699999809E+01 0. -1.
</event>
<event>
 5   0  0.3470962E-04  0.1862369E+04  0.7818609E-02  0.8673818E-01
        1   -1    0    0  501    0  0.00000000000E+00  0.00000000000E+00  0.33349689050E+03  0.33349689054E+03  0.50400001928E-02 0. -1.
       -1   -1    0    0    0  501  0.00000000000E+00  0.00000000000E+00 -0.26000367979E+04  0.26000367979E+04  0.50400001928E-02 0.  1.
    10030    2    1    2    0    0  0.00000000000E+00  0.00000000000E+00 -0.22665399074E+04  0.29335336884E+04  0.18623685858E+04 0.  0.
        4    1    3    3  502    0  0.58154458516E+03  0.70309580009E+03 -0.84042196068E+03  0.12405033227E+04  0.12699999809E+01 0.  1.
       -4    1    3    3    0  502 -0.58154458516E+03 -0.70309580009E+03 -0.14261179467E+04  0.16930303658E+04  0.12699999809E+01 0. -1.
</event>
<event>
 5   0  0.3470962E-04  0.1810631E+04  0.7818609E-02  0.8700666E-01
       -1   -1    0    0    0  501  0.00000000000E+00  0.00000000000E+00  0.55676785868E+03  0.55676785870E+03  0.50400001928E-02 0.  1.
        1   -1    0    0  501    0  0.00000000000E+00  0.00000000000E+00 -0.14720608292E+04  0.14720608293E+04  0.50400001928E-02 0. -1.
    10030    2    1    2    0    0  0.00000000000E+00  0.00000000000E+00 -0.91529297056E+03  0.20288286880E+04  0.18106310014E+04 0.  0.
        4    1    3    3  502    0  0.38348790142E+03  0.55914685430E+03  0.21455291900E+03  0.71115592043E+03  0.12699999809E+01 0.  1.
       -4    1    3    3    0  502 -0.38348790142E+03 -0.55914685430E+03 -0.11298458896E+04  0.13176727675E+04  0.12699999809E+01 0. -1.
</event>
<event>
 5   0  0.3308275E-04  0.1850218E+04  0.7818609E-02  0.8680041E-01
        1   -1    0    0  501    0  0.00000000000E+00  0.00000000000E+00  0.84314566560E+03  0.84314566561E+03  0.50400001928E-02 0. -1.
       -1   -1    0    0    0  501  0.00000000000E+00  0.00000000000E+00 -0.10150401852E+04  0.10150401853E+04  0.50400001928E-02 0.  1.
    10030    2    1    2    0    0  0.00000000000E+00  0.00000000000E+00 -0.17189451964E+03  0.18581858509E+04  0.18502180765E+04 0.  0.
        3    1    3    3  502    0 -0.18829427970E+03  0.68760517084E+03  0.50614320636E+03  0.87432062899E+03  0.10100000352E+00 0. -1.
       -3    1    3    3    0  502  0.18829427970E+03 -0.68760517084E+03 -0.67803772601E+03  0.98386522188E+03  0.10100000352E+00 0.  1.
</event>
<event>
 5   0  0.6547153E-04  0.1795105E+04  0.7818609E-02  0.8708907E-01
        2   -1    0    0  501    0  0.00000000000E+00  0.00000000000E+00  0.54678149248E+03  0.54678149248E+03  0.25500000920E-02 0.  1.
       -2   -1    0    0    0  501  0.00000000000E+00  0.00000000000E+00 -0.14733505188E+04  0.14733505188E+04  0.25500000920E-02 0. -1.
    10030    2    1    2    0    0  0.00000000000E+00  0.00000000000E+00 -0.92656902629E+03  0.20201320113E+04  0.17951053402E+04 0.  0.
        5    1    3    3  502    0 -0.55703602284E+03  0.29508403711E+03 -0.11822934421E+04  0.13398520788E+04  0.46999998093E+01 0. -1.
       -5    1    3    3    0  502  0.55703602284E+03 -0.29508403711E+03  0.25572441582E+03  0.68027993249E+03  0.46999998093E+01 0.  1.
</event>
<event>
 5   0  0.6853162E-04  0.1821679E+04  0.7818609E-02  0.8694855E-01
        2   -1    0    0  501    0  0.00000000000E+00  0.00000000000E+00  0.16966234341E+04  0.16966234341E+04  0.25500000920E-02 0.  1.
       -2   -1    0    0    0  501  0.00000000000E+00  0.00000000000E+00 -0.48898806557E+03  0.48898806558E+03  0.25500000920E-02 0. -1.
    10030    2    1    2    0    0  0.00000000000E+00  0.00000000000E+00  0.12076353686E+04  0.21856114997E+04  0.18216790179E+04 0.  0.
        2    1    3    3  502    0  0.39585102757E+03  0.41996454342E+03 -0.24163076785E+03  0.62566259416E+03  0.25500000920E-02 0. -1.
       -2    1    3    3    0  502 -0.39585102757E+03 -0.41996454342E+03  0.14492661364E+04  0.15599489056E+04  0.25500000920E-02 0.  1.
</event>
<event>
 5   0  0.3377273E-04  0.1843969E+04  0.7818609E-02  0.8683261E-01
       -1   -1    0    0    0  501  0.00000000000E+00  0.00000000000E+00  0.56550302921E+03  0.56550302924E+03  0.50400001928E-02 0. -1.
        1   -1    0    0  501    0  0.00000000000E+00  0.00000000000E+00 -0.15031841161E+04  0.15031841161E+04  0.50400001928E-02 0.  1.
    10030    2    1    2    0    0  0.00000000000E+00  0.00000000000E+00 -0.93768108692E+03  0.20686871454E+04  0.18439687320E+04 0.  0.
        2    1    3    3  502    0  0.22707951497E+03 -0.85509318989E+03 -0.17779081976E+03  0.90241844236E+03  0.25500000920E-02 0. -1.
       -2    1    3    3    0  502 -0.22707951497E+03  0.85509318989E+03 -0.75989026716E+03  0.11662687030E+04  0.25500000920E-02 0.  1.
</event>
<event>
 5   0  0.3404261E-04  0.1765235E+04  0.7818609E-02  0.8725009E-01
       -1   -1    0    0    0  501  0.00000000000E+00  0.00000000000E+00  0.59339528925E+03  0.59339528928E+03  0.50400001928E-02 0. -1.
        1   -1    0    0  501    0  0.00000000000E+00  0.00000000000E+00 -0.13128067844E+04  0.13128067844E+04  0.50400001928E-02 0.  1.
    10030    2    1    2    0    0  0.00000000000E+00  0.00000000000E+00 -0.71941149515E+03  0.19062020737E+04  0.17652346718E+04 0.  0.
        1    1    3    3  502    0 -0.85205385305E+03  0.14797161885E+03 -0.55020803273E+03  0.10249976818E+04  0.50400001928E-02 0.  1.
       -1    1    3    3    0  502  0.85205385305E+03 -0.14797161885E+03 -0.16920346242E+03  0.88120439184E+03  0.50400001928E-02 0. -1.
</event>
<event>
 5   0  0.3308275E-04  0.1808851E+04  0.7818609E-02  0.8701607E-01
        1   -1    0    0  501    0  0.00000000000E+00  0.00000000000E+00  0.12095610551E+04  0.12095610552E+04  0.50400001928E-02 0.  1.
       -1   -1    0    0    0  501  0.00000000000E+00  0.00000000000E+00 -0.67626644617E+03  0.67626644619E+03  0.50400001928E-02 0. -1.
    10030    2    1    2    0    0  0.00000000000E+00  0.00000000000E+00  0.53329460898E+03  0.18858275013E+04  0.18088510787E+04 0.  0.
        3    1    3    3  502    0  0.60520748618E+03  0.11772654120E+03 -0.42321399497E+03  0.74782734342E+03  0.10100000352E+00 0. -1.
       -3    1    3    3    0  502 -0.60520748618E+03 -0.11772654120E+03  0.95650860394E+03  0.11380001579E+04  0.10100000352E+00 0.  1.
</event>
<event>
 5   0  0.3404261E-04  0.1795544E+04  0.7818609E-02  0.8708673E-01
        1   -1    0    0  501    0  0.00000000000E+00  0.00000000000E+00  0.21893833924E+04  0.21893833925E+04  0.50400001928E-02 0. -1.
       -1   -1    0    0    0  501  0.00000000000E+00  0.00000000000E+00 -0.36813757758E+03  0.36813757761E+03  0.50400001928E-02 0.  1.
    10030    2    1    2    0    0  0.00000000000E+00  0.00000000000E+00  0.18212458149E+04  0.25575209701E+04  0.17955437043E+04 0.  0.
        1    1    3    3  502    0  0.35373338661E+03 -0.81801063414E+03  0.10648606339E+04  0.13885952888E+04  0.50400001928E-02 0. -1.
       -1    1    3    3    0  502 -0.35373338661E+03  0.81801063414E+03  0.75638518100E+03  0.11689256813E+04  0.50400001928E-02 0.  1.
</event>
<event>
 5   0  0.3470962E-04  0.1709826E+04  0.7818609E-02  0.8755780E-01
        1   -1    0    0  501    0  0.00000000000E+00  0.00000000000E+00  0.62723956096E+03  0.62723956099E+03  0.50400001928E-02 0.  1.
       -1   -1    0    0    0  501  0.00000000000E+00  0.00000000000E+00 -0.11652267706E+04  0.11652267706E+04  0.50400001928E-02 0. -1.
    10030    2    1    2    0    0  0.00000000000E+00  0.00000000000E+00 -0.53798720965E+03  0.17924663316E+04  0.17098261058E+04 0.  0.
        4    1    3    3  502    0  0.17966538968E+03  0.74495056187E+03 -0.66631540097E+03  0.10154845239E+04  0.12699999809E+01 0. -1.
       -4    1    3    3    0  502 -0.17966538968E+03 -0.74495056187E+03  0.12832819132E+03  0.77698180768E+03  0.12699999809E+01 0.  1.
</event>
<event>
 5   0  0.3470962E-04  0.1965545E+04  0.7818609E-02  0.8622901E-01
        1   -1    0    0  501    0  0.00000000000E+00  0.00000000000E+00  0.78491251431E+03  0.78491251433E+03  0.50400001928E-02 0.  1.
       -1   -1    0    0    0  501  0.00000000000E+00  0.00000000000E+00 -0.12305082389E+04  0.12305082389E+04  0.50400001928E-02 0. -1.
    10030    2    1    2    0    0  0.00000000000E+00  0.00000000000E+00 -0.44559572462E+03  0.20154207533E+04  0.19655445207E+04 0.  0.
        4    1    3    3  502    0  0.34190861251E+03  0.14167067681E+03 -0.11563217356E+04  0.12141061112E+04  0.12699999809E+01 0. -1.
       -4    1    3    3    0  502 -0.34190861251E+03 -0.14167067681E+03  0.71072601103E+03  0.80131464209E+03  0.12699999809E+01 0.  1.
</event>
<event>
 5   0  0.3308275E-04  0.1810928E+04  0.7818609E-02  0.8700509E-01
       -1   -1    0    0    0  501  0.00000000000E+00  0.00000000000E+00  0.61835767365E+03  0.61835767367E+03  0.50400001928E-02 0. -1.
        1   -1    0    0  501    0  0.00000000000E+00  0.00000000000E+00 -0.13258756756E+04  0.13258756756E+04  0.50400001928E-02 0.  1.
    10030    2    1    2    0    0  0.00000000000E+00  0.00000000000E+00 -0.70751800191E+03  0.19442333492E+04  0.18109283788E+04 0.  0.
        3    1    3    3  502    0  0.89080412984E+03  0.16226216075E+03 -0.35600630659E+03  0.97293448242E+03  0.10100000352E+00 0. -1.
       -3    1    3    3    0  502 -0.89080412984E+03 -0.16226216075E+03 -0.35151169532E+03  0.97129886682E+03  0.10100000352E+00 0.  1.
</event>
<event>
 5   0  0.6853162E-04  0.1831578E+04  0.7818609E-02  0.8689685E-01
        2   -1    0    0  501    0  0.00000000000E+00  0.00000000000E+00  0.10799167479E+04  0.10799167479E+04  0.25500000920E-02 0. -1.
       -2   -1    0    0    0  501  0.00000000000E+00  0.00000000000E+00 -0.77660532584E+03  0.77660532584E+03  0.25500000920E-02 0.  1.
    10030    2    1    2    0    0  0.00000000000E+00  0.00000000000E+00  0.30331142208E+03  0.18565220738E+04  0.18315775691E+04 0.  0.
        2    1    3    3  502    0 -0.78515573053E+02 -0.22874380299E+03  0.10469635675E+04  0.10745329843E+04  0.25500000920E-02 0. -1.
       -2    1    3    3    0  502  0.78515573053E+02  0.22874380299E+03 -0.74365214544E+03  0.78198908947E+03  0.25500000920E-02 0.  1.
</event>
<event>
 5   0  0.3413839E-04  0.1777587E+04  0.7818609E-02  0.8718310E-01
        1   -1    0    0  501    0  0.00000000000E+00  0.00000000000E+00  0.12943723052E+04  0.12943723052E+04  0.50400001928E-02 0.  1.
       -1   -1    0    0    0  501  0.00000000000E+00  0.00000000000E+00 -0.61029853491E+03  0.61029853493E+03  0.50400001928E-02 0. -1.
    10030    2    1    2    0    0  0.00000000000E+00  0.00000000000E+00  0.68407377027E+03  0.19046708401E+04  0.17775865903E+04 0.  0.
        5    1    3    3  502    0 -0.59485640532E+03  0.46833448010E+03 -0.15680028352E+03  0.77317510767E+03  0.46999998093E+01 0.  1.
       -5    1    3    3    0  502  0.59485640532E+03 -0.46833448010E+03  0.84087405379E+03  0.11314957324E+04  0.46999998093E+01 0. -1.
</event>
<event>
 5   0  0.6771967E-04  0.1651116E+04  0.7818609E-02  0.8789747E-01
       -2   -1    0    0    0  501  0.00000000000E+00  0.00000000000E+00  0.45209515752E+03  0.45209515753E+03  0.25500000920E-02 0.  1.
        2   -1    0    0  501    0  0.00000000000E+00  0.00000000000E+00 -0.15075278726E+04  0.15075278726E+04  0.25500000920E-02 0. -1.
    10030    2    1    2    0    0  0.00000000000E+00  0.00000000000E+00 -0.10554327151E+04  0.19596230302E+04  0.16511160481E+04 0.  0.
        1    1    3    3  502    0 -0.65201369723E+03  0.49075969892E+03 -0.67585427135E+03  0.10595970647E+04  0.50400001928E-02 0.  1.
       -1    1    3    3    0  502  0.65201369723E+03 -0.49075969892E+03 -0.37957844377E+03  0.90002596544E+03  0.50400001928E-02 0. -1.
</event>
<event>
 5   0  0.3308275E-04  0.1782563E+04  0.7818609E-02  0.8715628E-01
        1   -1    0    0  501    0  0.00000000000E+00  0.00000000000E+00  0.10989334788E+04  0.10989334789E+04  0.50400001928E-02 0.  1.
       -1   -1    0    0    0  501  0.00000000000E+00  0.00000000000E+00 -0.72286707600E+03  0.72286707602E+03  0.50400001928E-02 0. -1.
    10030    2    1    2    0    0  0.00000000000E+00  0.00000000000E+00  0.37606640285E+03  0.18218005549E+04  0.17825631328E+04 0.  0.
        3    1    3    3  502    0  0.96249093042E+02 -0.35221584394E+03  0.10189878324E+04  0.10824306451E+04  0.10100000352E+00 0.  1.
       -3    1    3    3    0  502 -0.96249093042E+02  0.35221584394E+03 -0.64292142959E+03  0.73936990976E+03  0.10100000352E+00 0. -1.
</event>
<event>
 5   0  0.6771967E-04  0.1850900E+04  0.7818609E-02  0.8679690E-01
        2   -1    0    0  501    0  0.00000000000E+00  0.00000000000E+00  0.12978154902E+04  0.12978154902E+04  0.25500000920E-02 0. -1.
       -2   -1    0    0    0  501  0.00000000000E+00  0.00000000000E+00 -0.65992230920E+03  0.65992230920E+03  0.25500000920E-02 0.  1.
    10030    2    1    2    0    0  0.00000000000E+00  0.00000000000E+00  0.63789318104E+03  0.19577377994E+04  0.18508996680E+04 0.  0.
        1    1    3    3  502    0  0.73547319258E+03 -0.54948851573E+03  0.19560080202E+03  0.93867892259E+03  0.50400001928E-02 0.  1.
       -1    1    3    3    0  502 -0.73547319258E+03  0.54948851573E+03  0.44229237901E+03  0.10190588769E+04  0.50400001928E-02 0. -1.
</event>
<event>
 5   0  0.3404261E-04  0.1798924E+04  0.7818609E-02  0.8706872E-01
        1   -1    0    0  501    0  0.00000000000E+00  0.00000000000E+00  0.18477881572E+04  0.18477881572E+04  0.50400001928E-02 0.  1.
       -1   -1    0    0    0  501  0.00000000000E+00  0.00000000000E+00 -0.43783780339E+03  0.43783780342E+03  0.50400001928E-02 0. -1.
    10030    2    1    2    0    0  0.00000000000E+00  0.00000000000E+00  0.14099503538E+04  0.22856259606E+04  0.17989235758E+04 0.  0.
        1    1    3    3  502    0 -0.22398317518E+03 -0.58504635570E+03 -0.11508106551E+03  0.63693904947E+03  0.50400001928E-02 0. -1.
       -1    1    3    3    0  502  0.22398317518E+03  0.58504635570E+03  0.15250314193E+04  0.16486869111E+04  0.50400001928E-02 0.  1.
</event>
<event>
 5   0  0.6547153E-04  0.1783544E+04  0.7818609E-02  0.8715100E-01
        2   -1    0    0  501    0  0.00000000000E+00  0.00000000000E+00  0.49868711959E+03  0.49868711960E+03  0.25500000920E-02 0. -1.
       -2   -1    0    0    0  501  0.00000000000E+00  0.00000000000E+00 -0.15947024381E+04  0.15947024381E+04  0.25500000920E-02 0.  1.
    10030    2    1    2    0    0  0.00000000000E+00  0.00000000000E+00 -0.10960153185E+04  0.20933895577E+04  0.17835442977E+04 0.  0.
        5    1    3    3  502    0  0.21909803933E+03  0.77838186546E+03 -0.10672285816E+03  0.81565564902E+03  0.46999998093E+01 0.  1.
       -5    1    3    3    0  502 -0.21909803933E+03 -0.77838186546E+03 -0.98929246036E+03  0.12777339087E+04  0.46999998093E+01 0. -1.
</event>
<event>
 5   0  0.3377273E-04  0.1655779E+04  0.7818609E-02  0.8786995E-01
        1   -1    0    0  501    0  0.00000000000E+00  0.00000000000E+00  0.71967448640E+03  0.71967448642E+03  0.50400001928E-02 0.  1.
       -1   -1    0    0    0  501  0.00000000000E+00  0.00000000000E+00 -0.95237628491E+03  0.95237628493E+03  0.50400001928E-02 0. -1.
    10030    2    1    2    0    0  0.00000000000E+00  0.00000000000E+00 -0.23270179851E+03  0.16720507713E+04  0.16557788666E+04 0.  0.
        2    1    3    3  502    0  0.68995836909E+03  0.26499731368E+03 -0.49302433043E+03  0.88844758863E+03  0.25500000920E-02 0.  1.
       -2    1    3    3    0  502 -0.68995836909E+03 -0.26499731368E+03  0.26032253191E+03  0.78360318272E+03  0.25500000920E-02 0. -1.
</event>
<event>
 5   0  0.6929121E-04  0.1792834E+04  0.7818609E-02  0.8710119E-01
       -2   -1    0    0    0  501  0.00000000000E+00  0.00000000000E+00  0.84295987238E+03  0.84295987239E+03  0.25500000920E-02 0. -1.
        2   -1    0    0  501    0  0.00000000000E+00  0.00000000000E+00 -0.95326438900E+03  0.95326438900E+03  0.25500000920E-02 0.  1.
    10030    2    1    2    0    0  0.00000000000E+00  0.00000000000E+00 -0.11030451661E+03  0.17962242614E+04  0.17928342117E+04 0.  0.
        3    1    3    3  502    0 -0.13025666489E+03 -0.30920672564E+03  0.77767644726E+03  0.84696886882E+03  0.10100000352E+00 0. -1.
       -3    1    3    3    0  502  0.13025666489E+03  0.30920672564E+03 -0.88798096387E+03  0.94925539257E+03  0.10100000352E+00 0.  1.
</event>
<event>
 5   0  0.6853162E-04  0.1811180E+04  0.7818609E-02  0.8700376E-01
       -2   -1    0    0    0  501  0.00000000000E+00  0.00000000000E+00  0.12598309211E+04  0.12598309211E+04  0.25500000920E-02 0.  1.
        2   -1    0    0  501    0  0.00000000000E+00  0.00000000000E+00 -0.65095513142E+03  0.65095513142E+03  0.25500000920E-02 0. -1.
    10030    2    1    2    0    0  0.00000000000E+00  0.00000000000E+00  0.60887578968E+03  0.19107860525E+04  0.18111801708E+04 0.  0.
        2    1    3    3  502    0  0.85372114197E+03 -0.20830899219E+03  0.73635030776E+02  0.88184723293E+03  0.25500000920E-02 0. -1.
       -2    1    3    3    0  502 -0.85372114197E+03  0.20830899219E+03  0.53524075890E+03  0.10289388196E+04  0.25500000920E-02 0.  1.
</event>
<event>
 5   0  0.3377273E-04  0.1793560E+04  0.7818609E-02  0.8709732E-01
       -1   -1    0    0    0  501  0.00000000000E+00  0.00000000000E+00  0.65095431740E+03  0.65095431742E+03  0.50400001928E-02 0. -1.
        1   -1    0    0  501    0  0.00000000000E+00  0.00000000000E+00 -0.12354385306E+04  0.12354385306E+04  0.50400001928E-02 0.  1.
    10030    2    1    2    0    0  0.00000000000E+00  0.00000000000E+00 -0.58448421320E+03  0.18863928480E+04  0.17935596398E+04 0.  0.
        2    1    3    3  502    0  0.31040429733E+03 -0.56216763844E+03  0.36612114894E+03  0.73920766854E+03  0.25500000920E-02 0. -1.
       -2    1    3    3    0  502 -0.31040429733E+03  0.56216763844E+03 -0.95060536214E+03  0.11471851795E+04  0.25500000920E-02 0.  1.
</event>
<event>
 5   0  0.6547153E-04  0.1850195E+04  0.7818609E-02  0.8680053E-01
        2   -1    0    0  501    0  0.00000000000E+00  0.00000000000E+00  0.13747167983E+04  0.13747167983E+04  0.25500000920E-02 0. -1.
       -2   -1    0    0    0  501  0.00000000000E+00  0.00000000000E+00 -0.62253186686E+03  0.62253186686E+03  0.25500000920E-02 0.  1.
    10030    2    1    2    0    0  0.00000000000E+00  0.00000000000E+00  0.75218493141E+03  0.19972486651E+04  0.18501946004E+04 0.  0.
        5    1    3    3  502    0 -0.66847861785E+03 -0.61818105131E+03  0.19946807434E+03  0.93210572223E+03  0.46999998093E+01 0.  1.
       -5    1    3    3    0  502  0.66847861785E+03  0.61818105131E+03  0.55271685706E+03  0.10651429429E+04  0.46999998093E+01 0. -1.
</event>
<event>
 5   0  0.6547153E-04  0.1801624E+04  0.7818609E-02  0.8705437E-01
        2   -1    0    0  501    0  0.00000000000E+00  0.00000000000E+00  0.88098480346E+03  0.88098480346E+03  0.25500000920E-02 0.  1.
       -2   -1    0    0    0  501  0.00000000000E+00  0.00000000000E+00 -0.92108494076E+03  0.92108494076E+03  0.25500000920E-02 0. -1.
    10030    2    1    2    0    0  0.00000000000E+00  0.00000000000E+00 -0.40100137301E+02  0.18020697442E+04  0.18016235295E+04 0.  0.
        5    1    3    3  502    0 -0.71110330661E+03 -0.54411264237E+03  0.78530240144E+02  0.89884123675E+03  0.46999998093E+01 0. -1.
       -5    1    3    3    0  502  0.71110330661E+03  0.54411264237E+03 -0.11863037745E+03  0.90322850747E+03  0.46999998093E+01 0.  1.
</event>
<event>
 5   0  0.6929121E-04  0.1538810E+04  0.7818609E-02  0.8859047E-01
       -2   -1    0    0    0  501  0.00000000000E+00  0.00000000000E+00  0.69295234695E+03  0.69295234695E+03  0.25500000920E-02 0. -1.
        2   -1    0    0  501    0  0.00000000000E+00  0.00000000000E+00 -0.85429224978E+03  0.85429224978E+03  0.25500000920E-02 0.  1.
    10030    2    1    2    0    0  0.00000000000E+00  0.00000000000E+00 -0.16133990283E+03  0.15472445967E+04  0.15388096951E+04 0.  0.
        3    1    3    3  502    0  0.58455652779E+02 -0.70735636930E+03  0.21796601522E+03  0.74248184524E+03  0.10100000352E+00 0.  1.
       -3    1    3    3    0  502 -0.58455652779E+02  0.70735636930E+03 -0.37930591805E+03  0.80476275149E+03  0.10100000352E+00 0. -1.
</event>
<event>
 5   0  0.6771967E-04  0.1762475E+04  0.7818609E-02  0.8726513E-01
       -2   -1    0    0    0  501  0.00000000000E+00  0.00000000000E+00  0.94068138444E+03  0.94068138444E+03  0.25500000920E-02 0. -1.
        2   -1    0    0  501    0  0.00000000000E+00  0.00000000000E+00 -0.82555027448E+03  0.82555027449E+03  0.25500000920E-02 0.  1.
    10030    2    1    2    0    0  0.00000000000E+00  0.00000000000E+00  0.11513110996E+03  0.17662316589E+04  0.17624752766E+04 0.  0.
        1    1    3    3  502    0 -0.84193915769E+03 -0.24460993257E+03  0.14654787886E+03  0.88891610695E+03  0.50400001928E-02 0. -1.
       -1    1    3    3    0  502  0.84193915769E+03  0.24460993257E+03 -0.31416768901E+02  0.87731555199E+03  0.50400001928E-02 0.  1.
</event>
<event>
 5   0  0.3413839E-04  0.1064106E+04  0.7818609E-02  0.9240900E-01
       -1   -1    0    0    0  501  0.00000000000E+00  0.00000000000E+00  0.96180355592E+03  0.96180355593E+03  0.50400001928E-02 0.  1.
        1   -1    0    0  501    0  0.00000000000E+00  0.00000000000E+00 -0.29432262667E+03  0.29432262671E+03  0.50400001928E-02 0. -1.
    10030    2    1    2    0    0  0.00000000000E+00  0.00000000000E+00  0.66748092925E+03  0.12561261826E+04  0.10641062897E+04 0.  0.
        5    1    3    3  502    0 -0.14353340116E+03  0.33676512124E+03  0.78947111489E+03  0.87022946133E+03  0.46999998093E+01 0.  1.
       -5    1    3    3    0  502  0.14353340116E+03 -0.33676512124E+03 -0.12199018564E+03  0.38589672131E+03  0.46999998093E+01 0. -1.
</event>
<event>
 5   0  0.3404261E-04  0.1759501E+04  0.7818609E-02  0.8728138E-01
        1   -1    0    0  501    0  0.00000000000E+00  0.00000000000E+00  0.15585928446E+04  0.15585928446E+04  0.50400001928E-02 0. -1.
       -1   -1    0    0    0  501  0.00000000000E+00  0.00000000000E+00 -0.49657693314E+03  0.49657693317E+03  0.50400001928E-02 0.  1.
    10030    2    1    2    0    0  0.00000000000E+00  0.00000000000E+00  0.10620159115E+04  0.20551697778E+04  0.17595013553E+04 0.  0.
        1    1    3    3  502    0  0.39930484758E+03 -0.68670452383E+03  0.89380630822E+02  0.79937247985E+03  0.50400001928E-02 0.  1.
       -1    1    3    3    0  502 -0.39930484758E+03  0.68670452383E+03  0.97263528065E+03  0.12557972979E+04  0.50400001928E-02 0. -1.
</event>
<event>
 5   0  0.6853162E-04  0.1822691E+04  0.7818609E-02  0.8694325E-01
        2   -1    0    0  501    0  0.00000000000E+00  0.00000000000E+00  0.50970372926E+03  0.50970372927E+03  0.25500000920E-02 0.  1.
       -2   -1    0    0    0  501  0.00000000000E+00  0.00000000000E+00 -0.16294766433E+04  0.16294766433E+04  0.25500000920E-02 0. -1.
    10030    2    1    2    0    0  0.00000000000E+00  0.00000000000E+00 -0.11197729140E+04  0.21391803725E+04  0.18226906724E+04 0.  0.
        2    1    3    3  502    0  0.53279806019E+03 -0.36617505310E+03 -0.13137539820E+04  0.14642088197E+04  0.25500000920E-02 0. -1.
       -2    1    3    3    0  502 -0.53279806019E+03  0.36617505310E+03  0.19398106796E+03  0.67497155287E+03  0.25500000920E-02 0.  1.
</event>
<event>
 5   0  0.3377273E-04  0.1818872E+04  0.7818609E-02  0.8696328E-01
       -1   -1    0    0    0  501  0.00000000000E+00  0.00000000000E+00  0.40292222594E+03  0.40292222597E+03  0.50400001928E-02 0. -1.
        1   -1    0    0  501    0  0.00000000000E+00  0.00000000000E+00 -0.20526879256E+04  0.20526879256E+04  0.50400001928E-02 0.  1.
    10030    2    1    2    0    0  0.00000000000E+00  0.00000000000E+00 -0.16497656997E+04  0.24556101516E+04  0.18188717252E+04 0.  0.
        2    1    3    3  502    0 -0.39821184485E+03 -0.37071872121E+03 -0.18087413399E+04  0.18887959865E+04  0.25500000920E-02 0.  1.
       -2    1    3    3    0  502  0.39821184485E+03  0.37071872121E+03  0.15897564024E+03  0.56681416516E+03  0.25500000920E-02 0. -1.
</event>
<event>
 5   0  0.6771967E-04  0.1785426E+04  0.7818609E-02  0.8714088E-01
       -2   -1    0    0    0  501  0.00000000000E+00  0.00000000000E+00  0.66707244674E+03  0.66707244675E+03  0.25500000920E-02 0. -1.
        2   -1    0    0  501    0  0.00000000000E+00  0.00000000000E+00 -0.11946782062E+04  0.11946782062E+04  0.25500000920E-02 0.  1.
    10030    2    1    2    0    0  0.00000000000E+00  0.00000000000E+00 -0.52760575945E+03  0.18617506529E+04  0.17854264634E+04 0.  0.
        1    1    3    3  502    0 -0.54563486227E+03  0.56890818460E+03 -0.70071694905E+03  0.10546934001E+04  0.50400001928E-02 0.  1.
       -1    1    3    3    0  502  0.54563486227E+03 -0.56890818460E+03  0.17311118959E+03  0.80705725288E+03  0.50400001928E-02 0. -1.
</event>
<event>
 5   0  0.6547153E-04  0.2095573E+04  0.7818609E-02  0.8563196E-01
       -2   -1    0    0    0  501  0.00000000000E+00  0.00000000000E+00  0.85475599328E+03  0.85475599328E+03  0.25500000920E-02 0.  1.
        2   -1    0    0  501    0  0.00000000000E+00  0.00000000000E+00 -0.12844098233E+04  0.12844098233E+04  0.25500000920E-02 0. -1.
    10030    2    1    2    0    0  0.00000000000E+00  0.00000000000E+00 -0.42965383007E+03  0.21391658166E+04  0.20955734245E+04 0.  0.
        5    1    3    3  502    0  0.56946291636E+03 -0.66771555978E+03  0.36953467055E+03  0.95221323484E+03  0.46999998093E+01 0.  1.
       -5    1    3    3    0  502 -0.56946291636E+03  0.66771555978E+03 -0.79918850061E+03  0.11869525818E+04  0.46999998093E+01 0. -1.
</event>
<event>
 5   0  0.3308275E-04  0.1831447E+04  0.7818609E-02  0.8689753E-01
       -1   -1    0    0    0  501  0.00000000000E+00  0.00000000000E+00  0.95349699236E+03  0.95349699237E+03  0.50400001928E-02 0. -1.
        1   -1    0    0  501    0  0.00000000000E+00  0.00000000000E+00 -0.87944612152E+03  0.87944612153E+03  0.50400001928E-02 0.  1.
    10030    2    1    2    0    0  0.00000000000E+00  0.00000000000E+00  0.74050870846E+02  0.18329431139E+04  0.18314466761E+04 0.  0.
        3    1    3    3  502    0 -0.56832932391E+02  0.48346308799E+03 -0.73922591920E+03  0.88511101534E+03  0.10100000352E+00 0. -1.
       -3    1    3    3    0  502  0.56832932391E+02 -0.48346308799E+03  0.81327679004E+03  0.94783209857E+03  0.10100000352E+00 0.  1.
</event>
<event>
 5   0  0.3413839E-04  0.1228885E+04  0.7818609E-02  0.9087943E-01
        1   -1    0    0  501    0  0.00000000000E+00  0.00000000000E+00  0.82614654911E+03  0.82614654913E+03  0.50400001928E-02 0.  1.
       -1   -1    0    0    0  501  0.00000000000E+00  0.00000000000E+00 -0.45698858664E+03  0.45698858667E+03  0.50400001928E-02 0. -1.
    10030    2    1    2    0    0  0.00000000000E+00  0.00000000000E+00  0.36915796247E+03  0.12831351358E+04  0.12288849317E+04 0.  0.
        5    1    3    3  502    0 -0.26278035641E+03 -0.35256499067E+03 -0.26350666387E+03  0.51265333342E+03  0.46999998093E+01 0. -1.
       -5    1    3    3    0  502  0.26278035641E+03  0.35256499067E+03  0.63266462634E+03  0.77048180237E+03  0.46999998093E+01 0.  1.
</event>
<event>
 5   0  0.6771967E-04  0.1839737E+04  0.7818609E-02  0.8685449E-01
        2   -1    0    0  501    0  0.00000000000E+00  0.00000000000E+00  0.15177638295E+04  0.15177638295E+04  0.25500000920E-02 0. -1.
       -2   -1    0    0    0  501  0.00000000000E+00  0.00000000000E+00 -0.55750325671E+03  0.55750325672E+03  0.25500000920E-02 0.  1.
    10030    2    1    2    0    0  0.00000000000E+00  0.00000000000E+00  0.96026057277E+03  0.20752670862E+04  0.18397372398E+04 0.  0.
        1    1    3    3  502    0 -0.52258781561E+02  0.87040377095E+03  0.81059418703E+03  0.11905446824E+04  0.50400001928E-02 0. -1.
       -1    1    3    3    0  502  0.52258781561E+02 -0.87040377095E+03  0.14966638574E+03  0.88472240380E+03  0.50400001928E-02 0.  1.
</event>
<event>
 5   0  0.6774451E-04  0.1700854E+04  0.7818609E-02  0.8760877E-01
        2   -1    0    0  501    0  0.00000000000E+00  0.00000000000E+00  0.47444061222E+03  0.47444061222E+03  0.25500000920E-02 0.  1.
       -2   -1    0    0    0  501  0.00000000000E+00  0.00000000000E+00 -0.15243764578E+04  0.15243764578E+04  0.25500000920E-02 0. -1.
    10030    2    1    2    0    0  0.00000000000E+00  0.00000000000E+00 -0.10499358456E+04  0.19988170701E+04  0.17008540207E+04 0.  0.
        4    1    3    3  502    0  0.30638093956E+03  0.19728883624E+03 -0.14279748267E+04  0.14737387434E+04  0.12699999809E+01 0. -1.
       -4    1    3    3    0  502 -0.30638093956E+03 -0.19728883624E+03  0.37803898111E+03  0.52507832670E+03  0.12699999809E+01 0.  1.
</event>
<event>
 5   0  0.2467375E-04  0.1826222E+04  0.7818609E-02  0.8692478E-01
       -4   -1    0    0    0  501  0.00000000000E+00  0.00000000000E+00  0.11671545198E+04  0.11671552108E+04  0.12699999809E+01 0.  1.
        4   -1    0    0  501    0  0.00000000000E+00  0.00000000000E+00 -0.71436151482E+03  0.71436264373E+03  0.12699999809E+01 0. -1.
    10030    2    1    2    0    0  0.00000000000E+00  0.00000000000E+00  0.45279300501E+03  0.18815178545E+04  0.18262223116E+04 0.  0.
        5    1    3    3  502    0  0.42675728581E+03 -0.15870483642E+03  0.10418416399E+04  0.11369982844E+04  0.46999998093E+01 0.  1.
       -5    1    3    3    0  502 -0.42675728581E+03  0.15870483642E+03 -0.58904863486E+03  0.74451957014E+03  0.46999998093E+01 0. -1.
</event>
<event>
 5   0  0.3470962E-04  0.1765597E+04  0.7818609E-02  0.8724811E-01
       -1   -1    0    0    0  501  0.00000000000E+00  0.00000000000E+00  0.31339989864E+03  0.31339989869E+03  0.50400001928E-02 0. -1.
        1   -1    0    0  501    0  0.00000000000E+00  0.00000000000E+00 -0.24867061692E+04  0.24867061692E+04  0.50400001928E-02 0.  1.
    10030    2    1    2    0    0  0.00000000000E+00  0.00000000000E+00 -0.21733062705E+04  0.28001060679E+04  0.17655973057E+04 0.  0.
        4    1    3    3  502    0 -0.84603893652E+03  0.64806202882E+02 -0.14730144499E+04  0.16999279127E+04  0.12699999809E+01 0. -1.
       -4    1    3    3    0  502  0.84603893652E+03 -0.64806202882E+02 -0.70029182063E+03  0.11001781551E+04  0.12699999809E+01 0.  1.
</event>
<event>
 5   0  0.6929121E-04  0.1789451E+04  0.7818609E-02  0.8711930E-01
       -2   -1    0    0    0  501  0.00000000000E+00  0.00000000000E+00  0.38611646672E+03  0.38611646673E+03  0.25500000920E-02 0.  1.
        2   -1    0    0  501    0  0.00000000000E+00  0.00000000000E+00 -0.20732950069E+04  0.20732950069E+04  0.25500000920E-02 0. -1.
    10030    2    1    2    0    0  0.00000000000E+00  0.00000000000E+00 -0.16871785402E+04  0.24594114737E+04  0.17894505777E+04 0.  0.
        3    1    3    3  502    0 -0.30038614731E+03 -0.84034066830E+03 -0.93190475870E+03  0.12902909617E+04  0.10100000352E+00 0. -1.
       -3    1    3    3    0  502  0.30038614731E+03  0.84034066830E+03 -0.75527378150E+03  0.11691205120E+04  0.10100000352E+00 0.  1.
</event>
<event>
 5   0  0.3404261E-04  0.1785137E+04  0.7818609E-02  0.8714244E-01
        1   -1    0    0  501    0  0.00000000000E+00  0.00000000000E+00  0.51653010840E+03  0.51653010843E+03  0.50400001928E-02 0. -1.
       -1   -1    0    0    0  501  0.00000000000E+00  0.00000000000E+00 -0.15423660232E+04  0.15423660233E+04  0.50400001928E-02 0.  1.
    10030    2    1    2    0    0  0.00000000000E+00  0.00000000000E+00 -0.10258359148E+04  0.20588961317E+04  0.17851369575E+04 0.  0.
        1    1    3    3  502    0 -0.14430968664E+03 -0.13609131269E+03  0.49078719362E+03  0.52935640215E+03  0.50400001928E-02 0. -1.
       -1    1    3    3    0  502  0.14430968664E+03  0.13609131269E+03 -0.15166231085E+04  0.15295397295E+04  0.50400001928E-02 0.  1.
</event>
<event>
 5   0  0.6547153E-04  0.1637707E+04  0.7818609E-02  0.8797712E-01
        2   -1    0    0  501    0  0.00000000000E+00  0.00000000000E+00  0.95538797558E+03  0.95538797559E+03  0.25500000920E-02 0. -1.
       -2   -1    0    0    0  501  0.00000000000E+00  0.00000000000E+00 -0.70183101290E+03  0.70183101290E+03  0.25500000920E-02 0.  1.
    10030    2    1    2    0    0  0.00000000000E+00  0.00000000000E+00  0.25355696269E+03  0.16572189885E+04  0.16377068243E+04 0.  0.
        5    1    3    3  502    0  0.53003258663E+03 -0.12152958483E+03  0.74627738527E+03  0.92339374518E+03  0.46999998093E+01 0. -1.
       -5    1    3    3    0  502 -0.53003258663E+03  0.12152958483E+03 -0.49272042258E+03  0.73382524330E+03  0.46999998093E+01 0.  1.
</event>
<event>
 5   0  0.3377273E-04  0.1798109E+04  0.7818609E-02  0.8707306E-01
       -1   -1    0    0    0  501  0.00000000000E+00  0.00000000000E+00  0.36075677507E+03  0.36075677510E+03  0.50400001928E-02 0. -1.
        1   -1    0    0  501    0  0.00000000000E+00  0.00000000000E+00 -0.22405646101E+04  0.22405646101E+04  0.50400001928E-02 0.  1.
    10030    2    1    2    0    0  0.00000000000E+00  0.00000000000E+00 -0.18798078350E+04  0.26013213852E+04  0.17981088545E+04 0.  0.
        2    1    3    3  502    0  0.24521617339E+03 -0.51771005901E+03 -0.19423565691E+04  0.20250688182E+04  0.25500000920E-02 0.  1.
       -2    1    3    3    0  502 -0.24521617339E+03  0.51771005901E+03  0.62548734031E+02  0.57625256705E+03  0.25500000920E-02 0. -1.
</event>
<event>
 5   0  0.6771967E-04  0.1783906E+04  0.7818609E-02  0.8714905E-01
       -2   -1    0    0    0  501  0.00000000000E+00  0.00000000000E+00  0.84570304550E+03  0.84570304551E+03  0.25500000920E-02 0.  1.
        2   -1    0    0  501    0  0.00000000000E+00  0.00000000000E+00 -0.94073201668E+03  0.94073201668E+03  0.25500000920E-02 0. -1.
    10030    2    1    2    0    0  0.00000000000E+00  0.00000000000E+00 -0.95028971177E+02  0.17864350622E+04  0.17839057503E+04 0.  0.
        1    1    3    3  502    0 -0.29897001912E+03  0.38078497903E+03 -0.79770924806E+03  0.93312395589E+03  0.50400001928E-02 0. -1.
       -1    1    3    3    0  502  0.29897001912E+03 -0.38078497903E+03  0.70268027688E+03  0.85331110630E+03  0.50400001928E-02 0.  1.
</event>
<event>
 5   0  0.6853162E-04  0.1735942E+04  0.7818609E-02  0.8741127E-01
        2   -1    0    0  501    0  0.00000000000E+00  0.00000000000E+00  0.88624255317E+03  0.88624255318E+03  0.25500000920E-02 0.  1.
       -2   -1    0    0    0  501  0.00000000000E+00  0.00000000000E+00 -0.85007581140E+03  0.85007581141E+03  0.25500000920E-02 0. -1.
    10030    2    1    2    0    0  0.00000000000E+00  0.00000000000E+00  0.36166741772E+02  0.17363183646E+04  0.17359416551E+04 0.  0.
        2    1    3    3  502    0 -0.36383701305E+03  0.35018803918E+03 -0.68801905939E+03  0.85345138170E+03  0.25500000920E-02 0. -1.
       -2    1    3    3    0  502  0.36383701305E+03 -0.35018803918E+03  0.72418580116E+03  0.88286698288E+03  0.25500000920E-02 0.  1.
</event>
<event>
 5   0  0.2467375E-04  0.1803615E+04  0.7818609E-02  0.8704380E-01
        3   -1    0    0  501    0  0.00000000000E+00  0.00000000000E+00  0.56236656928E+03  0.56236657835E+03  0.10100000352E+00 0.  1.
       -3   -1    0    0    0  501  0.00000000000E+00  0.00000000000E+00 -0.14461321328E+04  0.14461321363E+04  0.10100000352E+00 0. -1.
    10030    2    1    2    0    0  0.00000000000E+00  0.00000000000E+00 -0.88376556354E+03  0.20084987147E+04  0.18036145696E+04 0.  0.
        4    1    3    3  502    0 -0.23564874423E+03  0.81679301190E+03 -0.77702463336E+03  0.11517161320E+04  0.12699999809E+01 0. -1.
       -4    1    3    3    0  502  0.23564874423E+03 -0.81679301190E+03 -0.10674093017E+03  0.85678258270E+03  0.12699999809E+01 0.  1.
</event>
<event>
 5   0  0.3470962E-04  0.1872285E+04  0.7818609E-02  0.8668776E-01
        1   -1    0    0  501    0  0.00000000000E+00  0.00000000000E+00  0.12746196924E+04  0.12746196924E+04  0.50400001928E-02 0.  1.
       -1   -1    0    0    0  501  0.00000000000E+00  0.00000000000E+00 -0.68754876927E+03  0.68754876928E+03  0.50400001928E-02 0. -1.
    10030    2    1    2    0    0  0.00000000000E+00  0.00000000000E+00  0.58707092309E+03  0.19621684617E+04  0.18722854492E+04 0.  0.
        4    1    3    3  502    0 -0.11981612164E+03 -0.77295132485E+03  0.83257385523E+03  0.11423618038E+04  0.12699999809E+01 0.  1.
       -4    1    3    3    0  502  0.11981612164E+03  0.77295132485E+03 -0.24550293213E+03  0.81980665780E+03  0.12699999809E+01 0. -1.
</event>
<event>
 5   0  0.2467375E-04  0.1725396E+04  0.7818609E-02  0.8747011E-01
       -3   -1    0    0    0  501  0.00000000000E+00  0.00000000000E+00  0.10041726628E+04  0.10041726679E+04  0.10100000352E+00 0.  1.
        3   -1    0    0  501    0  0.00000000000E+00  0.00000000000E+00 -0.74115502314E+03  0.74115503002E+03  0.10100000352E+00 0. -1.
    10030    2    1    2    0    0  0.00000000000E+00  0.00000000000E+00  0.26301763966E+03  0.17453276979E+04  0.17253957501E+04 0.  0.
        5    1    3    3  502    0  0.94371696516E+02  0.66131901791E+02 -0.73332154575E+03  0.74233552050E+03  0.46999998093E+01 0. -1.
       -5    1    3    3    0  502 -0.94371696516E+02 -0.66131901791E+02  0.99633918542E+03  0.10029921774E+04  0.46999998093E+01 0.  1.
</event>
<event>
 5   0  0.6774451E-04  0.1770313E+04  0.7818609E-02  0.8722248E-01
        2   -1    0    0  501    0  0.00000000000E+00  0.00000000000E+00  0.96059027851E+03  0.96059027851E+03  0.25500000920E-02 0.  1.
       -2   -1    0    0    0  501  0.00000000000E+00  0.00000000000E+00 -0.81564688392E+03  0.81564688392E+03  0.25500000920E-02 0. -1.
    10030    2    1    2    0    0  0.00000000000E+00  0.00000000000E+00  0.14494339459E+03  0.17762371624E+04  0.17703134947E+04 0.  0.
        4    1    3    3  502    0  0.80593795347E+02  0.17983255010E+03 -0.79335597413E+03  0.81746585281E+03  0.12699999809E+01 0. -1.
       -4    1    3    3    0  502 -0.80593795347E+02 -0.17983255010E+03  0.93829936872E+03  0.95877130963E+03  0.12699999809E+01 0.  1.
</event>
<event>
 5   0  0.6547153E-04  0.1733958E+04  0.7818609E-02  0.8742230E-01
       -2   -1    0    0    0  501  0.00000000000E+00  0.00000000000E+00  0.56621068955E+03  0.56621068956E+03  0.25500000920E-02 0.  1.
        2   -1    0    0  501    0  0.00000000000E+00  0.00000000000E+00 -0.13275143864E+04  0.13275143864E+04  0.25500000920E-02 0. -1.
    10030    2    1    2    0    0  0.00000000000E+00  0.00000000000E+00 -0.76130369684E+03  0.18937250760E+04  0.17339582880E+04 0.  0.
        5    1    3    3  502    0 -0.13287345553E+03 -0.42066842514E+03  0.43444859938E+03  0.61918087389E+03  0.46999998093E+01 0.  1.
       -5    1    3    3    0  502  0.13287345553E+03  0.42066842514E+03 -0.11957522962E+04  0.12745442021E+04  0.46999998093E+01 0. -1.
</event>
<event>
 5   0  0.3404261E-04  0.1429126E+04  0.7818609E-02  0.8933001E-01
       -1   -1    0    0    0  501  0.00000000000E+00  0.00000000000E+00  0.80714828361E+03  0.80714828363E+03  0.50400001928E-02 0. -1.
        1   -1    0    0  501    0  0.00000000000E+00  0.00000000000E+00 -0.63259802013E+03  0.63259802015E+03  0.50400001928E-02 0.  1.
    10030    2    1    2    0    0  0.00000000000E+00  0.00000000000E+00  0.17455026349E+03  0.14397463038E+04  0.14291261752E+04 0.  0.
        1    1    3    3  502    0 -0.55616804510E+03 -0.32782276430E+03 -0.22128469422E+03  0.68246433981E+03  0.50400001928E-02 0.  1.
       -1    1    3    3    0  502  0.55616804510E+03  0.32782276430E+03  0.39583495770E+03  0.75728196397E+03  0.50400001928E-02 0. -1.
</event>
<event>
 5   0  0.6774451E-04  0.1776396E+04  0.7818609E-02  0.8718954E-01
       -2   -1    0    0    0  501  0.00000000000E+00  0.00000000000E+00  0.45389770227E+03  0.45389770228E+03  0.25500000920E-02 0.  1.
        2   -1    0    0  501    0  0.00000000000E+00  0.00000000000E+00 -0.17380465004E+04  0.17380465004E+04  0.25500000920E-02 0. -1.
    10030    2    1    2    0    0  0.00000000000E+00  0.00000000000E+00 -0.12841487982E+04  0.21919442027E+04  0.17763955787E+04 0.  0.
        4    1    3    3  502    0  0.55724679489E+03 -0.40000733451E+02 -0.14940832617E+04  0.15951208277E+04  0.12699999809E+01 0. -1.
       -4    1    3    3    0  502 -0.55724679489E+03  0.40000733451E+02  0.20993446354E+03  0.59682337503E+03  0.12699999809E+01 0.  1.
</event>
<event>
 5   0  0.2467375E-04  0.1807242E+04  0.7818609E-02  0.8702458E-01
       -3   -1    0    0    0  501  0.00000000000E+00  0.00000000000E+00  0.45130810127E+03  0.45130811257E+03  0.10100000352E+00 0. -1.
        3   -1    0    0  501    0  0.00000000000E+00  0.00000000000E+00 -0.18092546178E+04  0.18092546206E+04  0.10100000352E+00 0.  1.
    10030    2    1    2    0    0  0.00000000000E+00  0.00000000000E+00 -0.13579465165E+04  0.22605627332E+04  0.18072424101E+04 0.  0.
        3    1    3    3  502    0  0.21029461523E+03  0.48807058484E+01 -0.17782032456E+04  0.17906016975E+04  0.10100000352E+00 0.  1.
       -3    1    3    3    0  502 -0.21029461523E+03 -0.48807058484E+01  0.42025672906E+03  0.46996103563E+03  0.10100000352E+00 0. -1.
</event>
<event>
 5   0  0.3308275E-04  0.1404832E+04  0.7818609E-02  0.8950328E-01
        1   -1    0    0  501    0  0.00000000000E+00  0.00000000000E+00  0.10302578309E+04  0.10302578310E+04  0.50400001928E-02 0. -1.
       -1   -1    0    0    0  501  0.00000000000E+00  0.00000000000E+00 -0.47889782488E+03  0.47889782491E+03  0.50400001928E-02 0.  1.
    10030    2    1    2    0    0  0.00000000000E+00  0.00000000000E+00  0.55136000607E+03  0.15091556559E+04  0.14048319961E+04 0.  0.
        3    1    3    3  502    0 -0.62298673069E+03 -0.16337542581E+03 -0.25466164424E+02  0.64455607367E+03  0.10100000352E+00 0.  1.
       -3    1    3    3    0  502  0.62298673069E+03  0.16337542581E+03  0.57682617049E+03  0.86459958220E+03  0.10100000352E+00 0. -1.
</event>
<event>
 5   0  0.3377273E-04  0.1794562E+04  0.7818609E-02  0.8709197E-01
        1   -1    0    0  501    0  0.00000000000E+00  0.00000000000E+00  0.95001470516E+03  0.95001470518E+03  0.50400001928E-02 0. -1.
       -1   -1    0    0    0  501  0.00000000000E+00  0.00000000000E+00 -0.84747426423E+03  0.84747426425E+03  0.50400001928E-02 0.  1.
    10030    2    1    2    0    0  0.00000000000E+00  0.00000000000E+00  0.10254044093E+03  0.17974889694E+04  0.17945617998E+04 0.  0.
        2    1    3    3  502    0  0.29532750550E+03 -0.45051615598E+03 -0.66748640010E+03  0.85774194058E+03  0.25500000920E-02 0.  1.
       -2    1    3    3    0  502 -0.29532750550E+03  0.45051615598E+03  0.77002684103E+03  0.93974702884E+03  0.25500000920E-02 0. -1.
</event>
<event>
 5   0  0.3377273E-04  0.1680077E+04  0.7818609E-02  0.8772809E-01
       -1   -1    0    0    0  501  0.00000000000E+00  0.00000000000E+00  0.81530282904E+03  0.81530282905E+03  0.50400001928E-02 0. -1.
        1   -1    0    0  501    0  0.00000000000E+00  0.00000000000E+00 -0.86552457074E+03  0.86552457076E+03  0.50400001928E-02 0.  1.
    10030    2    1    2    0    0  0.00000000000E+00  0.00000000000E+00 -0.50221741706E+02  0.16808273998E+04  0.16800769401E+04 0.  0.
        2    1    3    3  502    0 -0.11888143713E+03  0.39117313401E+03 -0.75927475702E+03  0.86234991362E+03  0.25500000920E-02 0.  1.
       -2    1    3    3    0  502  0.11888143713E+03 -0.39117313401E+03  0.70905301532E+03  0.81847748619E+03  0.25500000920E-02 0. -1.
</event>
<event>
 5   0  0.3404261E-04  0.1615593E+04  0.7818609E-02  0.8811026E-01
        1   -1    0    0  501    0  0.00000000000E+00  0.00000000000E+00  0.13386403349E+04  0.13386403349E+04  0.50400001928E-02 0. -1.
       -1   -1    0    0    0  501  0.00000000000E+00  0.00000000000E+00 -0.48746103063E+03  0.48746103066E+03  0.50400001928E-02 0.  1.
    10030    2    1    2    0    0  0.00000000000E+00  0.00000000000E+00  0.85117930425E+03  0.18261013655E+04  0.16155927672E+04 0.  0.
        1    1    3    3  502    0 -0.24554556384E+03  0.76415673171E+03  0.52860726891E+03  0.96106908144E+03  0.50400001928E-02 0.  1.
       -1    1    3    3    0  502  0.24554556384E+03 -0.76415673171E+03  0.32257203534E+03  0.86503228411E+03  0.50400001928E-02 0. -1.
</event>
<event>
 5   0  0.3413839E-04  0.1759330E+04  0.7818609E-02  0.8728231E-01
       -1   -1    0    0    0  501  0.00000000000E+00  0.00000000000E+00  0.38425348577E+03  0.38425348580E+03  0.50400001928E-02 0.  1.
        1   -1    0    0  501    0  0.00000000000E+00  0.00000000000E+00 -0.20138026917E+04  0.20138026917E+04  0.50400001928E-02 0. -1.
    10030    2    1    2    0    0  0.00000000000E+00  0.00000000000E+00 -0.16295492060E+04  0.23980561775E+04  0.17593302180E+04 0.  0.
        5    1    3    3  502    0  0.70827917200E+03 -0.51937130506E+03 -0.74824047262E+03  0.11538162041E+04  0.46999998093E+01 0. -1.
       -5    1    3    3    0  502 -0.70827917200E+03  0.51937130506E+03 -0.88130873335E+03  0.12442399734E+04  0.46999998093E+01 0.  1.
</event>
<event>
 5   0  0.3377273E-04  0.1777809E+04  0.7818609E-02  0.8718190E-01
        1   -1    0    0  501    0  0.00000000000E+00  0.00000000000E+00  0.69755555684E+03  0.69755555686E+03  0.50400001928E-02 0. -1.
       -1   -1    0    0    0  501  0.00000000000E+00  0.00000000000E+00 -0.11327424849E+04  0.11327424849E+04  0.50400001928E-02 0.  1.
    10030    2    1    2    0    0  0.00000000000E+00  0.00000000000E+00 -0.43518692805E+03  0.18302980418E+04  0.17778085553E+04 0.  0.
        2    1    3    3  502    0  0.88763199095E+02  0.85664823516E+03 -0.44414907574E+03  0.96901677271E+03  0.25500000920E-02 0.  1.
       -2    1    3    3    0  502 -0.88763199095E+02 -0.85664823516E+03  0.89621476917E+01  0.86128126904E+03  0.25500000920E-02 0. -1.
</event>
<event>
 5   0  0.6774451E-04  0.1916388E+04  0.7818609E-02  0.8646742E-01
       -2   -1    0    0    0  501  0.00000000000E+00  0.00000000000E+00  0.13416955382E+04  0.13416955383E+04  0.25500000920E-02 0.  1.
        2   -1    0    0  501    0  0.00000000000E+00  0.00000000000E+00 -0.68430981170E+03  0.68430981171E+03  0.25500000920E-02 0. -1.
    10030    2    1    2    0    0  0.00000000000E+00  0.00000000000E+00  0.65738572655E+03  0.20260053500E+04  0.19163876655E+04 0.  0.
        4    1    3    3  502    0  0.43449163053E+03 -0.84327076013E+03  0.18589154860E+03  0.96666738470E+03  0.12699999809E+01 0. -1.
       -4    1    3    3    0  502 -0.43449163053E+03  0.84327076013E+03  0.47149417795E+03  0.10593379653E+04  0.12699999809E+01 0.  1.
</event>
<event>
 5   0  0.6774451E-04  0.1798046E+04  0.7818609E-02  0.8707339E-01
       -2   -1    0    0    0  501  0.00000000000E+00  0.00000000000E+00  0.40500009574E+03  0.40500009575E+03  0.25500000920E-02 0.  1.
        2   -1    0    0  501    0  0.00000000000E+00  0.00000000000E+00 -0.19956591360E+04  0.19956591360E+04  0.25500000920E-02 0. -1.
    10030    2    1    2    0    0  0.00000000000E+00  0.00000000000E+00 -0.15906590403E+04  0.24006592318E+04  0.17980457627E+04 0.  0.
        4    1    3    3  502    0  0.50888743518E+03 -0.69437790444E+03 -0.44944231132E+03  0.97114731116E+03  0.12699999809E+01 0.  1.
       -4    1    3    3    0  502 -0.50888743518E+03  0.69437790444E+03 -0.11412167290E+04  0.14295119206E+04  0.12699999809E+01 0. -1.
</event>
<event>
 5   0  0.6771967E-04  0.1846370E+04  0.7818609E-02  0.8682022E-01
        2   -1    0    0  501    0  0.00000000000E+00  0.00000000000E+00  0.11783208108E+04  0.11783208108E+04  0.25500000920E-02 0.  1.
       -2   -1    0    0    0  501  0.00000000000E+00  0.00000000000E+00 -0.72329272937E+03  0.72329272937E+03  0.25500000920E-02 0. -1.
    10030    2    1    2    0    0  0.00000000000E+00  0.00000000000E+00  0.45502808144E+03  0.19016135402E+04  0.18463703587E+04 0.  0.
        1    1    3    3  502    0 -0.38388164226E+03  0.82489356818E+03  0.38857836754E+03  0.98934708866E+03  0.50400001928E-02 0. -1.
       -1    1    3    3    0  502  0.38388164226E+03 -0.82489356818E+03  0.66449713893E+02  0.91226645153E+03  0.50400001928E-02 0.  1.
</event>
<event>
 5   0  0.3470962E-04  0.1754753E+04  0.7818609E-02  0.8730738E-01
       -1   -1    0    0    0  501  0.00000000000E+00  0.00000000000E+00  0.11109591309E+04  0.11109591309E+04  0.50400001928E-02 0. -1.
        1   -1    0    0  501    0  0.00000000000E+00  0.00000000000E+00 -0.69290531257E+03  0.69290531259E+03  0.50400001928E-02 0.  1.
    10030    2    1    2    0    0  0.00000000000E+00  0.00000000000E+00  0.41805381829E+03  0.18038644435E+04  0.17547529557E+04 0.  0.
        4    1    3    3  502    0 -0.87074827141E+03 -0.67913442703E+02  0.12318480880E+03  0.88203792316E+03  0.12699999809E+01 0.  1.
       -4    1    3    3    0  502  0.87074827141E+03  0.67913442703E+02  0.29486900949E+03  0.92182652030E+03  0.12699999809E+01 0. -1.
</event>
<event>
 5   0  0.3470962E-04  0.1804572E+04  0.7818609E-02  0.8703872E-01
        1   -1    0    0  501    0  0.00000000000E+00  0.00000000000E+00  0.19229843114E+04  0.19229843114E+04  0.50400001928E-02 0.  1.
       -1   -1    0    0    0  501  0.00000000000E+00  0.00000000000E+00 -0.42336291676E+03  0.42336291679E+03  0.50400001928E-02 0. -1.
    10030    2    1    2    0    0  0.00000000000E+00  0.00000000000E+00  0.14996213946E+04  0.23463472282E+04  0.18045722452E+04 0.  0.
        4    1    3    3  502    0  0.24655295315E+03 -0.28429120798E+02 -0.37810756077E+03  0.45228698193E+03  0.12699999809E+01 0. -1.
       -4    1    3    3    0  502 -0.24655295315E+03  0.28429120798E+02  0.18777289554E+04  0.18940602463E+04  0.12699999809E+01 0.  1.
</event>
<event>
 5   0  0.6547153E-04  0.1782792E+04  0.7818609E-02  0.8715504E-01
       -2   -1    0    0    0  501  0.00000000000E+00  0.00000000000E+00  0.61591857411E+03  0.61591857411E+03  0.25500000920E-02 0. -1.
        2   -1    0    0  501    0  0.00000000000E+00  0.00000000000E+00 -0.12900844624E+04  0.12900844624E+04  0.25500000920E-02 0.  1.
    10030    2    1    2    0    0  0.00000000000E+00  0.00000000000E+00 -0.67416588826E+03  0.19060030365E+04  0.17827921725E+04 0.  0.
        5    1    3    3  502    0  0.65093730209E+02 -0.53763840641E+03  0.41985429411E+03  0.68526780753E+03  0.46999998093E+01 0. -1.
       -5    1    3    3    0  502 -0.65093730209E+02  0.53763840641E+03 -0.10940201824E+04  0.12207352289E+04  0.46999998093E+01 0.  1.
</event>
<event>
 5   0  0.3413839E-04  0.1834373E+04  0.7818609E-02  0.8688231E-01
        1   -1    0    0  501    0  0.00000000000E+00  0.00000000000E+00  0.13567507880E+04  0.13567507880E+04  0.50400001928E-02 0. -1.
       -1   -1    0    0    0  501  0.00000000000E+00  0.00000000000E+00 -0.62003349590E+03  0.62003349592E+03  0.50400001928E-02 0.  1.
    10030    2    1    2    0    0  0.00000000000E+00  0.00000000000E+00  0.73671729211E+03  0.19767842839E+04  0.18343728456E+04 0.  0.
        5    1    3    3  502    0  0.33009504053E+03 -0.66503653257E+03  0.94865532784E+03  0.12046598468E+04  0.46999998093E+01 0. -1.
       -5    1    3    3    0  502 -0.33009504053E+03  0.66503653257E+03 -0.21193803574E+03  0.77212443714E+03  0.46999998093E+01 0.  1.
</event>
<event>
 5   0  0.3413839E-04  0.1809240E+04  0.7818609E-02  0.8701401E-01
        1   -1    0    0  501    0  0.00000000000E+00  0.00000000000E+00  0.86236243106E+03  0.86236243108E+03  0.50400001928E-02 0.  1.
       -1   -1    0    0    0  501  0.00000000000E+00  0.00000000000E+00 -0.94894781710E+03  0.94894781711E+03  0.50400001928E-02 0. -1.
    10030    2    1    2    0    0  0.00000000000E+00  0.00000000000E+00 -0.86585386037E+02  0.18113102482E+04  0.18092395602E+04 0.  0.
        5    1    3    3  502    0  0.78434316202E+03  0.32197321842E+03  0.27243137809E+03  0.89056268446E+03  0.46999998093E+01 0. -1.
       -5    1    3    3    0  502 -0.78434316202E+03 -0.32197321842E+03 -0.35901676412E+03  0.92074756373E+03  0.46999998093E+01 0.  1.
</event>
<event>
 5   0  0.6853162E-04  0.1852775E+04  0.7818609E-02  0.8678727E-01
       -2   -1    0    0    0  501  0.00000000000E+00  0.00000000000E+00  0.56198686134E+03  0.56198686134E+03  0.25500000920E-02 0. -1.
        2   -1    0    0  501    0  0.00000000000E+00  0.00000000000E+00 -0.15270704705E+04  0.15270704705E+04  0.25500000920E-02 0.  1.
    10030    2    1    2    0    0  0.00000000000E+00  0.00000000000E+00 -0.96508360919E+03  0.20890573319E+04  0.18527747200E+04 0.  0.
        2    1    3    3  502    0  0.16148045108E+03  0.27612075501E+03 -0.14628276101E+04  0.14973921412E+04  0.25500000920E-02 0.  1.
       -2    1    3    3    0  502 -0.16148045108E+03 -0.27612075501E+03  0.49774400094E+03  0.59166519072E+03  0.25500000920E-02 0. -1.
</event>
<event>
 5   0  0.3308275E-04  0.1715199E+04  0.7818609E-02  0.8752743E-01
       -1   -1    0    0    0  501  0.00000000000E+00  0.00000000000E+00  0.12033364660E+04  0.12033364660E+04  0.50400001928E-02 0.  1.
        1   -1    0    0  501    0  0.00000000000E+00  0.00000000000E+00 -0.61119781642E+03  0.61119781644E+03  0.50400001928E-02 0. -1.
    10030    2    1    2    0    0  0.00000000000E+00  0.00000000000E+00  0.59213864961E+03  0.18145342825E+04  0.17151986713E+04 0.  0.
        3    1    3    3  502    0 -0.24439553391E+03  0.80048212429E+03  0.49391865620E+03  0.97183149643E+03  0.10100000352E+00 0.  1.
       -3    1    3    3    0  502  0.24439553391E+03 -0.80048212429E+03  0.98219993407E+02  0.84270278604E+03  0.10100000352E+00 0. -1.
</event>
<event>
 5   0  0.6929121E-04  0.1844066E+04  0.7818609E-02  0.8683211E-01
        2   -1    0    0  501    0  0.00000000000E+00  0.00000000000E+00  0.19054009888E+04  0.19054009888E+04  0.25500000920E-02 0. -1.
       -2   -1    0    0    0  501  0.00000000000E+00  0.00000000000E+00 -0.44617626101E+03  0.44617626101E+03  0.25500000920E-02 0.  1.
    10030    2    1    2    0    0  0.00000000000E+00  0.00000000000E+00  0.14592247278E+04  0.23515772498E+04  0.18440658219E+04 0.  0.
        3    1    3    3  502    0  0.34796188888E+02  0.45689878131E+02  0.19031178885E+04  0.19039842561E+04  0.10100000352E+00 0. -1.
       -3    1    3    3    0  502 -0.34796188888E+02 -0.45689878131E+02 -0.44389316069E+03  0.44759299373E+03  0.10100000352E+00 0.  1.
</event>
<event>
 5   0  0.2467375E-04  0.1010987E+04  0.7818609E-02  0.9296576E-01
       -3   -1    0    0    0  501  0.00000000000E+00  0.00000000000E+00  0.36262199659E+03  0.36262201066E+03  0.10100000352E+00 0.  1.
        3   -1    0    0  501    0  0.00000000000E+00  0.00000000000E+00 -0.70465567546E+03  0.70465568270E+03  0.10100000352E+00 0. -1.
    10030    2    1    2    0    0  0.00000000000E+00  0.00000000000E+00 -0.34203367887E+03  0.10672776934E+04  0.10109869620E+04 0.  0.
        5    1    3    3  502    0 -0.97826726621E+02 -0.33835340270E+03 -0.55376195311E+03  0.65629831957E+03  0.46999998093E+01 0. -1.
       -5    1    3    3    0  502  0.97826726621E+02  0.33835340270E+03  0.21172827425E+03  0.41097937378E+03  0.46999998093E+01 0.  1.
</event>
<event>
 5   0  0.6774451E-04  0.1783210E+04  0.7818609E-02  0.8715280E-01
       -2   -1    0    0    0  501  0.00000000000E+00  0.00000000000E+00  0.72459315459E+03  0.72459315459E+03  0.25500000920E-02 0. -1.
        2   -1    0    0  501    0  0.00000000000E+00  0.00000000000E+00 -0.10971113499E+04  0.10971113499E+04  0.25500000920E-02 0.  1.
    10030    2    1    2    0    0  0.00000000000E+00  0.00000000000E+00 -0.37251819528E+03  0.18217045045E+04  0.17832098855E+04 0.  0.
        4    1    3    3  502    0 -0.55275521398E+03 -0.50747911582E+03  0.30567986165E+03  0.81025623743E+03  0.12699999809E+01 0. -1.
       -4    1    3    3    0  502  0.55275521398E+03  0.50747911582E+03 -0.67819805692E+03  0.10114482670E+04  0.12699999809E+01 0.  1.
</event>
<event>
 5   0  0.6774451E-04  0.1785525E+04  0.7818609E-02  0.8714035E-01
       -2   -1    0    0    0  501  0.00000000000E+00  0.00000000000E+00  0.86460987980E+03  0.86460987981E+03  0.25500000920E-02 0. -1.
        2   -1    0    0  501    0  0.00000000000E+00  0.00000000000E+00 -0.92183134015E+03  0.92183134015E+03  0.25500000920E-02 0.  1.
    10030    2    1    2    0    0  0.00000000000E+00  0.00000000000E+00 -0.57221460345E+02  0.17864412200E+04  0.17855245551E+04 0.  0.
        4    1    3    3  502    0  0.65333769500E+02 -0.51889933925E+03  0.69529223115E+03  0.87003328977E+03  0.12699999809E+01 0. -1.
       -4    1    3    3    0  502 -0.65333769500E+02  0.51889933925E+03 -0.75251369150E+03  0.91640793018E+03  0.12699999809E+01 0.  1.
</event>
<event>
 5   0  0.3377273E-04  0.1778047E+04  0.7818609E-02  0.8718062E-01
       -1   -1    0    0    0  501  0.00000000000E+00  0.00000000000E+00  0.49385108272E+03  0.49385108275E+03  0.50400001928E-02 0.  1.
        1   -1    0    0  501    0  0.00000000000E+00  0.00000000000E+00 -0.16004073857E+04  0.16004073857E+04  0.50400001928E-02 0. -1.
    10030    2    1    2    0    0  0.00000000000E+00  0.00000000000E+00 -0.11065563029E+04  0.20942584684E+04  0.17780471537E+04 0.  0.
        2    1    3    3  502    0 -0.55083110714E+03  0.57395577412E+03 -0.10207534754E+04  0.12941320631E+04  0.25500000920E-02 0. -1.
       -2    1    3    3    0  502  0.55083110714E+03 -0.57395577412E+03 -0.85802827543E+02  0.80012640530E+03  0.25500000920E-02 0.  1.
</event>
<event>
 5   0  0.6771967E-04  0.1913505E+04  0.7818609E-02  0.8648163E-01
       -2   -1    0    0    0  501  0.00000000000E+00  0.00000000000E+00  0.11496798657E+04  0.11496798657E+04  0.25500000920E-02 0. -1.
        2   -1    0    0  501    0  0.00000000000E+00  0.00000000000E+00 -0.79620024334E+03  0.79620024334E+03  0.25500000920E-02 0.  1.
    10030    2    1    2    0    0  0.00000000000E+00  0.00000000000E+00  0.35347962240E+03  0.19458801091E+04  0.19135050445E+04 0.  0.
        1    1    3    3  502    0  0.55126168618E+02  0.44820911644E+03 -0.68100314064E+03  0.81712641869E+03  0.50400001928E-02 0.  1.
       -1    1    3    3    0  502 -0.55126168618E+02 -0.44820911644E+03  0.10344827630E+04  0.11287536904E+04  0.50400001928E-02 0. -1.
</event>
<event>
 5   0  0.3404261E-04  0.1997664E+04  0.7818609E-02  0.8607713E-01
       -1   -1    0    0    0  501  0.00000000000E+00  0.00000000000E+00  0.10426596908E+04  0.10426596908E+04  0.50400001928E-02 0. -1.
        1   -1    0    0  501    0  0.00000000000E+00  0.00000000000E+00 -0.95684701317E+03  0.95684701318E+03  0.50400001928E-02 0.  1.
    10030    2    1    2    0    0  0.00000000000E+00  0.00000000000E+00  0.85812677645E+02  0.19995067040E+04  0.19976644472E+04 0.  0.
        1    1    3    3  502    0  0.54634384849E+02  0.53492879601E+02 -0.95391339036E+03  0.95697291525E+03  0.50400001928E-02 0.  1.
       -1    1    3    3    0  502 -0.54634384849E+02 -0.53492879601E+02  0.10397260680E+04  0.10425337888E+04  0.50400001928E-02 0. -1.
</event>
<event>
 5   0  0.3413839E-04  0.1165888E+04  0.7818609E-02  0.9143250E-01
        1   -1    0    0  501    0  0.00000000000E+00  0.00000000000E+00  0.88520501506E+03  0.88520501507E+03  0.50400001928E-02 0.  1.
       -1   -1    0    0    0  501  0.00000000000E+00  0.00000000000E+00 -0.38389297484E+03  0.38389297487E+03  0.50400001928E-02 0. -1.
    10030    2    1    2    0    0  0.00000000000E+00  0.00000000000E+00  0.50131204022E+03  0.12690979899E+04  0.11658884794E+04 0.  0.
        5    1    3    3  502    0 -0.17041200176E+03 -0.43024727753E+03 -0.13519311980E+03  0.48213301049E+03  0.46999998093E+01 0.  1.
       -5    1    3    3    0  502  0.17041200176E+03  0.43024727753E+03  0.63650516002E+03  0.78696497946E+03  0.46999998093E+01 0. -1.
</event>
<event>
 5   0  0.6771967E-04  0.1758229E+04  0.7818609E-02  0.8728834E-01
        2   -1    0    0  501    0  0.00000000000E+00  0.00000000000E+00  0.83083702353E+03  0.83083702353E+03  0.25500000920E-02 0. -1.
       -2   -1    0    0    0  501  0.00000000000E+00  0.00000000000E+00 -0.93019678115E+03  0.93019678115E+03  0.25500000920E-02 0.  1.
    10030    2    1    2    0    0  0.00000000000E+00  0.00000000000E+00 -0.99359757617E+02  0.17610338047E+04  0.17582285687E+04 0.  0.
        1    1    3    3  502    0  0.22471860189E+02  0.12753554896E+03  0.82123122926E+03  0.83137899461E+03  0.50400001928E-02 0. -1.
       -1    1    3    3    0  502 -0.22471860189E+02 -0.12753554896E+03 -0.92059098688E+03  0.92965481007E+03  0.50400001928E-02 0.  1.
</event>
<event>
 5   0  0.3413839E-04  0.1789055E+04  0.7818609E-02  0.8712142E-01
       -1   -1    0    0    0  501  0.00000000000E+00  0.00000000000E+00  0.73658604149E+03  0.73658604151E+03  0.50400001928E-02 0. -1.
        1   -1    0    0  501    0  0.00000000000E+00  0.00000000000E+00 -0.10863355953E+04  0.10863355953E+04  0.50400001928E-02 0.  1.
    10030    2    1    2    0    0  0.00000000000E+00  0.00000000000E+00 -0.34974955380E+03  0.18229216368E+04  0.17890552098E+04 0.  0.
        5    1    3    3  502    0  0.29953247473E+03  0.97746113971E+01  0.68389765655E+03  0.74669494513E+03  0.46999998093E+01 0. -1.
       -5    1    3    3    0  502 -0.29953247473E+03 -0.97746113971E+01 -0.10336472104E+04  0.10762266917E+04  0.46999998093E+01 0.  1.
</event>
<event>
 5   0  0.3308275E-04  0.1800924E+04  0.7818609E-02  0.8705808E-01
       -1   -1    0    0    0  501  0.00000000000E+00  0.00000000000E+00  0.61434613236E+03  0.61434613238E+03  0.50400001928E-02 0.  1.
        1   -1    0    0  501    0  0.00000000000E+00  0.00000000000E+00 -0.13198291859E+04  0.13198291859E+04  0.50400001928E-02 0. -1.
    10030    2    1    2    0    0  0.00000000000E+00  0.00000000000E+00 -0.70548305350E+03  0.19341753183E+04  0.18009241580E+04 0.  0.
        3    1    3    3  502    0 -0.16385391235E+03 -0.59139383637E+03  0.35498245397E+03  0.70894804260E+03  0.10100000352E+00 0.  1.
       -3    1    3    3    0  502  0.16385391235E+03  0.59139383637E+03 -0.10604655075E+04  0.12252272757E+04  0.10100000352E+00 0. -1.
</event>
<event>
 5   0  0.3470962E-04  0.1782803E+04  0.7818609E-02  0.8715499E-01
        1   -1    0    0  501    0  0.00000000000E+00  0.00000000000E+00  0.11982489833E+04  0.11982489833E+04  0.50400001928E-02 0. -1.
       -1   -1    0    0    0  501  0.00000000000E+00  0.00000000000E+00 -0.66313123912E+03  0.66313123914E+03  0.50400001928E-02 0.  1.
    10030    2    1    2    0    0  0.00000000000E+00  0.00000000000E+00  0.53511774419E+03  0.18613802225E+04  0.17828026622E+04 0.  0.
        4    1    3    3  502    0 -0.50368213936E+03  0.57954780356E+03  0.74031100941E+03  0.10665989676E+04  0.12699999809E+01 0. -1.
       -4    1    3    3    0  502  0.50368213936E+03 -0.57954780356E+03 -0.20519326521E+03  0.79478125488E+03  0.12699999809E+01 0.  1.
</event>
<event>
 5   0  0.6547153E-04  0.1646992E+04  0.7818609E-02  0.8792188E-01
       -2   -1    0    0    0  501  0.00000000000E+00  0.00000000000E+00  0.10030110372E+04  0.10030110372E+04  0.25500000920E-02 0.  1.
        2   -1    0    0  501    0  0.00000000000E+00  0.00000000000E+00 -0.67610996388E+03  0.67610996388E+03  0.25500000920E-02 0. -1.
    10030    2    1    2    0    0  0.00000000000E+00  0.00000000000E+00  0.32690107330E+03  0.16791210011E+04  0.16469921143E+04 0.  0.
        5    1    3    3  502    0  0.30252898240E+02 -0.71330260434E+03 -0.25493012697E+03  0.75810771190E+03  0.46999998093E+01 0. -1.
       -5    1    3    3    0  502 -0.30252898240E+02  0.71330260434E+03  0.58183120027E+03  0.92101328916E+03  0.46999998093E+01 0.  1.
</event>
<event>
 5   0  0.6771967E-04  0.1793120E+04  0.7818609E-02  0.8709967E-01
        2   -1    0    0  501    0  0.00000000000E+00  0.00000000000E+00  0.24694303709E+04  0.24694303709E+04  0.25500000920E-02 0.  1.
       -2   -1    0    0    0  501  0.00000000000E+00  0.00000000000E+00 -0.32550819793E+03  0.32550819794E+03  0.25500000920E-02 0. -1.
    10030    2    1    2    0    0  0.00000000000E+00  0.00000000000E+00  0.21439221729E+04  0.27949385688E+04  0.17931199959E+04 0.  0.
        1    1    3    3  502    0 -0.58205539149E+03  0.27043226645E+03  0.96186971927E+02  0.64897921622E+03  0.50400001928E-02 0. -1.
       -1    1    3    3    0  502  0.58205539149E+03 -0.27043226645E+03  0.20477352010E+04  0.21459593526E+04  0.50400001928E-02 0.  1.
</event>
<event>
 5   0  0.3377273E-04  0.1791983E+04  0.7818609E-02  0.8710574E-01
       -1   -1    0    0    0  501  0.00000000000E+00  0.00000000000E+00  0.15034052921E+04  0.15034052921E+04  0.50400001928E-02 0.  1.
        1   -1    0    0  501    0  0.00000000000E+00  0.00000000000E+00 -0.53398828750E+03  0.53398828752E+03  0.50400001928E-02 0. -1.
    10030    2    1    2    0    0  0.00000000000E+00  0.00000000000E+00  0.96941700463E+03  0.20373935797E+04  0.17919830551E+04 0.  0.
        2    1    3    3  502    0 -0.93171422080E+02  0.87155611671E+03  0.27349946321E+03  0.91820092292E+03  0.25500000920E-02 0. -1.
       -2    1    3    3    0  502  0.93171422080E+02 -0.87155611671E+03  0.69591754142E+03  0.11191926567E+04  0.25500000920E-02 0.  1.
</event>
<event>
 5   0  0.3413839E-04  0.1536092E+04  0.7818609E-02  0.8860800E-01
       -1   -1    0    0    0  501  0.00000000000E+00  0.00000000000E+00  0.41614285046E+03  0.41614285049E+03  0.50400001928E-02 0. -1.
        1   -1    0    0  501    0  0.00000000000E+00  0.00000000000E+00 -0.14175296847E+04  0.14175296847E+04  0.50400001928E-02 0.  1.
    10030    2    1    2    0    0  0.00000000000E+00  0.00000000000E+00 -0.10013868342E+04  0.18336725352E+04  0.15360922415E+04 0.  0.
        5    1    3    3  502    0 -0.31799076856E+03 -0.32922616062E+02  0.33292601131E+03  0.46158839516E+03  0.46999998093E+01 0. -1.
       -5    1    3    3    0  502  0.31799076856E+03  0.32922616062E+02 -0.13343128455E+04  0.13720841400E+04  0.46999998093E+01 0.  1.
</event>
<event>
 5   0  0.6929121E-04  0.1573876E+04  0.7818609E-02  0.8836760E-01
       -2   -1    0    0    0  501  0.00000000000E+00  0.00000000000E+00  0.30261300545E+03  0.30261300546E+03  0.25500000920E-02 0.  1.
        2   -1    0    0  501    0  0.00000000000E+00  0.00000000000E+00 -0.20464143167E+04  0.20464143167E+04  0.25500000920E-02 0. -1.
    10030    2    1    2    0    0  0.00000000000E+00  0.00000000000E+00 -0.17438013112E+04  0.23490273221E+04  0.15738762172E+04 0.  0.
        3    1    3    3  502    0 -0.15812300155E+03 -0.70410304607E+03 -0.40346240536E+03  0.82676835077E+03  0.10100000352E+00 0.  1.
       -3    1    3    3    0  502  0.15812300155E+03  0.70410304607E+03 -0.13403389059E+04  0.15222589714E+04  0.10100000352E+00 0. -1.
</event>
<event>
 5   0  0.6771967E-04  0.1586336E+04  0.7818609E-02  0.8828986E-01
        2   -1    0    0  501    0  0.00000000000E+00  0.00000000000E+00  0.54036817317E+03  0.54036817318E+03  0.25500000920E-02 0.  1.
       -2   -1    0    0    0  501  0.00000000000E+00  0.00000000000E+00 -0.11642354731E+04  0.11642354731E+04  0.25500000920E-02 0. -1.
    10030    2    1    2    0    0  0.00000000000E+00  0.00000000000E+00 -0.62386729990E+03  0.17046036463E+04  0.15863364028E+04 0.  0.
        1    1    3    3  502    0 -0.29552135455E+03 -0.35019498279E+03  0.38374871144E+03  0.59768927590E+03  0.50400001928E-02 0.  1.
       -1    1    3    3    0  502  0.29552135455E+03  0.35019498279E+03 -0.10076160113E+04  0.11069143704E+04  0.50400001928E-02 0. -1.
</event>
<event>
 5   0  0.3413839E-04  0.1171436E+04  0.7818609E-02  0.9138233E-01
       -1   -1    0    0    0  501  0.00000000000E+00  0.00000000000E+00  0.63491819301E+03  0.63491819303E+03  0.50400001928E-02 0. -1.
        1   -1    0    0  501    0  0.00000000000E+00  0.00000000000E+00 -0.54033029158E+03  0.54033029160E+03  0.50400001928E-02 0.  1.
    10030    2    1    2    0    0  0.00000000000E+00  0.00000000000E+00  0.94587901428E+02  0.11752484846E+04  0.11714359263E+04 0.  0.
        5    1    3    3  502    0  0.53097389742E+03  0.19889676245E+03  0.19457172815E+03  0.59947764700E+03  0.46999998093E+01 0.  1.
       -5    1    3    3    0  502 -0.53097389742E+03 -0.19889676245E+03 -0.99983826726E+02  0.57577083763E+03  0.46999998093E+01 0. -1.
</event>
<event>
 5   0  0.3377273E-04  0.1582606E+04  0.7818609E-02  0.8831306E-01
        1   -1    0    0  501    0  0.00000000000E+00  0.00000000000E+00  0.68183375198E+03  0.68183375200E+03  0.50400001928E-02 0. -1.
       -1   -1    0    0    0  501  0.00000000000E+00  0.00000000000E+00 -0.91834748579E+03  0.91834748581E+03  0.50400001928E-02 0.  1.
    10030    2    1    2    0    0  0.00000000000E+00  0.00000000000E+00 -0.23651373381E+03  0.16001812378E+04  0.15826058409E+04 0.  0.
        2    1    3    3  502    0 -0.62900054922E+02 -0.70003666667E+03 -0.48582190911E+03  0.85441832785E+03  0.25500000920E-02 0.  1.
       -2    1    3    3    0  502  0.62900054922E+02  0.70003666667E+03  0.24930817530E+03  0.74576290996E+03  0.25500000920E-02 0. -1.
</event>
<event>
 5   0  0.3413839E-04  0.1834275E+04  0.7818609E-02  0.8688282E-01
       -1   -1    0    0    0  501  0.00000000000E+00  0.00000000000E+00  0.14492128750E+04  0.14492128750E+04  0.50400001928E-02 0. -1.
        1   -1    0    0  501    0  0.00000000000E+00  0.00000000000E+00 -0.58041271401E+03  0.58041271403E+03  0.50400001928E-02 0.  1.
    10030    2    1    2    0    0  0.00000000000E+00  0.00000000000E+00  0.86880016096E+03  0.20296255890E+04  0.18342754188E+04 0.  0.
        5    1    3    3  502    0 -0.82043854526E+02 -0.86045885407E+03  0.95155698828E+02  0.86959607326E+03  0.46999998093E+01 0.  1.
       -5    1    3    3    0  502  0.82043854526E+02  0.86045885407E+03  0.77364446214E+03  0.11600295157E+04  0.46999998093E+01 0. -1.
</event>
<event>
 5   0  0.3377273E-04  0.1843908E+04  0.7818609E-02  0.8683292E-01
        1   -1    0    0  501    0  0.00000000000E+00  0.00000000000E+00  0.13050008687E+04  0.13050008687E+04  0.50400001928E-02 0.  1.
       -1   -1    0    0    0  501  0.00000000000E+00  0.00000000000E+00 -0.65133993164E+03  0.65133993166E+03  0.50400001928E-02 0. -1.
    10030    2    1    2    0    0  0.00000000000E+00  0.00000000000E+00  0.65366093707E+03  0.19563408004E+04  0.18439079984E+04 0.  0.
        2    1    3    3  502    0  0.28881720938E+03 -0.85133565118E+03  0.54377696759E+03  0.10506574903E+04  0.25500000920E-02 0.  1.
       -2    1    3    3    0  502 -0.28881720938E+03  0.85133565118E+03  0.10988396949E+03  0.90568331009E+03  0.25500000920E-02 0. -1.
</event>
<event>
 5   0  0.3413839E-04  0.1814825E+04  0.7818609E-02  0.8698455E-01
        1   -1    0    0  501    0  0.00000000000E+00  0.00000000000E+00  0.12696177396E+04  0.12696177396E+04  0.50400001928E-02 0. -1.
       -1   -1    0    0    0  501  0.00000000000E+00  0.00000000000E+00 -0.64853936556E+03  0.64853936558E+03  0.50400001928E-02 0.  1.
    10030    2    1    2    0    0  0.00000000000E+00  0.00000000000E+00  0.62107837402E+03  0.19181571052E+04  0.18148246013E+04 0.  0.
        5    1    3    3  502    0 -0.43381944294E+03  0.40251358161E+03  0.10375700387E+04  0.11944832220E+04  0.46999998093E+01 0. -1.
       -5    1    3    3    0  502  0.43381944294E+03 -0.40251358161E+03 -0.41649166467E+03  0.72367388318E+03  0.46999998093E+01 0.  1.
</event>
<event>
 5   0  0.3377273E-04  0.1911418E+04  0.7818609E-02  0.8649194E-01
       -1   -1    0    0    0  501  0.00000000000E+00  0.00000000000E+00  0.48958239108E+03  0.48958239110E+03  0.50400001928E-02 0. -1.
        1   -1    0    0  501    0  0.00000000000E+00  0.00000000000E+00 -0.18656303911E+04  0.18656303911E+04  0.50400001928E-02 0.  1.
    10030    2    1    2    0    0  0.00000000000E+00  0.00000000000E+00 -0.13760480001E+04  0.23552127823E+04  0.19114180995E+04 0.  0.
        2    1    3    3  502    0 -0.46936906195E+03  0.83213226598E+03 -0.71891129608E+03  0.11956524897E+04  0.25500000920E-02 0. -1.
       -2    1    3    3    0  502  0.46936906195E+03 -0.83213226598E+03 -0.65713670399E+03  0.11595602926E+04  0.25500000920E-02 0.  1.
</event>
<event>
 5   0  0.6929121E-04  0.1815310E+04  0.7818609E-02  0.8698200E-01
       -2   -1    0    0    0  501  0.00000000000E+00  0.00000000000E+00  0.84942428115E+03  0.84942428115E+03  0.25500000920E-02 0.  1.
        2   -1    0    0  501    0  0.00000000000E+00  0.00000000000E+00 -0.96987788032E+03  0.96987788032E+03  0.25500000920E-02 0. -1.
    10030    2    1    2    0    0  0.00000000000E+00  0.00000000000E+00 -0.12045359917E+03  0.18193021615E+04  0.18153102449E+04 0.  0.
        3    1    3    3  502    0  0.28469590253E+03 -0.48913576293E+02 -0.92258020018E+03  0.96674636324E+03  0.10100000352E+00 0. -1.
       -3    1    3    3    0  502 -0.28469590253E+03  0.48913576293E+02  0.80212660101E+03  0.85255579824E+03  0.10100000352E+00 0.  1.
</event>
<event>
 5   0  0.6853162E-04  0.1787922E+04  0.7818609E-02  0.8712749E-01
       -2   -1    0    0    0  501  0.00000000000E+00  0.00000000000E+00  0.53345572362E+03  0.53345572362E+03  0.25500000920E-02 0. -1.
        2   -1    0    0  501    0  0.00000000000E+00  0.00000000000E+00 -0.14980933347E+04  0.14980933347E+04  0.25500000920E-02 0.  1.
    10030    2    1    2    0    0  0.00000000000E+00  0.00000000000E+00 -0.96463761112E+03  0.20315490584E+04  0.17879222175E+04 0.  0.
        2    1    3    3  502    0 -0.12790336215E+03  0.81449773087E+03 -0.87494748646E+03  0.12022058591E+04  0.25500000920E-02 0.  1.
       -2    1    3    3    0  502  0.12790336215E+03 -0.81449773087E+03 -0.89690124655E+02  0.82934319923E+03  0.25500000920E-02 0. -1.
</event>
<event>
 5   0  0.6771967E-04  0.1750014E+04  0.7818609E-02  0.8733343E-01
       -2   -1    0    0    0  501  0.00000000000E+00  0.00000000000E+00  0.80875927853E+03  0.80875927853E+03  0.25500000920E-02 0. -1.
        2   -1    0    0  501    0  0.00000000000E+00  0.00000000000E+00 -0.94668141077E+03  0.94668141077E+03  0.25500000920E-02 0.  1.
    10030    2    1    2    0    0  0.00000000000E+00  0.00000000000E+00 -0.13792213224E+03  0.17554406893E+04  0.17500141425E+04 0.  0.
        1    1    3    3  502    0  0.32786631281E+03 -0.64169192888E+03 -0.56685947528E+03  0.91683941638E+03  0.50400001928E-02 0.  1.
       -1    1    3    3    0  502 -0.32786631281E+03  0.64169192888E+03  0.42893734304E+03  0.83860127293E+03  0.50400001928E-02 0. -1.
</event>
<event>
 5   0  0.3377273E-04  0.1202542E+04  0.7818609E-02  0.9110634E-01
        1   -1    0    0  501    0  0.00000000000E+00  0.00000000000E+00  0.14385535416E+04  0.14385535416E+04  0.50400001928E-02 0.  1.
       -1   -1    0    0    0  501  0.00000000000E+00  0.00000000000E+00 -0.25131292438E+03  0.25131292443E+03  0.50400001928E-02 0. -1.
    10030    2    1    2    0    0  0.00000000000E+00  0.00000000000E+00  0.11872406172E+04  0.16898664660E+04  0.12025424690E+04 0.  0.
        2    1    3    3  502    0 -0.23624149467E+03 -0.55247225008E+03  0.62477324145E+03  0.86682018559E+03  0.25500000920E-02 0.  1.
       -2    1    3    3    0  502  0.23624149467E+03  0.55247225008E+03  0.56246737574E+03  0.82304628040E+03  0.25500000920E-02 0. -1.
</event>
<event>
 5   0  0.6774451E-04  0.1823991E+04  0.7818609E-02  0.8693645E-01
        2   -1    0    0  501    0  0.00000000000E+00  0.00000000000E+00  0.19934074661E+04  0.19934074661E+04  0.25500000920E-02 0.  1.
       -2   -1    0    0    0  501  0.00000000000E+00  0.00000000000E+00 -0.41724302545E+03  0.41724302546E+03  0.25500000920E-02 0. -1.
    10030    2    1    2    0    0  0.00000000000E+00  0.00000000000E+00  0.15761644407E+04  0.24106504916E+04  0.18239905286E+04 0.  0.
        4    1    3    3  502    0  0.22011773249E+03 -0.63265324080E+03 -0.29872176423E+02  0.67051912655E+03  0.12699999809E+01 0. -1.
       -4    1    3    3    0  502 -0.22011773249E+03  0.63265324080E+03  0.16060366171E+04  0.17401313651E+04  0.12699999809E+01 0.  1.
</event>
<event>
 5   0  0.3404261E-04  0.1577662E+04  0.7818609E-02  0.8834390E-01
        1   -1    0    0  501    0  0.00000000000E+00  0.00000000000E+00  0.19283251732E+04  0.19283251732E+04  0.50400001928E-02 0. -1.
       -1   -1    0    0    0  501  0.00000000000E+00  0.00000000000E+00 -0.32269154193E+03  0.32269154197E+03  0.50400001928E-02 0.  1.
    10030    2    1    2    0    0  0.00000000000E+00  0.00000000000E+00  0.16056336313E+04  0.22510167152E+04  0.15776618441E+04 0.  0.
        1    1    3    3  502    0 -0.26653852496E+03  0.49372947264E+03  0.15939449921E+04  0.16898142546E+04  0.50400001928E-02 0. -1.
       -1    1    3    3    0  502  0.26653852496E+03 -0.49372947264E+03  0.11688639235E+02  0.56120246057E+03  0.50400001928E-02 0.  1.
</event>
<event>
 5   0  0.3470962E-04  0.1811494E+04  0.7818609E-02  0.8700211E-01
        1   -1    0    0  501    0  0.00000000000E+00  0.00000000000E+00  0.20452107362E+04  0.20452107362E+04  0.50400001928E-02 0. -1.
       -1   -1    0    0    0  501  0.00000000000E+00  0.00000000000E+00 -0.40112118974E+03  0.40112118977E+03  0.50400001928E-02 0.  1.
    10030    2    1    2    0    0  0.00000000000E+00  0.00000000000E+00  0.16440895464E+04  0.24463319259E+04  0.18114937083E+04 0.  0.
        4    1    3    3  502    0 -0.29282209200E+03 -0.78349831251E+03  0.35275340679E+03  0.90777252777E+03  0.12699999809E+01 0.  1.
       -4    1    3    3    0  502  0.29282209200E+03  0.78349831251E+03  0.12913361396E+04  0.15385593982E+04  0.12699999809E+01 0. -1.
</event>
<event>
 5   0  0.6929121E-04  0.1787201E+04  0.7818609E-02  0.8713136E-01
        2   -1    0    0  501    0  0.00000000000E+00  0.00000000000E+00  0.87494318616E+03  0.87494318617E+03  0.25500000920E-02 0. -1.
       -2   -1    0    0    0  501  0.00000000000E+00  0.00000000000E+00 -0.91265516751E+03  0.91265516751E+03  0.25500000920E-02 0.  1.
    10030    2    1    2    0    0  0.00000000000E+00  0.00000000000E+00 -0.37711981344E+02  0.17875983537E+04  0.17872005149E+04 0.  0.
        3    1    3    3  502    0  0.64775807051E+02  0.21661663244E+03 -0.88357301182E+03  0.91204163724E+03  0.10100000352E+00 0.  1.
       -3    1    3    3    0  502 -0.64775807051E+02 -0.21661663244E+03  0.84586103048E+03  0.87555671644E+03  0.10100000352E+00 0. -1.
</event>
<event>
 5   0  0.3413839E-04  0.1774667E+04  0.7818609E-02  0.8719889E-01
       -1   -1    0    0    0  501  0.00000000000E+00  0.00000000000E+00  0.80874284015E+03  0.80874284017E+03  0.50400001928E-02 0. -1.
        1   -1    0    0  501    0  0.00000000000E+00  0.00000000000E+00 -0.97356087385E+03  0.97356087386E+03  0.50400001928E-02 0.  1.
    10030    2    1    2    0    0  0.00000000000E+00  0.00000000000E+00 -0.16481803370E+03  0.17823037140E+04  0.17746666010E+04 0.  0.
        5    1    3    3  502    0 -0.53463451383E+03  0.16603161880E+03 -0.77380297509E+03  0.95508831847E+03  0.46999998093E+01 0.  1.
       -5    1    3    3    0  502  0.53463451383E+03 -0.16603161880E+03  0.60898494139E+03  0.82721539557E+03  0.46999998093E+01 0. -1.
</event>
<event>
 5   0  0.6929121E-04  0.1813899E+04  0.7818609E-02  0.8698943E-01
        2   -1    0    0  501    0  0.00000000000E+00  0.00000000000E+00  0.18858833732E+04  0.18858833732E+04  0.25500000920E-02 0. -1.
       -2   -1    0    0    0  501  0.00000000000E+00  0.00000000000E+00 -0.43616557512E+03  0.43616557513E+03  0.25500000920E-02 0.  1.
    10030    2    1    2    0    0  0.00000000000E+00  0.00000000000E+00  0.14497177981E+04  0.23220489484E+04  0.18138990116E+04 0.  0.
        3    1    3    3  502    0  0.54790741683E+03 -0.57599381072E+03  0.12837198311E+04  0.15099364299E+04  0.10100000352E+00 0.  1.
       -3    1    3    3    0  502 -0.54790741683E+03  0.57599381072E+03  0.16599796705E+03  0.81211251848E+03  0.10100000352E+00 0. -1.
</event>
<event>
 5   0  0.3470962E-04  0.1791558E+04  0.7818609E-02  0.8710802E-01
        1   -1    0    0  501    0  0.00000000000E+00  0.00000000000E+00  0.12078936785E+04  0.12078936785E+04  0.50400001928E-02 0. -1.
       -1   -1    0    0    0  501  0.00000000000E+00  0.00000000000E+00 -0.66431317758E+03  0.66431317760E+03  0.50400001928E-02 0.  1.
    10030    2    1    2    0    0  0.00000000000E+00  0.00000000000E+00  0.54358050089E+03  0.18722068561E+04  0.17915576326E+04 0.  0.
        4    1    3    3  502    0 -0.87070141867E+03 -0.15192738760E+03  0.42400139153E+03  0.98029673288E+03  0.12699999809E+01 0.  1.
       -4    1    3    3    0  502  0.87070141867E+03  0.15192738760E+03  0.11957910936E+03  0.89191012320E+03  0.12699999809E+01 0. -1.
</event>
<event>
 5   0  0.3413839E-04  0.1924902E+04  0.7818609E-02  0.8642560E-01
       -1   -1    0    0    0  501  0.00000000000E+00  0.00000000000E+00  0.70570316431E+03  0.70570316433E+03  0.50400001928E-02 0. -1.
        1   -1    0    0  501    0  0.00000000000E+00  0.00000000000E+00 -0.13126078107E+04  0.13126078107E+04  0.50400001928E-02 0.  1.
    10030    2    1    2    0    0  0.00000000000E+00  0.00000000000E+00 -0.60690464642E+03  0.20183109751E+04  0.19249015409E+04 0.  0.
        5    1    3    3  502    0 -0.55127092424E+03 -0.25479572310E+03  0.47941809840E+03  0.77374691953E+03  0.46999998093E+01 0. -1.
       -5    1    3    3    0  502  0.55127092424E+03  0.25479572310E+03 -0.10863227448E+04  0.12445640555E+04  0.46999998093E+01 0.  1.
</event>
<event>
 5   0  0.6547153E-04  0.1826709E+04  0.7818609E-02  0.8692224E-01
       -2   -1    0    0    0  501  0.00000000000E+00  0.00000000000E+00  0.28622457051E+03  0.28622457052E+03  0.25500000920E-02 0. -1.
        2   -1    0    0  501    0  0.00000000000E+00  0.00000000000E+00 -0.29145513479E+04  0.29145513479E+04  0.25500000920E-02 0.  1.
    10030    2    1    2    0    0  0.00000000000E+00  0.00000000000E+00 -0.26283267774E+04  0.32007759185E+04  0.18267087429E+04 0.  0.
        5    1    3    3  502    0 -0.22988985000E+03  0.64176831808E+03 -0.24908794077E+03  0.72579805005E+03  0.46999998093E+01 0. -1.
       -5    1    3    3    0  502  0.22988985000E+03 -0.64176831808E+03 -0.23792388367E+04  0.24749778684E+04  0.46999998093E+01 0.  1.
</event>
<event>
 5   0  0.3404261E-04  0.1887945E+04  0.7818609E-02  0.8660880E-01
        1   -1    0    0  501    0  0.00000000000E+00  0.00000000000E+00  0.92293484271E+03  0.92293484272E+03  0.50400001928E-02 0.  1.
       -1   -1    0    0    0  501  0.00000000000E+00  0.00000000000E+00 -0.96548999536E+03  0.96548999537E+03  0.50400001928E-02 0. -1.
    10030    2    1    2    0    0  0.00000000000E+00  0.00000000000E+00 -0.42555152649E+02  0.18884248381E+04  0.18879452927E+04 0.  0.
        1    1    3    3  502    0  0.19798113964E+03 -0.84733116267E+02 -0.94059106863E+03  0.96492890467E+03  0.50400001928E-02 0. -1.
       -1    1    3    3    0  502 -0.19798113964E+03  0.84733116267E+02  0.89803591598E+03  0.92349593343E+03  0.50400001928E-02 0.  1.
</event>
<event>
 5   0  0.6547153E-04  0.1797282E+04  0.7818609E-02  0.8707746E-01
        2   -1    0    0  501    0  0.00000000000E+00  0.00000000000E+00  0.58334508900E+03  0.58334508901E+03  0.25500000920E-02 0. -1.
       -2   -1    0    0    0  501  0.00000000000E+00  0.00000000000E+00 -0.13843533750E+04  0.13843533750E+04  0.25500000920E-02 0.  1.
    10030    2    1    2    0    0  0.00000000000E+00  0.00000000000E+00 -0.80100828598E+03  0.19676984640E+04  0.17972821067E+04 0.  0.
        5    1    3    3  502    0  0.83540547678E+03  0.32757364732E+03 -0.45331537211E+03  0.10053475626E+04  0.46999998093E+01 0. -1.
       -5    1    3    3    0  502 -0.83540547678E+03 -0.32757364732E+03 -0.34769291387E+03  0.96235090139E+03  0.46999998093E+01 0.  1.
</event>
<event>
 5   0  0.3377273E-04  0.1780461E+04  0.7818609E-02  0.8716760E-01
       -1   -1    0    0    0  501  0.00000000000E+00  0.00000000000E+00  0.64004405853E+03  0.64004405855E+03  0.50400001928E-02 0. -1.
        1   -1    0    0  501    0  0.00000000000E+00  0.00000000000E+00 -0.12382124387E+04  0.12382124387E+04  0.50400001928E-02 0.  1.
    10030    2    1    2    0    0  0.00000000000E+00  0.00000000000E+00 -0.59816838019E+03  0.18782564973E+04  0.17804611926E+04 0.  0.
        2    1    3    3  502    0 -0.73072261235E+03 -0.40803096442E+03 -0.61917362683E+03  0.10410671373E+04  0.25500000920E-02 0.  1.
       -2    1    3    3    0  502  0.73072261235E+03  0.40803096442E+03  0.21005246635E+02  0.83718936002E+03  0.25500000920E-02 0. -1.
</event>
<event>
 5   0  0.3308275E-04  0.1683980E+04  0.7818609E-02  0.8770554E-01
        1   -1    0    0  501    0  0.00000000000E+00  0.00000000000E+00  0.71004902132E+03  0.71004902134E+03  0.50400001928E-02 0. -1.
       -1   -1    0    0    0  501  0.00000000000E+00  0.00000000000E+00 -0.99844876945E+03  0.99844876946E+03  0.50400001928E-02 0.  1.
    10030    2    1    2    0    0  0.00000000000E+00  0.00000000000E+00 -0.28839974813E+03  0.17084977908E+04  0.16839804887E+04 0.  0.
        3    1    3    3  502    0  0.72452633442E+03  0.31335263835E+03  0.15301448679E+03  0.80407818562E+03  0.10100000352E+00 0. -1.
       -3    1    3    3    0  502 -0.72452633442E+03 -0.31335263835E+03 -0.44141423493E+03  0.90441960517E+03  0.10100000352E+00 0.  1.
</event>
<event>
 5   0  0.3413839E-04  0.1764653E+04  0.7818609E-02  0.8725326E-01
        1   -1    0    0  501    0  0.00000000000E+00  0.00000000000E+00  0.73906257749E+03  0.73906257750E+03  0.50400001928E-02 0.  1.
       -1   -1    0    0    0  501  0.00000000000E+00  0.00000000000E+00 -0.10533618721E+04  0.10533618721E+04  0.50400001928E-02 0. -1.
    10030    2    1    2    0    0  0.00000000000E+00  0.00000000000E+00 -0.31429929464E+03  0.17924244496E+04  0.17646533260E+04 0.  0.
        5    1    3    3  502    0  0.31235112797E+03  0.12999777331E+03 -0.98484516290E+03  0.10413475563E+04  0.46999998093E+01 0. -1.
       -5    1    3    3    0  502 -0.31235112797E+03 -0.12999777331E+03  0.67054586826E+03  0.75107689330E+03  0.46999998093E+01 0.  1.
</event>
<event>
 5   0  0.6853162E-04  0.1803737E+04  0.7818609E-02  0.8704315E-01
       -2   -1    0    0    0  501  0.00000000000E+00  0.00000000000E+00  0.34937268551E+03  0.34937268552E+03  0.25500000920E-02 0.  1.
        2   -1    0    0  501    0  0.00000000000E+00  0.00000000000E+00 -0.23280773468E+04  0.23280773468E+04  0.25500000920E-02 0. -1.
    10030    2    1    2    0    0  0.00000000000E+00  0.00000000000E+00 -0.19787046613E+04  0.26774500323E+04  0.18037368264E+04 0.  0.
        2    1    3    3  502    0  0.20734267972E+03  0.87329519834E+03 -0.11198702364E+04  0.14351811163E+04  0.25500000920E-02 0.  1.
       -2    1    3    3    0  502 -0.20734267972E+03 -0.87329519834E+03 -0.85883442490E+03  0.12422689160E+04  0.25500000920E-02 0. -1.
</event>
<event>
 5   0  0.6771967E-04  0.1845793E+04  0.7818609E-02  0.8682319E-01
        2   -1    0    0  501    0  0.00000000000E+00  0.00000000000E+00  0.21543073813E+04  0.21543073813E+04  0.25500000920E-02 0.  1.
       -2   -1    0    0    0  501  0.00000000000E+00  0.00000000000E+00 -0.39536498722E+03  0.39536498723E+03  0.25500000920E-02 0. -1.
    10030    2    1    2    0    0  0.00000000000E+00  0.00000000000E+00  0.17589423941E+04  0.25496723685E+04  0.18457927406E+04 0.  0.
        1    1    3    3  502    0  0.80255727463E+03 -0.45962595168E+02  0.25323833360E+03  0.84281693910E+03  0.50400001928E-02 0. -1.
       -1    1    3    3    0  502 -0.80255727463E+03  0.45962595168E+02  0.15057040605E+04  0.17068554294E+04  0.50400001928E-02 0.  1.
</event>
<event>
 5   0  0.3404261E-04  0.1410883E+04  0.7818609E-02  0.8945978E-01
        1   -1    0    0  501    0  0.00000000000E+00  0.00000000000E+00  0.88841135321E+03  0.88841135322E+03  0.50400001928E-02 0. -1.
       -1   -1    0    0    0  501  0.00000000000E+00  0.00000000000E+00 -0.56015463661E+03  0.56015463664E+03  0.50400001928E-02 0.  1.
    10030    2    1    2    0    0  0.00000000000E+00  0.00000000000E+00  0.32825671659E+03  0.14485659899E+04  0.14108830409E+04 0.  0.
        1    1    3    3  502    0 -0.46338177276E+03  0.26548644564E+03  0.63735314145E+03  0.83151954101E+03  0.50400001928E-02 0. -1.
       -1    1    3    3    0  502  0.46338177276E+03 -0.26548644564E+03 -0.30909642486E+03  0.61704644884E+03  0.50400001928E-02 0.  1.
</event>
<event>
 5   0  0.3308275E-04  0.1833808E+04  0.7818609E-02  0.8688525E-01
        1   -1    0    0  501    0  0.00000000000E+00  0.00000000000E+00  0.19709886534E+04  0.19709886534E+04  0.50400001928E-02 0.  1.
       -1   -1    0    0    0  501  0.00000000000E+00  0.00000000000E+00 -0.42654376668E+03  0.42654376671E+03  0.50400001928E-02 0. -1.
    10030    2    1    2    0    0  0.00000000000E+00  0.00000000000E+00  0.15444448867E+04  0.23975324201E+04  0.18338079772E+04 0.  0.
        3    1    3    3  502    0  0.85713523218E+03 -0.26699305818E+03  0.10159295145E+04  0.13557576804E+04  0.10100000352E+00 0.  1.
       -3    1    3    3    0  502 -0.85713523218E+03  0.26699305818E+03  0.52851537217E+03  0.10417747397E+04  0.10100000352E+00 0. -1.
</event>
<event>
 5   0  0.3308275E-04  0.1790356E+04  0.7818609E-02  0.8711445E-01
       -1   -1    0    0    0  501  0.00000000000E+00  0.00000000000E+00  0.85700728208E+03  0.85700728209E+03  0.50400001928E-02 0. -1.
        1   -1    0    0  501    0  0.00000000000E+00  0.00000000000E+00 -0.93504880681E+03  0.93504880682E+03  0.50400001928E-02 0.  1.
    10030    2    1    2    0    0  0.00000000000E+00  0.00000000000E+00 -0.78041524731E+02  0.17920560889E+04  0.17903559831E+04 0.  0.
        3    1    3    3  502    0 -0.78060269588E+03 -0.40873640868E+03 -0.19708717024E+03  0.90291161443E+03  0.10100000352E+00 0. -1.
       -3    1    3    3    0  502  0.78060269588E+03  0.40873640868E+03  0.11904564551E+03  0.88914447449E+03  0.10100000352E+00 0.  1.
</event>
<event>
 5   0  0.3377273E-04  0.1788629E+04  0.7818609E-02  0.8712370E-01
       -1   -1    0    0    0  501  0.00000000000E+00  0.00000000000E+00  0.93109842810E+03  0.93109842811E+03  0.50400001928E-02 0. -1.
        1   -1    0    0  501    0  0.00000000000E+00  0.00000000000E+00 -0.85898389823E+03  0.85898389824E+03  0.50400001928E-02 0.  1.
    10030    2    1    2    0    0  0.00000000000E+00  0.00000000000E+00  0.72114529875E+02  0.17900823264E+04  0.17886291482E+04 0.  0.
        2    1    3    3  502    0  0.31362368784E+03  0.70392022850E+03  0.49022663097E+03  0.91333764588E+03  0.25500000920E-02 0.  1.
       -2    1    3    3    0  502 -0.31362368784E+03 -0.70392022850E+03 -0.41811210109E+03  0.87674468048E+03  0.25500000920E-02 0. -1.
</event>
<event>
 5   0  0.6771967E-04  0.1818524E+04  0.7818609E-02  0.8696510E-01
       -2   -1    0    0    0  501  0.00000000000E+00  0.00000000000E+00  0.62202009831E+03  0.62202009831E+03  0.25500000920E-02 0.  1.
        2   -1    0    0  501    0  0.00000000000E+00  0.00000000000E+00 -0.13291488500E+04  0.13291488500E+04  0.25500000920E-02 0. -1.
    10030    2    1    2    0    0  0.00000000000E+00  0.00000000000E+00 -0.70712875165E+03  0.19511689483E+04  0.18185239051E+04 0.  0.
        1    1    3    3  502    0  0.88423788584E+03 -0.16719283262E+03 -0.49315898037E+03  0.10261753564E+04  0.50400001928E-02 0.  1.
       -1    1    3    3    0  502 -0.88423788584E+03  0.16719283262E+03 -0.21396977128E+03  0.92499359192E+03  0.50400001928E-02 0. -1.
</event>
<event>
 5   0  0.6929121E-04  0.1734727E+04  0.7818609E-02  0.8741802E-01
        2   -1    0    0  501    0  0.00000000000E+00  0.00000000000E+00  0.11144946585E+04  0.11144946586E+04  0.25500000920E-02 0. -1.
       -2   -1    0    0    0  501  0.00000000000E+00  0.00000000000E+00 -0.67503196078E+03  0.67503196078E+03  0.25500000920E-02 0.  1.
    10030    2    1    2    0    0  0.00000000000E+00  0.00000000000E+00  0.43946269777E+03  0.17895266193E+04  0.17347270848E+04 0.  0.
        3    1    3    3  502    0  0.67772406713E+03  0.43091520505E+03 -0.11821731479E+03  0.81177162357E+03  0.10100000352E+00 0.  1.
       -3    1    3    3    0  502 -0.67772406713E+03 -0.43091520505E+03  0.55768001257E+03  0.97775499576E+03  0.10100000352E+00 0. -1.
</event>
<event>
 5   0  0.3308275E-04  0.1823945E+04  0.7818609E-02  0.8693668E-01
       -1   -1    0    0    0  501  0.00000000000E+00  0.00000000000E+00  0.15141325205E+04  0.15141325205E+04  0.50400001928E-02 0. -1.
        1   -1    0    0  501    0  0.00000000000E+00  0.00000000000E+00 -0.54928756962E+03  0.54928756965E+03  0.50400001928E-02 0.  1.
    10030    2    1    2    0    0  0.00000000000E+00  0.00000000000E+00  0.96484495087E+03  0.20634200901E+04  0.18239453635E+04 0.  0.
        3    1    3    3  502    0  0.16006076851E+03  0.20299611299E+02 -0.53301325712E+03  0.55689735707E+03  0.10100000352E+00 0.  1.
       -3    1    3    3    0  502 -0.16006076851E+03 -0.20299611299E+02  0.14978582080E+04  0.15065227331E+04  0.10100000352E+00 0. -1.
</event>
<event>
 5   0  0.6774451E-04  0.1762066E+04  0.7818609E-02  0.8726737E-01
       -2   -1    0    0    0  501  0.00000000000E+00  0.00000000000E+00  0.63887374208E+03  0.63887374209E+03  0.25500000920E-02 0.  1.
        2   -1    0    0  501    0  0.00000000000E+00  0.00000000000E+00 -0.12149804778E+04  0.12149804778E+04  0.25500000920E-02 0. -1.
    10030    2    1    2    0    0  0.00000000000E+00  0.00000000000E+00 -0.57610673573E+03  0.18538542199E+04  0.17620659743E+04 0.  0.
        4    1    3    3  502    0  0.72520896912E+03  0.46660842619E+03 -0.47791442115E+03  0.98592863795E+03  0.12699999809E+01 0. -1.
       -4    1    3    3    0  502 -0.72520896912E+03 -0.46660842619E+03 -0.98192314582E+02  0.86792558196E+03  0.12699999809E+01 0.  1.
</event>
<event>
 5   0  0.3308275E-04  0.1811908E+04  0.7818609E-02  0.8699993E-01
        1   -1    0    0  501    0  0.00000000000E+00  0.00000000000E+00  0.16001309610E+04  0.16001309610E+04  0.50400001928E-02 0. -1.
       -1   -1    0    0    0  501  0.00000000000E+00  0.00000000000E+00 -0.51292829457E+03  0.51292829460E+03  0.50400001928E-02 0.  1.
    10030    2    1    2    0    0  0.00000000000E+00  0.00000000000E+00  0.10872026664E+04  0.21130592556E+04  0.18119077735E+04 0.  0.
        3    1    3    3  502    0 -0.18017938812E+03 -0.48748052712E+03  0.14089948350E+04  0.15017883777E+04  0.10100000352E+00 0. -1.
       -3    1    3    3    0  502  0.18017938812E+03  0.48748052712E+03 -0.32179216855E+03  0.61127087789E+03  0.10100000352E+00 0.  1.
</event>
<event>
 5   0  0.3308275E-04  0.1703218E+04  0.7818609E-02  0.8759531E-01
        1   -1    0    0  501    0  0.00000000000E+00  0.00000000000E+00  0.59165278613E+03  0.59165278615E+03  0.50400001928E-02 0. -1.
       -1   -1    0    0    0  501  0.00000000000E+00  0.00000000000E+00 -0.12257828064E+04  0.12257828064E+04  0.50400001928E-02 0.  1.
    10030    2    1    2    0    0  0.00000000000E+00  0.00000000000E+00 -0.63413002024E+03  0.18174355925E+04  0.17032179104E+04 0.  0.
        3    1    3    3  502    0 -0.39850722893E+03  0.38586602676E+03 -0.10065683927E+04  0.11492956719E+04  0.10100000352E+00 0.  1.
       -3    1    3    3    0  502  0.39850722893E+03 -0.38586602676E+03  0.37243837241E+03  0.66813992065E+03  0.10100000352E+00 0. -1.
</event>
<event>
 5   0  0.6547153E-04  0.1799014E+04  0.7818609E-02  0.8706824E-01
       -2   -1    0    0    0  501  0.00000000000E+00  0.00000000000E+00  0.58538692060E+03  0.58538692061E+03  0.25500000920E-02 0. -1.
        2   -1    0    0  501    0  0.00000000000E+00  0.00000000000E+00 -0.13821844708E+04  0.13821844708E+04  0.25500000920E-02 0.  1.
    10030    2    1    2    0    0  0.00000000000E+00  0.00000000000E+00 -0.79679755021E+03  0.19675713914E+04  0.17990138533E+04 0.  0.
        5    1    3    3  502    0 -0.20346290563E+03 -0.23984491418E+03 -0.13200710124E+04  0.13570306941E+04  0.46999998093E+01 0.  1.
       -5    1    3    3    0  502  0.20346290563E+03  0.23984491418E+03  0.52327346223E+03  0.61054069733E+03  0.46999998093E+01 0. -1.
</event>
<event>
 5   0  0.3470962E-04  0.1800438E+04  0.7818609E-02  0.8706067E-01
        1   -1    0    0  501    0  0.00000000000E+00  0.00000000000E+00  0.67639945400E+03  0.67639945402E+03  0.50400001928E-02 0. -1.
       -1   -1    0    0    0  501  0.00000000000E+00  0.00000000000E+00 -0.11980995210E+04  0.11980995210E+04  0.50400001928E-02 0.  1.
    10030    2    1    2    0    0  0.00000000000E+00  0.00000000000E+00 -0.52170006699E+03  0.18744989750E+04  0.18004375711E+04 0.  0.
        4    1    3    3  502    0 -0.48149557702E+03  0.46249478540E+03 -0.88955506413E+03  0.11122271541E+04  0.12699999809E+01 0.  1.
       -4    1    3    3    0  502  0.48149557702E+03 -0.46249478540E+03  0.36785499715E+03  0.76227182096E+03  0.12699999809E+01 0. -1.
</event>
<event>
 5   0  0.3308275E-04  0.1899179E+04  0.7818609E-02  0.8655265E-01
        1   -1    0    0  501    0  0.00000000000E+00  0.00000000000E+00  0.95448704538E+03  0.95448704540E+03  0.50400001928E-02 0. -1.
       -1   -1    0    0    0  501  0.00000000000E+00  0.00000000000E+00 -0.94471739938E+03  0.94471739939E+03  0.50400001928E-02 0.  1.
    10030    2    1    2    0    0  0.00000000000E+00  0.00000000000E+00  0.97696460068E+01  0.18992044448E+04  0.18991793167E+04 0.  0.
        3    1    3    3  502    0  0.13278362047E+03  0.93870168511E+03 -0.49228419990E+02  0.94932385993E+03  0.10100000352E+00 0. -1.
       -3    1    3    3    0  502 -0.13278362047E+03 -0.93870168511E+03  0.58998065997E+02  0.94988058486E+03  0.10100000352E+00 0.  1.
</event>
<event>
 5   0  0.6853162E-04  0.1786207E+04  0.7818609E-02  0.8713669E-01
       -2   -1    0    0    0  501  0.00000000000E+00  0.00000000000E+00  0.19444297745E+04  0.19444297745E+04  0.25500000920E-02 0. -1.
        2   -1    0    0  501    0  0.00000000000E+00  0.00000000000E+00 -0.41021475775E+03  0.41021475776E+03  0.25500000920E-02 0.  1.
    10030    2    1    2    0    0  0.00000000000E+00  0.00000000000E+00  0.15342150168E+04  0.23546445323E+04  0.17862069185E+04 0.  0.
        2    1    3    3  502    0  0.73704294617E+03  0.43976593517E+03  0.44150715443E+03  0.96517094323E+03  0.25500000920E-02 0.  1.
       -2    1    3    3    0  502 -0.73704294617E+03 -0.43976593517E+03  0.10927078623E+04  0.13894735890E+04  0.25500000920E-02 0. -1.
</event>
<event>
 5   0  0.3470962E-04  0.1838565E+04  0.7818609E-02  0.8686056E-01
        1   -1    0    0  501    0  0.00000000000E+00  0.00000000000E+00  0.11079833186E+04  0.11079833186E+04  0.50400001928E-02 0. -1.
       -1   -1    0    0    0  501  0.00000000000E+00  0.00000000000E+00 -0.76271947181E+03  0.76271947183E+03  0.50400001928E-02 0.  1.
    10030    2    1    2    0    0  0.00000000000E+00  0.00000000000E+00  0.34526384674E+03  0.18707027904E+04  0.18385651487E+04 0.  0.
        4    1    3    3  502    0  0.60045113695E+03  0.37242717426E+03 -0.42572512653E+03  0.82491639834E+03  0.12699999809E+01 0.  1.
       -4    1    3    3    0  502 -0.60045113695E+03 -0.37242717426E+03  0.77098897327E+03  0.10457863921E+04  0.12699999809E+01 0. -1.
</event>
<event>
 5   0  0.6771967E-04  0.1828122E+04  0.7818609E-02  0.8691486E-01
       -2   -1    0    0    0  501  0.00000000000E+00  0.00000000000E+00  0.96142991572E+03  0.96142991572E+03  0.25500000920E-02 0.  1.
        2   -1    0    0  501    0  0.00000000000E+00  0.00000000000E+00 -0.86902569654E+03  0.86902569655E+03  0.25500000920E-02 0. -1.
    10030    2    1    2    0    0  0.00000000000E+00  0.00000000000E+00  0.92404219175E+02  0.18304556123E+04  0.18281217708E+04 0.  0.
        1    1    3    3  502    0  0.51780594702E+03  0.22585436828E+03 -0.67330702189E+03  0.87890587675E+03  0.50400001928E-02 0. -1.
       -1    1    3    3    0  502 -0.51780594702E+03 -0.22585436828E+03  0.76571124106E+03  0.95154973551E+03  0.50400001928E-02 0.  1.
</event>
<event>
 5   0  0.3377273E-04  0.1589946E+04  0.7818609E-02  0.8826748E-01
       -1   -1    0    0    0  501  0.00000000000E+00  0.00000000000E+00  0.81697943807E+03  0.81697943809E+03  0.50400001928E-02 0. -1.
        1   -1    0    0  501    0  0.00000000000E+00  0.00000000000E+00 -0.77355944563E+03  0.77355944564E+03  0.50400001928E-02 0.  1.
    10030    2    1    2    0    0  0.00000000000E+00  0.00000000000E+00  0.43419992447E+02  0.15905388837E+04  0.15899461138E+04 0.  0.
        2    1    3    3  502    0  0.53746437525E+03  0.11158370039E+03  0.59695767216E+03  0.81097308168E+03  0.25500000920E-02 0. -1.
       -2    1    3    3    0  502 -0.53746437525E+03 -0.11158370039E+03 -0.55353767971E+03  0.77956580205E+03  0.25500000920E-02 0.  1.
</event>
<event>
 5   0  0.3470962E-04  0.1815189E+04  0.7818609E-02  0.8698264E-01
       -1   -1    0    0    0  501  0.00000000000E+00  0.00000000000E+00  0.11261860433E+04  0.11261860433E+04  0.50400001928E-02 0. -1.
        1   -1    0    0  501    0  0.00000000000E+00  0.00000000000E+00 -0.73143138670E+03  0.73143138672E+03  0.50400001928E-02 0.  1.
    10030    2    1    2    0    0  0.00000000000E+00  0.00000000000E+00  0.39475465657E+03  0.18576174300E+04  0.18151890473E+04 0.  0.
        4    1    3    3  502    0  0.11791476237E+02 -0.65055540757E+03 -0.45015637015E+03  0.79120398616E+03  0.12699999809E+01 0.  1.
       -4    1    3    3    0  502 -0.11791476237E+02  0.65055540757E+03  0.84491102673E+03  0.10664134438E+04  0.12699999809E+01 0. -1.
</event>
<event>
 5   0  0.6929121E-04  0.1780989E+04  0.7818609E-02  0.8716475E-01
        2   -1    0    0  501    0  0.00000000000E+00  0.00000000000E+00  0.85019803720E+03  0.85019803721E+03  0.25500000920E-02 0. -1.
       -2   -1    0    0    0  501  0.00000000000E+00  0.00000000000E+00 -0.93270073642E+03  0.93270073642E+03  0.25500000920E-02 0.  1.
    10030    2    1    2    0    0  0.00000000000E+00  0.00000000000E+00 -0.82502699218E+02  0.17828987736E+04  0.17809888662E+04 0.  0.
        3    1    3    3  502    0 -0.77836727569E+03  0.41328942103E+03 -0.16912463796E+03  0.89736665570E+03  0.10100000352E+00 0. -1.
       -3    1    3    3    0  502  0.77836727569E+03 -0.41328942103E+03  0.86621938744E+02  0.88553211792E+03  0.10100000352E+00 0.  1.
</event>
<event>
 5   0  0.3308275E-04  0.1686265E+04  0.7818609E-02  0.8769237E-01
        1   -1    0    0  501    0  0.00000000000E+00  0.00000000000E+00  0.13802669493E+04  0.13802669493E+04  0.50400001928E-02 0.  1.
       -1   -1    0    0    0  501  0.00000000000E+00  0.00000000000E+00 -0.51502517898E+03  0.51502517901E+03  0.50400001928E-02 0. -1.
    10030    2    1    2    0    0  0.00000000000E+00  0.00000000000E+00  0.86524177032E+03  0.18952921283E+04  0.16862647866E+04 0.  0.
        3    1    3    3  502    0  0.35254637927E+03  0.76408410707E+03  0.37358629152E+03  0.92069549778E+03  0.10100000352E+00 0. -1.
       -3    1    3    3    0  502 -0.35254637927E+03 -0.76408410707E+03  0.49165547879E+03  0.97459663053E+03  0.10100000352E+00 0.  1.
</event>
<event>
 5   0  0.6853162E-04  0.1784117E+04  0.7818609E-02  0.8714792E-01
       -2   -1    0    0    0  501  0.00000000000E+00  0.00000000000E+00  0.10358777739E+04  0.10358777739E+04  0.25500000920E-02 0. -1.
        2   -1    0    0  501    0  0.00000000000E+00  0.00000000000E+00 -0.76820696342E+03  0.76820696343E+03  0.25500000920E-02 0.  1.
    10030    2    1    2    0    0  0.00000000000E+00  0.00000000000E+00  0.26767081045E+03  0.18040847373E+04  0.17841171701E+04 0.  0.
        2    1    3    3  502    0  0.70576116360E+03  0.27558913004E+03 -0.34230640439E+03  0.83139753616E+03  0.25500000920E-02 0.  1.
       -2    1    3    3    0  502 -0.70576116360E+03 -0.27558913004E+03  0.60997721485E+03  0.97268720115E+03  0.25500000920E-02 0. -1.
</event>
<event>
 5   0  0.6929121E-04  0.1511363E+04  0.7818609E-02  0.8876932E-01
       -2   -1    0    0    0  501  0.00000000000E+00  0.00000000000E+00  0.56327169317E+03  0.56327169318E+03  0.25500000920E-02 0.  1.
        2   -1    0    0  501    0  0.00000000000E+00  0.00000000000E+00 -0.10138169113E+04  0.10138169113E+04  0.25500000920E-02 0. -1.
    10030    2    1    2    0    0  0.00000000000E+00  0.00000000000E+00 -0.45054521813E+03  0.15770886045E+04  0.15113627866E+04 0.  0.
        3    1    3    3  502    0  0.33658121936E+03  0.46510780740E+03  0.28746353185E+03  0.64206501389E+03  0.10100000352E+00 0.  1.
       -3    1    3    3    0  502 -0.33658121936E+03 -0.46510780740E+03 -0.73800874997E+03  0.93502359059E+03  0.10100000352E+00 0. -1.
</event>
<event>
 5   0  0.6853162E-04  0.1763759E+04  0.7818609E-02  0.8725813E-01
       -2   -1    0    0    0  501  0.00000000000E+00  0.00000000000E+00  0.12897538492E+04  0.12897538492E+04  0.25500000920E-02 0.  1.
        2   -1    0    0  501    0  0.00000000000E+00  0.00000000000E+00 -0.60299221859E+03  0.60299221860E+03  0.25500000920E-02 0. -1.
    10030    2    1    2    0    0  0.00000000000E+00  0.00000000000E+00  0.68676163058E+03  0.18927460678E+04  0.17637590935E+04 0.  0.
        2    1    3    3  502    0 -0.37975081897E+03  0.42580468742E+03  0.10650100995E+04  0.12082081064E+04  0.25500000920E-02 0.  1.
       -2    1    3    3    0  502  0.37975081897E+03 -0.42580468742E+03 -0.37824846891E+03  0.68453796138E+03  0.25500000920E-02 0. -1.
</event>
<event>
 5   0  0.6853162E-04  0.1801906E+04  0.7818609E-02  0.8705286E-01
       -2   -1    0    0    0  501  0.00000000000E+00  0.00000000000E+00  0.44914104653E+03  0.44914104654E+03  0.25500000920E-02 0. -1.
        2   -1    0    0  501    0  0.00000000000E+00  0.00000000000E+00 -0.18072645619E+04  0.18072645619E+04  0.25500000920E-02 0.  1.
    10030    2    1    2    0    0  0.00000000000E+00  0.00000000000E+00 -0.13581235154E+04  0.22564056085E+04  0.18019064312E+04 0.  0.
        2    1    3    3  502    0 -0.68868092747E+03 -0.18855567385E+03 -0.13670857286E+04  0.15423222917E+04  0.25500000920E-02 0.  1.
       -2    1    3    3    0  502  0.68868092747E+03  0.18855567385E+03  0.89622132453E+01  0.71408331676E+03  0.25500000920E-02 0. -1.
</event>
<event>
 5   0  0.3413839E-04  0.1787653E+04  0.7818609E-02  0.8712893E-01
        1   -1    0    0  501    0  0.00000000000E+00  0.00000000000E+00  0.21042680957E+04  0.21042680957E+04  0.50400001928E-02 0. -1.
       -1   -1    0    0    0  501  0.00000000000E+00  0.00000000000E+00 -0.37966933221E+03  0.37966933224E+03  0.50400001928E-02 0.  1.
    10030    2    1    2    0    0  0.00000000000E+00  0.00000000000E+00  0.17245987635E+04  0.24839374280E+04  0.17876532804E+04 0.  0.
        5    1    3    3  502    0 -0.19835114946E+03  0.45059110986E+03  0.18988751327E+04  0.19616636782E+04  0.46999998093E+01 0. -1.
       -5    1    3    3    0  502  0.19835114946E+03 -0.45059110986E+03 -0.17427636924E+03  0.52227374972E+03  0.46999998093E+01 0.  1.
</event>
<event>
 5   0  0.3470962E-04  0.1353830E+04  0.7818609E-02  0.8987934E-01
       -1   -1    0    0    0  501  0.00000000000E+00  0.00000000000E+00  0.50049025429E+03  0.50049025432E+03  0.50400001928E-02 0. -1.
        1   -1    0    0  501    0  0.00000000000E+00  0.00000000000E+00 -0.91553067236E+03  0.91553067237E+03  0.50400001928E-02 0.  1.
    10030    2    1    2    0    0  0.00000000000E+00  0.00000000000E+00 -0.41504041807E+03  0.14160209267E+04  0.13538303868E+04 0.  0.
        4    1    3    3  502    0 -0.74479415837E+02  0.15101138247E+03  0.47823546328E+03  0.50701320718E+03  0.12699999809E+01 0. -1.
       -4    1    3    3    0  502  0.74479415837E+02 -0.15101138247E+03 -0.89327588135E+03  0.90900771951E+03  0.12699999809E+01 0.  1.
</event>
<event>
 5   0  0.6853162E-04  0.1090459E+04  0.7818609E-02  0.9214542E-01
        2   -1    0    0  501    0  0.00000000000E+00  0.00000000000E+00  0.12281087506E+04  0.12281087506E+04  0.25500000920E-02 0. -1.
       -2   -1    0    0    0  501  0.00000000000E+00  0.00000000000E+00 -0.24205917103E+03  0.24205917104E+03  0.25500000920E-02 0.  1.
    10030    2    1    2    0    0  0.00000000000E+00  0.00000000000E+00  0.98604957959E+03  0.14701679217E+04  0.10904585937E+04 0.  0.
        2    1    3    3  502    0 -0.33576965001E+03 -0.18090603592E+03 -0.32270228390E+02  0.38276574996E+03  0.25500000920E-02 0.  1.
       -2    1    3    3    0  502  0.33576965001E+03  0.18090603592E+03  0.10183198080E+04  0.10874021717E+04  0.25500000920E-02 0. -1.
</event>
<event>
 5   0  0.6853162E-04  0.1676501E+04  0.7818609E-02  0.8774881E-01
        2   -1    0    0  501    0  0.00000000000E+00  0.00000000000E+00  0.10390574980E+04  0.10390574980E+04  0.25500000920E-02 0.  1.
       -2   -1    0    0    0  501  0.00000000000E+00  0.00000000000E+00 -0.67625117613E+03  0.67625117614E+03  0.25500000920E-02 0. -1.
    10030    2    1    2    0    0  0.00000000000E+00  0.00000000000E+00  0.36280632188E+03  0.17153086742E+04  0.16765009456E+04 0.  0.
        2    1    3    3  502    0 -0.59443607866E+03 -0.32032084991E+03 -0.32678754068E+03  0.75016651168E+03  0.25500000920E-02 0.  1.
       -2    1    3    3    0  502  0.59443607866E+03  0.32032084991E+03  0.68959386256E+03  0.96514216247E+03  0.25500000920E-02 0. -1.
</event>
<event>
 5   0  0.2467375E-04  0.1801998E+04  0.7818609E-02  0.8705238E-01
        3   -1    0    0  501    0  0.00000000000E+00  0.00000000000E+00  0.11716234504E+04  0.11716234548E+04  0.10100000352E+00 0.  1.
       -3   -1    0    0    0  501  0.00000000000E+00  0.00000000000E+00 -0.69288379976E+03  0.69288380712E+03  0.10100000352E+00 0. -1.
    10030    2    1    2    0    0  0.00000000000E+00  0.00000000000E+00  0.47873965068E+03  0.18645072619E+04  0.18019976905E+04 0.  0.
        1    1    3    3  502    0 -0.31645010038E+03 -0.56233599220E+03  0.89002099925E+03  0.10993178855E+04  0.50400001928E-02 0.  1.
       -1    1    3    3    0  502  0.31645010038E+03  0.56233599220E+03 -0.41128134857E+03  0.76518937647E+03  0.50400001928E-02 0. -1.
</event>
<event>
 5   0  0.6929121E-04  0.1281910E+04  0.7818609E-02  0.9044035E-01
        2   -1    0    0  501    0  0.00000000000E+00  0.00000000000E+00  0.47737453676E+03  0.47737453677E+03  0.25500000920E-02 0.  1.
       -2   -1    0    0    0  501  0.00000000000E+00  0.00000000000E+00 -0.86058883143E+03  0.86058883143E+03  0.25500000920E-02 0. -1.
    10030    2    1    2    0    0  0.00000000000E+00  0.00000000000E+00 -0.38321429466E+03  0.13379633682E+04  0.12819098170E+04 0.  0.
        3    1    3    3  502    0 -0.54764250703E+02  0.57659168574E+03  0.94925914175E+02  0.58691399251E+03  0.10100000352E+00 0.  1.
       -3    1    3    3    0  502  0.54764250703E+02 -0.57659168574E+03 -0.47814020884E+03  0.75104937569E+03  0.10100000352E+00 0. -1.
</event>
<event>
 5   0  0.2467375E-04  0.2088041E+04  0.7818609E-02  0.8566530E-01
        4   -1    0    0  501    0  0.00000000000E+00  0.00000000000E+00  0.13707275599E+04  0.13707281482E+04  0.12699999809E+01 0.  1.
       -4   -1    0    0    0  501  0.00000000000E+00  0.00000000000E+00 -0.79518178488E+03  0.79518279905E+03  0.12699999809E+01 0. -1.
    10030    2    1    2    0    0  0.00000000000E+00  0.00000000000E+00  0.57554577502E+03  0.21659109473E+04  0.20880414968E+04 0.  0.
        5    1    3    3  502    0  0.44729001415E+03 -0.16660314539E+03  0.12509106728E+04  0.13388893031E+04  0.46999998093E+01 0.  1.
       -5    1    3    3    0  502 -0.44729001415E+03  0.16660314539E+03 -0.67536489774E+03  0.82702164416E+03  0.46999998093E+01 0. -1.
</event>
<event>
 5   0  0.3404261E-04  0.1800003E+04  0.7818609E-02  0.8706298E-01
        1   -1    0    0  501    0  0.00000000000E+00  0.00000000000E+00  0.73984040435E+03  0.73984040437E+03  0.50400001928E-02 0.  1.
       -1   -1    0    0    0  501  0.00000000000E+00  0.00000000000E+00 -0.10948340096E+04  0.10948340097E+04  0.50400001928E-02 0. -1.
    10030    2    1    2    0    0  0.00000000000E+00  0.00000000000E+00 -0.35499360529E+03  0.18346744140E+04  0.18000027071E+04 0.  0.
        1    1    3    3  502    0  0.61984343548E+03 -0.35565114259E+03  0.38013251779E+03  0.80944076426E+03  0.50400001928E-02 0.  1.
       -1    1    3    3    0  502 -0.61984343548E+03  0.35565114259E+03 -0.73512612309E+03  0.10252336498E+04  0.50400001928E-02 0. -1.
</event>
<event>
 5   0  0.6853162E-04  0.1439901E+04  0.7818609E-02  0.8925432E-01
       -2   -1    0    0    0  501  0.00000000000E+00  0.00000000000E+00  0.98688919980E+03  0.98688919980E+03  0.25500000920E-02 0.  1.
        2   -1    0    0  501    0  0.00000000000E+00  0.00000000000E+00 -0.52521448020E+03  0.52521448021E+03  0.25500000920E-02 0. -1.
    10030    2    1    2    0    0  0.00000000000E+00  0.00000000000E+00  0.46167471960E+03  0.15121036800E+04  0.14399006884E+04 0.  0.
        2    1    3    3  502    0  0.14958285022E+03  0.41818936776E+03 -0.36420742560E+03  0.57437307149E+03  0.25500000920E-02 0. -1.
       -2    1    3    3    0  502 -0.14958285022E+03 -0.41818936776E+03  0.82588214520E+03  0.93773060852E+03  0.25500000920E-02 0.  1.
</event>
<event>
 5   0  0.6547153E-04  0.1834873E+04  0.7818609E-02  0.8687971E-01
        2   -1    0    0  501    0  0.00000000000E+00  0.00000000000E+00  0.14558161763E+04  0.14558161763E+04  0.25500000920E-02 0. -1.
       -2   -1    0    0    0  501  0.00000000000E+00  0.00000000000E+00 -0.57815655871E+03  0.57815655871E+03  0.25500000920E-02 0.  1.
    10030    2    1    2    0    0  0.00000000000E+00  0.00000000000E+00  0.87765961761E+03  0.20339727350E+04  0.18348729336E+04 0.  0.
        5    1    3    3  502    0  0.39909762844E+03 -0.82094406613E+03  0.33699468604E+03  0.97304449290E+03  0.46999998093E+01 0.  1.
       -5    1    3    3    0  502 -0.39909762844E+03  0.82094406613E+03  0.54066493157E+03  0.10609282421E+04  0.46999998093E+01 0. -1.
</event>
<event>
 5   0  0.2467375E-04  0.1807046E+04  0.7818609E-02  0.8702562E-01
        4   -1    0    0  501    0  0.00000000000E+00  0.00000000000E+00  0.10513682062E+04  0.10513689732E+04  0.12699999809E+01 0.  1.
       -4   -1    0    0    0  501  0.00000000000E+00  0.00000000000E+00 -0.77646635739E+03  0.77646739600E+03  0.12699999809E+01 0. -1.
    10030    2    1    2    0    0  0.00000000000E+00  0.00000000000E+00  0.27490184877E+03  0.18278363692E+04  0.18070458672E+04 0.  0.
        5    1    3    3  502    0  0.41777480702E+03 -0.80100978667E+03  0.15098899959E+03  0.91595427599E+03  0.46999998093E+01 0.  1.
       -5    1    3    3    0  502 -0.41777480702E+03  0.80100978667E+03  0.12391284918E+03  0.91188209320E+03  0.46999998093E+01 0. -1.
</event>
<event>
 5   0  0.3413839E-04  0.1834485E+04  0.7818609E-02  0.8688173E-01
        1   -1    0    0  501    0  0.00000000000E+00  0.00000000000E+00  0.15486158718E+04  0.15486158718E+04  0.50400001928E-02 0. -1.
       -1   -1    0    0    0  501  0.00000000000E+00  0.00000000000E+00 -0.54328121693E+03  0.54328121695E+03  0.50400001928E-02 0.  1.
    10030    2    1    2    0    0  0.00000000000E+00  0.00000000000E+00  0.10053346548E+04  0.20918970887E+04  0.18344851217E+04 0.  0.
        5    1    3    3  502    0 -0.80629072812E+02  0.55502731264E+01  0.15445339672E+04  0.15466541691E+04  0.46999998093E+01 0. -1.
       -5    1    3    3    0  502  0.80629072812E+02 -0.55502731264E+01 -0.53919931239E+03  0.54524291961E+03  0.46999998093E+01 0.  1.
</event>
<event>
 5   0  0.6774451E-04  0.1722075E+04  0.7818609E-02  0.8748873E-01
       -2   -1    0    0    0  501  0.00000000000E+00  0.00000000000E+00  0.62598559306E+03  0.62598559307E+03  0.25500000920E-02 0.  1.
        2   -1    0    0  501    0  0.00000000000E+00  0.00000000000E+00 -0.11843499442E+04  0.11843499442E+04  0.25500000920E-02 0. -1.
    10030    2    1    2    0    0  0.00000000000E+00  0.00000000000E+00 -0.55836435117E+03  0.18103355373E+04  0.17220754946E+04 0.  0.
        4    1    3    3  502    0  0.25092735325E+03  0.21857583341E+03 -0.11140143565E+04  0.11626562394E+04  0.12699999809E+01 0. -1.
       -4    1    3    3    0  502 -0.25092735325E+03 -0.21857583341E+03  0.55565000537E+03  0.64767929790E+03  0.12699999809E+01 0.  1.
</event>
<event>
 5   0  0.3308275E-04  0.1835983E+04  0.7818609E-02  0.8687395E-01
        1   -1    0    0  501    0  0.00000000000E+00  0.00000000000E+00  0.18587108259E+04  0.18587108259E+04  0.50400001928E-02 0.  1.
       -1   -1    0    0    0  501  0.00000000000E+00  0.00000000000E+00 -0.45338309687E+03  0.45338309689E+03  0.50400001928E-02 0. -1.
    10030    2    1    2    0    0  0.00000000000E+00  0.00000000000E+00  0.14053277290E+04  0.23120939228E+04  0.18359826475E+04 0.  0.
        3    1    3    3  502    0 -0.12522003446E+02 -0.91606024083E+03  0.62939668194E+03  0.11115139940E+04  0.10100000352E+00 0. -1.
       -3    1    3    3    0  502  0.12522003446E+02  0.91606024083E+03  0.77593104708E+03  0.12005799288E+04  0.10100000352E+00 0.  1.
</event>
<event>
 5   0  0.3377273E-04  0.9656619E+03  0.7818609E-02  0.9347029E-01
       -1   -1    0    0    0  501  0.00000000000E+00  0.00000000000E+00  0.77009195286E+03  0.77009195288E+03  0.50400001928E-02 0. -1.
        1   -1    0    0  501    0  0.00000000000E+00  0.00000000000E+00 -0.30272456005E+03  0.30272456009E+03  0.50400001928E-02 0.  1.
    10030    2    1    2    0    0  0.00000000000E+00  0.00000000000E+00  0.46736739281E+03  0.10728165130E+04  0.96566194428E+03 0.  0.
        2    1    3    3  502    0 -0.29510992742E+03 -0.28273386093E+03  0.51930635684E+03  0.66083840509E+03  0.25500000920E-02 0. -1.
       -2    1    3    3    0  502  0.29510992742E+03  0.28273386093E+03 -0.51938964031E+02  0.41197810788E+03  0.25500000920E-02 0.  1.
</event>
<event>
 5   0  0.6853162E-04  0.1696246E+04  0.7818609E-02  0.8763508E-01
       -2   -1    0    0    0  501  0.00000000000E+00  0.00000000000E+00  0.69869619761E+03  0.69869619761E+03  0.25500000920E-02 0. -1.
        2   -1    0    0  501    0  0.00000000000E+00  0.00000000000E+00 -0.10295067793E+04  0.10295067793E+04  0.25500000920E-02 0.  1.
    10030    2    1    2    0    0  0.00000000000E+00  0.00000000000E+00 -0.33081058167E+03  0.17282029769E+04  0.16962458219E+04 0.  0.
        2    1    3    3  502    0  0.48854654596E+03  0.31855585042E+03  0.46195272046E+03  0.74401335562E+03  0.25500000920E-02 0. -1.
       -2    1    3    3    0  502 -0.48854654596E+03 -0.31855585042E+03 -0.79276330213E+03  0.98418962127E+03  0.25500000920E-02 0.  1.
</event>
<event>
 5   0  0.6547153E-04  0.1817045E+04  0.7818609E-02  0.8697287E-01
        2   -1    0    0  501    0  0.00000000000E+00  0.00000000000E+00  0.23968486562E+04  0.23968486562E+04  0.25500000920E-02 0. -1.
       -2   -1    0    0    0  501  0.00000000000E+00  0.00000000000E+00 -0.34437440171E+03  0.34437440172E+03  0.25500000920E-02 0.  1.
    10030    2    1    2    0    0  0.00000000000E+00  0.00000000000E+00  0.20524742545E+04  0.27412230579E+04  0.18170452080E+04 0.  0.
        5    1    3    3  502    0 -0.70194372330E+03  0.11721353853E+03  0.18782074019E+04  0.20085191408E+04  0.46999998093E+01 0. -1.
       -5    1    3    3    0  502  0.70194372330E+03 -0.11721353853E+03  0.17426685258E+03  0.73270391715E+03  0.46999998093E+01 0.  1.
</event>
<event>
 5   0  0.3470962E-04  0.1792979E+04  0.7818609E-02  0.8710042E-01
       -1   -1    0    0    0  501  0.00000000000E+00  0.00000000000E+00  0.14020902762E+04  0.14020902762E+04  0.50400001928E-02 0. -1.
        1   -1    0    0  501    0  0.00000000000E+00  0.00000000000E+00 -0.57321060902E+03  0.57321060904E+03  0.50400001928E-02 0.  1.
    10030    2    1    2    0    0  0.00000000000E+00  0.00000000000E+00  0.82887966714E+03  0.19753008852E+04  0.17929785511E+04 0.  0.
        4    1    3    3  502    0  0.41112971761E+03 -0.31260609050E+03 -0.39283521034E+03  0.64890009085E+03  0.12699999809E+01 0.  1.
       -4    1    3    3    0  502 -0.41112971761E+03  0.31260609050E+03  0.12217148775E+04  0.13264007944E+04  0.12699999809E+01 0. -1.
</event>
<event>
 5   0  0.6547153E-04  0.1788464E+04  0.7818609E-02  0.8712458E-01
        2   -1    0    0  501    0  0.00000000000E+00  0.00000000000E+00  0.97734160408E+03  0.97734160408E+03  0.25500000920E-02 0.  1.
       -2   -1    0    0    0  501  0.00000000000E+00  0.00000000000E+00 -0.81819008142E+03  0.81819008142E+03  0.25500000920E-02 0. -1.
    10030    2    1    2    0    0  0.00000000000E+00  0.00000000000E+00  0.15915152266E+03  0.17955316855E+04  0.17884643766E+04 0.  0.
        5    1    3    3  502    0 -0.46728374179E+03  0.70158269524E+03  0.37917877903E+03  0.92432191907E+03  0.46999998093E+01 0.  1.
       -5    1    3    3    0  502  0.46728374179E+03 -0.70158269524E+03 -0.22002725637E+03  0.87120976644E+03  0.46999998093E+01 0. -1.
</event>
<event>
 5   0  0.3308275E-04  0.1749808E+04  0.7818609E-02  0.8733456E-01
       -1   -1    0    0    0  501  0.00000000000E+00  0.00000000000E+00  0.33354456963E+03  0.33354456966E+03  0.50400001928E-02 0.  1.
        1   -1    0    0  501    0  0.00000000000E+00  0.00000000000E+00 -0.22949156087E+04  0.22949156087E+04  0.50400001928E-02 0. -1.
    10030    2    1    2    0    0  0.00000000000E+00  0.00000000000E+00 -0.19613710390E+04  0.26284601783E+04  0.17498075769E+04 0.  0.
        3    1    3    3  502    0 -0.30899477939E+03  0.42841267495E+03  0.66989019236E+02  0.53244974660E+03  0.10100000352E+00 0.  1.
       -3    1    3    3    0  502  0.30899477939E+03 -0.42841267495E+03 -0.20283600583E+04  0.20960104317E+04  0.10100000352E+00 0. -1.
</event>
<event>
 5   0  0.6853162E-04  0.1837650E+04  0.7818609E-02  0.8686530E-01
        2   -1    0    0  501    0  0.00000000000E+00  0.00000000000E+00  0.31599319176E+04  0.31599319176E+04  0.25500000920E-02 0. -1.
       -2   -1    0    0    0  501  0.00000000000E+00  0.00000000000E+00 -0.26717002135E+03  0.26717002137E+03  0.25500000920E-02 0.  1.
    10030    2    1    2    0    0  0.00000000000E+00  0.00000000000E+00  0.28927618962E+04  0.34271019389E+04  0.18376496705E+04 0.  0.
        2    1    3    3  502    0 -0.53673888754E+03 -0.33026719947E+03  0.19941665114E+03  0.66100836395E+03  0.25500000920E-02 0.  1.
       -2    1    3    3    0  502  0.53673888754E+03  0.33026719947E+03  0.26933452451E+04  0.27660935750E+04  0.25500000920E-02 0. -1.
</event>
<event>
 5   0  0.6929121E-04  0.1472129E+04  0.7818609E-02  0.8903201E-01
        2   -1    0    0  501    0  0.00000000000E+00  0.00000000000E+00  0.16425000037E+04  0.16425000037E+04  0.25500000920E-02 0.  1.
       -2   -1    0    0    0  501  0.00000000000E+00  0.00000000000E+00 -0.32985759374E+03  0.32985759375E+03  0.25500000920E-02 0. -1.
    10030    2    1    2    0    0  0.00000000000E+00  0.00000000000E+00  0.13126424100E+04  0.19723575974E+04  0.14721292048E+04 0.  0.
        3    1    3    3  502    0 -0.16376724000E+02 -0.64183363995E+03  0.17404470763E+03  0.66521439319E+03  0.10100000352E+00 0. -1.
       -3    1    3    3    0  502  0.16376724000E+02  0.64183363995E+03  0.11385977023E+04  0.13071432042E+04  0.10100000352E+00 0.  1.
</event>
<event>
 5   0  0.6771967E-04  0.1800279E+04  0.7818609E-02  0.8706151E-01
        2   -1    0    0  501    0  0.00000000000E+00  0.00000000000E+00  0.70270832387E+03  0.70270832387E+03  0.25500000920E-02 0. -1.
       -2   -1    0    0    0  501  0.00000000000E+00  0.00000000000E+00 -0.11530408284E+04  0.11530408284E+04  0.25500000920E-02 0.  1.
    10030    2    1    2    0    0  0.00000000000E+00  0.00000000000E+00 -0.45033250450E+03  0.18557491523E+04  0.18002792982E+04 0.  0.
        1    1    3    3  502    0 -0.34693173869E+03 -0.74608205894E+03 -0.60144972180E+03  0.10191868513E+04  0.50400001928E-02 0.  1.
       -1    1    3    3    0  502  0.34693173869E+03  0.74608205894E+03  0.15111721730E+03  0.83656230095E+03  0.50400001928E-02 0. -1.
</event>
<event>
 5   0  0.3404261E-04  0.1806617E+04  0.7818609E-02  0.8702788E-01
        1   -1    0    0  501    0  0.00000000000E+00  0.00000000000E+00  0.15650583143E+04  0.15650583143E+04  0.50400001928E-02 0. -1.
       -1   -1    0    0    0  501  0.00000000000E+00  0.00000000000E+00 -0.52136483632E+03  0.52136483635E+03  0.50400001928E-02 0.  1.
    10030    2    1    2    0    0  0.00000000000E+00  0.00000000000E+00  0.10436934780E+04  0.20864231507E+04  0.18066171392E+04 0.  0.
        1    1    3    3  502    0 -0.79871431053E+03 -0.41890080097E+03  0.58009591466E+03  0.10723496170E+04  0.50400001928E-02 0. -1.
       -1    1    3    3    0  502  0.79871431053E+03  0.41890080097E+03  0.46359756335E+03  0.10140735337E+04  0.50400001928E-02 0.  1.
</event>
<event>
 5   0  0.6929121E-04  0.1830252E+04  0.7818609E-02  0.8690375E-01
       -2   -1    0    0    0  501  0.00000000000E+00  0.00000000000E+00  0.11841148708E+04  0.11841148708E+04  0.25500000920E-02 0.  1.
        2   -1    0    0  501    0  0.00000000000E+00  0.00000000000E+00 -0.70724215456E+03  0.70724215456E+03  0.25500000920E-02 0. -1.
    10030    2    1    2    0    0  0.00000000000E+00  0.00000000000E+00  0.47687271626E+03  0.18913570254E+04  0.18302523897E+04 0.  0.
        3    1    3    3  502    0 -0.90597399639E+03 -0.97065208922E+02  0.15047460451E+03  0.92350048929E+03  0.10100000352E+00 0.  1.
       -3    1    3    3    0  502  0.90597399639E+03  0.97065208922E+02  0.32639811175E+03  0.96785653610E+03  0.10100000352E+00 0. -1.
</event>
<event>
 5   0  0.3470962E-04  0.1844461E+04  0.7818609E-02  0.8683007E-01
        1   -1    0    0  501    0  0.00000000000E+00  0.00000000000E+00  0.10221214971E+04  0.10221214972E+04  0.50400001928E-02 0. -1.
       -1   -1    0    0    0  501  0.00000000000E+00  0.00000000000E+00 -0.83210158789E+03  0.83210158791E+03  0.50400001928E-02 0.  1.
    10030    2    1    2    0    0  0.00000000000E+00  0.00000000000E+00  0.19001990925E+03  0.18542230851E+04  0.18444608110E+04 0.  0.
        4    1    3    3  502    0  0.58187876149E+03 -0.34426865099E+03  0.72554853862E+03  0.99172883992E+03  0.12699999809E+01 0. -1.
       -4    1    3    3    0  502 -0.58187876149E+03  0.34426865099E+03 -0.53552862937E+03  0.86249424514E+03  0.12699999809E+01 0.  1.
</event>
<event>
 5   0  0.6547153E-04  0.1835034E+04  0.7818609E-02  0.8687888E-01
       -2   -1    0    0    0  501  0.00000000000E+00  0.00000000000E+00  0.69924150316E+03  0.69924150317E+03  0.25500000920E-02 0. -1.
        2   -1    0    0  501    0  0.00000000000E+00  0.00000000000E+00 -0.12039289408E+04  0.12039289408E+04  0.25500000920E-02 0.  1.
    10030    2    1    2    0    0  0.00000000000E+00  0.00000000000E+00 -0.50468743762E+03  0.19031704440E+04  0.18350336043E+04 0.  0.
        5    1    3    3  502    0 -0.54878554990E+03 -0.45186682055E+03 -0.85393858182E+03  0.11111176332E+04  0.46999998093E+01 0.  1.
       -5    1    3    3    0  502  0.54878554990E+03  0.45186682055E+03  0.34925114419E+03  0.79205281075E+03  0.46999998093E+01 0. -1.
</event>
<event>
 5   0  0.3470962E-04  0.1714354E+04  0.7818609E-02  0.8753220E-01
       -1   -1    0    0    0  501  0.00000000000E+00  0.00000000000E+00  0.90397215008E+03  0.90397215010E+03  0.50400001928E-02 0. -1.
        1   -1    0    0  501    0  0.00000000000E+00  0.00000000000E+00 -0.81280452651E+03  0.81280452652E+03  0.50400001928E-02 0.  1.
    10030    2    1    2    0    0  0.00000000000E+00  0.00000000000E+00  0.91167623575E+02  0.17167766766E+04  0.17143542871E+04 0.  0.
        4    1    3    3  502    0  0.47180225423E+03 -0.35858190232E+03  0.66579139005E+03  0.89132381082E+03  0.12699999809E+01 0. -1.
       -4    1    3    3    0  502 -0.47180225423E+03  0.35858190232E+03 -0.57462376648E+03  0.82545286580E+03  0.12699999809E+01 0.  1.
</event>
<event>
 5   0  0.3308275E-04  0.1803977E+04  0.7818609E-02  0.8704187E-01
        1   -1    0    0  501    0  0.00000000000E+00  0.00000000000E+00  0.11096542339E+04  0.11096542339E+04  0.50400001928E-02 0. -1.
       -1   -1    0    0    0  501  0.00000000000E+00  0.00000000000E+00 -0.73318635031E+03  0.73318635032E+03  0.50400001928E-02 0.  1.
    10030    2    1    2    0    0  0.00000000000E+00  0.00000000000E+00  0.37646788359E+03  0.18428405842E+04  0.18039770928E+04 0.  0.
        3    1    3    3  502    0 -0.80257484631E+02 -0.83599120765E+03 -0.14788446354E+03  0.85275576097E+03  0.10100000352E+00 0.  1.
       -3    1    3    3    0  502  0.80257484631E+02  0.83599120765E+03  0.52435234713E+03  0.99008482326E+03  0.10100000352E+00 0. -1.
</event>
<event>
 5   0  0.6771967E-04  0.1801167E+04  0.7818609E-02  0.8705679E-01
       -2   -1    0    0    0  501  0.00000000000E+00  0.00000000000E+00  0.49196091541E+03  0.49196091541E+03  0.25500000920E-02 0.  1.
        2   -1    0    0  501    0  0.00000000000E+00  0.00000000000E+00 -0.16486075213E+04  0.16486075213E+04  0.25500000920E-02 0. -1.
    10030    2    1    2    0    0  0.00000000000E+00  0.00000000000E+00 -0.11566466059E+04  0.21405684368E+04  0.18011668055E+04 0.  0.
        1    1    3    3  502    0 -0.47133553590E+02  0.79283692088E+02 -0.16429793754E+04  0.16455663778E+04  0.50400001928E-02 0. -1.
       -1    1    3    3    0  502  0.47133553590E+02 -0.79283692088E+02  0.48633276946E+03  0.49500205897E+03  0.50400001928E-02 0.  1.
</event>
<event>
 5   0  0.6774451E-04  0.1428155E+04  0.7818609E-02  0.8933687E-01
        2   -1    0    0  501    0  0.00000000000E+00  0.00000000000E+00  0.13812725339E+04  0.13812725339E+04  0.25500000920E-02 0.  1.
       -2   -1    0    0    0  501  0.00000000000E+00  0.00000000000E+00 -0.36915706258E+03  0.36915706259E+03  0.25500000920E-02 0. -1.
    10030    2    1    2    0    0  0.00000000000E+00  0.00000000000E+00  0.10121154713E+04  0.17504295965E+04  0.14281547693E+04 0.  0.
        4    1    3    3  502    0 -0.64087947574E+03  0.29249920281E+02  0.89038091309E+03  0.10974342092E+04  0.12699999809E+01 0.  1.
       -4    1    3    3    0  502  0.64087947574E+03 -0.29249920281E+02  0.12173455825E+03  0.65299538730E+03  0.12699999809E+01 0. -1.
</event>
<event>
 5   0  0.6929121E-04  0.1767171E+04  0.7818609E-02  0.8723955E-01
       -2   -1    0    0    0  501  0.00000000000E+00  0.00000000000E+00  0.34028841612E+03  0.34028841613E+03  0.25500000920E-02 0.  1.
        2   -1    0    0  501    0  0.00000000000E+00  0.00000000000E+00 -0.22942991009E+04  0.22942991009E+04  0.25500000920E-02 0. -1.
    10030    2    1    2    0    0  0.00000000000E+00  0.00000000000E+00 -0.19540106848E+04  0.26345875170E+04  0.17671710807E+04 0.  0.
        3    1    3    3  502    0 -0.50884768572E+03  0.46083913599E+03 -0.14770558648E+03  0.70222192147E+03  0.10100000352E+00 0.  1.
       -3    1    3    3    0  502  0.50884768572E+03 -0.46083913599E+03 -0.18063050983E+04  0.19323655955E+04  0.10100000352E+00 0. -1.
</event>
<event>
 5   0  0.3377273E-04  0.1822178E+04  0.7818609E-02  0.8694594E-01
        1   -1    0    0  501    0  0.00000000000E+00  0.00000000000E+00  0.12381576121E+04  0.12381576121E+04  0.50400001928E-02 0. -1.
       -1   -1    0    0    0  501  0.00000000000E+00  0.00000000000E+00 -0.67041771957E+03  0.67041771959E+03  0.50400001928E-02 0.  1.
    10030    2    1    2    0    0  0.00000000000E+00  0.00000000000E+00  0.56773989253E+03  0.19085753317E+04  0.18221776015E+04 0.  0.
        2    1    3    3  502    0  0.60580288888E+03 -0.58123273218E+03  0.65456321971E+03  0.10645570148E+04  0.25500000920E-02 0.  1.
       -2    1    3    3    0  502 -0.60580288888E+03  0.58123273218E+03 -0.86823327180E+02  0.84401831691E+03  0.25500000920E-02 0. -1.
</event>
<event>
 5   0  0.3377273E-04  0.1813412E+04  0.7818609E-02  0.8699200E-01
        1   -1    0    0  501    0  0.00000000000E+00  0.00000000000E+00  0.11964058839E+04  0.11964058839E+04  0.50400001928E-02 0. -1.
       -1   -1    0    0    0  501  0.00000000000E+00  0.00000000000E+00 -0.68715433585E+03  0.68715433587E+03  0.50400001928E-02 0.  1.
    10030    2    1    2    0    0  0.00000000000E+00  0.00000000000E+00  0.50925154801E+03  0.18835602197E+04  0.18134116913E+04 0.  0.
        2    1    3    3  502    0 -0.27808166345E+03  0.76202592520E+03  0.67539191740E+03  0.10555411713E+04  0.25500000920E-02 0. -1.
       -2    1    3    3    0  502  0.27808166345E+03 -0.76202592520E+03 -0.16614036939E+03  0.82801904843E+03  0.25500000920E-02 0.  1.
</event>
<event>
 5   0  0.6547153E-04  0.1769966E+04  0.7818609E-02  0.8722436E-01
       -2   -1    0    0    0  501  0.00000000000E+00  0.00000000000E+00  0.12186396263E+04  0.12186396263E+04  0.25500000920E-02 0.  1.
        2   -1    0    0  501    0  0.00000000000E+00  0.00000000000E+00 -0.64267980212E+03  0.64267980213E+03  0.25500000920E-02 0. -1.
    10030    2    1    2    0    0  0.00000000000E+00  0.00000000000E+00  0.57595982421E+03  0.18613194285E+04  0.17699661849E+04 0.  0.
        5    1    3    3  502    0 -0.16759661007E+03  0.86400405583E+03  0.19056312711E+03  0.90051542331E+03  0.46999998093E+01 0. -1.
       -5    1    3    3    0  502  0.16759661007E+03 -0.86400405583E+03  0.38539669710E+03  0.96080400516E+03  0.46999998093E+01 0.  1.
</event>
<event>
 5   0  0.3404261E-04  0.1782718E+04  0.7818609E-02  0.8715544E-01
        1   -1    0    0  501    0  0.00000000000E+00  0.00000000000E+00  0.13765669902E+04  0.13765669902E+04  0.50400001928E-02 0.  1.
       -1   -1    0    0    0  501  0.00000000000E+00  0.00000000000E+00 -0.57717554887E+03  0.57717554889E+03  0.50400001928E-02 0. -1.
    10030    2    1    2    0    0  0.00000000000E+00  0.00000000000E+00  0.79939144133E+03  0.19537425391E+04  0.17827179341E+04 0.  0.
        1    1    3    3  502    0 -0.50364250281E+03 -0.15309015351E+03 -0.38863753558E+03  0.65431758331E+03  0.50400001928E-02 0. -1.
       -1    1    3    3    0  502  0.50364250281E+03  0.15309015351E+03  0.11880289769E+04  0.12994249558E+04  0.50400001928E-02 0.  1.
</event>
<event>
 5   0  0.6929121E-04  0.1806410E+04  0.7818609E-02  0.8702898E-01
        2   -1    0    0  501    0  0.00000000000E+00  0.00000000000E+00  0.17109466618E+04  0.17109466618E+04  0.25500000920E-02 0.  1.
       -2   -1    0    0    0  501  0.00000000000E+00  0.00000000000E+00 -0.47680001305E+03  0.47680001306E+03  0.25500000920E-02 0. -1.
    10030    2    1    2    0    0  0.00000000000E+00  0.00000000000E+00  0.12341466488E+04  0.21877466749E+04  0.18064101314E+04 0.  0.
        3    1    3    3  502    0 -0.17469942904E+03 -0.87626273509E+03  0.45721196562E+03  0.10036927135E+04  0.10100000352E+00 0. -1.
       -3    1    3    3    0  502  0.17469942904E+03  0.87626273509E+03  0.77693468315E+03  0.11840539614E+04  0.10100000352E+00 0.  1.
</event>
<event>
 5   0  0.3377273E-04  0.1610712E+04  0.7818609E-02  0.8813994E-01
        1   -1    0    0  501    0  0.00000000000E+00  0.00000000000E+00  0.15332749178E+04  0.15332749178E+04  0.50400001928E-02 0.  1.
       -1   -1    0    0    0  501  0.00000000000E+00  0.00000000000E+00 -0.42301494821E+03  0.42301494824E+03  0.50400001928E-02 0. -1.
    10030    2    1    2    0    0  0.00000000000E+00  0.00000000000E+00  0.11102599696E+04  0.19562898661E+04  0.16107119047E+04 0.  0.
        2    1    3    3  502    0  0.11573313590E+03  0.22618689179E+03 -0.37306228980E+03  0.45136475365E+03  0.25500000920E-02 0. -1.
       -2    1    3    3    0  502 -0.11573313590E+03 -0.22618689179E+03  0.14833222594E+04  0.15049251124E+04  0.25500000920E-02 0.  1.
</event>
<event>
 5   0  0.3470962E-04  0.1811067E+04  0.7818609E-02  0.8700436E-01
        1   -1    0    0  501    0  0.00000000000E+00  0.00000000000E+00  0.10718529240E+04  0.10718529240E+04  0.50400001928E-02 0.  1.
       -1   -1    0    0    0  501  0.00000000000E+00  0.00000000000E+00 -0.76502227365E+03  0.76502227366E+03  0.50400001928E-02 0. -1.
    10030    2    1    2    0    0  0.00000000000E+00  0.00000000000E+00  0.30683065035E+03  0.18368751977E+04  0.18110674874E+04 0.  0.
        4    1    3    3  502    0  0.46420693249E+03 -0.77520727600E+03  0.21389177172E+03  0.92853955211E+03  0.12699999809E+01 0.  1.
       -4    1    3    3    0  502 -0.46420693249E+03  0.77520727600E+03  0.92938878634E+02  0.90833564556E+03  0.12699999809E+01 0. -1.
</event>
<event>
 5   0  0.2467375E-04  0.1822164E+04  0.7818609E-02  0.8694601E-01
        3   -1    0    0  501    0  0.00000000000E+00  0.00000000000E+00  0.76238657892E+03  0.76238658561E+03  0.10100000352E+00 0.  1.
       -3   -1    0    0    0  501  0.00000000000E+00  0.00000000000E+00 -0.10887788738E+04  0.10887788785E+04  0.10100000352E+00 0. -1.
    10030    2    1    2    0    0  0.00000000000E+00  0.00000000000E+00 -0.32639229492E+03  0.18511654641E+04  0.18221640007E+04 0.  0.
        2    1    3    3  502    0  0.29508536063E+03  0.35311546992E+03  0.63564234401E+03  0.78473377310E+03  0.25500000920E-02 0.  1.
       -2    1    3    3    0  502 -0.29508536063E+03 -0.35311546992E+03 -0.96203463893E+03  0.10664316910E+04  0.25500000920E-02 0. -1.
</event>
<event>
 5   0  0.6774451E-04  0.1797043E+04  0.7818609E-02  0.8707874E-01
       -2   -1    0    0    0  501  0.00000000000E+00  0.00000000000E+00  0.39576126629E+03  0.39576126629E+03  0.25500000920E-02 0. -1.
        2   -1    0    0  501    0  0.00000000000E+00  0.00000000000E+00 -0.20399691296E+04  0.20399691296E+04  0.25500000920E-02 0.  1.
    10030    2    1    2    0    0  0.00000000000E+00  0.00000000000E+00 -0.16442078633E+04  0.24357303959E+04  0.17970428664E+04 0.  0.
        4    1    3    3  502    0 -0.46024686746E+03  0.18050677648E+03  0.19484161145E+03  0.53138944458E+03  0.12699999809E+01 0. -1.
       -4    1    3    3    0  502  0.46024686746E+03 -0.18050677648E+03 -0.18390494748E+04  0.19043409513E+04  0.12699999809E+01 0.  1.
</event>
<event>
 5   0  0.3413839E-04  0.1809232E+04  0.7818609E-02  0.8701405E-01
       -1   -1    0    0    0  501  0.00000000000E+00  0.00000000000E+00  0.43716230293E+03  0.43716230296E+03  0.50400001928E-02 0.  1.
        1   -1    0    0  501    0  0.00000000000E+00  0.00000000000E+00 -0.18719144879E+04  0.18719144879E+04  0.50400001928E-02 0. -1.
    10030    2    1    2    0    0  0.00000000000E+00  0.00000000000E+00 -0.14347521849E+04  0.23090767908E+04  0.18092323769E+04 0.  0.
        5    1    3    3  502    0  0.71612931723E+03  0.53442533068E+03 -0.89722087361E+03  0.12662855204E+04  0.46999998093E+01 0. -1.
       -5    1    3    3    0  502 -0.71612931723E+03 -0.53442533068E+03 -0.53753131131E+03  0.10427912704E+04  0.46999998093E+01 0.  1.
</event>
<event>
 5   0  0.6853162E-04  0.1787219E+04  0.7818609E-02  0.8713126E-01
        2   -1    0    0  501    0  0.00000000000E+00  0.00000000000E+00  0.57034855821E+03  0.57034855822E+03  0.25500000920E-02 0. -1.
       -2   -1    0    0    0  501  0.00000000000E+00  0.00000000000E+00 -0.14000868464E+04  0.14000868464E+04  0.25500000920E-02 0.  1.
    10030    2    1    2    0    0  0.00000000000E+00  0.00000000000E+00 -0.82973828815E+03  0.19704354046E+04  0.17872185252E+04 0.  0.
        2    1    3    3  502    0 -0.13556907755E+03 -0.74972226162E+03  0.99988962198E+02  0.76841410510E+03  0.25500000920E-02 0. -1.
       -2    1    3    3    0  502  0.13556907755E+03  0.74972226162E+03 -0.92972725035E+03  0.12020212995E+04  0.25500000920E-02 0.  1.
</event>
<event>
 5   0  0.3377273E-04  0.1802571E+04  0.7818609E-02  0.8704934E-01
       -1   -1    0    0    0  501  0.00000000000E+00  0.00000000000E+00  0.15611127325E+04  0.15611127325E+04  0.50400001928E-02 0. -1.
        1   -1    0    0  501    0  0.00000000000E+00  0.00000000000E+00 -0.52034381487E+03  0.52034381489E+03  0.50400001928E-02 0.  1.
    10030    2    1    2    0    0  0.00000000000E+00  0.00000000000E+00  0.10407689177E+04  0.20814565474E+04  0.18025707805E+04 0.  0.
        2    1    3    3  502    0 -0.43098565730E+03 -0.63942952741E+03 -0.18382362107E+02  0.77133434292E+03  0.25500000920E-02 0.  1.
       -2    1    3    3    0  502  0.43098565730E+03  0.63942952741E+03  0.10591512798E+04  0.13101222045E+04  0.25500000920E-02 0. -1.
</event>
<event>
 5   0  0.3404261E-04  0.1791947E+04  0.7818609E-02  0.8710594E-01
        1   -1    0    0  501    0  0.00000000000E+00  0.00000000000E+00  0.12634239321E+04  0.12634239322E+04  0.50400001928E-02 0.  1.
       -1   -1    0    0    0  501  0.00000000000E+00  0.00000000000E+00 -0.63539095358E+03  0.63539095360E+03  0.50400001928E-02 0. -1.
    10030    2    1    2    0    0  0.00000000000E+00  0.00000000000E+00  0.62803297856E+03  0.18988148858E+04  0.17919465807E+04 0.  0.
        1    1    3    3  502    0  0.49624252020E+02 -0.37068046999E+03  0.11767607707E+04  0.12347600935E+04  0.50400001928E-02 0.  1.
       -1    1    3    3    0  502 -0.49624252020E+02  0.37068046999E+03 -0.54872779209E+03  0.66405479221E+03  0.50400001928E-02 0. -1.
</event>
<event>
 5   0  0.6853162E-04  0.1832572E+04  0.7818609E-02  0.8689167E-01
       -2   -1    0    0    0  501  0.00000000000E+00  0.00000000000E+00  0.82623216532E+03  0.82623216532E+03  0.25500000920E-02 0.  1.
        2   -1    0    0  501    0  0.00000000000E+00  0.00000000000E+00 -0.10161548548E+04  0.10161548548E+04  0.25500000920E-02 0. -1.
    10030    2    1    2    0    0  0.00000000000E+00  0.00000000000E+00 -0.18992268946E+03  0.18423870201E+04  0.18325717732E+04 0.  0.
        2    1    3    3  502    0 -0.49924531740E+03  0.53832267301E+03 -0.64611528929E+03  0.97800928129E+03  0.25500000920E-02 0. -1.
       -2    1    3    3    0  502  0.49924531740E+03 -0.53832267301E+03  0.45619259983E+03  0.86437773882E+03  0.25500000920E-02 0.  1.
</event>
<event>
 5   0  0.6771967E-04  0.1812133E+04  0.7818609E-02  0.8699874E-01
        2   -1    0    0  501    0  0.00000000000E+00  0.00000000000E+00  0.11828538115E+04  0.11828538115E+04  0.25500000920E-02 0. -1.
       -2   -1    0    0    0  501  0.00000000000E+00  0.00000000000E+00 -0.69404762375E+03  0.69404762376E+03  0.25500000920E-02 0.  1.
    10030    2    1    2    0    0  0.00000000000E+00  0.00000000000E+00  0.48880618770E+03  0.18769014352E+04  0.18121334135E+04 0.  0.
        1    1    3    3  502    0  0.16931873842E+03 -0.53323491286E+03 -0.49377502720E+03  0.74620512259E+03  0.50400001928E-02 0.  1.
       -1    1    3    3    0  502 -0.16931873842E+03  0.53323491286E+03  0.98258121489E+03  0.11306963126E+04  0.50400001928E-02 0. -1.
</event>
<event>
 5   0  0.3377273E-04  0.1691247E+04  0.7818609E-02  0.8766372E-01
        1   -1    0    0  501    0  0.00000000000E+00  0.00000000000E+00  0.19396853454E+04  0.19396853454E+04  0.50400001928E-02 0. -1.
       -1   -1    0    0    0  501  0.00000000000E+00  0.00000000000E+00 -0.36865716885E+03  0.36865716889E+03  0.50400001928E-02 0.  1.
    10030    2    1    2    0    0  0.00000000000E+00  0.00000000000E+00  0.15710281766E+04  0.23083425143E+04  0.16912467685E+04 0.  0.
        2    1    3    3  502    0 -0.46575512031E+03 -0.72040193416E+02  0.17438100934E+04  0.18063751724E+04  0.25500000920E-02 0. -1.
       -2    1    3    3    0  502  0.46575512031E+03  0.72040193416E+02 -0.17278191683E+03  0.50196734192E+03  0.25500000920E-02 0.  1.
</event>
<event>
 5   0  0.3404261E-04  0.1252051E+04  0.7818609E-02  0.9068478E-01
        1   -1    0    0  501    0  0.00000000000E+00  0.00000000000E+00  0.90021150002E+03  0.90021150003E+03  0.50400001928E-02 0. -1.
       -1   -1    0    0    0  501  0.00000000000E+00  0.00000000000E+00 -0.43535067055E+03  0.43535067058E+03  0.50400001928E-02 0.  1.
    10030    2    1    2    0    0  0.00000000000E+00  0.00000000000E+00  0.46486082947E+03  0.13355621706E+04  0.12520506063E+04 0.  0.
        1    1    3    3  502    0 -0.48969983933E+03  0.46978452790E+02 -0.18055571891E+03  0.52403556685E+03  0.50400001928E-02 0.  1.
       -1    1    3    3    0  502  0.48969983933E+03 -0.46978452790E+02  0.64541654837E+03  0.81152660376E+03  0.50400001928E-02 0. -1.
</event>
<event>
 5   0  0.3470962E-04  0.1774625E+04  0.7818609E-02  0.8719911E-01
       -1   -1    0    0    0  501  0.00000000000E+00  0.00000000000E+00  0.56784970389E+03  0.56784970391E+03  0.50400001928E-02 0. -1.
        1   -1    0    0  501    0  0.00000000000E+00  0.00000000000E+00 -0.13864999275E+04  0.13864999275E+04  0.50400001928E-02 0.  1.
    10030    2    1    2    0    0  0.00000000000E+00  0.00000000000E+00 -0.81865022362E+03  0.19543496314E+04  0.17746251134E+04 0.  0.
        4    1    3    3  502    0 -0.80691520396E+03 -0.35249458799E+03 -0.52974927694E+03  0.10276188448E+04  0.12699999809E+01 0. -1.
       -4    1    3    3    0  502  0.80691520396E+03  0.35249458799E+03 -0.28890094668E+03  0.92673078660E+03  0.12699999809E+01 0.  1.
</event>
<event>
 5   0  0.6774451E-04  0.1802919E+04  0.7818609E-02  0.8704749E-01
        2   -1    0    0  501    0  0.00000000000E+00  0.00000000000E+00  0.10613688870E+04  0.10613688870E+04  0.25500000920E-02 0. -1.
       -2   -1    0    0    0  501  0.00000000000E+00  0.00000000000E+00 -0.76564227730E+03  0.76564227730E+03  0.25500000920E-02 0.  1.
    10030    2    1    2    0    0  0.00000000000E+00  0.00000000000E+00  0.29572660967E+03  0.18270111643E+04  0.18029186245E+04 0.  0.
        4    1    3    3  502    0 -0.14105567677E+03 -0.38083479007E+03  0.96341312256E+03  0.10455134140E+04  0.12699999809E+01 0. -1.
       -4    1    3    3    0  502  0.14105567677E+03  0.38083479007E+03 -0.66768651288E+03  0.78149775026E+03  0.12699999809E+01 0.  1.
</event>
<event>
 5   0  0.3308275E-04  0.1795315E+04  0.7818609E-02  0.8708795E-01
       -1   -1    0    0    0  501  0.00000000000E+00  0.00000000000E+00  0.48739124382E+03  0.48739124384E+03  0.50400001928E-02 0. -1.
        1   -1    0    0  501    0  0.00000000000E+00  0.00000000000E+00 -0.16532686922E+04  0.16532686922E+04  0.50400001928E-02 0.  1.
    10030    2    1    2    0    0  0.00000000000E+00  0.00000000000E+00 -0.11658774484E+04  0.21406599360E+04  0.17953146624E+04 0.  0.
        3    1    3    3  502    0 -0.79367633601E+03 -0.39832123247E+03 -0.42653163072E+03  0.98514525466E+03  0.10100000352E+00 0. -1.
       -3    1    3    3    0  502  0.79367633601E+03  0.39832123247E+03 -0.73934581764E+03  0.11555146814E+04  0.10100000352E+00 0.  1.
</event>
<event>
 5   0  0.3404261E-04  0.1815042E+04  0.7818609E-02  0.8698341E-01
       -1   -1    0    0    0  501  0.00000000000E+00  0.00000000000E+00  0.66108153193E+03  0.66108153195E+03  0.50400001928E-02 0. -1.
        1   -1    0    0  501    0  0.00000000000E+00  0.00000000000E+00 -0.12458288963E+04  0.12458288963E+04  0.50400001928E-02 0.  1.
    10030    2    1    2    0    0  0.00000000000E+00  0.00000000000E+00 -0.58474736434E+03  0.19069104282E+04  0.18150421211E+04 0.  0.
        1    1    3    3  502    0 -0.81595841375E+03  0.39242795216E+03 -0.35719453724E+03  0.97333230094E+03  0.50400001928E-02 0.  1.
       -1    1    3    3    0  502  0.81595841375E+03 -0.39242795216E+03 -0.22755282710E+03  0.93357812729E+03  0.50400001928E-02 0. -1.
</event>
<event>
 5   0  0.3404261E-04  0.1571745E+04  0.7818609E-02  0.8838097E-01
        1   -1    0    0  501    0  0.00000000000E+00  0.00000000000E+00  0.10315579875E+04  0.10315579875E+04  0.50400001928E-02 0. -1.
       -1   -1    0    0    0  501  0.00000000000E+00  0.00000000000E+00 -0.59870183133E+03  0.59870183135E+03  0.50400001928E-02 0.  1.
    10030    2    1    2    0    0  0.00000000000E+00  0.00000000000E+00  0.43285615614E+03  0.16302598188E+04  0.15717450891E+04 0.  0.
        1    1    3    3  502    0 -0.59734632233E+03  0.18551886909E+03  0.70990915478E+03  0.94615584744E+03  0.50400001928E-02 0.  1.
       -1    1    3    3    0  502  0.59734632233E+03 -0.18551886909E+03 -0.27705299864E+03  0.68410397139E+03  0.50400001928E-02 0. -1.
</event>
<event>
 5   0  0.6774451E-04  0.1775281E+04  0.7818609E-02  0.8719556E-01
       -2   -1    0    0    0  501  0.00000000000E+00  0.00000000000E+00  0.31028240927E+03  0.31028240928E+03  0.25500000920E-02 0. -1.
        2   -1    0    0  501    0  0.00000000000E+00  0.00000000000E+00 -0.25393190970E+04  0.25393190970E+04  0.25500000920E-02 0.  1.
    10030    2    1    2    0    0  0.00000000000E+00  0.00000000000E+00 -0.22290366877E+04  0.28496015063E+04  0.17752814395E+04 0.  0.
        4    1    3    3  502    0 -0.27049220991E+03 -0.19397992153E+03  0.20631064974E+03  0.39161197974E+03  0.12699999809E+01 0. -1.
       -4    1    3    3    0  502  0.27049220991E+03  0.19397992153E+03 -0.24353473375E+04  0.24579895265E+04  0.12699999809E+01 0.  1.
</event>
<event>
 5   0  0.6929121E-04  0.1816880E+04  0.7818609E-02  0.8697374E-01
        2   -1    0    0  501    0  0.00000000000E+00  0.00000000000E+00  0.89120569767E+03  0.89120569767E+03  0.25500000920E-02 0.  1.
       -2   -1    0    0    0  501  0.00000000000E+00  0.00000000000E+00 -0.92600724256E+03  0.92600724257E+03  0.25500000920E-02 0. -1.
    10030    2    1    2    0    0  0.00000000000E+00  0.00000000000E+00 -0.34801544899E+02  0.18172129402E+04  0.18168796665E+04 0.  0.
        3    1    3    3  502    0  0.70396135472E+03  0.43899372489E+03 -0.38758464675E+03  0.91569588184E+03  0.10100000352E+00 0. -1.
       -3    1    3    3    0  502 -0.70396135472E+03 -0.43899372489E+03  0.35278310185E+03  0.90151705839E+03  0.10100000352E+00 0.  1.
</event>
<event>
 5   0  0.6547153E-04  0.1812433E+04  0.7818609E-02  0.8699716E-01
        2   -1    0    0  501    0  0.00000000000E+00  0.00000000000E+00  0.19281451417E+04  0.19281451417E+04  0.25500000920E-02 0.  1.
       -2   -1    0    0    0  501  0.00000000000E+00  0.00000000000E+00 -0.42591613546E+03  0.42591613546E+03  0.25500000920E-02 0. -1.
    10030    2    1    2    0    0  0.00000000000E+00  0.00000000000E+00  0.15022290062E+04  0.23540612771E+04  0.18124327600E+04 0.  0.
        5    1    3    3  502    0 -0.49497705342E+03 -0.53708491623E+03  0.14478351106E+04  0.16216383962E+04  0.46999998093E+01 0.  1.
       -5    1    3    3    0  502  0.49497705342E+03  0.53708491623E+03  0.54393895665E+02  0.73242288095E+03  0.46999998093E+01 0. -1.
</event>
<event>
 5   0  0.6929121E-04  0.1814806E+04  0.7818609E-02  0.8698465E-01
       -2   -1    0    0    0  501  0.00000000000E+00  0.00000000000E+00  0.94313802082E+03  0.94313802082E+03  0.25500000920E-02 0.  1.
        2   -1    0    0  501    0  0.00000000000E+00  0.00000000000E+00 -0.87302214531E+03  0.87302214532E+03  0.25500000920E-02 0. -1.
    10030    2    1    2    0    0  0.00000000000E+00  0.00000000000E+00  0.70115875504E+02  0.18161601661E+04  0.18148061916E+04 0.  0.
        3    1    3    3  502    0  0.42534810983E+03  0.27233092248E+03  0.78947394756E+03  0.93720556440E+03  0.10100000352E+00 0.  1.
       -3    1    3    3    0  502 -0.42534810983E+03 -0.27233092248E+03 -0.71935807205E+03  0.87895460173E+03  0.10100000352E+00 0. -1.
</event>
<event>
 5   0  0.3413839E-04  0.1813723E+04  0.7818609E-02  0.8699035E-01
       -1   -1    0    0    0  501  0.00000000000E+00  0.00000000000E+00  0.62044958158E+03  0.62044958160E+03  0.50400001928E-02 0.  1.
        1   -1    0    0  501    0  0.00000000000E+00  0.00000000000E+00 -0.13254872036E+04  0.13254872036E+04  0.50400001928E-02 0. -1.
    10030    2    1    2    0    0  0.00000000000E+00  0.00000000000E+00 -0.70503762204E+03  0.19459367852E+04  0.18137232213E+04 0.  0.
        5    1    3    3  502    0  0.79704846761E+03 -0.40537612386E+03 -0.19065781231E+03  0.91432409621E+03  0.46999998093E+01 0. -1.
       -5    1    3    3    0  502 -0.79704846761E+03  0.40537612386E+03 -0.51437980973E+03  0.10316126890E+04  0.46999998093E+01 0.  1.
</event>
<event>
 5   0  0.6547153E-04  0.1771442E+04  0.7818609E-02  0.8721635E-01
       -2   -1    0    0    0  501  0.00000000000E+00  0.00000000000E+00  0.84942328440E+03  0.84942328440E+03  0.25500000920E-02 0. -1.
        2   -1    0    0  501    0  0.00000000000E+00  0.00000000000E+00 -0.92357029213E+03  0.92357029213E+03  0.25500000920E-02 0.  1.
    10030    2    1    2    0    0  0.00000000000E+00  0.00000000000E+00 -0.74147007727E+02  0.17729935765E+04  0.17714424754E+04 0.  0.
        5    1    3    3  502    0  0.22002034410E+03  0.56207890261E+03  0.61167487353E+03  0.85936597878E+03  0.46999998093E+01 0. -1.
       -5    1    3    3    0  502 -0.22002034410E+03 -0.56207890261E+03 -0.68582188125E+03  0.91362759776E+03  0.46999998093E+01 0.  1.
</event>
<event>
 5   0  0.6853162E-04  0.1593523E+04  0.7818609E-02  0.8824537E-01
        2   -1    0    0  501    0  0.00000000000E+00  0.00000000000E+00  0.22454627488E+04  0.22454627488E+04  0.25500000920E-02 0.  1.
       -2   -1    0    0    0  501  0.00000000000E+00  0.00000000000E+00 -0.28271610883E+03  0.28271610884E+03  0.25500000920E-02 0. -1.
    10030    2    1    2    0    0  0.00000000000E+00  0.00000000000E+00  0.19627466400E+04  0.25281788576E+04  0.15935225017E+04 0.  0.
        2    1    3    3  502    0 -0.61538283752E+03 -0.32336283806E+03  0.36370591204E+03  0.78456456217E+03  0.25500000920E-02 0. -1.
       -2    1    3    3    0  502  0.61538283752E+03  0.32336283806E+03  0.15990407279E+04  0.17436142955E+04  0.25500000920E-02 0.  1.
</event>
<event>
 5   0  0.6547153E-04  0.1830982E+04  0.7818609E-02  0.8689995E-01
        2   -1    0    0  501    0  0.00000000000E+00  0.00000000000E+00  0.30394586515E+04  0.30394586515E+04  0.25500000920E-02 0.  1.
       -2   -1    0    0    0  501  0.00000000000E+00  0.00000000000E+00 -0.27574785965E+03  0.27574785966E+03  0.25500000920E-02 0. -1.
    10030    2    1    2    0    0  0.00000000000E+00  0.00000000000E+00  0.27637107919E+04  0.33152065112E+04  0.18309824878E+04 0.  0.
        5    1    3    3  502    0 -0.65565004822E+03 -0.63666360494E+03  0.12846100330E+04  0.15765349849E+04  0.46999998093E+01 0. -1.
       -5    1    3    3    0  502  0.65565004822E+03  0.63666360494E+03  0.14791007588E+04  0.17386715263E+04  0.46999998093E+01 0.  1.
</event>
<event>
 5   0  0.3404261E-04  0.1729299E+04  0.7818609E-02  0.8744828E-01
       -1   -1    0    0    0  501  0.00000000000E+00  0.00000000000E+00  0.10505867235E+04  0.10505867235E+04  0.50400001928E-02 0.  1.
        1   -1    0    0  501    0  0.00000000000E+00  0.00000000000E+00 -0.71162025121E+03  0.71162025123E+03  0.50400001928E-02 0. -1.
    10030    2    1    2    0    0  0.00000000000E+00  0.00000000000E+00  0.33896647229E+03  0.17622069747E+04  0.17292990350E+04 0.  0.
        1    1    3    3  502    0  0.21719544664E+03 -0.56174533760E+03  0.80168178609E+03  0.10027090169E+04  0.50400001928E-02 0.  1.
       -1    1    3    3    0  502 -0.21719544664E+03  0.56174533760E+03 -0.46271531380E+03  0.75949795787E+03  0.50400001928E-02 0. -1.
</event>
<event>
 5   0  0.6853162E-04  0.1784432E+04  0.7818609E-02  0.8714622E-01
        2   -1    0    0  501    0  0.00000000000E+00  0.00000000000E+00  0.15195876787E+04  0.15195876787E+04  0.25500000920E-02 0. -1.
       -2   -1    0    0    0  501  0.00000000000E+00  0.00000000000E+00 -0.52385898122E+03  0.52385898122E+03  0.25500000920E-02 0.  1.
    10030    2    1    2    0    0  0.00000000000E+00  0.00000000000E+00  0.99572869747E+03  0.20434466599E+04  0.17844322943E+04 0.  0.
        2    1    3    3  502    0  0.31346904555E+03 -0.78651385498E+03  0.82010369464E+03  0.11787438045E+04  0.25500000920E-02 0. -1.
       -2    1    3    3    0  502 -0.31346904555E+03  0.78651385498E+03  0.17562500283E+03  0.86470285545E+03  0.25500000920E-02 0.  1.
</event>
<event>
 5   0  0.3413839E-04  0.1814664E+04  0.7818609E-02  0.8698540E-01
       -1   -1    0    0    0  501  0.00000000000E+00  0.00000000000E+00  0.46779615312E+03  0.46779615315E+03  0.50400001928E-02 0. -1.
        1   -1    0    0  501    0  0.00000000000E+00  0.00000000000E+00 -0.17598506659E+04  0.17598506659E+04  0.50400001928E-02 0.  1.
    10030    2    1    2    0    0  0.00000000000E+00  0.00000000000E+00 -0.12920545128E+04  0.22276468191E+04  0.18146640148E+04 0.  0.
        5    1    3    3  502    0  0.11990345786E+03 -0.38225155937E+03 -0.16453837816E+04  0.16934588783E+04  0.46999998093E+01 0.  1.
       -5    1    3    3    0  502 -0.11990345786E+03  0.38225155937E+03  0.35332926881E+03  0.53418794075E+03  0.46999998093E+01 0. -1.
</event>
<event>
 5   0  0.3308275E-04  0.1603714E+04  0.7818609E-02  0.8818270E-01
       -1   -1    0    0    0  501  0.00000000000E+00  0.00000000000E+00  0.11110092327E+04  0.11110092327E+04  0.50400001928E-02 0. -1.
        1   -1    0    0  501    0  0.00000000000E+00  0.00000000000E+00 -0.57873014433E+03  0.57873014435E+03  0.50400001928E-02 0.  1.
    10030    2    1    2    0    0  0.00000000000E+00  0.00000000000E+00  0.53227908836E+03  0.16897393771E+04  0.16037138568E+04 0.  0.
        3    1    3    3  502    0  0.54968721254E+01  0.32896334134E+03  0.10366154705E+04  0.10875747052E+04  0.10100000352E+00 0. -1.
       -3    1    3    3    0  502 -0.54968721254E+01 -0.32896334134E+03 -0.50433638210E+03  0.60216467187E+03  0.10100000352E+00 0.  1.
</event>
<event>
 5   0  0.6774451E-04  0.1795159E+04  0.7818609E-02  0.8708878E-01
        2   -1    0    0  501    0  0.00000000000E+00  0.00000000000E+00  0.12310203987E+04  0.12310203987E+04  0.25500000920E-02 0.  1.
       -2   -1    0    0    0  501  0.00000000000E+00  0.00000000000E+00 -0.65445647657E+03  0.65445647657E+03  0.25500000920E-02 0. -1.
    10030    2    1    2    0    0  0.00000000000E+00  0.00000000000E+00  0.57656392216E+03  0.18854768753E+04  0.17951593497E+04 0.  0.
        4    1    3    3  502    0  0.60159612211E+03 -0.25498264549E+03  0.93464075950E+03  0.11403898482E+04  0.12699999809E+01 0.  1.
       -4    1    3    3    0  502 -0.60159612211E+03  0.25498264549E+03 -0.35807683734E+03  0.74508702711E+03  0.12699999809E+01 0. -1.
</event>
<event>
 5   0  0.3308275E-04  0.1763918E+04  0.7818609E-02  0.8725726E-01
       -1   -1    0    0    0  501  0.00000000000E+00  0.00000000000E+00  0.37839248278E+03  0.37839248282E+03  0.50400001928E-02 0.  1.
        1   -1    0    0  501    0  0.00000000000E+00  0.00000000000E+00 -0.20556735242E+04  0.20556735242E+04  0.50400001928E-02 0. -1.
    10030    2    1    2    0    0  0.00000000000E+00  0.00000000000E+00 -0.16772810414E+04  0.24340660070E+04  0.17639176950E+04 0.  0.
        3    1    3    3  502    0 -0.59038300149E+03  0.15860603829E+03  0.38606290697E+02  0.61253442329E+03  0.10100000352E+00 0. -1.
       -3    1    3    3    0  502  0.59038300149E+03 -0.15860603829E+03 -0.17158873321E+04  0.18215315837E+04  0.10100000352E+00 0.  1.
</event>
<event>
 5   0  0.3404261E-04  0.1635784E+04  0.7818609E-02  0.8798861E-01
        1   -1    0    0  501    0  0.00000000000E+00  0.00000000000E+00  0.15052199825E+04  0.15052199825E+04  0.50400001928E-02 0.  1.
       -1   -1    0    0    0  501  0.00000000000E+00  0.00000000000E+00 -0.44441819714E+03  0.44441819717E+03  0.50400001928E-02 0. -1.
    10030    2    1    2    0    0  0.00000000000E+00  0.00000000000E+00  0.10608017854E+04  0.19496381797E+04  0.16357837888E+04 0.  0.
        1    1    3    3  502    0 -0.50565867208E+03  0.53280889893E+03  0.95909431125E+03  0.12080719818E+04  0.50400001928E-02 0.  1.
       -1    1    3    3    0  502  0.50565867208E+03 -0.53280889893E+03  0.10170747410E+03  0.74156619782E+03  0.50400001928E-02 0. -1.
</event>
<event>
 5   0  0.3308275E-04  0.1803844E+04  0.7818609E-02  0.8704258E-01
        1   -1    0    0  501    0  0.00000000000E+00  0.00000000000E+00  0.10710499987E+04  0.10710499987E+04  0.50400001928E-02 0. -1.
       -1   -1    0    0    0  501  0.00000000000E+00  0.00000000000E+00 -0.75950071928E+03  0.75950071930E+03  0.50400001928E-02 0.  1.
    10030    2    1    2    0    0  0.00000000000E+00  0.00000000000E+00  0.31154927938E+03  0.18305507180E+04  0.18038439449E+04 0.  0.
        3    1    3    3  502    0  0.36784647266E+03 -0.17940360526E+03 -0.65984527088E+03  0.77646150756E+03  0.10100000352E+00 0.  1.
       -3    1    3    3    0  502 -0.36784647266E+03  0.17940360526E+03  0.97139455026E+03  0.10540892104E+04  0.10100000352E+00 0. -1.
</event>
<event>
 5   0  0.6547153E-04  0.1939136E+04  0.7818609E-02  0.8635617E-01
        2   -1    0    0  501    0  0.00000000000E+00  0.00000000000E+00  0.70629283184E+03  0.70629283184E+03  0.25500000920E-02 0.  1.
       -2   -1    0    0    0  501  0.00000000000E+00  0.00000000000E+00 -0.13309810068E+04  0.13309810068E+04  0.25500000920E-02 0. -1.
    10030    2    1    2    0    0  0.00000000000E+00  0.00000000000E+00 -0.62468817494E+03  0.20372738386E+04  0.19391362452E+04 0.  0.
        5    1    3    3  502    0  0.35781315669E+03  0.30930485165E+03  0.57685874937E+03  0.74598113453E+03  0.46999998093E+01 0.  1.
       -5    1    3    3    0  502 -0.35781315669E+03 -0.30930485165E+03 -0.12015469243E+04  0.12912927041E+04  0.46999998093E+01 0. -1.
</event>
<event>
 5   0  0.3470962E-04  0.1777202E+04  0.7818609E-02  0.8718518E-01
        1   -1    0    0  501    0  0.00000000000E+00  0.00000000000E+00  0.93319062933E+03  0.93319062934E+03  0.50400001928E-02 0. -1.
       -1   -1    0    0    0  501  0.00000000000E+00  0.00000000000E+00 -0.84614227003E+03  0.84614227005E+03  0.50400001928E-02 0.  1.
    10030    2    1    2    0    0  0.00000000000E+00  0.00000000000E+00  0.87048359292E+02  0.17793328994E+04  0.17772023379E+04 0.  0.
        4    1    3    3  502    0 -0.24242828408E+03  0.39668610826E+03  0.80171605110E+03  0.92675864220E+03  0.12699999809E+01 0. -1.
       -4    1    3    3    0  502  0.24242828408E+03 -0.39668610826E+03 -0.71466769180E+03  0.85257425719E+03  0.12699999809E+01 0.  1.
</event>
<event>
 5   0  0.3413839E-04  0.1699770E+04  0.7818609E-02  0.8761495E-01
       -1   -1    0    0    0  501  0.00000000000E+00  0.00000000000E+00  0.10146167964E+04  0.10146167964E+04  0.50400001928E-02 0.  1.
        1   -1    0    0  501    0  0.00000000000E+00  0.00000000000E+00 -0.71189918314E+03  0.71189918316E+03  0.50400001928E-02 0. -1.
    10030    2    1    2    0    0  0.00000000000E+00  0.00000000000E+00  0.30271761329E+03  0.17265159796E+04  0.16997704182E+04 0.  0.
        5    1    3    3  502    0  0.27979967900E+03  0.64929034637E+03  0.63039054654E+03  0.94724872415E+03  0.46999998093E+01 0.  1.
       -5    1    3    3    0  502 -0.27979967900E+03 -0.64929034637E+03 -0.32767293324E+03  0.77926725546E+03  0.46999998093E+01 0. -1.
</event>
<event>
 5   0  0.6547153E-04  0.1805020E+04  0.7818609E-02  0.8703634E-01
       -2   -1    0    0    0  501  0.00000000000E+00  0.00000000000E+00  0.37529142854E+03  0.37529142855E+03  0.25500000920E-02 0. -1.
        2   -1    0    0  501    0  0.00000000000E+00  0.00000000000E+00 -0.21703786508E+04  0.21703786508E+04  0.25500000920E-02 0.  1.
    10030    2    1    2    0    0  0.00000000000E+00  0.00000000000E+00 -0.17950872223E+04  0.25456700794E+04  0.18050202263E+04 0.  0.
        5    1    3    3  502    0  0.74201244635E+03 -0.44913936744E+03 -0.54582650161E+03  0.10248206193E+04  0.46999998093E+01 0.  1.
       -5    1    3    3    0  502 -0.74201244635E+03  0.44913936744E+03 -0.12492607207E+04  0.15208494600E+04  0.46999998093E+01 0. -1.
</event>
<event>
 5   0  0.3413839E-04  0.1812148E+04  0.7818609E-02  0.8699866E-01
        1   -1    0    0  501    0  0.00000000000E+00  0.00000000000E+00  0.11962299060E+04  0.11962299060E+04  0.50400001928E-02 0.  1.
       -1   -1    0    0    0  501  0.00000000000E+00  0.00000000000E+00 -0.68629758687E+03  0.68629758689E+03  0.50400001928E-02 0. -1.
    10030    2    1    2    0    0  0.00000000000E+00  0.00000000000E+00  0.50993231914E+03  0.18825274929E+04  0.18121475634E+04 0.  0.
        5    1    3    3  502    0 -0.27328014378E+03 -0.32337023901E+03 -0.57720538292E+03  0.71584809320E+03  0.46999998093E+01 0. -1.
       -5    1    3    3    0  502  0.27328014378E+03  0.32337023901E+03  0.10871377021E+04  0.11666793997E+04  0.46999998093E+01 0.  1.
</event>
<event>
 5   0  0.6774451E-04  0.1823418E+04  0.7818609E-02  0.8693944E-01
       -2   -1    0    0    0  501  0.00000000000E+00  0.00000000000E+00  0.39034970201E+03  0.39034970202E+03  0.25500000920E-02 0.  1.
        2   -1    0    0  501    0  0.00000000000E+00  0.00000000000E+00 -0.21294074962E+04  0.21294074962E+04  0.25500000920E-02 0. -1.
    10030    2    1    2    0    0  0.00000000000E+00  0.00000000000E+00 -0.17390577942E+04  0.25197571983E+04  0.18234183082E+04 0.  0.
        4    1    3    3  502    0  0.46198673587E+03 -0.67487474787E+03 -0.31277386382E+03  0.87562364759E+03  0.12699999809E+01 0.  1.
       -4    1    3    3    0  502 -0.46198673587E+03  0.67487474787E+03 -0.14262839304E+04  0.16441335507E+04  0.12699999809E+01 0. -1.
</event>
<event>
 5   0  0.3470962E-04  0.1793389E+04  0.7818609E-02  0.8709823E-01
        1   -1    0    0  501    0  0.00000000000E+00  0.00000000000E+00  0.81900998109E+03  0.81900998110E+03  0.50400001928E-02 0.  1.
       -1   -1    0    0    0  501  0.00000000000E+00  0.00000000000E+00 -0.98174707827E+03  0.98174707829E+03  0.50400001928E-02 0. -1.
    10030    2    1    2    0    0  0.00000000000E+00  0.00000000000E+00 -0.16273709719E+03  0.18007570594E+04  0.17933885870E+04 0.  0.
        4    1    3    3  502    0  0.78888566775E+03 -0.37467785350E+03  0.12277677955E+03  0.88192961237E+03  0.12699999809E+01 0.  1.
       -4    1    3    3    0  502 -0.78888566775E+03  0.37467785350E+03 -0.28551387674E+03  0.91882744702E+03  0.12699999809E+01 0. -1.
</event>
<event>
 5   0  0.3377273E-04  0.1807862E+04  0.7818609E-02  0.8702130E-01
        1   -1    0    0  501    0  0.00000000000E+00  0.00000000000E+00  0.60400028537E+03  0.60400028539E+03  0.50400001928E-02 0.  1.
       -1   -1    0    0    0  501  0.00000000000E+00  0.00000000000E+00 -0.13527991160E+04  0.13527991160E+04  0.50400001928E-02 0. -1.
    10030    2    1    2    0    0  0.00000000000E+00  0.00000000000E+00 -0.74879883062E+03  0.19567994014E+04  0.18078617781E+04 0.  0.
        2    1    3    3  502    0  0.43691362090E+03 -0.73925975010E+03 -0.67995482567E+03  0.10953250911E+04  0.25500000920E-02 0. -1.
       -2    1    3    3    0  502 -0.43691362090E+03  0.73925975010E+03 -0.68844004947E+02  0.86147431028E+03  0.25500000920E-02 0.  1.
</event>
<event>
 5   0  0.3308275E-04  0.1769892E+04  0.7818609E-02  0.8722477E-01
        1   -1    0    0  501    0  0.00000000000E+00  0.00000000000E+00  0.88815339553E+03  0.88815339554E+03  0.50400001928E-02 0.  1.
       -1   -1    0    0    0  501  0.00000000000E+00  0.00000000000E+00 -0.88175001516E+03  0.88175001517E+03  0.50400001928E-02 0. -1.
    10030    2    1    2    0    0  0.00000000000E+00  0.00000000000E+00  0.64033803708E+01  0.17699034107E+04  0.17698918272E+04 0.  0.
        3    1    3    3  502    0  0.36183928837E+03 -0.49065242608E+03  0.64465875954E+03  0.88727244986E+03  0.10100000352E+00 0.  1.
       -3    1    3    3    0  502 -0.36183928837E+03  0.49065242608E+03 -0.63825537917E+03  0.88263096086E+03  0.10100000352E+00 0. -1.
</event>
<event>
 5   0  0.6929121E-04  0.1479488E+04  0.7818609E-02  0.8898209E-01
       -2   -1    0    0    0  501  0.00000000000E+00  0.00000000000E+00  0.27583981069E+03  0.27583981070E+03  0.25500000920E-02 0.  1.
        2   -1    0    0  501    0  0.00000000000E+00  0.00000000000E+00 -0.19838358712E+04  0.19838358712E+04  0.25500000920E-02 0. -1.
    10030    2    1    2    0    0  0.00000000000E+00  0.00000000000E+00 -0.17079960605E+04  0.22596756819E+04  0.14794876291E+04 0.  0.
        3    1    3    3  502    0  0.16072970968E+03  0.62040452465E+03 -0.14182555747E+04  0.15563369491E+04  0.10100000352E+00 0. -1.
       -3    1    3    3    0  502 -0.16072970968E+03 -0.62040452465E+03 -0.28974048586E+03  0.70333873285E+03  0.10100000352E+00 0.  1.
</event>
<event>
 5   0  0.3377273E-04  0.1274199E+04  0.7818609E-02  0.9050279E-01
       -1   -1    0    0    0  501  0.00000000000E+00  0.00000000000E+00  0.49396401897E+03  0.49396401899E+03  0.50400001928E-02 0. -1.
        1   -1    0    0  501    0  0.00000000000E+00  0.00000000000E+00 -0.82171160275E+03  0.82171160277E+03  0.50400001928E-02 0.  1.
    10030    2    1    2    0    0  0.00000000000E+00  0.00000000000E+00 -0.32774758378E+03  0.13156756218E+04  0.12741993027E+04 0.  0.
        2    1    3    3  502    0  0.21255872793E+03 -0.42475420981E+03 -0.60231125779E+03  0.76705684459E+03  0.25500000920E-02 0.  1.
       -2    1    3    3    0  502 -0.21255872793E+03  0.42475420981E+03  0.27456367401E+03  0.54861877717E+03  0.25500000920E-02 0. -1.
</event>
<event>
 5   0  0.3377273E-04  0.1797465E+04  0.7818609E-02  0.8707648E-01
       -1   -1    0    0    0  501  0.00000000000E+00  0.00000000000E+00  0.10966005194E+04  0.10966005194E+04  0.50400001928E-02 0. -1.
        1   -1    0    0  501    0  0.00000000000E+00  0.00000000000E+00 -0.73656769242E+03  0.73656769244E+03  0.50400001928E-02 0.  1.
    10030    2    1    2    0    0  0.00000000000E+00  0.00000000000E+00  0.36003282694E+03  0.18331682118E+04  0.17974654534E+04 0.  0.
        2    1    3    3  502    0 -0.35163891558E+03  0.41535082780E+03 -0.54942031251E+03  0.77332329392E+03  0.25500000920E-02 0.  1.
       -2    1    3    3    0  502  0.35163891558E+03 -0.41535082780E+03  0.90945313945E+03  0.10598449179E+04  0.25500000920E-02 0. -1.
</event>
<event>
 5   0  0.6547153E-04  0.1710718E+04  0.7818609E-02  0.8755275E-01
       -2   -1    0    0    0  501  0.00000000000E+00  0.00000000000E+00  0.46510503215E+03  0.46510503216E+03  0.25500000920E-02 0. -1.
        2   -1    0    0  501    0  0.00000000000E+00  0.00000000000E+00 -0.15730624066E+04  0.15730624066E+04  0.25500000920E-02 0.  1.
    10030    2    1    2    0    0  0.00000000000E+00  0.00000000000E+00 -0.11079573744E+04  0.20381674388E+04  0.17107182599E+04 0.  0.
        5    1    3    3  502    0  0.31545242875E+03 -0.61378628862E+03  0.48094268156E+02  0.69179403837E+03  0.46999998093E+01 0. -1.
       -5    1    3    3    0  502 -0.31545242875E+03  0.61378628862E+03 -0.11560516426E+04  0.13463734004E+04  0.46999998093E+01 0.  1.
</event>
<event>
 5   0  0.6774451E-04  0.1816489E+04  0.7818609E-02  0.8697580E-01
       -2   -1    0    0    0  501  0.00000000000E+00  0.00000000000E+00  0.89219657471E+03  0.89219657471E+03  0.25500000920E-02 0.  1.
        2   -1    0    0  501    0  0.00000000000E+00  0.00000000000E+00 -0.92458085777E+03  0.92458085778E+03  0.25500000920E-02 0. -1.
    10030    2    1    2    0    0  0.00000000000E+00  0.00000000000E+00 -0.32384283063E+02  0.18167774325E+04  0.18164887826E+04 0.  0.
        4    1    3    3  502    0 -0.57926679955E+02  0.13875657062E+03  0.87966073385E+03  0.89242002763E+03  0.12699999809E+01 0.  1.
       -4    1    3    3    0  502  0.57926679955E+02 -0.13875657062E+03 -0.91204501691E+03  0.92435740486E+03  0.12699999809E+01 0. -1.
</event>
<event>
 5   0  0.3377273E-04  0.1789594E+04  0.7818609E-02  0.8711853E-01
        1   -1    0    0  501    0  0.00000000000E+00  0.00000000000E+00  0.16339194920E+04  0.16339194920E+04  0.50400001928E-02 0.  1.
       -1   -1    0    0    0  501  0.00000000000E+00  0.00000000000E+00 -0.49002514540E+03  0.49002514542E+03  0.50400001928E-02 0. -1.
    10030    2    1    2    0    0  0.00000000000E+00  0.00000000000E+00  0.11438943466E+04  0.21239446375E+04  0.17895939614E+04 0.  0.
        2    1    3    3  502    0 -0.13713793872E+03  0.62854758630E+01 -0.47745213467E+03  0.49679660059E+03  0.25500000920E-02 0. -1.
       -2    1    3    3    0  502  0.13713793872E+03 -0.62854758630E+01  0.16213464813E+04  0.16271480369E+04  0.25500000920E-02 0.  1.
</event>
<event>
 5   0  0.3308275E-04  0.1896814E+04  0.7818609E-02  0.8656444E-01
       -1   -1    0    0    0  501  0.00000000000E+00  0.00000000000E+00  0.10125911857E+04  0.10125911857E+04  0.50400001928E-02 0.  1.
        1   -1    0    0  501    0  0.00000000000E+00  0.00000000000E+00 -0.88829097973E+03  0.88829097975E+03  0.50400001928E-02 0. -1.
    10030    2    1    2    0    0  0.00000000000E+00  0.00000000000E+00  0.12430020600E+03  0.19008821655E+04  0.18968137668E+04 0.  0.
        3    1    3    3  502    0 -0.28412304468E+03  0.90415044342E+03  0.97746387316E+02  0.95276875227E+03  0.10100000352E+00 0.  1.
       -3    1    3    3    0  502  0.28412304468E+03 -0.90415044342E+03  0.26553818687E+02  0.94811341323E+03  0.10100000352E+00 0. -1.
</event>
<event>
 5   0  0.3308275E-04  0.1779447E+04  0.7818609E-02  0.8717306E-01
       -1   -1    0    0    0  501  0.00000000000E+00  0.00000000000E+00  0.61342381959E+03  0.61342381961E+03  0.50400001928E-02 0.  1.
        1   -1    0    0  501    0  0.00000000000E+00  0.00000000000E+00 -0.12904753129E+04  0.12904753129E+04  0.50400001928E-02 0. -1.
    10030    2    1    2    0    0  0.00000000000E+00  0.00000000000E+00 -0.67705149328E+03  0.19038991325E+04  0.17794474373E+04 0.  0.
        3    1    3    3  502    0  0.54774836760E+03 -0.69513702937E+03 -0.24067157984E+03  0.91715134158E+03  0.10100000352E+00 0. -1.
       -3    1    3    3    0  502 -0.54774836760E+03  0.69513702937E+03 -0.43637991345E+03  0.98674779092E+03  0.10100000352E+00 0.  1.
</event>
<event>
 5   0  0.6853162E-04  0.1846793E+04  0.7818609E-02  0.8681804E-01
       -2   -1    0    0    0  501  0.00000000000E+00  0.00000000000E+00  0.72305109538E+03  0.72305109539E+03  0.25500000920E-02 0. -1.
        2   -1    0    0  501    0  0.00000000000E+00  0.00000000000E+00 -0.11792542800E+04  0.11792542800E+04  0.25500000920E-02 0.  1.
    10030    2    1    2    0    0  0.00000000000E+00  0.00000000000E+00 -0.45620318457E+03  0.19023053753E+04  0.18467930029E+04 0.  0.
        2    1    3    3  502    0  0.86101785648E+03 -0.40909503610E+02  0.11296417752E+03  0.86935967360E+03  0.25500000920E-02 0. -1.
       -2    1    3    3    0  502 -0.86101785648E+03  0.40909503610E+02 -0.56916736209E+03  0.10329457017E+04  0.25500000920E-02 0.  1.
</event>
<event>
 5   0  0.3404261E-04  0.2051472E+04  0.7818609E-02  0.8582927E-01
       -1   -1    0    0    0  501  0.00000000000E+00  0.00000000000E+00  0.41783538013E+03  0.41783538016E+03  0.50400001928E-02 0.  1.
        1   -1    0    0  501    0  0.00000000000E+00  0.00000000000E+00 -0.25180600632E+04  0.25180600632E+04  0.50400001928E-02 0. -1.
    10030    2    1    2    0    0  0.00000000000E+00  0.00000000000E+00 -0.21002246831E+04  0.29358954434E+04  0.20514722360E+04 0.  0.
        1    1    3    3  502    0  0.69479369193E+03  0.75433577469E+03 -0.10224414783E+04  0.14481530692E+04  0.50400001928E-02 0.  1.
       -1    1    3    3    0  502 -0.69479369193E+03 -0.75433577469E+03 -0.10777832047E+04  0.14877423741E+04  0.50400001928E-02 0. -1.
</event>
<event>
 5   0  0.6547153E-04  0.1846729E+04  0.7818609E-02  0.8681837E-01
        2   -1    0    0  501    0  0.00000000000E+00  0.00000000000E+00  0.70491964466E+03  0.70491964467E+03  0.25500000920E-02 0.  1.
       -2   -1    0    0    0  501  0.00000000000E+00  0.00000000000E+00 -0.12095022991E+04  0.12095022991E+04  0.25500000920E-02 0. -1.
    10030    2    1    2    0    0  0.00000000000E+00  0.00000000000E+00 -0.50458265441E+03  0.19144219437E+04  0.18467289253E+04 0.  0.
        5    1    3    3  502    0 -0.64816429990E+03  0.25765929643E+03  0.37492779661E+03  0.79189533107E+03  0.46999998093E+01 0.  1.
       -5    1    3    3    0  502  0.64816429990E+03 -0.25765929643E+03 -0.87951045102E+03  0.11225266127E+04  0.46999998093E+01 0. -1.
</event>
<event>
 5   0  0.3308275E-04  0.1856739E+04  0.7818609E-02  0.8676695E-01
        1   -1    0    0  501    0  0.00000000000E+00  0.00000000000E+00  0.21897448718E+04  0.21897448718E+04  0.50400001928E-02 0.  1.
       -1   -1    0    0    0  501  0.00000000000E+00  0.00000000000E+00 -0.39359370095E+03  0.39359370099E+03  0.50400001928E-02 0. -1.
    10030    2    1    2    0    0  0.00000000000E+00  0.00000000000E+00  0.17961511709E+04  0.25833385728E+04  0.18567388489E+04 0.  0.
        3    1    3    3  502    0  0.73639537454E+03  0.33044014449E+03  0.15362719759E+04  0.17353963325E+04  0.10100000352E+00 0.  1.
       -3    1    3    3    0  502 -0.73639537454E+03 -0.33044014449E+03  0.25987919499E+03  0.84794224032E+03  0.10100000352E+00 0. -1.
</event>
<event>
 5   0  0.6853162E-04  0.1826996E+04  0.7818609E-02  0.8692074E-01
        2   -1    0    0  501    0  0.00000000000E+00  0.00000000000E+00  0.64317402961E+03  0.64317402961E+03  0.25500000920E-02 0.  1.
       -2   -1    0    0    0  501  0.00000000000E+00  0.00000000000E+00 -0.12974376357E+04  0.12974376357E+04  0.25500000920E-02 0. -1.
    10030    2    1    2    0    0  0.00000000000E+00  0.00000000000E+00 -0.65426360611E+03  0.19406116653E+04  0.18269955581E+04 0.  0.
        2    1    3    3  502    0  0.48879764036E+03 -0.11118448039E+03 -0.11382932919E+04  0.12437832369E+04  0.25500000920E-02 0. -1.
       -2    1    3    3    0  502 -0.48879764036E+03  0.11118448039E+03  0.48402968583E+03  0.69682842843E+03  0.25500000920E-02 0.  1.
</event>
<event>
 5   0  0.2467375E-04  0.1778380E+04  0.7818609E-02  0.8717882E-01
        3   -1    0    0  501    0  0.00000000000E+00  0.00000000000E+00  0.92515792666E+03  0.92515793217E+03  0.10100000352E+00 0. -1.
       -3   -1    0    0    0  501  0.00000000000E+00  0.00000000000E+00 -0.85462063138E+03  0.85462063735E+03  0.10100000352E+00 0.  1.
    10030    2    1    2    0    0  0.00000000000E+00  0.00000000000E+00  0.70537295277E+02  0.17797785695E+04  0.17783802311E+04 0.  0.
        1    1    3    3  502    0  0.43781088216E+03 -0.57192744739E+03 -0.48656218076E+03  0.86920775962E+03  0.50400001928E-02 0.  1.
       -1    1    3    3    0  502 -0.43781088216E+03  0.57192744739E+03  0.55709947604E+03  0.91057080990E+03  0.50400001928E-02 0. -1.
</event>
<event>
 5   0  0.6547153E-04  0.1824359E+04  0.7818609E-02  0.8693452E-01
        2   -1    0    0  501    0  0.00000000000E+00  0.00000000000E+00  0.17771021519E+04  0.17771021519E+04  0.25500000920E-02 0.  1.
       -2   -1    0    0    0  501  0.00000000000E+00  0.00000000000E+00 -0.46821792062E+03  0.46821792063E+03  0.25500000920E-02 0. -1.
    10030    2    1    2    0    0  0.00000000000E+00  0.00000000000E+00  0.13088842312E+04  0.22453200725E+04  0.18243585988E+04 0.  0.
        5    1    3    3  502    0  0.86300668632E+03  0.15725204898E+03  0.34665685992E+03  0.94324006280E+03  0.46999998093E+01 0. -1.
       -5    1    3    3    0  502 -0.86300668632E+03 -0.15725204898E+03  0.96222737133E+03  0.13020800097E+04  0.46999998093E+01 0.  1.
</event>
<event>
 5   0  0.3404261E-04  0.1829244E+04  0.7818609E-02  0.8690901E-01
       -1   -1    0    0    0  501  0.00000000000E+00  0.00000000000E+00  0.72698513097E+03  0.72698513099E+03  0.50400001928E-02 0.  1.
        1   -1    0    0  501    0  0.00000000000E+00  0.00000000000E+00 -0.11506885194E+04  0.11506885194E+04  0.50400001928E-02 0. -1.
    10030    2    1    2    0    0  0.00000000000E+00  0.00000000000E+00 -0.42370338845E+03  0.18776736504E+04  0.18292440450E+04 0.  0.
        1    1    3    3  502    0  0.17082499418E+03  0.91437165644E+02 -0.11293801545E+04  0.11458802151E+04  0.50400001928E-02 0. -1.
       -1    1    3    3    0  502 -0.17082499418E+03 -0.91437165644E+02  0.70567676603E+03  0.73179343536E+03  0.50400001928E-02 0.  1.
</event>
<event>
 5   0  0.3470962E-04  0.1805752E+04  0.7818609E-02  0.8703247E-01
        1   -1    0    0  501    0  0.00000000000E+00  0.00000000000E+00  0.15801387082E+04  0.15801387082E+04  0.50400001928E-02 0.  1.
       -1   -1    0    0    0  501  0.00000000000E+00  0.00000000000E+00 -0.51589469849E+03  0.51589469851E+03  0.50400001928E-02 0. -1.
    10030    2    1    2    0    0  0.00000000000E+00  0.00000000000E+00  0.10642440097E+04  0.20960334067E+04  0.18057521231E+04 0.  0.
        4    1    3    3  502    0  0.24477844122E+03  0.35843227865E+03  0.14510939825E+04  0.15146172924E+04  0.12699999809E+01 0.  1.
       -4    1    3    3    0  502 -0.24477844122E+03 -0.35843227865E+03 -0.38684997274E+03  0.58141611431E+03  0.12699999809E+01 0. -1.
</event>
<event>
 5   0  0.6929121E-04  0.1917437E+04  0.7818609E-02  0.8646225E-01
       -2   -1    0    0    0  501  0.00000000000E+00  0.00000000000E+00  0.59331941449E+03  0.59331941450E+03  0.25500000920E-02 0.  1.
        2   -1    0    0  501    0  0.00000000000E+00  0.00000000000E+00 -0.15491500291E+04  0.15491500291E+04  0.25500000920E-02 0. -1.
    10030    2    1    2    0    0  0.00000000000E+00  0.00000000000E+00 -0.95583061465E+03  0.21424694436E+04  0.19174366099E+04 0.  0.
        3    1    3    3  502    0  0.48531387763E+03 -0.82072100440E+03 -0.36602145581E+03  0.10213149579E+04  0.10100000352E+00 0. -1.
       -3    1    3    3    0  502 -0.48531387763E+03  0.82072100440E+03 -0.58980915884E+03  0.11211544858E+04  0.10100000352E+00 0.  1.
</event>
<event>
 5   0  0.3413839E-04  0.1760834E+04  0.7818609E-02  0.8727409E-01
       -1   -1    0    0    0  501  0.00000000000E+00  0.00000000000E+00  0.50061307184E+03  0.50061307186E+03  0.50400001928E-02 0. -1.
        1   -1    0    0  501    0  0.00000000000E+00  0.00000000000E+00 -0.15483698354E+04  0.15483698354E+04  0.50400001928E-02 0.  1.
    10030    2    1    2    0    0  0.00000000000E+00  0.00000000000E+00 -0.10477567635E+04  0.20489829072E+04  0.17608340974E+04 0.  0.
        5    1    3    3  502    0 -0.18637982319E+03  0.68216911452E+03 -0.11341202426E+04  0.13365414150E+04  0.46999998093E+01 0.  1.
       -5    1    3    3    0  502  0.18637982319E+03 -0.68216911452E+03  0.86363479131E+02  0.71244149221E+03  0.46999998093E+01 0. -1.
</event>
<event>
 5   0  0.6771967E-04  0.1700919E+04  0.7818609E-02  0.8760840E-01
        2   -1    0    0  501    0  0.00000000000E+00  0.00000000000E+00  0.10196836364E+04  0.10196836364E+04  0.25500000920E-02 0.  1.
       -2   -1    0    0    0  501  0.00000000000E+00  0.00000000000E+00 -0.70931964503E+03  0.70931964503E+03  0.25500000920E-02 0. -1.
    10030    2    1    2    0    0  0.00000000000E+00  0.00000000000E+00  0.31036399140E+03  0.17290032815E+04  0.17009193221E+04 0.  0.
        1    1    3    3  502    0 -0.38327987849E+03 -0.74801994783E+03  0.23253399868E+02  0.84081985480E+03  0.50400001928E-02 0.  1.
       -1    1    3    3    0  502  0.38327987849E+03  0.74801994783E+03  0.28711059153E+03  0.88818342666E+03  0.50400001928E-02 0. -1.
</event>
<event>
 5   0  0.3404261E-04  0.1783778E+04  0.7818609E-02  0.8714974E-01
       -1   -1    0    0    0  501  0.00000000000E+00  0.00000000000E+00  0.63155814656E+03  0.63155814658E+03  0.50400001928E-02 0.  1.
        1   -1    0    0  501    0  0.00000000000E+00  0.00000000000E+00 -0.12595295792E+04  0.12595295792E+04  0.50400001928E-02 0. -1.
    10030    2    1    2    0    0  0.00000000000E+00  0.00000000000E+00 -0.62797143261E+03  0.18910877258E+04  0.17837781999E+04 0.  0.
        1    1    3    3  502    0 -0.65110219413E+03  0.39876979742E+03 -0.80271162310E+03  0.11078345402E+04  0.50400001928E-02 0. -1.
       -1    1    3    3    0  502  0.65110219413E+03 -0.39876979742E+03  0.17474019049E+03  0.78325318559E+03  0.50400001928E-02 0.  1.
</event>
<event>
 5   0  0.6853162E-04  0.1797863E+04  0.7818609E-02  0.8707437E-01
       -2   -1    0    0    0  501  0.00000000000E+00  0.00000000000E+00  0.92276788346E+03  0.92276788346E+03  0.25500000920E-02 0.  1.
        2   -1    0    0  501    0  0.00000000000E+00  0.00000000000E+00 -0.87571119696E+03  0.87571119696E+03  0.25500000920E-02 0. -1.
    10030    2    1    2    0    0  0.00000000000E+00  0.00000000000E+00  0.47056686499E+02  0.17984790804E+04  0.17978633627E+04 0.  0.
        2    1    3    3  502    0  0.69799331286E+03  0.49838797599E+03  0.29286566040E+03  0.90628667344E+03  0.25500000920E-02 0.  1.
       -2    1    3    3    0  502 -0.69799331286E+03 -0.49838797599E+03 -0.24580897390E+03  0.89219240698E+03  0.25500000920E-02 0. -1.
</event>
<event>
 5   0  0.3308275E-04  0.1874359E+04  0.7818609E-02  0.8667726E-01
        1   -1    0    0  501    0  0.00000000000E+00  0.00000000000E+00  0.85879614087E+03  0.85879614088E+03  0.50400001928E-02 0.  1.
       -1   -1    0    0    0  501  0.00000000000E+00  0.00000000000E+00 -0.10227174110E+04  0.10227174110E+04  0.50400001928E-02 0. -1.
    10030    2    1    2    0    0  0.00000000000E+00  0.00000000000E+00 -0.16392127016E+03  0.18815135519E+04  0.18743593741E+04 0.  0.
        3    1    3    3  502    0 -0.93304225696E+02 -0.68031440334E+03  0.55826081631E+03  0.88497938685E+03  0.10100000352E+00 0.  1.
       -3    1    3    3    0  502  0.93304225696E+02  0.68031440334E+03 -0.72218208646E+03  0.99653416506E+03  0.10100000352E+00 0. -1.
</event>
<event>
 5   0  0.6774451E-04  0.2108322E+04  0.7818609E-02  0.8557586E-01
       -2   -1    0    0    0  501  0.00000000000E+00  0.00000000000E+00  0.63259682382E+03  0.63259682382E+03  0.25500000920E-02 0. -1.
        2   -1    0    0  501    0  0.00000000000E+00  0.00000000000E+00 -0.17566567826E+04  0.17566567826E+04  0.25500000920E-02 0.  1.
    10030    2    1    2    0    0  0.00000000000E+00  0.00000000000E+00 -0.11240599588E+04  0.23892536064E+04  0.21083220828E+04 0.  0.
        4    1    3    3  502    0 -0.80183815055E+03 -0.61601062489E+03 -0.22425265358E+03  0.10357144274E+04  0.12699999809E+01 0. -1.
       -4    1    3    3    0  502  0.80183815055E+03  0.61601062489E+03 -0.89980730521E+03  0.13535391790E+04  0.12699999809E+01 0.  1.
</event>
<event>
 5   0  0.6771967E-04  0.1815862E+04  0.7818609E-02  0.8697910E-01
        2   -1    0    0  501    0  0.00000000000E+00  0.00000000000E+00  0.99131267836E+03  0.99131267836E+03  0.25500000920E-02 0. -1.
       -2   -1    0    0    0  501  0.00000000000E+00  0.00000000000E+00 -0.83156250769E+03  0.83156250769E+03  0.25500000920E-02 0.  1.
    10030    2    1    2    0    0  0.00000000000E+00  0.00000000000E+00  0.15975017068E+03  0.18228751861E+04  0.18158617312E+04 0.  0.
        1    1    3    3  502    0 -0.12506895009E+03 -0.42494971762E+03  0.87547252558E+03  0.98116086747E+03  0.50400001928E-02 0. -1.
       -1    1    3    3    0  502  0.12506895009E+03  0.42494971762E+03 -0.71572235490E+03  0.84171431859E+03  0.50400001928E-02 0.  1.
</event>
<event>
 5   0  0.3308275E-04  0.1889089E+04  0.7818609E-02  0.8660307E-01
       -1   -1    0    0    0  501  0.00000000000E+00  0.00000000000E+00  0.72527335089E+03  0.72527335091E+03  0.50400001928E-02 0. -1.
        1   -1    0    0  501    0  0.00000000000E+00  0.00000000000E+00 -0.12301073553E+04  0.12301073553E+04  0.50400001928E-02 0.  1.
    10030    2    1    2    0    0  0.00000000000E+00  0.00000000000E+00 -0.50483400438E+03  0.19553807062E+04  0.18890887576E+04 0.  0.
        3    1    3    3  502    0 -0.10549392484E+03  0.63967158876E+03 -0.96343961072E+03  0.11612599207E+04  0.10100000352E+00 0.  1.
       -3    1    3    3    0  502  0.10549392484E+03 -0.63967158876E+03  0.45860560634E+03  0.79412078553E+03  0.10100000352E+00 0. -1.
</event>
<event>
 5   0  0.3413839E-04  0.1258407E+04  0.7818609E-02  0.9063215E-01
        1   -1    0    0  501    0  0.00000000000E+00  0.00000000000E+00  0.93058384708E+03  0.93058384710E+03  0.50400001928E-02 0. -1.
       -1   -1    0    0    0  501  0.00000000000E+00  0.00000000000E+00 -0.42542897864E+03  0.42542897867E+03  0.50400001928E-02 0.  1.
    10030    2    1    2    0    0  0.00000000000E+00  0.00000000000E+00  0.50515486844E+03  0.13560128258E+04  0.12584074628E+04 0.  0.
        5    1    3    3  502    0 -0.55221589642E+03  0.10001411193E+03  0.55912463463E+03  0.79220430818E+03  0.46999998093E+01 0. -1.
       -5    1    3    3    0  502  0.55221589642E+03 -0.10001411193E+03 -0.53969766186E+02  0.56380851759E+03  0.46999998093E+01 0.  1.
</event>
<event>
 5   0  0.3308275E-04  0.1781096E+04  0.7818609E-02  0.8716417E-01
       -1   -1    0    0    0  501  0.00000000000E+00  0.00000000000E+00  0.49276018240E+03  0.49276018242E+03  0.50400001928E-02 0. -1.
        1   -1    0    0  501    0  0.00000000000E+00  0.00000000000E+00 -0.16094560033E+04  0.16094560033E+04  0.50400001928E-02 0.  1.
    10030    2    1    2    0    0  0.00000000000E+00  0.00000000000E+00 -0.11166958209E+04  0.21022161857E+04  0.17810961050E+04 0.  0.
        3    1    3    3  502    0  0.51688890595E+03 -0.16092712449E+02 -0.14140751236E+04  0.15056698117E+04  0.10100000352E+00 0.  1.
       -3    1    3    3    0  502 -0.51688890595E+03  0.16092712449E+02  0.29737930270E+03  0.59654637402E+03  0.10100000352E+00 0. -1.
</event>
<event>
 5   0  0.3413839E-04  0.1766972E+04  0.7818609E-02  0.8724063E-01
        1   -1    0    0  501    0  0.00000000000E+00  0.00000000000E+00  0.82230438662E+03  0.82230438664E+03  0.50400001928E-02 0.  1.
       -1   -1    0    0    0  501  0.00000000000E+00  0.00000000000E+00 -0.94921981425E+03  0.94921981426E+03  0.50400001928E-02 0. -1.
    10030    2    1    2    0    0  0.00000000000E+00  0.00000000000E+00 -0.12691542763E+03  0.17715242009E+04  0.17669721188E+04 0.  0.
        5    1    3    3  502    0  0.74860082671E+03 -0.46867522540E+03 -0.41818261475E+02  0.88421180814E+03  0.46999998093E+01 0.  1.
       -5    1    3    3    0  502 -0.74860082671E+03  0.46867522540E+03 -0.85097166150E+02  0.88731239276E+03  0.46999998093E+01 0. -1.
</event>
<event>
 5   0  0.6853162E-04  0.1921862E+04  0.7818609E-02  0.8644050E-01
        2   -1    0    0  501    0  0.00000000000E+00  0.00000000000E+00  0.12627024402E+04  0.12627024402E+04  0.25500000920E-02 0.  1.
       -2   -1    0    0    0  501  0.00000000000E+00  0.00000000000E+00 -0.73127974713E+03  0.73127974713E+03  0.25500000920E-02 0. -1.
    10030    2    1    2    0    0  0.00000000000E+00  0.00000000000E+00  0.53142269304E+03  0.19939821873E+04  0.19218623480E+04 0.  0.
        2    1    3    3  502    0 -0.61987896628E+03 -0.15967537406E+03  0.10092944252E+04  0.11951658440E+04  0.25500000920E-02 0.  1.
       -2    1    3    3    0  502  0.61987896628E+03  0.15967537406E+03 -0.47787173217E+03  0.79881634330E+03  0.25500000920E-02 0. -1.
</event>
<event>
 5   0  0.3308275E-04  0.1763087E+04  0.7818609E-02  0.8726179E-01
        1   -1    0    0  501    0  0.00000000000E+00  0.00000000000E+00  0.10791285998E+04  0.10791285998E+04  0.50400001928E-02 0. -1.
       -1   -1    0    0    0  501  0.00000000000E+00  0.00000000000E+00 -0.72013577205E+03  0.72013577206E+03  0.50400001928E-02 0.  1.
    10030    2    1    2    0    0  0.00000000000E+00  0.00000000000E+00  0.35899282777E+03  0.17992643719E+04  0.17630871872E+04 0.  0.
        3    1    3    3  502    0  0.62136113771E+03 -0.10147276436E+03 -0.45020009734E+03  0.77399387802E+03  0.10100000352E+00 0.  1.
       -3    1    3    3    0  502 -0.62136113771E+03  0.10147276436E+03  0.80919292511E+03  0.10252704939E+04  0.10100000352E+00 0. -1.
</event>
<event>
 5   0  0.6771967E-04  0.1808975E+04  0.7818609E-02  0.8701541E-01
       -2   -1    0    0    0  501  0.00000000000E+00  0.00000000000E+00  0.36380637445E+03  0.36380637446E+03  0.25500000920E-02 0.  1.
        2   -1    0    0  501    0  0.00000000000E+00  0.00000000000E+00 -0.22487178654E+04  0.22487178654E+04  0.25500000920E-02 0. -1.
    10030    2    1    2    0    0  0.00000000000E+00  0.00000000000E+00 -0.18849114909E+04  0.26125242399E+04  0.18089752832E+04 0.  0.
        1    1    3    3  502    0  0.53643011331E+03  0.72518607555E+03 -0.84616116795E+03  0.12367864944E+04  0.50400001928E-02 0.  1.
       -1    1    3    3    0  502 -0.53643011331E+03 -0.72518607555E+03 -0.10387503230E+04  0.13757377454E+04  0.50400001928E-02 0. -1.
</event>
<event>
 5   0  0.6774451E-04  0.1700867E+04  0.7818609E-02  0.8760870E-01
        2   -1    0    0  501    0  0.00000000000E+00  0.00000000000E+00  0.86065503176E+03  0.86065503176E+03  0.25500000920E-02 0. -1.
       -2   -1    0    0    0  501  0.00000000000E+00  0.00000000000E+00 -0.84033333013E+03  0.84033333013E+03  0.25500000920E-02 0.  1.
    10030    2    1    2    0    0  0.00000000000E+00  0.00000000000E+00  0.20321701629E+02  0.17009883619E+04  0.17008669659E+04 0.  0.
        4    1    3    3  502    0  0.22340241178E+03 -0.56083859075E+02  0.82886539358E+03  0.86027524107E+03  0.12699999809E+01 0. -1.
       -4    1    3    3    0  502 -0.22340241178E+03  0.56083859075E+02 -0.80854369195E+03  0.84071312082E+03  0.12699999809E+01 0.  1.
</event>
<event>
 5   0  0.3308275E-04  0.1754698E+04  0.7818609E-02  0.8730769E-01
        1   -1    0    0  501    0  0.00000000000E+00  0.00000000000E+00  0.11691989268E+04  0.11691989268E+04  0.50400001928E-02 0.  1.
       -1   -1    0    0    0  501  0.00000000000E+00  0.00000000000E+00 -0.65834925706E+03  0.65834925707E+03  0.50400001928E-02 0. -1.
    10030    2    1    2    0    0  0.00000000000E+00  0.00000000000E+00  0.51084966974E+03  0.18275481839E+04  0.17546979738E+04 0.  0.
        3    1    3    3  502    0  0.90148645253E+02  0.31234902078E+03 -0.59330151262E+03  0.67653187959E+03  0.10100000352E+00 0. -1.
       -3    1    3    3    0  502 -0.90148645253E+02 -0.31234902078E+03  0.11041511824E+04  0.11510163043E+04  0.10100000352E+00 0.  1.
</event>
<event>
 5   0  0.6929121E-04  0.1767708E+04  0.7818609E-02  0.8723663E-01
       -2   -1    0    0    0  501  0.00000000000E+00  0.00000000000E+00  0.98191217124E+03  0.98191217124E+03  0.25500000920E-02 0.  1.
        2   -1    0    0  501    0  0.00000000000E+00  0.00000000000E+00 -0.79558824568E+03  0.79558824568E+03  0.25500000920E-02 0. -1.
    10030    2    1    2    0    0  0.00000000000E+00  0.00000000000E+00  0.18632392556E+03  0.17775004169E+04  0.17677078738E+04 0.  0.
        3    1    3    3  502    0  0.54941154745E+03  0.38099781161E+02 -0.60196575878E+03  0.81588444448E+03  0.10100000352E+00 0. -1.
       -3    1    3    3    0  502 -0.54941154745E+03 -0.38099781161E+02  0.78828968435E+03  0.96161597244E+03  0.10100000352E+00 0.  1.
</event>
<event>
 5   0  0.6929121E-04  0.1774515E+04  0.7818609E-02  0.8719971E-01
       -2   -1    0    0    0  501  0.00000000000E+00  0.00000000000E+00  0.90920380886E+03  0.90920380887E+03  0.25500000920E-02 0. -1.
        2   -1    0    0  501    0  0.00000000000E+00  0.00000000000E+00 -0.86584055801E+03  0.86584055801E+03  0.25500000920E-02 0.  1.
    10030    2    1    2    0    0  0.00000000000E+00  0.00000000000E+00  0.43363250858E+02  0.17750443669E+04  0.17745146189E+04 0.  0.
        3    1    3    3  502    0  0.17701166051E+01  0.46384364617E+03 -0.73489822820E+03  0.86903939923E+03  0.10100000352E+00 0.  1.
       -3    1    3    3    0  502 -0.17701166051E+01 -0.46384364617E+03  0.77826147906E+03  0.90600496764E+03  0.10100000352E+00 0. -1.
</event>
<event>
 5   0  0.3377273E-04  0.1811944E+04  0.7818609E-02  0.8699974E-01
       -1   -1    0    0    0  501  0.00000000000E+00  0.00000000000E+00  0.87875990873E+03  0.87875990875E+03  0.50400001928E-02 0.  1.
        1   -1    0    0  501    0  0.00000000000E+00  0.00000000000E+00 -0.93402645278E+03  0.93402645279E+03  0.50400001928E-02 0. -1.
    10030    2    1    2    0    0  0.00000000000E+00  0.00000000000E+00 -0.55266544048E+02  0.18127863615E+04  0.18119437082E+04 0.  0.
        2    1    3    3  502    0 -0.30221996768E+03 -0.37178768805E+03 -0.79690047907E+03  0.92984588368E+03  0.25500000920E-02 0. -1.
       -2    1    3    3    0  502  0.30221996768E+03  0.37178768805E+03  0.74163393503E+03  0.88294047786E+03  0.25500000920E-02 0.  1.
</event>
<event>
 5   0  0.3413839E-04  0.1796282E+04  0.7818609E-02  0.8708279E-01
        1   -1    0    0  501    0  0.00000000000E+00  0.00000000000E+00  0.13254888167E+04  0.13254888167E+04  0.50400001928E-02 0. -1.
       -1   -1    0    0    0  501  0.00000000000E+00  0.00000000000E+00 -0.60857322915E+03  0.60857322917E+03  0.50400001928E-02 0.  1.
    10030    2    1    2    0    0  0.00000000000E+00  0.00000000000E+00  0.71691558750E+03  0.19340620458E+04  0.17962817255E+04 0.  0.
        5    1    3    3  502    0  0.63463672512E+03 -0.18912979132E+02 -0.32549315467E+03  0.71350498063E+03  0.46999998093E+01 0.  1.
       -5    1    3    3    0  502 -0.63463672512E+03  0.18912979132E+02  0.10424087422E+04  0.12205570652E+04  0.46999998093E+01 0. -1.
</event>
<event>
 5   0  0.3404261E-04  0.1788706E+04  0.7818609E-02  0.8712328E-01
        1   -1    0    0  501    0  0.00000000000E+00  0.00000000000E+00  0.15526304186E+04  0.15526304186E+04  0.50400001928E-02 0. -1.
       -1   -1    0    0    0  501  0.00000000000E+00  0.00000000000E+00 -0.51516937139E+03  0.51516937142E+03  0.50400001928E-02 0.  1.
    10030    2    1    2    0    0  0.00000000000E+00  0.00000000000E+00  0.10374610472E+04  0.20677997900E+04  0.17887063893E+04 0.  0.
        1    1    3    3  502    0  0.20569164488E+03 -0.13004646204E+03 -0.47615913480E+03  0.53474167291E+03  0.50400001928E-02 0.  1.
       -1    1    3    3    0  502 -0.20569164488E+03  0.13004646204E+03  0.15136201820E+04  0.15330581171E+04  0.50400001928E-02 0. -1.
</event>
<event>
 5   0  0.6547153E-04  0.1707384E+04  0.7818609E-02  0.8757164E-01
       -2   -1    0    0    0  501  0.00000000000E+00  0.00000000000E+00  0.39573358553E+03  0.39573358553E+03  0.25500000920E-02 0.  1.
        2   -1    0    0  501    0  0.00000000000E+00  0.00000000000E+00 -0.18416182645E+04  0.18416182645E+04  0.25500000920E-02 0. -1.
    10030    2    1    2    0    0  0.00000000000E+00  0.00000000000E+00 -0.14458846790E+04  0.22373518500E+04  0.17073841969E+04 0.  0.
        5    1    3    3  502    0 -0.36432806945E+03  0.50680725974E+03 -0.14861063323E+04  0.16118693066E+04  0.46999998093E+01 0. -1.
       -5    1    3    3    0  502  0.36432806945E+03 -0.50680725974E+03  0.40221653340E+02  0.62548254341E+03  0.46999998093E+01 0.  1.
</event>
<event>
 5   0  0.6929121E-04  0.1808459E+04  0.7818609E-02  0.8701814E-01
       -2   -1    0    0    0  501  0.00000000000E+00  0.00000000000E+00  0.45733970137E+03  0.45733970138E+03  0.25500000920E-02 0. -1.
        2   -1    0    0  501    0  0.00000000000E+00  0.00000000000E+00 -0.17877987423E+04  0.17877987423E+04  0.25500000920E-02 0.  1.
    10030    2    1    2    0    0  0.00000000000E+00  0.00000000000E+00 -0.13304590410E+04  0.22451384437E+04  0.18084593918E+04 0.  0.
        3    1    3    3  502    0 -0.23193448411E+03  0.79505441334E+03 -0.21465102606E+03  0.85555841313E+03  0.10100000352E+00 0. -1.
       -3    1    3    3    0  502  0.23193448411E+03 -0.79505441334E+03 -0.11158080149E+04  0.13895800306E+04  0.10100000352E+00 0.  1.
</event>
<event>
 5   0  0.6774451E-04  0.1816570E+04  0.7818609E-02  0.8697537E-01
       -2   -1    0    0    0  501  0.00000000000E+00  0.00000000000E+00  0.47481237108E+03  0.47481237109E+03  0.25500000920E-02 0. -1.
        2   -1    0    0  501    0  0.00000000000E+00  0.00000000000E+00 -0.17374904449E+04  0.17374904449E+04  0.25500000920E-02 0.  1.
    10030    2    1    2    0    0  0.00000000000E+00  0.00000000000E+00 -0.12626780738E+04  0.22123028160E+04  0.18165703487E+04 0.  0.
        4    1    3    3  502    0 -0.14547105533E+03  0.79416849305E+03 -0.12462888793E+03  0.81694516088E+03  0.12699999809E+01 0.  1.
       -4    1    3    3    0  502  0.14547105533E+03 -0.79416849305E+03 -0.11380491859E+04  0.13953576551E+04  0.12699999809E+01 0. -1.
</event>
<event>
 5   0  0.6929121E-04  0.1804051E+04  0.7818609E-02  0.8704148E-01
       -2   -1    0    0    0  501  0.00000000000E+00  0.00000000000E+00  0.12653008777E+04  0.12653008777E+04  0.25500000920E-02 0. -1.
        2   -1    0    0  501    0  0.00000000000E+00  0.00000000000E+00 -0.64304893248E+03  0.64304893248E+03  0.25500000920E-02 0.  1.
    10030    2    1    2    0    0  0.00000000000E+00  0.00000000000E+00  0.62225194524E+03  0.19083498102E+04  0.18040514169E+04 0.  0.
        3    1    3    3  502    0 -0.86898615962E+02 -0.65523012737E+03  0.96043084432E+03  0.11658924934E+04  0.10100000352E+00 0. -1.
       -3    1    3    3    0  502  0.86898615962E+02  0.65523012737E+03 -0.33817889908E+03  0.74245731679E+03  0.10100000352E+00 0.  1.
</event>
<event>
 5   0  0.3413839E-04  0.1727440E+04  0.7818609E-02  0.8745867E-01
        1   -1    0    0  501    0  0.00000000000E+00  0.00000000000E+00  0.16993815056E+04  0.16993815056E+04  0.50400001928E-02 0. -1.
       -1   -1    0    0    0  501  0.00000000000E+00  0.00000000000E+00 -0.43899063143E+03  0.43899063146E+03  0.50400001928E-02 0.  1.
    10030    2    1    2    0    0  0.00000000000E+00  0.00000000000E+00  0.12603908742E+04  0.21383721371E+04  0.17274403726E+04 0.  0.
        5    1    3    3  502    0  0.85680804726E+03  0.51837760237E+02  0.51156959726E+03  0.99926609373E+03  0.46999998093E+01 0. -1.
       -5    1    3    3    0  502 -0.85680804726E+03 -0.51837760237E+02  0.74882127694E+03  0.11391060434E+04  0.46999998093E+01 0.  1.
</event>
<event>
 5   0  0.3470962E-04  0.1793487E+04  0.7818609E-02  0.8709771E-01
       -1   -1    0    0    0  501  0.00000000000E+00  0.00000000000E+00  0.65242024452E+03  0.65242024454E+03  0.50400001928E-02 0.  1.
        1   -1    0    0  501    0  0.00000000000E+00  0.00000000000E+00 -0.12325622863E+04  0.12325622863E+04  0.50400001928E-02 0. -1.
    10030    2    1    2    0    0  0.00000000000E+00  0.00000000000E+00 -0.58014204179E+03  0.18849825309E+04  0.17934866470E+04 0.  0.
        4    1    3    3  502    0 -0.13822259651E+02 -0.54675578255E+03  0.45682630745E+03  0.71261829102E+03  0.12699999809E+01 0.  1.
       -4    1    3    3    0  502  0.13822259651E+02  0.54675578255E+03 -0.10369683492E+04  0.11723642398E+04  0.12699999809E+01 0. -1.
</event>
<event>
 5   0  0.3413839E-04  0.1788563E+04  0.7818609E-02  0.8712405E-01
        1   -1    0    0  501    0  0.00000000000E+00  0.00000000000E+00  0.63227425197E+03  0.63227425199E+03  0.50400001928E-02 0. -1.
       -1   -1    0    0    0  501  0.00000000000E+00  0.00000000000E+00 -0.12648613823E+04  0.12648613823E+04  0.50400001928E-02 0.  1.
    10030    2    1    2    0    0  0.00000000000E+00  0.00000000000E+00 -0.63258713030E+03  0.18971356343E+04  0.17885628693E+04 0.  0.
        5    1    3    3  502    0  0.69403743640E+03  0.45221954039E+03 -0.67368423742E+03  0.10677373355E+04  0.46999998093E+01 0.  1.
       -5    1    3    3    0  502 -0.69403743640E+03 -0.45221954039E+03  0.41097107125E+02  0.82939829879E+03  0.46999998093E+01 0. -1.
</event>
<event>
 5   0  0.3470962E-04  0.1660018E+04  0.7818609E-02  0.8784502E-01
        1   -1    0    0  501    0  0.00000000000E+00  0.00000000000E+00  0.99669293828E+03  0.99669293830E+03  0.50400001928E-02 0.  1.
       -1   -1    0    0    0  501  0.00000000000E+00  0.00000000000E+00 -0.69120079792E+03  0.69120079793E+03  0.50400001928E-02 0. -1.
    10030    2    1    2    0    0  0.00000000000E+00  0.00000000000E+00  0.30549214037E+03  0.16878937362E+04  0.16600180171E+04 0.  0.
        4    1    3    3  502    0 -0.37592118236E+03  0.73683611345E+03  0.83267461053E+02  0.83137192423E+03  0.12699999809E+01 0. -1.
       -4    1    3    3    0  502  0.37592118236E+03 -0.73683611345E+03  0.22222467931E+03  0.85652181200E+03  0.12699999809E+01 0.  1.
</event>
<event>
 5   0  0.6929121E-04  0.1799940E+04  0.7818609E-02  0.8706331E-01
       -2   -1    0    0    0  501  0.00000000000E+00  0.00000000000E+00  0.51587419230E+03  0.51587419230E+03  0.25500000920E-02 0. -1.
        2   -1    0    0  501    0  0.00000000000E+00  0.00000000000E+00 -0.15700457211E+04  0.15700457211E+04  0.25500000920E-02 0.  1.
    10030    2    1    2    0    0  0.00000000000E+00  0.00000000000E+00 -0.10541715288E+04  0.20859199134E+04  0.17999400749E+04 0.  0.
        3    1    3    3  502    0  0.66703875751E+03 -0.59304060916E+03 -0.39339571653E+03  0.97539636462E+03  0.10100000352E+00 0. -1.
       -3    1    3    3    0  502 -0.66703875751E+03  0.59304060916E+03 -0.66077581230E+03  0.11105235488E+04  0.10100000352E+00 0.  1.
</event>
<event>
 5   0  0.3308275E-04  0.1801421E+04  0.7818609E-02  0.8705544E-01
        1   -1    0    0  501    0  0.00000000000E+00  0.00000000000E+00  0.85992337367E+03  0.85992337368E+03  0.50400001928E-02 0. -1.
       -1   -1    0    0    0  501  0.00000000000E+00  0.00000000000E+00 -0.94343263943E+03  0.94343263945E+03  0.50400001928E-02 0.  1.
    10030    2    1    2    0    0  0.00000000000E+00  0.00000000000E+00 -0.83509265763E+02  0.18033560131E+04  0.18014214145E+04 0.  0.
        3    1    3    3  502    0 -0.88478591663E+02 -0.49374594176E+03 -0.79066649741E+03  0.93635839107E+03  0.10100000352E+00 0.  1.
       -3    1    3    3    0  502  0.88478591663E+02  0.49374594176E+03  0.70715723165E+03  0.86699762206E+03  0.10100000352E+00 0. -1.
</event>
<event>
 5   0  0.6547153E-04  0.1730768E+04  0.7818609E-02  0.8744008E-01
        2   -1    0    0  501    0  0.00000000000E+00  0.00000000000E+00  0.96889648258E+03  0.96889648259E+03  0.25500000920E-02 0.  1.
       -2   -1    0    0    0  501  0.00000000000E+00  0.00000000000E+00 -0.77293013263E+03  0.77293013263E+03  0.25500000920E-02 0. -1.
    10030    2    1    2    0    0  0.00000000000E+00  0.00000000000E+00  0.19596634996E+03  0.17418266152E+04  0.17307677912E+04 0.  0.
        5    1    3    3  502    0 -0.43515813837E+02 -0.32361133352E+03  0.90450835218E+03  0.96165241662E+03  0.46999998093E+01 0.  1.
       -5    1    3    3    0  502  0.43515813837E+02  0.32361133352E+03 -0.70854200222E+03  0.78017419859E+03  0.46999998093E+01 0. -1.
</event>
<event>
 5   0  0.6929121E-04  0.1796981E+04  0.7818609E-02  0.8707907E-01
        2   -1    0    0  501    0  0.00000000000E+00  0.00000000000E+00  0.10871875809E+04  0.10871875809E+04  0.25500000920E-02 0. -1.
       -2   -1    0    0    0  501  0.00000000000E+00  0.00000000000E+00 -0.74254463025E+03  0.74254463025E+03  0.25500000920E-02 0.  1.
    10030    2    1    2    0    0  0.00000000000E+00  0.00000000000E+00  0.34464295064E+03  0.18297322111E+04  0.17969811354E+04 0.  0.
        3    1    3    3  502    0 -0.59116210008E+03  0.11455658050E+03 -0.50668267586E+03  0.78697089078E+03  0.10100000352E+00 0.  1.
       -3    1    3    3    0  502  0.59116210008E+03 -0.11455658050E+03  0.85132562651E+03  0.10427613204E+04  0.10100000352E+00 0. -1.
</event>
<event>
 5   0  0.3308275E-04  0.1665362E+04  0.7818609E-02  0.8781370E-01
        1   -1    0    0  501    0  0.00000000000E+00  0.00000000000E+00  0.13335171365E+04  0.13335171365E+04  0.50400001928E-02 0. -1.
       -1   -1    0    0    0  501  0.00000000000E+00  0.00000000000E+00 -0.51994644926E+03  0.51994644928E+03  0.50400001928E-02 0.  1.
    10030    2    1    2    0    0  0.00000000000E+00  0.00000000000E+00  0.81357068722E+03  0.18534635858E+04  0.16653618228E+04 0.  0.
        3    1    3    3  502    0 -0.26125883564E+03  0.21925982593E+02  0.12863820447E+04  0.13128273699E+04  0.10100000352E+00 0. -1.
       -3    1    3    3    0  502  0.26125883564E+03 -0.21925982593E+02 -0.47281135752E+03  0.54063621587E+03  0.10100000352E+00 0.  1.
</event>
<event>
 5   0  0.6774451E-04  0.1783512E+04  0.7818609E-02  0.8715117E-01
        2   -1    0    0  501    0  0.00000000000E+00  0.00000000000E+00  0.13911380000E+04  0.13911380000E+04  0.25500000920E-02 0. -1.
       -2   -1    0    0    0  501  0.00000000000E+00  0.00000000000E+00 -0.57163890568E+03  0.57163890569E+03  0.25500000920E-02 0.  1.
    10030    2    1    2    0    0  0.00000000000E+00  0.00000000000E+00  0.81949909435E+03  0.19627769057E+04  0.17835118211E+04 0.  0.
        4    1    3    3  502    0 -0.74482474002E+03  0.39774303337E+03  0.72539442231E+03  0.11131765784E+04  0.12699999809E+01 0. -1.
       -4    1    3    3    0  502  0.74482474002E+03 -0.39774303337E+03  0.94104672039E+02  0.84960032730E+03  0.12699999809E+01 0.  1.
</event>
<event>
 5   0  0.2467375E-04  0.1698116E+04  0.7818609E-02  0.8762439E-01
        4   -1    0    0  501    0  0.00000000000E+00  0.00000000000E+00  0.97076024647E+03  0.97076107722E+03  0.12699999809E+01 0. -1.
       -4   -1    0    0    0  501  0.00000000000E+00  0.00000000000E+00 -0.74261183395E+03  0.74261291991E+03  0.12699999809E+01 0.  1.
    10030    2    1    2    0    0  0.00000000000E+00  0.00000000000E+00  0.22814841253E+03  0.17133739971E+04  0.16981162374E+04 0.  0.
        2    1    3    3  502    0 -0.16391788977E+03  0.83036612913E+03  0.18192953113E+03  0.86572243664E+03  0.25500000920E-02 0. -1.
       -2    1    3    3    0  502  0.16391788977E+03 -0.83036612913E+03  0.46218881401E+02  0.84765156049E+03  0.25500000920E-02 0.  1.
</event>
<event>
 5   0  0.3377273E-04  0.1652019E+04  0.7818609E-02  0.8789213E-01
       -1   -1    0    0    0  501  0.00000000000E+00  0.00000000000E+00  0.23444500291E+03  0.23444500296E+03  0.50400001928E-02 0. -1.
        1   -1    0    0  501    0  0.00000000000E+00  0.00000000000E+00 -0.29102421169E+04  0.29102421170E+04  0.50400001928E-02 0.  1.
    10030    2    1    2    0    0  0.00000000000E+00  0.00000000000E+00 -0.26757971140E+04  0.31446871199E+04  0.16520190334E+04 0.  0.
        2    1    3    3  502    0 -0.15034066784E+03 -0.66305253940E+03 -0.44495541279E+03  0.81254311011E+03  0.25500000920E-02 0. -1.
       -2    1    3    3    0  502  0.15034066784E+03  0.66305253940E+03 -0.22308417012E+04  0.23321440098E+04  0.25500000920E-02 0.  1.
</event>
<event>
 5   0  0.3470962E-04  0.1860199E+04  0.7818609E-02  0.8674925E-01
        1   -1    0    0  501    0  0.00000000000E+00  0.00000000000E+00  0.11251179166E+04  0.11251179166E+04  0.50400001928E-02 0. -1.
       -1   -1    0    0    0  501  0.00000000000E+00  0.00000000000E+00 -0.76888393611E+03  0.76888393612E+03  0.50400001928E-02 0.  1.
    10030    2    1    2    0    0  0.00000000000E+00  0.00000000000E+00  0.35623398047E+03  0.18940018527E+04  0.18601990133E+04 0.  0.
        4    1    3    3  502    0  0.13016588984E+03 -0.76547401599E+01  0.11157650134E+04  0.11233587726E+04  0.12699999809E+01 0. -1.
       -4    1    3    3    0  502 -0.13016588984E+03  0.76547401599E+01 -0.75953103297E+03  0.77064308008E+03  0.12699999809E+01 0.  1.
</event>
<event>
 5   0  0.3308275E-04  0.1788400E+04  0.7818609E-02  0.8712493E-01
        1   -1    0    0  501    0  0.00000000000E+00  0.00000000000E+00  0.10057613139E+04  0.10057613139E+04  0.50400001928E-02 0. -1.
       -1   -1    0    0    0  501  0.00000000000E+00  0.00000000000E+00 -0.79501352434E+03  0.79501352435E+03  0.50400001928E-02 0.  1.
    10030    2    1    2    0    0  0.00000000000E+00  0.00000000000E+00  0.21074778955E+03  0.18007748383E+04  0.17884002313E+04 0.  0.
        3    1    3    3  502    0 -0.37937114251E+03 -0.64789405265E+03 -0.38368703028E+03  0.84315177438E+03  0.10100000352E+00 0.  1.
       -3    1    3    3    0  502  0.37937114251E+03  0.64789405265E+03  0.59443481983E+03  0.95762306387E+03  0.10100000352E+00 0. -1.
</event>
<event>
 5   0  0.3413839E-04  0.1810547E+04  0.7818609E-02  0.8700711E-01
       -1   -1    0    0    0  501  0.00000000000E+00  0.00000000000E+00  0.90118729837E+03  0.90118729839E+03  0.50400001928E-02 0.  1.
        1   -1    0    0  501    0  0.00000000000E+00  0.00000000000E+00 -0.90937780675E+03  0.90937780676E+03  0.50400001928E-02 0. -1.
    10030    2    1    2    0    0  0.00000000000E+00  0.00000000000E+00 -0.81905083759E+01  0.18105651052E+04  0.18105465792E+04 0.  0.
        5    1    3    3  502    0 -0.49928331207E+03  0.58245444607E+03 -0.48468380787E+03  0.90745660562E+03  0.46999998093E+01 0. -1.
       -5    1    3    3    0  502  0.49928331207E+03 -0.58245444607E+03  0.47649329950E+03  0.90310849953E+03  0.46999998093E+01 0.  1.
</event>
<event>
 5   0  0.6929121E-04  0.1739583E+04  0.7818609E-02  0.8739105E-01
       -2   -1    0    0    0  501  0.00000000000E+00  0.00000000000E+00  0.74553550173E+03  0.74553550173E+03  0.25500000920E-02 0. -1.
        2   -1    0    0  501    0  0.00000000000E+00  0.00000000000E+00 -0.10147563912E+04  0.10147563912E+04  0.25500000920E-02 0.  1.
    10030    2    1    2    0    0  0.00000000000E+00  0.00000000000E+00 -0.26922088945E+03  0.17602918929E+04  0.17395826111E+04 0.  0.
        3    1    3    3  502    0 -0.49390407252E+03  0.70139943203E+03 -0.27996769540E+03  0.90237703692E+03  0.10100000352E+00 0.  1.
       -3    1    3    3    0  502  0.49390407252E+03 -0.70139943203E+03  0.10746805945E+02  0.85791485599E+03  0.10100000352E+00 0. -1.
</event>
<event>
 5   0  0.3404261E-04  0.1779429E+04  0.7818609E-02  0.8717316E-01
        1   -1    0    0  501    0  0.00000000000E+00  0.00000000000E+00  0.14803559564E+04  0.14803559564E+04  0.50400001928E-02 0.  1.
       -1   -1    0    0    0  501  0.00000000000E+00  0.00000000000E+00 -0.53473088211E+03  0.53473088213E+03  0.50400001928E-02 0. -1.
    10030    2    1    2    0    0  0.00000000000E+00  0.00000000000E+00  0.94562507427E+03  0.20150868385E+04  0.17794291741E+04 0.  0.
        1    1    3    3  502    0  0.54364039893E+03  0.55127713627E+03 -0.23577119954E+02  0.77460134581E+03  0.50400001928E-02 0. -1.
       -1    1    3    3    0  502 -0.54364039893E+03 -0.55127713627E+03  0.96920219422E+03  0.12404854927E+04  0.50400001928E-02 0.  1.
</event>
<event>
 5   0  0.6771967E-04  0.1758045E+04  0.7818609E-02  0.8728934E-01
        2   -1    0    0  501    0  0.00000000000E+00  0.00000000000E+00  0.13629067375E+04  0.13629067375E+04  0.25500000920E-02 0.  1.
       -2   -1    0    0    0  501  0.00000000000E+00  0.00000000000E+00 -0.56693587639E+03  0.56693587640E+03  0.25500000920E-02 0. -1.
    10030    2    1    2    0    0  0.00000000000E+00  0.00000000000E+00  0.79597086106E+03  0.19298426139E+04  0.17580451936E+04 0.  0.
        1    1    3    3  502    0 -0.26755047503E+03  0.41261978298E+03 -0.40180214313E+03  0.63504590719E+03  0.50400001928E-02 0. -1.
       -1    1    3    3    0  502  0.26755047503E+03 -0.41261978298E+03  0.11977730042E+04  0.12947967067E+04  0.50400001928E-02 0.  1.
</event>
<event>
 5   0  0.3308275E-04  0.1106491E+04  0.7818609E-02  0.9198888E-01
        1   -1    0    0  501    0  0.00000000000E+00  0.00000000000E+00  0.95744133044E+03  0.95744133045E+03  0.50400001928E-02 0. -1.
       -1   -1    0    0    0  501  0.00000000000E+00  0.00000000000E+00 -0.31968615817E+03  0.31968615821E+03  0.50400001928E-02 0.  1.
    10030    2    1    2    0    0  0.00000000000E+00  0.00000000000E+00  0.63775517227E+03  0.12771274887E+04  0.11064912844E+04 0.  0.
        3    1    3    3  502    0 -0.61001635208E+02 -0.31823362576E+03 -0.19870318622E+03  0.38010104772E+03  0.10100000352E+00 0.  1.
       -3    1    3    3    0  502  0.61001635208E+02  0.31823362576E+03  0.83645835849E+03  0.89702644094E+03  0.10100000352E+00 0. -1.
</event>
<event>
 5   0  0.3377273E-04  0.1769160E+04  0.7818609E-02  0.8722874E-01
       -1   -1    0    0    0  501  0.00000000000E+00  0.00000000000E+00  0.62716526963E+03  0.62716526965E+03  0.50400001928E-02 0. -1.
        1   -1    0    0  501    0  0.00000000000E+00  0.00000000000E+00 -0.12476488176E+04  0.12476488176E+04  0.50400001928E-02 0.  1.
    10030    2    1    2    0    0  0.00000000000E+00  0.00000000000E+00 -0.62048354798E+03  0.18748140873E+04  0.17691602608E+04 0.  0.
        2    1    3    3  502    0 -0.11933737167E+03  0.81687364249E+02  0.61455288218E+03  0.63133943228E+03  0.25500000920E-02 0. -1.
       -2    1    3    3    0  502  0.11933737167E+03 -0.81687364249E+02 -0.12350364302E+04  0.12434746550E+04  0.25500000920E-02 0.  1.
</event>
<event>
 5   0  0.3413839E-04  0.1265794E+04  0.7818609E-02  0.9057139E-01
        1   -1    0    0  501    0  0.00000000000E+00  0.00000000000E+00  0.51061029916E+03  0.51061029919E+03  0.50400001928E-02 0. -1.
       -1   -1    0    0    0  501  0.00000000000E+00  0.00000000000E+00 -0.78447027669E+03  0.78447027671E+03  0.50400001928E-02 0.  1.
    10030    2    1    2    0    0  0.00000000000E+00  0.00000000000E+00 -0.27385997753E+03  0.12950805759E+04  0.12657939843E+04 0.  0.
        5    1    3    3  502    0  0.69843827347E+02  0.36430245379E+03  0.38771291732E+03  0.53659839202E+03  0.46999998093E+01 0. -1.
       -5    1    3    3    0  502 -0.69843827347E+02 -0.36430245379E+03 -0.66157289485E+03  0.75848218387E+03  0.46999998093E+01 0.  1.
</event>
<event>
 5   0  0.6547153E-04  0.1531173E+04  0.7818609E-02  0.8863984E-01
        2   -1    0    0  501    0  0.00000000000E+00  0.00000000000E+00  0.82820647275E+03  0.82820647276E+03  0.25500000920E-02 0. -1.
       -2   -1    0    0    0  501  0.00000000000E+00  0.00000000000E+00 -0.70770145014E+03  0.70770145014E+03  0.25500000920E-02 0.  1.
    10030    2    1    2    0    0  0.00000000000E+00  0.00000000000E+00  0.12050502262E+03  0.15359079229E+04  0.15311733041E+04 0.  0.
        5    1    3    3  502    0  0.27882843956E+03  0.66428392948E+03 -0.19955105540E+03  0.74757016486E+03  0.46999998093E+01 0.  1.
       -5    1    3    3    0  502 -0.27882843956E+03 -0.66428392948E+03  0.32005607802E+03  0.78833775804E+03  0.46999998093E+01 0. -1.
</event>
<event>
 5   0  0.6547153E-04  0.1782831E+04  0.7818609E-02  0.8715484E-01
       -2   -1    0    0    0  501  0.00000000000E+00  0.00000000000E+00  0.86542469014E+03  0.86542469014E+03  0.25500000920E-02 0.  1.
        2   -1    0    0  501    0  0.00000000000E+00  0.00000000000E+00 -0.91818654568E+03  0.91818654568E+03  0.25500000920E-02 0. -1.
    10030    2    1    2    0    0  0.00000000000E+00  0.00000000000E+00 -0.52761855537E+02  0.17836112358E+04  0.17828306782E+04 0.  0.
        5    1    3    3  502    0  0.27118741228E+03 -0.81982330524E+03 -0.24771601558E+03  0.89835303682E+03  0.46999998093E+01 0. -1.
       -5    1    3    3    0  502 -0.27118741228E+03  0.81982330524E+03  0.19495416005E+03  0.88525819900E+03  0.46999998093E+01 0.  1.
</event>
<event>
 5   0  0.6547153E-04  0.1815846E+04  0.7818609E-02  0.8697918E-01
       -2   -1    0    0    0  501  0.00000000000E+00  0.00000000000E+00  0.84718004815E+03  0.84718004815E+03  0.25500000920E-02 0. -1.
        2   -1    0    0  501    0  0.00000000000E+00  0.00000000000E+00 -0.97302166376E+03  0.97302166376E+03  0.25500000920E-02 0.  1.
    10030    2    1    2    0    0  0.00000000000E+00  0.00000000000E+00 -0.12584161562E+03  0.18202017119E+04  0.18158464031E+04 0.  0.
        5    1    3    3  502    0  0.73069920121E+03  0.53865197147E+03 -0.47548414964E+02  0.90903806894E+03  0.46999998093E+01 0.  1.
       -5    1    3    3    0  502 -0.73069920121E+03 -0.53865197147E+03 -0.78293200651E+02  0.91116364298E+03  0.46999998093E+01 0. -1.
</event>
<event>
 5   0  0.3470962E-04  0.1759477E+04  0.7818609E-02  0.8728151E-01
       -1   -1    0    0    0  501  0.00000000000E+00  0.00000000000E+00  0.30430162460E+03  0.30430162464E+03  0.50400001928E-02 0.  1.
        1   -1    0    0  501    0  0.00000000000E+00  0.00000000000E+00 -0.25433301636E+04  0.25433301636E+04  0.50400001928E-02 0. -1.
    10030    2    1    2    0    0  0.00000000000E+00  0.00000000000E+00 -0.22390285390E+04  0.28476317882E+04  0.17594766276E+04 0.  0.
        4    1    3    3  502    0 -0.65739171701E+03 -0.58349793081E+03 -0.10610662774E+04  0.13778595585E+04  0.12699999809E+01 0. -1.
       -4    1    3    3    0  502  0.65739171701E+03  0.58349793081E+03 -0.11779622615E+04  0.14697722298E+04  0.12699999809E+01 0.  1.
</event>
<event>
 5   0  0.6853162E-04  0.1798899E+04  0.7818609E-02  0.8706885E-01
        2   -1    0    0  501    0  0.00000000000E+00  0.00000000000E+00  0.18177000693E+04  0.18177000693E+04  0.25500000920E-02 0.  1.
       -2   -1    0    0    0  501  0.00000000000E+00  0.00000000000E+00 -0.44507291256E+03  0.44507291257E+03  0.25500000920E-02 0. -1.
    10030    2    1    2    0    0  0.00000000000E+00  0.00000000000E+00  0.13726271567E+04  0.22627729819E+04  0.17988986231E+04 0.  0.
        2    1    3    3  502    0 -0.36787825967E+03 -0.54877461201E+03 -0.81418556284E+02  0.66567031633E+03  0.25500000920E-02 0. -1.
       -2    1    3    3    0  502  0.36787825967E+03  0.54877461201E+03  0.14540457130E+04  0.15971026656E+04  0.25500000920E-02 0.  1.
</event>
<event>
 5   0  0.6929121E-04  0.1949357E+04  0.7818609E-02  0.8630671E-01
        2   -1    0    0  501    0  0.00000000000E+00  0.00000000000E+00  0.12162515294E+04  0.12162515294E+04  0.25500000920E-02 0.  1.
       -2   -1    0    0    0  501  0.00000000000E+00  0.00000000000E+00 -0.78108674346E+03  0.78108674347E+03  0.25500000920E-02 0. -1.
    10030    2    1    2    0    0  0.00000000000E+00  0.00000000000E+00  0.43516478595E+03  0.19973382729E+04  0.19493567620E+04 0.  0.
        3    1    3    3  502    0 -0.13844057309E+01 -0.97238685968E+03  0.28600800672E+03  0.10135771858E+04  0.10100000352E+00 0.  1.
       -3    1    3    3    0  502  0.13844057309E+01  0.97238685968E+03  0.14915677923E+03  0.98376108708E+03  0.10100000352E+00 0. -1.
</event>
<event>
 5   0  0.3404261E-04  0.1815062E+04  0.7818609E-02  0.8698330E-01
       -1   -1    0    0    0  501  0.00000000000E+00  0.00000000000E+00  0.13141453962E+04  0.13141453962E+04  0.50400001928E-02 0.  1.
        1   -1    0    0  501    0  0.00000000000E+00  0.00000000000E+00 -0.62672859195E+03  0.62672859197E+03  0.50400001928E-02 0. -1.
    10030    2    1    2    0    0  0.00000000000E+00  0.00000000000E+00  0.68741680429E+03  0.19408739882E+04  0.18150619756E+04 0.  0.
        1    1    3    3  502    0 -0.12949404849E+03  0.84703317009E+03  0.66339368263E+03  0.10836628064E+04  0.50400001928E-02 0.  1.
       -1    1    3    3    0  502  0.12949404849E+03 -0.84703317009E+03  0.24023121657E+02  0.85721118181E+03  0.50400001928E-02 0. -1.
</event>
<event>
 5   0  0.6929121E-04  0.1801027E+04  0.7818609E-02  0.8705754E-01
       -2   -1    0    0    0  501  0.00000000000E+00  0.00000000000E+00  0.23189535679E+04  0.23189535679E+04  0.25500000920E-02 0. -1.
        2   -1    0    0  501    0  0.00000000000E+00  0.00000000000E+00 -0.34969400585E+03  0.34969400586E+03  0.25500000920E-02 0.  1.
    10030    2    1    2    0    0  0.00000000000E+00  0.00000000000E+00  0.19692595621E+04  0.26686475738E+04  0.18010265546E+04 0.  0.
        3    1    3    3  502    0  0.45643272999E+03  0.61472027275E+03  0.28222973437E+03  0.81600581119E+03  0.10100000352E+00 0.  1.
       -3    1    3    3    0  502 -0.45643272999E+03 -0.61472027275E+03  0.16870298277E+04  0.18526417626E+04  0.10100000352E+00 0. -1.
</event>
<event>
 5   0  0.3470962E-04  0.1188881E+04  0.7818609E-02  0.9122645E-01
       -1   -1    0    0    0  501  0.00000000000E+00  0.00000000000E+00  0.14154019297E+03  0.14154019306E+03  0.50400001928E-02 0. -1.
        1   -1    0    0  501    0  0.00000000000E+00  0.00000000000E+00 -0.24965323180E+04  0.24965323180E+04  0.50400001928E-02 0.  1.
    10030    2    1    2    0    0  0.00000000000E+00  0.00000000000E+00 -0.23549921250E+04  0.26380725110E+04  0.11888812660E+04 0.  0.
        4    1    3    3  502    0  0.18519861865E+03  0.41457755973E+03 -0.20287908604E+04  0.20789822149E+04  0.12699999809E+01 0.  1.
       -4    1    3    3    0  502 -0.18519861865E+03 -0.41457755973E+03 -0.32620126455E+03  0.55909029618E+03  0.12699999809E+01 0. -1.
</event>
<event>
 5   0  0.6547153E-04  0.1794242E+04  0.7818609E-02  0.8709368E-01
       -2   -1    0    0    0  501  0.00000000000E+00  0.00000000000E+00  0.36098508725E+03  0.36098508726E+03  0.25500000920E-02 0. -1.
        2   -1    0    0  501    0  0.00000000000E+00  0.00000000000E+00 -0.22295272425E+04  0.22295272425E+04  0.25500000920E-02 0.  1.
    10030    2    1    2    0    0  0.00000000000E+00  0.00000000000E+00 -0.18685421552E+04  0.25905123298E+04  0.17942419973E+04 0.  0.
        5    1    3    3  502    0 -0.17633575859E+03 -0.79627303771E+03 -0.14738301827E+04  0.16844413162E+04  0.46999998093E+01 0.  1.
       -5    1    3    3    0  502  0.17633575859E+03  0.79627303771E+03 -0.39471197257E+03  0.90607101357E+03  0.46999998093E+01 0. -1.
</event>
<event>
 5   0  0.3308275E-04  0.1772590E+04  0.7818609E-02  0.8721013E-01
        1   -1    0    0  501    0  0.00000000000E+00  0.00000000000E+00  0.11208936821E+04  0.11208936821E+04  0.50400001928E-02 0.  1.
       -1   -1    0    0    0  501  0.00000000000E+00  0.00000000000E+00 -0.70079705367E+03  0.70079705369E+03  0.50400001928E-02 0. -1.
    10030    2    1    2    0    0  0.00000000000E+00  0.00000000000E+00  0.42009662841E+03  0.18216907358E+04  0.17725901838E+04 0.  0.
        3    1    3    3  502    0  0.33221373553E+03 -0.34948519382E+03  0.97429581017E+03  0.10870870263E+04  0.10100000352E+00 0.  1.
       -3    1    3    3    0  502 -0.33221373553E+03  0.34948519382E+03 -0.55419918176E+03  0.73460370951E+03  0.10100000352E+00 0. -1.
</event>
<event>
 5   0  0.6853162E-04  0.1800152E+04  0.7818609E-02  0.8706219E-01
       -2   -1    0    0    0  501  0.00000000000E+00  0.00000000000E+00  0.80763328083E+03  0.80763328084E+03  0.25500000920E-02 0.  1.
        2   -1    0    0  501    0  0.00000000000E+00  0.00000000000E+00 -0.10030997218E+04  0.10030997218E+04  0.25500000920E-02 0. -1.
    10030    2    1    2    0    0  0.00000000000E+00  0.00000000000E+00 -0.19546644094E+03  0.18107330026E+04  0.18001519039E+04 0.  0.
        2    1    3    3  502    0 -0.19866973130E+03  0.74768752823E+03 -0.56047030627E+03  0.95531841091E+03  0.25500000920E-02 0. -1.
       -2    1    3    3    0  502  0.19866973130E+03 -0.74768752823E+03  0.36500386532E+03  0.85541459171E+03  0.25500000920E-02 0.  1.
</event>
<event>
 5   0  0.3413839E-04  0.1812683E+04  0.7818609E-02  0.8699584E-01
       -1   -1    0    0    0  501  0.00000000000E+00  0.00000000000E+00  0.11079261254E+04  0.11079261254E+04  0.50400001928E-02 0. -1.
        1   -1    0    0  501    0  0.00000000000E+00  0.00000000000E+00 -0.74143481117E+03  0.74143481119E+03  0.50400001928E-02 0.  1.
    10030    2    1    2    0    0  0.00000000000E+00  0.00000000000E+00  0.36649131423E+03  0.18493609366E+04  0.18126830915E+04 0.  0.
        5    1    3    3  502    0  0.73770668735E+03 -0.49438833515E+03  0.36802331695E+03  0.96129820259E+03  0.46999998093E+01 0. -1.
       -5    1    3    3    0  502 -0.73770668735E+03  0.49438833515E+03 -0.15320027188E+01  0.88806273400E+03  0.46999998093E+01 0.  1.
</event>
<event>
 5   0  0.3377273E-04  0.1829570E+04  0.7818609E-02  0.8690731E-01
        1   -1    0    0  501    0  0.00000000000E+00  0.00000000000E+00  0.17272142283E+04  0.17272142283E+04  0.50400001928E-02 0.  1.
       -1   -1    0    0    0  501  0.00000000000E+00  0.00000000000E+00 -0.48449801572E+03  0.48449801575E+03  0.50400001928E-02 0. -1.
    10030    2    1    2    0    0  0.00000000000E+00  0.00000000000E+00  0.12427162126E+04  0.22117122441E+04  0.18295702953E+04 0.  0.
        2    1    3    3  502    0  0.27183647690E+03  0.56014334507E+03  0.14315500198E+04  0.15610865115E+04  0.25500000920E-02 0.  1.
       -2    1    3    3    0  502 -0.27183647690E+03 -0.56014334507E+03 -0.18883380716E+03  0.65062573261E+03  0.25500000920E-02 0. -1.
</event>
<event>
 5   0  0.3413839E-04  0.1629590E+04  0.7818609E-02  0.8802573E-01
        1   -1    0    0  501    0  0.00000000000E+00  0.00000000000E+00  0.80053095561E+03  0.80053095563E+03  0.50400001928E-02 0. -1.
       -1   -1    0    0    0  501  0.00000000000E+00  0.00000000000E+00 -0.82931288913E+03  0.82931288915E+03  0.50400001928E-02 0.  1.
    10030    2    1    2    0    0  0.00000000000E+00  0.00000000000E+00 -0.28781933520E+02  0.16298438448E+04  0.16295896903E+04 0.  0.
        5    1    3    3  502    0 -0.34765294211E+03 -0.67260822147E+03  0.28666123102E+03  0.80960554538E+03  0.46999998093E+01 0.  1.
       -5    1    3    3    0  502  0.34765294211E+03  0.67260822147E+03 -0.31544316454E+03  0.82023829940E+03  0.46999998093E+01 0. -1.
</event>
<event>
 5   0  0.6547153E-04  0.1756027E+04  0.7818609E-02  0.8730040E-01
       -2   -1    0    0    0  501  0.00000000000E+00  0.00000000000E+00  0.87574651888E+03  0.87574651889E+03  0.25500000920E-02 0. -1.
        2   -1    0    0  501    0  0.00000000000E+00  0.00000000000E+00 -0.88028657358E+03  0.88028657358E+03  0.25500000920E-02 0.  1.
    10030    2    1    2    0    0  0.00000000000E+00  0.00000000000E+00 -0.45400546942E+01  0.17560330925E+04  0.17560272235E+04 0.  0.
        5    1    3    3  502    0 -0.88890048578E+02 -0.65551841771E+03 -0.57957601511E+03  0.87950911535E+03  0.46999998093E+01 0.  1.
       -5    1    3    3    0  502  0.88890048578E+02  0.65551841771E+03  0.57503596042E+03  0.87652397712E+03  0.46999998093E+01 0. -1.
</event>
<event>
 5   0  0.3413839E-04  0.1645695E+04  0.7818609E-02  0.8792957E-01
        1   -1    0    0  501    0  0.00000000000E+00  0.00000000000E+00  0.13049582971E+04  0.13049582971E+04  0.50400001928E-02 0.  1.
       -1   -1    0    0    0  501  0.00000000000E+00  0.00000000000E+00 -0.51885050018E+03  0.51885050020E+03  0.50400001928E-02 0. -1.
    10030    2    1    2    0    0  0.00000000000E+00  0.00000000000E+00  0.78610779688E+03  0.18238087973E+04  0.16456953122E+04 0.  0.
        5    1    3    3  502    0 -0.79586598044E+03 -0.72838202763E+02  0.17603284316E+03  0.81836282569E+03  0.46999998093E+01 0. -1.
       -5    1    3    3    0  502  0.79586598044E+03  0.72838202763E+02  0.61007495372E+03  0.10054459716E+04  0.46999998093E+01 0.  1.
</event>
<event>
 5   0  0.6771967E-04  0.1820816E+04  0.7818609E-02  0.8695307E-01
        2   -1    0    0  501    0  0.00000000000E+00  0.00000000000E+00  0.43540985646E+03  0.43540985647E+03  0.25500000920E-02 0.  1.
       -2   -1    0    0    0  501  0.00000000000E+00  0.00000000000E+00 -0.19035920138E+04  0.19035920138E+04  0.25500000920E-02 0. -1.
    10030    2    1    2    0    0  0.00000000000E+00  0.00000000000E+00 -0.14681821574E+04  0.23390018703E+04  0.18208159990E+04 0.  0.
        1    1    3    3  502    0 -0.17248580459E+03  0.35166422021E+03  0.32163837897E+03  0.50682375972E+03  0.50400001928E-02 0.  1.
       -1    1    3    3    0  502  0.17248580459E+03 -0.35166422021E+03 -0.17898205363E+04  0.18321781106E+04  0.50400001928E-02 0. -1.
</event>
<event>
 5   0  0.6547153E-04  0.1748542E+04  0.7818609E-02  0.8734154E-01
        2   -1    0    0  501    0  0.00000000000E+00  0.00000000000E+00  0.99457906806E+03  0.99457906806E+03  0.25500000920E-02 0. -1.
       -2   -1    0    0    0  501  0.00000000000E+00  0.00000000000E+00 -0.76851543323E+03  0.76851543323E+03  0.25500000920E-02 0.  1.
    10030    2    1    2    0    0  0.00000000000E+00  0.00000000000E+00  0.22606363483E+03  0.17630945013E+04  0.17485415218E+04 0.  0.
        5    1    3    3  502    0 -0.49172389721E+03  0.11051528684E+03 -0.60728154143E+03  0.78918881155E+03  0.46999998093E+01 0.  1.
       -5    1    3    3    0  502  0.49172389721E+03 -0.11051528684E+03  0.83334517626E+03  0.97390568974E+03  0.46999998093E+01 0. -1.
</event>
<event>
 5   0  0.6547153E-04  0.1704653E+04  0.7818609E-02  0.8758715E-01
       -2   -1    0    0    0  501  0.00000000000E+00  0.00000000000E+00  0.10848036421E+04  0.10848036421E+04  0.25500000920E-02 0.  1.
        2   -1    0    0  501    0  0.00000000000E+00  0.00000000000E+00 -0.66966984705E+03  0.66966984706E+03  0.25500000920E-02 0. -1.
    10030    2    1    2    0    0  0.00000000000E+00  0.00000000000E+00  0.41513379508E+03  0.17544734892E+04  0.17046527965E+04 0.  0.
        5    1    3    3  502    0  0.36935336663E+03 -0.47219591978E+03  0.83111777345E+03  0.10247778976E+04  0.46999998093E+01 0.  1.
       -5    1    3    3    0  502 -0.36935336663E+03  0.47219591978E+03 -0.41598397837E+03  0.72969559157E+03  0.46999998093E+01 0. -1.
</event>
<event>
 5   0  0.3413839E-04  0.1791357E+04  0.7818609E-02  0.8710909E-01
        1   -1    0    0  501    0  0.00000000000E+00  0.00000000000E+00  0.15626689764E+04  0.15626689764E+04  0.50400001928E-02 0.  1.
       -1   -1    0    0    0  501  0.00000000000E+00  0.00000000000E+00 -0.51337806701E+03  0.51337806704E+03  0.50400001928E-02 0. -1.
    10030    2    1    2    0    0  0.00000000000E+00  0.00000000000E+00  0.10492909094E+04  0.20760470435E+04  0.17913570035E+04 0.  0.
        5    1    3    3  502    0  0.20216630636E+03  0.45599033306E+02 -0.48519420184E+03  0.52762296270E+03  0.46999998093E+01 0. -1.
       -5    1    3    3    0  502 -0.20216630636E+03 -0.45599033306E+02  0.15344851113E+04  0.15484240808E+04  0.46999998093E+01 0.  1.
</event>
<event>
 5   0  0.3413839E-04  0.1434877E+04  0.7818609E-02  0.8928953E-01
        1   -1    0    0  501    0  0.00000000000E+00  0.00000000000E+00  0.99997601317E+03  0.99997601318E+03  0.50400001928E-02 0. -1.
       -1   -1    0    0    0  501  0.00000000000E+00  0.00000000000E+00 -0.51473010601E+03  0.51473010604E+03  0.50400001928E-02 0.  1.
    10030    2    1    2    0    0  0.00000000000E+00  0.00000000000E+00  0.48524590716E+03  0.15147061192E+04  0.14348766627E+04 0.  0.
        5    1    3    3  502    0 -0.37194118856E+03  0.60003554042E+03  0.10779570001E+03  0.71416027644E+03  0.46999998093E+01 0.  1.
       -5    1    3    3    0  502  0.37194118856E+03 -0.60003554042E+03  0.37745020715E+03  0.80054584278E+03  0.46999998093E+01 0. -1.
</event>
<event>
 5   0  0.6547153E-04  0.1582250E+04  0.7818609E-02  0.8831527E-01
        2   -1    0    0  501    0  0.00000000000E+00  0.00000000000E+00  0.19537748721E+04  0.19537748721E+04  0.25500000920E-02 0.  1.
       -2   -1    0    0    0  501  0.00000000000E+00  0.00000000000E+00 -0.32034330664E+03  0.32034330665E+03  0.25500000920E-02 0. -1.
    10030    2    1    2    0    0  0.00000000000E+00  0.00000000000E+00  0.16334315654E+04  0.22741181787E+04  0.15822499208E+04 0.  0.
        5    1    3    3  502    0  0.69237668198E+03  0.27699833478E+03  0.11962827976E+04  0.14096908061E+04  0.46999998093E+01 0.  1.
       -5    1    3    3    0  502 -0.69237668198E+03 -0.27699833478E+03  0.43714876790E+03  0.86442737259E+03  0.46999998093E+01 0. -1.
</event>
<event>
 5   0  0.3470962E-04  0.1601375E+04  0.7818609E-02  0.8819703E-01
       -1   -1    0    0    0  501  0.00000000000E+00  0.00000000000E+00  0.80789765258E+03  0.80789765260E+03  0.50400001928E-02 0.  1.
        1   -1    0    0  501    0  0.00000000000E+00  0.00000000000E+00 -0.79354210563E+03  0.79354210565E+03  0.50400001928E-02 0. -1.
    10030    2    1    2    0    0  0.00000000000E+00  0.00000000000E+00  0.14355546949E+02  0.16014397582E+04  0.16013754143E+04 0.  0.
        4    1    3    3  502    0 -0.74899069581E+03 -0.25083455938E+03 -0.12395397198E+03  0.79954439442E+03  0.12699999809E+01 0. -1.
       -4    1    3    3    0  502  0.74899069581E+03  0.25083455938E+03  0.13830951893E+03  0.80189536382E+03  0.12699999809E+01 0.  1.
</event>
<event>
 5   0  0.6771967E-04  0.1174463E+04  0.7818609E-02  0.9135508E-01
        2   -1    0    0  501    0  0.00000000000E+00  0.00000000000E+00  0.11485410691E+04  0.11485410691E+04  0.25500000920E-02 0.  1.
       -2   -1    0    0    0  501  0.00000000000E+00  0.00000000000E+00 -0.30024239580E+03  0.30024239582E+03  0.25500000920E-02 0. -1.
    10030    2    1    2    0    0  0.00000000000E+00  0.00000000000E+00  0.84829867326E+03  0.14487834649E+04  0.11744628087E+04 0.  0.
        1    1    3    3  502    0  0.91034744519E+02 -0.44890519083E+03 -0.29156645414E+02  0.45896983023E+03  0.50400001928E-02 0. -1.
       -1    1    3    3    0  502 -0.91034744519E+02  0.44890519083E+03  0.87745531867E+03  0.98981363466E+03  0.50400001928E-02 0.  1.
</event>
<event>
 5   0  0.3413839E-04  0.1813741E+04  0.7818609E-02  0.8699026E-01
       -1   -1    0    0    0  501  0.00000000000E+00  0.00000000000E+00  0.94653659676E+03  0.94653659678E+03  0.50400001928E-02 0.  1.
        1   -1    0    0  501    0  0.00000000000E+00  0.00000000000E+00 -0.86886665687E+03  0.86886665689E+03  0.50400001928E-02 0. -1.
    10030    2    1    2    0    0  0.00000000000E+00  0.00000000000E+00  0.77669939893E+02  0.18154032537E+04  0.18137409831E+04 0.  0.
        5    1    3    3  502    0  0.41769830397E+03  0.81179202014E+02  0.84039977885E+03  0.94199565512E+03  0.46999998093E+01 0.  1.
       -5    1    3    3    0  502 -0.41769830397E+03 -0.81179202014E+02 -0.76272983895E+03  0.87340759855E+03  0.46999998093E+01 0. -1.
</event>
<event>
 5   0  0.3404261E-04  0.1687402E+04  0.7818609E-02  0.8768582E-01
        1   -1    0    0  501    0  0.00000000000E+00  0.00000000000E+00  0.14373294776E+04  0.14373294776E+04  0.50400001928E-02 0.  1.
       -1   -1    0    0    0  501  0.00000000000E+00  0.00000000000E+00 -0.49524580690E+03  0.49524580692E+03  0.50400001928E-02 0. -1.
    10030    2    1    2    0    0  0.00000000000E+00  0.00000000000E+00  0.94208367066E+03  0.19325752845E+04  0.16874020231E+04 0.  0.
        1    1    3    3  502    0  0.27211160460E+03  0.15436729741E+03 -0.42636005071E+03  0.52882594559E+03  0.50400001928E-02 0. -1.
       -1    1    3    3    0  502 -0.27211160460E+03 -0.15436729741E+03  0.13684437214E+04  0.14037493389E+04  0.50400001928E-02 0.  1.
</event>
<event>
 5   0  0.3404261E-04  0.1834831E+04  0.7818609E-02  0.8687993E-01
       -1   -1    0    0    0  501  0.00000000000E+00  0.00000000000E+00  0.71523797011E+03  0.71523797013E+03  0.50400001928E-02 0.  1.
        1   -1    0    0  501    0  0.00000000000E+00  0.00000000000E+00 -0.11767434565E+04  0.11767434565E+04  0.50400001928E-02 0. -1.
    10030    2    1    2    0    0  0.00000000000E+00  0.00000000000E+00 -0.46150548638E+03  0.18919814266E+04  0.18348314377E+04 0.  0.
        1    1    3    3  502    0  0.11926695777E+03 -0.20291233274E+03 -0.11450807308E+04  0.11690200606E+04  0.50400001928E-02 0. -1.
       -1    1    3    3    0  502 -0.11926695777E+03  0.20291233274E+03  0.68357524442E+03  0.72296136605E+03  0.50400001928E-02 0.  1.
</event>
<event>
 5   0  0.3470962E-04  0.1797553E+04  0.7818609E-02  0.8707602E-01
       -1   -1    0    0    0  501  0.00000000000E+00  0.00000000000E+00  0.14391245594E+04  0.14391245594E+04  0.50400001928E-02 0. -1.
        1   -1    0    0  501    0  0.00000000000E+00  0.00000000000E+00 -0.56131317968E+03  0.56131317970E+03  0.50400001928E-02 0.  1.
    10030    2    1    2    0    0  0.00000000000E+00  0.00000000000E+00  0.87781137971E+03  0.20004377391E+04  0.17975534289E+04 0.  0.
        4    1    3    3  502    0  0.25068133319E+02 -0.24706727667E+03  0.14001852372E+04  0.14220376091E+04  0.12699999809E+01 0. -1.
       -4    1    3    3    0  502 -0.25068133319E+02  0.24706727667E+03 -0.52237385745E+03  0.57840012998E+03  0.12699999809E+01 0.  1.
</event>
<event>
 5   0  0.6774451E-04  0.1754068E+04  0.7818609E-02  0.8731114E-01
        2   -1    0    0  501    0  0.00000000000E+00  0.00000000000E+00  0.15902446654E+04  0.15902446654E+04  0.25500000920E-02 0. -1.
       -2   -1    0    0    0  501  0.00000000000E+00  0.00000000000E+00 -0.48369193691E+03  0.48369193692E+03  0.25500000920E-02 0.  1.
    10030    2    1    2    0    0  0.00000000000E+00  0.00000000000E+00  0.11065527285E+04  0.20739366024E+04  0.17540678692E+04 0.  0.
        4    1    3    3  502    0 -0.82605661252E+03 -0.27393446115E+03  0.68158971037E+03  0.11054301255E+04  0.12699999809E+01 0.  1.
       -4    1    3    3    0  502  0.82605661252E+03  0.27393446115E+03  0.42496301816E+03  0.96850647690E+03  0.12699999809E+01 0. -1.
</event>
<event>
 5   0  0.6929121E-04  0.1827586E+04  0.7818609E-02  0.8691766E-01
       -2   -1    0    0    0  501  0.00000000000E+00  0.00000000000E+00  0.80080969131E+03  0.80080969131E+03  0.25500000920E-02 0.  1.
        2   -1    0    0  501    0  0.00000000000E+00  0.00000000000E+00 -0.10427166876E+04  0.10427166876E+04  0.25500000920E-02 0. -1.
    10030    2    1    2    0    0  0.00000000000E+00  0.00000000000E+00 -0.24190699633E+03  0.18435263790E+04  0.18275859802E+04 0.  0.
        3    1    3    3  502    0  0.83386747085E+03  0.84481064559E+02 -0.48819707741E+03  0.96995278535E+03  0.10100000352E+00 0. -1.
       -3    1    3    3    0  502 -0.83386747085E+03 -0.84481064559E+02  0.24629008108E+03  0.87357359361E+03  0.10100000352E+00 0.  1.
</event>
<event>
 5   0  0.3470962E-04  0.1805135E+04  0.7818609E-02  0.8703574E-01
        1   -1    0    0  501    0  0.00000000000E+00  0.00000000000E+00  0.10723814274E+04  0.10723814274E+04  0.50400001928E-02 0.  1.
       -1   -1    0    0    0  501  0.00000000000E+00  0.00000000000E+00 -0.75964395899E+03  0.75964395901E+03  0.50400001928E-02 0. -1.
    10030    2    1    2    0    0  0.00000000000E+00  0.00000000000E+00  0.31273746837E+03  0.18320253864E+04  0.18051349790E+04 0.  0.
        4    1    3    3  502    0 -0.22735127487E+03  0.78657393978E+02  0.10392418059E+04  0.10667242998E+04  0.12699999809E+01 0.  1.
       -4    1    3    3    0  502  0.22735127487E+03 -0.78657393978E+02 -0.72650433751E+03  0.76530108658E+03  0.12699999809E+01 0. -1.
</event>
<event>
 5   0  0.6547153E-04  0.1857651E+04  0.7818609E-02  0.8676228E-01
       -2   -1    0    0    0  501  0.00000000000E+00  0.00000000000E+00  0.97582553712E+03  0.97582553713E+03  0.25500000920E-02 0.  1.
        2   -1    0    0  501    0  0.00000000000E+00  0.00000000000E+00 -0.88408878139E+03  0.88408878139E+03  0.25500000920E-02 0. -1.
    10030    2    1    2    0    0  0.00000000000E+00  0.00000000000E+00  0.91736755736E+02  0.18599143185E+04  0.18576505699E+04 0.  0.
        5    1    3    3  502    0  0.62964209200E+03 -0.34184039019E+03 -0.54594439857E+03  0.90076711347E+03  0.46999998093E+01 0. -1.
       -5    1    3    3    0  502 -0.62964209200E+03  0.34184039019E+03  0.63768115431E+03  0.95914720504E+03  0.46999998093E+01 0.  1.
</event>
<event>
 5   0  0.6929121E-04  0.1808616E+04  0.7818609E-02  0.8701731E-01
        2   -1    0    0  501    0  0.00000000000E+00  0.00000000000E+00  0.99605556420E+03  0.99605556420E+03  0.25500000920E-02 0.  1.
       -2   -1    0    0    0  501  0.00000000000E+00  0.00000000000E+00 -0.82101129295E+03  0.82101129296E+03  0.25500000920E-02 0. -1.
    10030    2    1    2    0    0  0.00000000000E+00  0.00000000000E+00  0.17504427125E+03  0.18170668572E+04  0.18086158980E+04 0.  0.
        3    1    3    3  502    0 -0.35140020363E+03  0.33586824019E+03  0.85363574663E+03  0.98233577559E+03  0.10100000352E+00 0.  1.
       -3    1    3    3    0  502  0.35140020363E+03 -0.33586824019E+03 -0.67859147538E+03  0.83473108157E+03  0.10100000352E+00 0. -1.
</event>
<event>
 5   0  0.6774451E-04  0.1823691E+04  0.7818609E-02  0.8693802E-01
       -2   -1    0    0    0  501  0.00000000000E+00  0.00000000000E+00  0.55472879885E+03  0.55472879885E+03  0.25500000920E-02 0. -1.
        2   -1    0    0  501    0  0.00000000000E+00  0.00000000000E+00 -0.14988619958E+04  0.14988619958E+04  0.25500000920E-02 0.  1.
    10030    2    1    2    0    0  0.00000000000E+00  0.00000000000E+00 -0.94413319691E+03  0.20535907946E+04  0.18236906696E+04 0.  0.
        4    1    3    3  502    0  0.12342369411E+03 -0.62093552278E+03 -0.12110471536E+04  0.13665398468E+04  0.12699999809E+01 0.  1.
       -4    1    3    3    0  502 -0.12342369411E+03  0.62093552278E+03  0.26691395670E+03  0.68705094782E+03  0.12699999809E+01 0. -1.
</event>
<event>
 5   0  0.6853162E-04  0.1673816E+04  0.7818609E-02  0.8776441E-01
        2   -1    0    0  501    0  0.00000000000E+00  0.00000000000E+00  0.10362394839E+04  0.10362394839E+04  0.25500000920E-02 0.  1.
       -2   -1    0    0    0  501  0.00000000000E+00  0.00000000000E+00 -0.67592007983E+03  0.67592007984E+03  0.25500000920E-02 0. -1.
    10030    2    1    2    0    0  0.00000000000E+00  0.00000000000E+00  0.36031940405E+03  0.17121595637E+04  0.16738160887E+04 0.  0.
        2    1    3    3  502    0 -0.60018352836E+03 -0.55250929851E+03 -0.11012661968E+02  0.81584806881E+03  0.25500000920E-02 0. -1.
       -2    1    3    3    0  502  0.60018352836E+03  0.55250929851E+03  0.37133206602E+03  0.89631149491E+03  0.25500000920E-02 0.  1.
</event>
<event>
 5   0  0.6853162E-04  0.1767347E+04  0.7818609E-02  0.8723860E-01
        2   -1    0    0  501    0  0.00000000000E+00  0.00000000000E+00  0.11065043997E+04  0.11065043997E+04  0.25500000920E-02 0. -1.
       -2   -1    0    0    0  501  0.00000000000E+00  0.00000000000E+00 -0.70571654708E+03  0.70571654708E+03  0.25500000920E-02 0.  1.
    10030    2    1    2    0    0  0.00000000000E+00  0.00000000000E+00  0.40078785258E+03  0.18122209467E+04  0.17673465583E+04 0.  0.
        2    1    3    3  502    0 -0.42830625073E+03 -0.18667603661E+03  0.96949465481E+03  0.10762035462E+04  0.25500000920E-02 0. -1.
       -2    1    3    3    0  502  0.42830625073E+03  0.18667603661E+03 -0.56870680223E+03  0.73601740059E+03  0.25500000920E-02 0.  1.
</event>
<event>
 5   0  0.6853162E-04  0.1805239E+04  0.7818609E-02  0.8703519E-01
        2   -1    0    0  501    0  0.00000000000E+00  0.00000000000E+00  0.22088158284E+04  0.22088158284E+04  0.25500000920E-02 0.  1.
       -2   -1    0    0    0  501  0.00000000000E+00  0.00000000000E+00 -0.36884990914E+03  0.36884990915E+03  0.25500000920E-02 0. -1.
    10030    2    1    2    0    0  0.00000000000E+00  0.00000000000E+00  0.18399659193E+04  0.25776657375E+04  0.18052385079E+04 0.  0.
        2    1    3    3  502    0 -0.64347500527E+03  0.42515487239E+03  0.25039238068E+03  0.81087180999E+03  0.25500000920E-02 0. -1.
       -2    1    3    3    0  502  0.64347500527E+03 -0.42515487239E+03  0.15895735386E+04  0.17667939276E+04  0.25500000920E-02 0.  1.
</event>
<event>
 5   0  0.6929121E-04  0.1733732E+04  0.7818609E-02  0.8742356E-01
        2   -1    0    0  501    0  0.00000000000E+00  0.00000000000E+00  0.12464709825E+04  0.12464709825E+04  0.25500000920E-02 0.  1.
       -2   -1    0    0    0  501  0.00000000000E+00  0.00000000000E+00 -0.60286728959E+03  0.60286728960E+03  0.25500000920E-02 0. -1.
    10030    2    1    2    0    0  0.00000000000E+00  0.00000000000E+00  0.64360369286E+03  0.18493382721E+04  0.17337319086E+04 0.  0.
        3    1    3    3  502    0 -0.64744131411E+03  0.53474385860E+03  0.92216775879E+02  0.84476931377E+03  0.10100000352E+00 0.  1.
       -3    1    3    3    0  502  0.64744131411E+03 -0.53474385860E+03  0.55138691698E+03  0.10045689583E+04  0.10100000352E+00 0. -1.
</event>
<event>
 5   0  0.6774451E-04  0.1804728E+04  0.7818609E-02  0.8703789E-01
        2   -1    0    0  501    0  0.00000000000E+00  0.00000000000E+00  0.79386374507E+03  0.79386374507E+03  0.25500000920E-02 0.  1.
       -2   -1    0    0    0  501  0.00000000000E+00  0.00000000000E+00 -0.10256928998E+04  0.10256928998E+04  0.25500000920E-02 0. -1.
    10030    2    1    2    0    0  0.00000000000E+00  0.00000000000E+00 -0.23182915474E+03  0.18195566449E+04  0.18047275769E+04 0.  0.
        4    1    3    3  502    0 -0.51316159007E+03  0.69449695825E+03 -0.37997876025E+03  0.94342265909E+03  0.12699999809E+01 0. -1.
       -4    1    3    3    0  502  0.51316159007E+03 -0.69449695825E+03  0.14814960552E+03  0.87613398579E+03  0.12699999809E+01 0.  1.
</event>
<event>
 5   0  0.6771967E-04  0.1794310E+04  0.7818609E-02  0.8709331E-01
        2   -1    0    0  501    0  0.00000000000E+00  0.00000000000E+00  0.10290615601E+04  0.10290615601E+04  0.25500000920E-02 0. -1.
       -2   -1    0    0    0  501  0.00000000000E+00  0.00000000000E+00 -0.78215670665E+03  0.78215670665E+03  0.25500000920E-02 0.  1.
    10030    2    1    2    0    0  0.00000000000E+00  0.00000000000E+00  0.24690485342E+03  0.18112182667E+04  0.17943103419E+04 0.  0.
        1    1    3    3  502    0  0.49294490856E+02  0.81561435259E+03  0.49738977131E+03  0.95658418533E+03  0.50400001928E-02 0. -1.
       -1    1    3    3    0  502 -0.49294490856E+02 -0.81561435259E+03 -0.25048491789E+03  0.85463408140E+03  0.50400001928E-02 0.  1.
</event>
<event>
 5   0  0.3404261E-04  0.1786094E+04  0.7818609E-02  0.8713730E-01
       -1   -1    0    0    0  501  0.00000000000E+00  0.00000000000E+00  0.41294297501E+03  0.41294297504E+03  0.50400001928E-02 0. -1.
        1   -1    0    0  501    0  0.00000000000E+00  0.00000000000E+00 -0.19313391773E+04  0.19313391773E+04  0.50400001928E-02 0.  1.
    10030    2    1    2    0    0  0.00000000000E+00  0.00000000000E+00 -0.15183962022E+04  0.23442821523E+04  0.17860940016E+04 0.  0.
        1    1    3    3  502    0  0.99131714085E+02  0.47471879083E+03  0.22505799924E+03  0.53463644671E+03  0.50400001928E-02 0. -1.
       -1    1    3    3    0  502 -0.99131714085E+02 -0.47471879083E+03 -0.17434542015E+04  0.18096457056E+04  0.50400001928E-02 0.  1.
</event>
<event>
 5   0  0.3308275E-04  0.1897404E+04  0.7818609E-02  0.8656150E-01
        1   -1    0    0  501    0  0.00000000000E+00  0.00000000000E+00  0.11619702653E+04  0.11619702653E+04  0.50400001928E-02 0. -1.
       -1   -1    0    0    0  501  0.00000000000E+00  0.00000000000E+00 -0.77457712116E+03  0.77457712118E+03  0.50400001928E-02 0.  1.
    10030    2    1    2    0    0  0.00000000000E+00  0.00000000000E+00  0.38739314410E+03  0.19365473864E+04  0.18974041035E+04 0.  0.
        3    1    3    3  502    0 -0.16556051284E+03  0.38311446660E+03 -0.67584692828E+03  0.79432742530E+03  0.10100000352E+00 0.  1.
       -3    1    3    3    0  502  0.16556051284E+03 -0.38311446660E+03  0.10632400724E+04  0.11422199611E+04  0.10100000352E+00 0. -1.
</event>
<event>
 5   0  0.3404261E-04  0.1663885E+04  0.7818609E-02  0.8782234E-01
       -1   -1    0    0    0  501  0.00000000000E+00  0.00000000000E+00  0.48772737418E+03  0.48772737421E+03  0.50400001928E-02 0. -1.
        1   -1    0    0  501    0  0.00000000000E+00  0.00000000000E+00 -0.14190888477E+04  0.14190888477E+04  0.50400001928E-02 0.  1.
    10030    2    1    2    0    0  0.00000000000E+00  0.00000000000E+00 -0.93136147347E+03  0.19068162219E+04  0.16638851853E+04 0.  0.
        1    1    3    3  502    0 -0.76756549663E+03  0.94109205385E+01 -0.83326553862E+03  0.11329504909E+04  0.50400001928E-02 0.  1.
       -1    1    3    3    0  502  0.76756549663E+03 -0.94109205385E+01 -0.98095934849E+02  0.77386573093E+03  0.50400001928E-02 0. -1.
</event>
<event>
 5   0  0.6774451E-04  0.1688505E+04  0.7818609E-02  0.8767947E-01
        2   -1    0    0  501    0  0.00000000000E+00  0.00000000000E+00  0.84146874643E+03  0.84146874643E+03  0.25500000920E-02 0. -1.
       -2   -1    0    0    0  501  0.00000000000E+00  0.00000000000E+00 -0.84704588520E+03  0.84704588521E+03  0.25500000920E-02 0.  1.
    10030    2    1    2    0    0  0.00000000000E+00  0.00000000000E+00 -0.55771387715E+01  0.16885146316E+04  0.16885054210E+04 0.  0.
        4    1    3    3  502    0  0.45098964422E+03 -0.21582584646E+03  0.67750079555E+03  0.84201033014E+03  0.12699999809E+01 0. -1.
       -4    1    3    3    0  502 -0.45098964422E+03  0.21582584646E+03 -0.68307793432E+03  0.84650430150E+03  0.12699999809E+01 0.  1.
</event>
<event>
 5   0  0.6853162E-04  0.1817319E+04  0.7818609E-02  0.8697144E-01
       -2   -1    0    0    0  501  0.00000000000E+00  0.00000000000E+00  0.39808484911E+03  0.39808484911E+03  0.25500000920E-02 0.  1.
        2   -1    0    0  501    0  0.00000000000E+00  0.00000000000E+00 -0.20740845683E+04  0.20740845683E+04  0.25500000920E-02 0. -1.
    10030    2    1    2    0    0  0.00000000000E+00  0.00000000000E+00 -0.16759997192E+04  0.24721694174E+04  0.18173185108E+04 0.  0.
        2    1    3    3  502    0 -0.29019541253E+03  0.92165712176E+02 -0.20026231310E+04  0.20256375047E+04  0.25500000920E-02 0. -1.
       -2    1    3    3    0  502  0.29019541253E+03 -0.92165712176E+02  0.32662341174E+03  0.44653191270E+03  0.25500000920E-02 0.  1.
</event>
<event>
 5   0  0.6853162E-04  0.1234397E+04  0.7818609E-02  0.9083271E-01
       -2   -1    0    0    0  501  0.00000000000E+00  0.00000000000E+00  0.22836780979E+03  0.22836780980E+03  0.25500000920E-02 0.  1.
        2   -1    0    0  501    0  0.00000000000E+00  0.00000000000E+00 -0.16680715429E+04  0.16680715429E+04  0.25500000920E-02 0. -1.
    10030    2    1    2    0    0  0.00000000000E+00  0.00000000000E+00 -0.14397037331E+04  0.18964393527E+04  0.12343967674E+04 0.  0.
        2    1    3    3  502    0  0.15326036779E+03  0.22612733784E+03  0.13043575441E+03  0.30271405532E+03  0.25500000920E-02 0.  1.
       -2    1    3    3    0  502 -0.15326036779E+03 -0.22612733784E+03 -0.15701394875E+04  0.15937252974E+04  0.25500000920E-02 0. -1.
</event>
<event>
 5   0  0.6771967E-04  0.1759015E+04  0.7818609E-02  0.8728404E-01
        2   -1    0    0  501    0  0.00000000000E+00  0.00000000000E+00  0.11049470993E+04  0.11049470993E+04  0.25500000920E-02 0. -1.
       -2   -1    0    0    0  501  0.00000000000E+00  0.00000000000E+00 -0.70006373242E+03  0.70006373243E+03  0.25500000920E-02 0.  1.
    10030    2    1    2    0    0  0.00000000000E+00  0.00000000000E+00  0.40488336685E+03  0.18050108317E+04  0.17590149408E+04 0.  0.
        1    1    3    3  502    0  0.36709058506E+03 -0.63787387967E+03  0.69658826485E+03  0.10133478153E+04  0.50400001928E-02 0. -1.
       -1    1    3    3    0  502 -0.36709058506E+03  0.63787387967E+03 -0.29170489800E+03  0.79166301641E+03  0.50400001928E-02 0.  1.
</event>
<event>
 5   0  0.6547153E-04  0.1531650E+04  0.7818609E-02  0.8863675E-01
        2   -1    0    0  501    0  0.00000000000E+00  0.00000000000E+00  0.22384796441E+04  0.22384796441E+04  0.25500000920E-02 0. -1.
       -2   -1    0    0    0  501  0.00000000000E+00  0.00000000000E+00 -0.26200273919E+03  0.26200273920E+03  0.25500000920E-02 0.  1.
    10030    2    1    2    0    0  0.00000000000E+00  0.00000000000E+00  0.19764769049E+04  0.25004823833E+04  0.15316498273E+04 0.  0.
        5    1    3    3  502    0  0.65616478411E+03  0.34756233721E+03  0.68232125963E+03  0.10084325429E+04  0.46999998093E+01 0.  1.
       -5    1    3    3    0  502 -0.65616478411E+03 -0.34756233721E+03  0.12941556452E+04  0.14920498404E+04  0.46999998093E+01 0. -1.
</event>
<event>
 5   0  0.3377273E-04  0.1822844E+04  0.7818609E-02  0.8694245E-01
       -1   -1    0    0    0  501  0.00000000000E+00  0.00000000000E+00  0.58129678044E+03  0.58129678046E+03  0.50400001928E-02 0. -1.
        1   -1    0    0  501    0  0.00000000000E+00  0.00000000000E+00 -0.14290293828E+04  0.14290293828E+04  0.50400001928E-02 0.  1.
    10030    2    1    2    0    0  0.00000000000E+00  0.00000000000E+00 -0.84773260239E+03  0.20103261633E+04  0.18228441287E+04 0.  0.
        2    1    3    3  502    0 -0.25503499466E+03 -0.86606340102E+03 -0.28620183642E+03  0.94711147932E+03  0.25500000920E-02 0. -1.
       -2    1    3    3    0  502  0.25503499466E+03  0.86606340102E+03 -0.56153076597E+03  0.10632146840E+04  0.25500000920E-02 0.  1.
</event>
<event>
 5   0  0.3308275E-04  0.1352287E+04  0.7818609E-02  0.8989099E-01
       -1   -1    0    0    0  501  0.00000000000E+00  0.00000000000E+00  0.26820374667E+03  0.26820374672E+03  0.50400001928E-02 0. -1.
        1   -1    0    0  501    0  0.00000000000E+00  0.00000000000E+00 -0.17045612305E+04  0.17045612305E+04  0.50400001928E-02 0.  1.
    10030    2    1    2    0    0  0.00000000000E+00  0.00000000000E+00 -0.14363574839E+04  0.19727649773E+04  0.13522865207E+04 0.  0.
        3    1    3    3  502    0 -0.37324262651E+03 -0.74101039040E+02 -0.15335217825E+04  0.15800285092E+04  0.10100000352E+00 0.  1.
       -3    1    3    3    0  502  0.37324262651E+03  0.74101039040E+02  0.97164298636E+02  0.39273646808E+03  0.10100000352E+00 0. -1.
</event>
<event>
 5   0  0.3404261E-04  0.1741766E+04  0.7818609E-02  0.8737896E-01
        1   -1    0    0  501    0  0.00000000000E+00  0.00000000000E+00  0.12247472026E+04  0.12247472026E+04  0.50400001928E-02 0. -1.
       -1   -1    0    0    0  501  0.00000000000E+00  0.00000000000E+00 -0.61926023871E+03  0.61926023873E+03  0.50400001928E-02 0.  1.
    10030    2    1    2    0    0  0.00000000000E+00  0.00000000000E+00  0.60548696391E+03  0.18440074414E+04  0.17417660521E+04 0.  0.
        1    1    3    3  502    0  0.29204609698E+03 -0.55756340404E+03  0.93996239461E+03  0.11312370112E+04  0.50400001928E-02 0. -1.
       -1    1    3    3    0  502 -0.29204609698E+03  0.55756340404E+03 -0.33447543070E+03  0.71277043012E+03  0.50400001928E-02 0.  1.
</event>
<event>
 5   0  0.3377273E-04  0.1710292E+04  0.7818609E-02  0.8755516E-01
        1   -1    0    0  501    0  0.00000000000E+00  0.00000000000E+00  0.10201834964E+04  0.10201834964E+04  0.50400001928E-02 0. -1.
       -1   -1    0    0    0  501  0.00000000000E+00  0.00000000000E+00 -0.71680727410E+03  0.71680727412E+03  0.50400001928E-02 0.  1.
    10030    2    1    2    0    0  0.00000000000E+00  0.00000000000E+00  0.30337622227E+03  0.17369907705E+04  0.17102923155E+04 0.  0.
        2    1    3    3  502    0 -0.88608908406E+02  0.40184486447E+03  0.91301949192E+03  0.10014666377E+04  0.25500000920E-02 0. -1.
       -2    1    3    3    0  502  0.88608908406E+02 -0.40184486447E+03 -0.60964326964E+03  0.73552413283E+03  0.25500000920E-02 0.  1.
</event>
<event>
 5   0  0.6929121E-04  0.1867474E+04  0.7818609E-02  0.8671218E-01
        2   -1    0    0  501    0  0.00000000000E+00  0.00000000000E+00  0.15542818381E+04  0.15542818381E+04  0.25500000920E-02 0.  1.
       -2   -1    0    0    0  501  0.00000000000E+00  0.00000000000E+00 -0.56094381086E+03  0.56094381086E+03  0.25500000920E-02 0. -1.
    10030    2    1    2    0    0  0.00000000000E+00  0.00000000000E+00  0.99333802719E+03  0.21152256489E+04  0.18674739917E+04 0.  0.
        3    1    3    3  502    0  0.37159143313E+03 -0.49828011378E+03  0.12858878298E+04  0.14282404510E+04  0.10100000352E+00 0. -1.
       -3    1    3    3    0  502 -0.37159143313E+03  0.49828011378E+03 -0.29254980257E+03  0.68698519791E+03  0.10100000352E+00 0.  1.
</event>
<event>
 5   0  0.3377273E-04  0.1793300E+04  0.7818609E-02  0.8709871E-01
        1   -1    0    0  501    0  0.00000000000E+00  0.00000000000E+00  0.91572111418E+03  0.91572111419E+03  0.50400001928E-02 0.  1.
       -1   -1    0    0    0  501  0.00000000000E+00  0.00000000000E+00 -0.87797617346E+03  0.87797617347E+03  0.50400001928E-02 0. -1.
    10030    2    1    2    0    0  0.00000000000E+00  0.00000000000E+00  0.37744940718E+02  0.17936972877E+04  0.17933001085E+04 0.  0.
        2    1    3    3  502    0 -0.53328189685E+03 -0.57581670306E+03 -0.41484421155E+03  0.88772190290E+03  0.25500000920E-02 0. -1.
       -2    1    3    3    0  502  0.53328189685E+03  0.57581670306E+03  0.45258915227E+03  0.90597538476E+03  0.25500000920E-02 0.  1.
</event>
<event>
 5   0  0.6547153E-04  0.1694076E+04  0.7818609E-02  0.8764750E-01
       -2   -1    0    0    0  501  0.00000000000E+00  0.00000000000E+00  0.84863260713E+03  0.84863260713E+03  0.25500000920E-02 0. -1.
        2   -1    0    0  501    0  0.00000000000E+00  0.00000000000E+00 -0.84544640704E+03  0.84544640704E+03  0.25500000920E-02 0.  1.
    10030    2    1    2    0    0  0.00000000000E+00  0.00000000000E+00  0.31862000906E+01  0.16940790142E+04  0.16940760179E+04 0.  0.
        5    1    3    3  502    0  0.36052483024E+03 -0.76604211485E+03  0.27139645190E+02  0.84708755467E+03  0.46999998093E+01 0.  1.
       -5    1    3    3    0  502 -0.36052483024E+03  0.76604211485E+03 -0.23953445099E+02  0.84699145950E+03  0.46999998093E+01 0. -1.
</event>
<event>
 5   0  0.6771967E-04  0.1847131E+04  0.7818609E-02  0.8681629E-01
       -2   -1    0    0    0  501  0.00000000000E+00  0.00000000000E+00  0.36532253070E+03  0.36532253071E+03  0.25500000920E-02 0. -1.
        2   -1    0    0  501    0  0.00000000000E+00  0.00000000000E+00 -0.23348504306E+04  0.23348504306E+04  0.25500000920E-02 0.  1.
    10030    2    1    2    0    0  0.00000000000E+00  0.00000000000E+00 -0.19695278999E+04  0.27001729613E+04  0.18471312548E+04 0.  0.
        1    1    3    3  502    0 -0.35679075042E+02 -0.36174429712E+03 -0.22258838198E+04  0.22553693073E+04  0.50400001928E-02 0.  1.
       -1    1    3    3    0  502  0.35679075042E+02  0.36174429712E+03  0.25635591995E+03  0.44480365400E+03  0.50400001928E-02 0. -1.
</event>
<event>
 5   0  0.3413839E-04  0.1760668E+04  0.7818609E-02  0.8727500E-01
        1   -1    0    0  501    0  0.00000000000E+00  0.00000000000E+00  0.12554867161E+04  0.12554867161E+04  0.50400001928E-02 0.  1.
       -1   -1    0    0    0  501  0.00000000000E+00  0.00000000000E+00 -0.61728099821E+03  0.61728099823E+03  0.50400001928E-02 0. -1.
    10030    2    1    2    0    0  0.00000000000E+00  0.00000000000E+00  0.63820571785E+03  0.18727677143E+04  0.17606681611E+04 0.  0.
        5    1    3    3  502    0 -0.57784840702E+03  0.11547410939E+03 -0.37654216142E+03  0.69932048502E+03  0.46999998093E+01 0. -1.
       -5    1    3    3    0  502  0.57784840702E+03 -0.11547410939E+03  0.10147478793E+04  0.11734472293E+04  0.46999998093E+01 0.  1.
</event>
<event>
 5   0  0.3308275E-04  0.1837910E+04  0.7818609E-02  0.8686395E-01
        1   -1    0    0  501    0  0.00000000000E+00  0.00000000000E+00  0.18135513565E+04  0.18135513565E+04  0.50400001928E-02 0.  1.
       -1   -1    0    0    0  501  0.00000000000E+00  0.00000000000E+00 -0.46564912926E+03  0.46564912929E+03  0.50400001928E-02 0. -1.
    10030    2    1    2    0    0  0.00000000000E+00  0.00000000000E+00  0.13479022272E+04  0.22792004858E+04  0.18379103461E+04 0.  0.
        3    1    3    3  502    0 -0.41589634513E+03  0.52743963454E+03  0.14516816617E+04  0.15995443086E+04  0.10100000352E+00 0.  1.
       -3    1    3    3    0  502  0.41589634513E+03 -0.52743963454E+03 -0.10377943449E+03  0.67965617720E+03  0.10100000352E+00 0. -1.
</event>
<event>
 5   0  0.3470962E-04  0.1686468E+04  0.7818609E-02  0.8769120E-01
       -1   -1    0    0    0  501  0.00000000000E+00  0.00000000000E+00  0.87007464715E+03  0.87007464717E+03  0.50400001928E-02 0. -1.
        1   -1    0    0  501    0  0.00000000000E+00  0.00000000000E+00 -0.81722121794E+03  0.81722121795E+03  0.50400001928E-02 0.  1.
    10030    2    1    2    0    0  0.00000000000E+00  0.00000000000E+00  0.52853429215E+02  0.16872958651E+04  0.16864678626E+04 0.  0.
        4    1    3    3  502    0  0.78909234639E+03 -0.10716746871E+03  0.30385377243E+03  0.85233815202E+03  0.12699999809E+01 0. -1.
       -4    1    3    3    0  502 -0.78909234639E+03  0.10716746871E+03 -0.25100034321E+03  0.83495771310E+03  0.12699999809E+01 0.  1.
</event>
<event>
 5   0  0.3413839E-04  0.1721682E+04  0.7818609E-02  0.8749094E-01
       -1   -1    0    0    0  501  0.00000000000E+00  0.00000000000E+00  0.43224047760E+03  0.43224047763E+03  0.50400001928E-02 0.  1.
        1   -1    0    0  501    0  0.00000000000E+00  0.00000000000E+00 -0.17144327611E+04  0.17144327611E+04  0.50400001928E-02 0. -1.
    10030    2    1    2    0    0  0.00000000000E+00  0.00000000000E+00 -0.12821922835E+04  0.21466732388E+04  0.17216820096E+04 0.  0.
        5    1    3    3  502    0  0.83187273473E+03 -0.22093114907E+03 -0.62336082409E+03  0.10627434434E+04  0.46999998093E+01 0.  1.
       -5    1    3    3    0  502 -0.83187273473E+03  0.22093114907E+03 -0.65883145943E+03  0.10839297954E+04  0.46999998093E+01 0. -1.
</event>
<event>
 5   0  0.6853162E-04  0.1606119E+04  0.7818609E-02  0.8816797E-01
        2   -1    0    0  501    0  0.00000000000E+00  0.00000000000E+00  0.10959751899E+04  0.10959751899E+04  0.25500000920E-02 0.  1.
       -2   -1    0    0    0  501  0.00000000000E+00  0.00000000000E+00 -0.58843014058E+03  0.58843014058E+03  0.25500000920E-02 0. -1.
    10030    2    1    2    0    0  0.00000000000E+00  0.00000000000E+00  0.50754504933E+03  0.16844053305E+04  0.16061193419E+04 0.  0.
        2    1    3    3  502    0  0.35026174454E+03 -0.66503345063E+03 -0.42767698572E+02  0.75284915899E+03  0.25500000920E-02 0. -1.
       -2    1    3    3    0  502 -0.35026174454E+03  0.66503345063E+03  0.55031274791E+03  0.93155617150E+03  0.25500000920E-02 0.  1.
</event>
<event>
 5   0  0.3377273E-04  0.1763440E+04  0.7818609E-02  0.8725987E-01
        1   -1    0    0  501    0  0.00000000000E+00  0.00000000000E+00  0.11262917652E+04  0.11262917652E+04  0.50400001928E-02 0. -1.
       -1   -1    0    0    0  501  0.00000000000E+00  0.00000000000E+00 -0.69025663655E+03  0.69025663656E+03  0.50400001928E-02 0.  1.
    10030    2    1    2    0    0  0.00000000000E+00  0.00000000000E+00  0.43603512868E+03  0.18165484018E+04  0.17634402351E+04 0.  0.
        2    1    3    3  502    0 -0.65939707787E+03 -0.57383171885E+03  0.99026798075E+02  0.87971225671E+03  0.25500000920E-02 0.  1.
       -2    1    3    3    0  502  0.65939707787E+03  0.57383171885E+03  0.33700833060E+03  0.93683614510E+03  0.25500000920E-02 0. -1.
</event>
<event>
 5   0  0.6547153E-04  0.1457748E+04  0.7818609E-02  0.8913047E-01
        2   -1    0    0  501    0  0.00000000000E+00  0.00000000000E+00  0.80936219384E+03  0.80936219384E+03  0.25500000920E-02 0.  1.
       -2   -1    0    0    0  501  0.00000000000E+00  0.00000000000E+00 -0.65638997101E+03  0.65638997102E+03  0.25500000920E-02 0. -1.
    10030    2    1    2    0    0  0.00000000000E+00  0.00000000000E+00  0.15297222283E+03  0.14657521649E+04  0.14577478890E+04 0.  0.
        5    1    3    3  502    0  0.88484771527E+02  0.70681136675E+03  0.23168151193E+03  0.74907294433E+03  0.46999998093E+01 0.  1.
       -5    1    3    3    0  502 -0.88484771527E+02 -0.70681136675E+03 -0.78709289103E+02  0.71667922053E+03  0.46999998093E+01 0. -1.
</event>
<event>
 5   0  0.3404261E-04  0.1788180E+04  0.7818609E-02  0.8712611E-01
       -1   -1    0    0    0  501  0.00000000000E+00  0.00000000000E+00  0.10194865844E+04  0.10194865845E+04  0.50400001928E-02 0. -1.
        1   -1    0    0  501    0  0.00000000000E+00  0.00000000000E+00 -0.78411720235E+03  0.78411720237E+03  0.50400001928E-02 0.  1.
    10030    2    1    2    0    0  0.00000000000E+00  0.00000000000E+00  0.23536938209E+03  0.18036037868E+04  0.17881800451E+04 0.  0.
        1    1    3    3  502    0 -0.69827782320E+02 -0.84391747974E+03 -0.17171230197E+03  0.86403573217E+03  0.50400001928E-02 0.  1.
       -1    1    3    3    0  502  0.69827782320E+02  0.84391747974E+03  0.40708168406E+03  0.93956805465E+03  0.50400001928E-02 0. -1.
</event>
<event>
 5   0  0.6929121E-04  0.1832810E+04  0.7818609E-02  0.8689043E-01
        2   -1    0    0  501    0  0.00000000000E+00  0.00000000000E+00  0.13582384554E+04  0.13582384554E+04  0.25500000920E-02 0. -1.
       -2   -1    0    0    0  501  0.00000000000E+00  0.00000000000E+00 -0.61829968320E+03  0.61829968321E+03  0.25500000920E-02 0.  1.
    10030    2    1    2    0    0  0.00000000000E+00  0.00000000000E+00  0.73993877220E+03  0.19765381386E+04  0.18328103085E+04 0.  0.
        3    1    3    3  502    0 -0.86060193290E+03  0.21589249089E+03  0.61719133339E+03  0.10808193220E+04  0.10100000352E+00 0.  1.
       -3    1    3    3    0  502  0.86060193290E+03 -0.21589249089E+03  0.12274743881E+03  0.89571881664E+03  0.10100000352E+00 0. -1.
</event>
<event>
 5   0  0.6547153E-04  0.1746787E+04  0.7818609E-02  0.8735121E-01
        2   -1    0    0  501    0  0.00000000000E+00  0.00000000000E+00  0.13755430933E+04  0.13755430933E+04  0.25500000920E-02 0.  1.
       -2   -1    0    0    0  501  0.00000000000E+00  0.00000000000E+00 -0.55455650683E+03  0.55455650683E+03  0.25500000920E-02 0. -1.
    10030    2    1    2    0    0  0.00000000000E+00  0.00000000000E+00  0.82098658652E+03  0.19300996002E+04  0.17467871912E+04 0.  0.
        5    1    3    3  502    0  0.85757197314E+03 -0.95572042715E+02  0.55968337284E+03  0.10285092476E+04  0.46999998093E+01 0.  1.
       -5    1    3    3    0  502 -0.85757197314E+03  0.95572042715E+02  0.26130321368E+03  0.90159035263E+03  0.46999998093E+01 0. -1.
</event>
<event>
 5   0  0.6547153E-04  0.1814192E+04  0.7818609E-02  0.8698789E-01
       -2   -1    0    0    0  501  0.00000000000E+00  0.00000000000E+00  0.89110066129E+03  0.89110066129E+03  0.25500000920E-02 0. -1.
        2   -1    0    0  501    0  0.00000000000E+00  0.00000000000E+00 -0.92337825705E+03  0.92337825705E+03  0.25500000920E-02 0.  1.
    10030    2    1    2    0    0  0.00000000000E+00  0.00000000000E+00 -0.32277595763E+02  0.18144789183E+04  0.18141918041E+04 0.  0.
        5    1    3    3  502    0 -0.84087086989E+03  0.28622752488E+03  0.16776762483E+03  0.90396796502E+03  0.46999998093E+01 0. -1.
       -5    1    3    3    0  502  0.84087086989E+03 -0.28622752488E+03 -0.20004522060E+03  0.91051095332E+03  0.46999998093E+01 0.  1.
</event>
<event>
 5   0  0.6929121E-04  0.1805095E+04  0.7818609E-02  0.8703595E-01
        2   -1    0    0  501    0  0.00000000000E+00  0.00000000000E+00  0.15574475466E+04  0.15574475466E+04  0.25500000920E-02 0.  1.
       -2   -1    0    0    0  501  0.00000000000E+00  0.00000000000E+00 -0.52302986262E+03  0.52302986262E+03  0.25500000920E-02 0. -1.
    10030    2    1    2    0    0  0.00000000000E+00  0.00000000000E+00  0.10344176840E+04  0.20804774093E+04  0.18050945420E+04 0.  0.
        3    1    3    3  502    0  0.97843356348E+02 -0.20511818226E+03 -0.48951325891E+03  0.53969438752E+03  0.10100000352E+00 0. -1.
       -3    1    3    3    0  502 -0.97843356348E+02  0.20511818226E+03  0.15239309429E+04  0.15407830217E+04  0.10100000352E+00 0.  1.
</event>
<event>
 5   0  0.3404261E-04  0.1837835E+04  0.7818609E-02  0.8686434E-01
        1   -1    0    0  501    0  0.00000000000E+00  0.00000000000E+00  0.15164348690E+04  0.15164348690E+04  0.50400001928E-02 0.  1.
       -1   -1    0    0    0  501  0.00000000000E+00  0.00000000000E+00 -0.55683850450E+03  0.55683850452E+03  0.50400001928E-02 0. -1.
    10030    2    1    2    0    0  0.00000000000E+00  0.00000000000E+00  0.95959636453E+03  0.20732733736E+04  0.18378349487E+04 0.  0.
        1    1    3    3  502    0  0.23449426593E+03  0.41060424922E+03  0.13686614978E+04  0.14480392626E+04  0.50400001928E-02 0.  1.
       -1    1    3    3    0  502 -0.23449426593E+03 -0.41060424922E+03 -0.40906513331E+03  0.62523411099E+03  0.50400001928E-02 0. -1.
</event>
<event>
 5   0  0.3470962E-04  0.1710351E+04  0.7818609E-02  0.8755483E-01
        1   -1    0    0  501    0  0.00000000000E+00  0.00000000000E+00  0.11575123492E+04  0.11575123492E+04  0.50400001928E-02 0. -1.
       -1   -1    0    0    0  501  0.00000000000E+00  0.00000000000E+00 -0.63180738314E+03  0.63180738316E+03  0.50400001928E-02 0.  1.
    10030    2    1    2    0    0  0.00000000000E+00  0.00000000000E+00  0.52570496606E+03  0.17893197324E+04  0.17103506638E+04 0.  0.
        4    1    3    3  502    0  0.31678377585E+03 -0.36604884733E+03 -0.47466451668E+03  0.67797620575E+03  0.12699999809E+01 0.  1.
       -4    1    3    3    0  502 -0.31678377585E+03  0.36604884733E+03  0.10003694827E+04  0.11113435266E+04  0.12699999809E+01 0. -1.
</event>
<event>
 5   0  0.3413839E-04  0.1566420E+04  0.7818609E-02  0.8841447E-01
       -1   -1    0    0    0  501  0.00000000000E+00  0.00000000000E+00  0.89373832273E+03  0.89373832274E+03  0.50400001928E-02 0. -1.
        1   -1    0    0  501    0  0.00000000000E+00  0.00000000000E+00 -0.68635076344E+03  0.68635076345E+03  0.50400001928E-02 0.  1.
    10030    2    1    2    0    0  0.00000000000E+00  0.00000000000E+00  0.20738755929E+03  0.15800890862E+04  0.15664200971E+04 0.  0.
        5    1    3    3  502    0 -0.29097463348E+03  0.25880973596E+02 -0.62932464664E+03  0.69383547256E+03  0.46999998093E+01 0.  1.
       -5    1    3    3    0  502  0.29097463348E+03 -0.25880973596E+02  0.83671220593E+03  0.88625361363E+03  0.46999998093E+01 0. -1.
</event>
<event>
 5   0  0.6853162E-04  0.1805554E+04  0.7818609E-02  0.8703351E-01
       -2   -1    0    0    0  501  0.00000000000E+00  0.00000000000E+00  0.37548347964E+03  0.37548347965E+03  0.25500000920E-02 0.  1.
        2   -1    0    0  501    0  0.00000000000E+00  0.00000000000E+00 -0.21705526820E+04  0.21705526820E+04  0.25500000920E-02 0. -1.
    10030    2    1    2    0    0  0.00000000000E+00  0.00000000000E+00 -0.17950692024E+04  0.25460361617E+04  0.18055544011E+04 0.  0.
        2    1    3    3  502    0  0.29621979364E+03  0.82441189271E+03 -0.12052028871E+04  0.14899379631E+04  0.25500000920E-02 0. -1.
       -2    1    3    3    0  502 -0.29621979364E+03 -0.82441189271E+03 -0.58986631529E+03  0.10560981985E+04  0.25500000920E-02 0.  1.
</event>
<event>
 5   0  0.3308275E-04  0.1574316E+04  0.7818609E-02  0.8836484E-01
       -1   -1    0    0    0  501  0.00000000000E+00  0.00000000000E+00  0.41996165299E+03  0.41996165302E+03  0.50400001928E-02 0. -1.
        1   -1    0    0  501    0  0.00000000000E+00  0.00000000000E+00 -0.14754158401E+04  0.14754158401E+04  0.50400001928E-02 0.  1.
    10030    2    1    2    0    0  0.00000000000E+00  0.00000000000E+00 -0.10554541871E+04  0.18953774931E+04  0.15743164550E+04 0.  0.
        3    1    3    3  502    0 -0.56326973822E+03  0.24620236980E+03 -0.11196547817E+04  0.12773078115E+04  0.10100000352E+00 0.  1.
       -3    1    3    3    0  502  0.56326973822E+03 -0.24620236980E+03  0.64200594534E+02  0.61806968170E+03  0.10100000352E+00 0. -1.
</event>
<event>
 5   0  0.3470962E-04  0.1806032E+04  0.7818609E-02  0.8703099E-01
       -1   -1    0    0    0  501  0.00000000000E+00  0.00000000000E+00  0.38217847448E+03  0.38217847451E+03  0.50400001928E-02 0. -1.
        1   -1    0    0  501    0  0.00000000000E+00  0.00000000000E+00 -0.21336563280E+04  0.21336563280E+04  0.50400001928E-02 0.  1.
    10030    2    1    2    0    0  0.00000000000E+00  0.00000000000E+00 -0.17514778536E+04  0.25158348026E+04  0.18060315839E+04 0.  0.
        4    1    3    3  502    0 -0.36994478181E+03 -0.17651219455E+03 -0.19965951467E+04  0.20382368579E+04  0.12699999809E+01 0.  1.
       -4    1    3    3    0  502  0.36994478181E+03  0.17651219455E+03  0.24511729312E+03  0.47759794461E+03  0.12699999809E+01 0. -1.
</event>
<event>
 5   0  0.6774451E-04  0.1080323E+04  0.7818609E-02  0.9224585E-01
        2   -1    0    0  501    0  0.00000000000E+00  0.00000000000E+00  0.96874083301E+03  0.96874083302E+03  0.25500000920E-02 0. -1.
       -2   -1    0    0    0  501  0.00000000000E+00  0.00000000000E+00 -0.30118961606E+03  0.30118961607E+03  0.25500000920E-02 0.  1.
    10030    2    1    2    0    0  0.00000000000E+00  0.00000000000E+00  0.66755121695E+03  0.12699304491E+04  0.10803234323E+04 0.  0.
        4    1    3    3  502    0 -0.35172346966E+03  0.44587462991E+02 -0.14527245513E+03  0.38314897897E+03  0.12699999809E+01 0.  1.
       -4    1    3    3    0  502  0.35172346966E+03 -0.44587462991E+02  0.81282367208E+03  0.88678147012E+03  0.12699999809E+01 0. -1.
</event>
<event>
 5   0  0.3470962E-04  0.1860423E+04  0.7818609E-02  0.8674811E-01
       -1   -1    0    0    0  501  0.00000000000E+00  0.00000000000E+00  0.33128534747E+03  0.33128534751E+03  0.50400001928E-02 0. -1.
        1   -1    0    0  501    0  0.00000000000E+00  0.00000000000E+00 -0.26119267289E+04  0.26119267289E+04  0.50400001928E-02 0.  1.
    10030    2    1    2    0    0  0.00000000000E+00  0.00000000000E+00 -0.22806413815E+04  0.29432120764E+04  0.18604225907E+04 0.  0.
        4    1    3    3  502    0 -0.48772597664E+03  0.18918180233E+03 -0.23571600047E+04  0.24145126389E+04  0.12699999809E+01 0.  1.
       -4    1    3    3    0  502  0.48772597664E+03 -0.18918180233E+03  0.76518623289E+02  0.52869943752E+03  0.12699999809E+01 0. -1.
</event>
<event>
 5   0  0.3470962E-04  0.1803911E+04  0.7818609E-02  0.8704222E-01
       -1   -1    0    0    0  501  0.00000000000E+00  0.00000000000E+00  0.74137660027E+03  0.74137660029E+03  0.50400001928E-02 0. -1.
        1   -1    0    0  501    0  0.00000000000E+00  0.00000000000E+00 -0.10973150880E+04  0.10973150880E+04  0.50400001928E-02 0.  1.
    10030    2    1    2    0    0  0.00000000000E+00  0.00000000000E+00 -0.35593848775E+03  0.18386916883E+04  0.18039110060E+04 0.  0.
        4    1    3    3  502    0 -0.42966244557E+02  0.62366284047E+03 -0.84067470844E+03  0.10476340082E+04  0.12699999809E+01 0.  1.
       -4    1    3    3    0  502  0.42966244557E+02 -0.62366284047E+03  0.48473622070E+03  0.79105768014E+03  0.12699999809E+01 0. -1.
</event>
<event>
 5   0  0.3404261E-04  0.1796877E+04  0.7818609E-02  0.8707962E-01
       -1   -1    0    0    0  501  0.00000000000E+00  0.00000000000E+00  0.65838100441E+03  0.65838100443E+03  0.50400001928E-02 0. -1.
        1   -1    0    0  501    0  0.00000000000E+00  0.00000000000E+00 -0.12260253206E+04  0.12260253206E+04  0.50400001928E-02 0.  1.
    10030    2    1    2    0    0  0.00000000000E+00  0.00000000000E+00 -0.56764431623E+03  0.18844063251E+04  0.17968770487E+04 0.  0.
        1    1    3    3  502    0 -0.45576542483E+03  0.67682068660E+03 -0.67814817298E+03  0.10609869504E+04  0.50400001928E-02 0.  1.
       -1    1    3    3    0  502  0.45576542483E+03 -0.67682068660E+03  0.11050385675E+03  0.82341937472E+03  0.50400001928E-02 0. -1.
</event>
<event>
 5   0  0.6771967E-04  0.1767811E+04  0.7818609E-02  0.8723607E-01
       -2   -1    0    0    0  501  0.00000000000E+00  0.00000000000E+00  0.92167561128E+03  0.92167561128E+03  0.25500000920E-02 0.  1.
        2   -1    0    0  501    0  0.00000000000E+00  0.00000000000E+00 -0.84768307454E+03  0.84768307454E+03  0.25500000920E-02 0. -1.
    10030    2    1    2    0    0  0.00000000000E+00  0.00000000000E+00  0.73992536736E+02  0.17693586858E+04  0.17678108676E+04 0.  0.
        1    1    3    3  502    0  0.45468495281E+03 -0.60547630601E+02 -0.71923419563E+03  0.85305465831E+03  0.50400001928E-02 0. -1.
       -1    1    3    3    0  502 -0.45468495281E+03  0.60547630601E+02  0.79322673236E+03  0.91630402751E+03  0.50400001928E-02 0.  1.
</event>
<event>
 5   0  0.3308275E-04  0.1830324E+04  0.7818609E-02  0.8690338E-01
        1   -1    0    0  501    0  0.00000000000E+00  0.00000000000E+00  0.14914832681E+04  0.14914832681E+04  0.50400001928E-02 0. -1.
       -1   -1    0    0    0  501  0.00000000000E+00  0.00000000000E+00 -0.56153608967E+03  0.56153608969E+03  0.50400001928E-02 0.  1.
    10030    2    1    2    0    0  0.00000000000E+00  0.00000000000E+00  0.92994717846E+03  0.20530193578E+04  0.18303242141E+04 0.  0.
        3    1    3    3  502    0  0.26930239455E+03  0.12938651400E+03  0.14352387105E+04  0.14660064174E+04  0.10100000352E+00 0. -1.
       -3    1    3    3    0  502 -0.26930239455E+03 -0.12938651400E+03 -0.50529153199E+03  0.58701294042E+03  0.10100000352E+00 0.  1.
</event>
<event>
 5   0  0.6853162E-04  0.1844872E+04  0.7818609E-02  0.8682795E-01
        2   -1    0    0  501    0  0.00000000000E+00  0.00000000000E+00  0.20136172947E+04  0.20136172947E+04  0.25500000920E-02 0. -1.
       -2   -1    0    0    0  501  0.00000000000E+00  0.00000000000E+00 -0.42256676298E+03  0.42256676299E+03  0.25500000920E-02 0.  1.
    10030    2    1    2    0    0  0.00000000000E+00  0.00000000000E+00  0.15910505317E+04  0.24361840576E+04  0.18448715317E+04 0.  0.
        2    1    3    3  502    0  0.34852825226E+03 -0.54784346711E+03 -0.69673681164E+02  0.65303815274E+03  0.25500000920E-02 0.  1.
       -2    1    3    3    0  502 -0.34852825226E+03  0.54784346711E+03  0.16607242128E+04  0.17831459049E+04  0.25500000920E-02 0. -1.
</event>
<event>
 5   0  0.6929121E-04  0.1654060E+04  0.7818609E-02  0.8788008E-01
        2   -1    0    0  501    0  0.00000000000E+00  0.00000000000E+00  0.19558534366E+04  0.19558534366E+04  0.25500000920E-02 0.  1.
       -2   -1    0    0    0  501  0.00000000000E+00  0.00000000000E+00 -0.34970867239E+03  0.34970867240E+03  0.25500000920E-02 0. -1.
    10030    2    1    2    0    0  0.00000000000E+00  0.00000000000E+00  0.16061447642E+04  0.23055621090E+04  0.16540603480E+04 0.  0.
        3    1    3    3  502    0 -0.24804875586E+03 -0.67109793374E+03  0.22485851989E+03  0.74997465698E+03  0.10100000352E+00 0.  1.
       -3    1    3    3    0  502  0.24804875586E+03  0.67109793374E+03  0.13812862443E+04  0.15555874520E+04  0.10100000352E+00 0. -1.
</event>
<event>
 5   0  0.2467375E-04  0.1830634E+04  0.7818609E-02  0.8690176E-01
        3   -1    0    0  501    0  0.00000000000E+00  0.00000000000E+00  0.38637748098E+03  0.38637749418E+03  0.10100000352E+00 0. -1.
       -3   -1    0    0    0  501  0.00000000000E+00  0.00000000000E+00 -0.21683587816E+04  0.21683587840E+04  0.10100000352E+00 0.  1.
    10030    2    1    2    0    0  0.00000000000E+00  0.00000000000E+00 -0.17819813007E+04  0.25547362782E+04  0.18306337960E+04 0.  0.
        3    1    3    3  502    0 -0.34116614353E+03 -0.53724370468E+03 -0.18090655829E+04  0.19177443597E+04  0.10100000352E+00 0.  1.
       -3    1    3    3    0  502  0.34116614353E+03  0.53724370468E+03  0.27084282201E+02  0.63699191851E+03  0.10100000352E+00 0. -1.
</event>
<event>
 5   0  0.3413839E-04  0.1232252E+04  0.7818609E-02  0.9085085E-01
        1   -1    0    0  501    0  0.00000000000E+00  0.00000000000E+00  0.95707741010E+03  0.95707741011E+03  0.50400001928E-02 0.  1.
       -1   -1    0    0    0  501  0.00000000000E+00  0.00000000000E+00 -0.39663620763E+03  0.39663620766E+03  0.50400001928E-02 0. -1.
    10030    2    1    2    0    0  0.00000000000E+00  0.00000000000E+00  0.56044120247E+03  0.13537136178E+04  0.12322524975E+04 0.  0.
        5    1    3    3  502    0  0.11277610157E+03 -0.50240615731E+03 -0.91444851440E+02  0.52298627787E+03  0.46999998093E+01 0. -1.
       -5    1    3    3    0  502 -0.11277610157E+03  0.50240615731E+03  0.65188605391E+03  0.83072733990E+03  0.46999998093E+01 0.  1.
</event>
<event>
 5   0  0.6774451E-04  0.1808968E+04  0.7818609E-02  0.8701545E-01
        2   -1    0    0  501    0  0.00000000000E+00  0.00000000000E+00  0.72875884673E+03  0.72875884674E+03  0.25500000920E-02 0.  1.
       -2   -1    0    0    0  501  0.00000000000E+00  0.00000000000E+00 -0.11225818632E+04  0.11225818632E+04  0.25500000920E-02 0. -1.
    10030    2    1    2    0    0  0.00000000000E+00  0.00000000000E+00 -0.39382301649E+03  0.18513407100E+04  0.18089681744E+04 0.  0.
        4    1    3    3  502    0 -0.68290977671E+03 -0.51060842552E+03  0.11182186275E+03  0.85999562163E+03  0.12699999809E+01 0.  1.
       -4    1    3    3    0  502  0.68290977671E+03  0.51060842552E+03 -0.50564487923E+03  0.99134508832E+03  0.12699999809E+01 0. -1.
</event>
<event>
 5   0  0.6774451E-04  0.1815422E+04  0.7818609E-02  0.8698141E-01
       -2   -1    0    0    0  501  0.00000000000E+00  0.00000000000E+00  0.62560614481E+03  0.62560614481E+03  0.25500000920E-02 0. -1.
        2   -1    0    0  501    0  0.00000000000E+00  0.00000000000E+00 -0.13170257752E+04  0.13170257752E+04  0.25500000920E-02 0.  1.
    10030    2    1    2    0    0  0.00000000000E+00  0.00000000000E+00 -0.69141963041E+03  0.19426319200E+04  0.18154221744E+04 0.  0.
        4    1    3    3  502    0  0.76681699554E+03  0.48194322242E+03 -0.41044898299E+03  0.99435786054E+03  0.12699999809E+01 0.  1.
       -4    1    3    3    0  502 -0.76681699554E+03 -0.48194322242E+03 -0.28097064742E+03  0.94827405949E+03  0.12699999809E+01 0. -1.
</event>
<event>
 5   0  0.6853162E-04  0.1775022E+04  0.7818609E-02  0.8719696E-01
       -2   -1    0    0    0  501  0.00000000000E+00  0.00000000000E+00  0.94276766516E+03  0.94276766517E+03  0.25500000920E-02 0.  1.
        2   -1    0    0  501    0  0.00000000000E+00  0.00000000000E+00 -0.83549288220E+03  0.83549288221E+03  0.25500000920E-02 0. -1.
    10030    2    1    2    0    0  0.00000000000E+00  0.00000000000E+00  0.10727478296E+03  0.17782605474E+04  0.17750218859E+04 0.  0.
        2    1    3    3  502    0 -0.25051574507E+03  0.85064456102E+03  0.90054315526E+02  0.89132714952E+03  0.25500000920E-02 0.  1.
       -2    1    3    3    0  502  0.25051574507E+03 -0.85064456102E+03  0.17220467436E+02  0.88693339785E+03  0.25500000920E-02 0. -1.
</event>
<event>
 5   0  0.3413839E-04  0.1808079E+04  0.7818609E-02  0.8702015E-01
        1   -1    0    0  501    0  0.00000000000E+00  0.00000000000E+00  0.13264072486E+04  0.13264072486E+04  0.50400001928E-02 0. -1.
       -1   -1    0    0    0  501  0.00000000000E+00  0.00000000000E+00 -0.61616624658E+03  0.61616624660E+03  0.50400001928E-02 0.  1.
    10030    2    1    2    0    0  0.00000000000E+00  0.00000000000E+00  0.71024100200E+03  0.19425734952E+04  0.18080789538E+04 0.  0.
        5    1    3    3  502    0 -0.44514072041E+03  0.60460865399E+03  0.89612808280E+03  0.11690891823E+04  0.46999998093E+01 0. -1.
       -5    1    3    3    0  502  0.44514072041E+03 -0.60460865399E+03 -0.18588708080E+03  0.77348431287E+03  0.46999998093E+01 0.  1.
</event>
<event>
 5   0  0.6929121E-04  0.1833268E+04  0.7818609E-02  0.8688805E-01
       -2   -1    0    0    0  501  0.00000000000E+00  0.00000000000E+00  0.96821151393E+03  0.96821151394E+03  0.25500000920E-02 0.  1.
        2   -1    0    0  501    0  0.00000000000E+00  0.00000000000E+00 -0.86780407852E+03  0.86780407852E+03  0.25500000920E-02 0. -1.
    10030    2    1    2    0    0  0.00000000000E+00  0.00000000000E+00  0.10040743541E+03  0.18360155925E+04  0.18332680117E+04 0.  0.
        3    1    3    3  502    0 -0.44495525646E+03  0.37325035987E+03 -0.66002546065E+03  0.87916700934E+03  0.10100000352E+00 0. -1.
       -3    1    3    3    0  502  0.44495525646E+03 -0.37325035987E+03  0.76043289607E+03  0.95684858312E+03  0.10100000352E+00 0.  1.
</event>
<event>
 5   0  0.2467375E-04  0.1819964E+04  0.7818609E-02  0.8695754E-01
        3   -1    0    0  501    0  0.00000000000E+00  0.00000000000E+00  0.10740206881E+04  0.10740206928E+04  0.10100000352E+00 0.  1.
       -3   -1    0    0    0  501  0.00000000000E+00  0.00000000000E+00 -0.77099738411E+03  0.77099739073E+03  0.10100000352E+00 0. -1.
    10030    2    1    2    0    0  0.00000000000E+00  0.00000000000E+00  0.30302330397E+03  0.18450180836E+04  0.18199639024E+04 0.  0.
        2    1    3    3  502    0 -0.68531335771E+03  0.59644525825E+03  0.99169422737E+02  0.91391242401E+03  0.25500000920E-02 0. -1.
       -2    1    3    3    0  502  0.68531335771E+03 -0.59644525825E+03  0.20385388124E+03  0.93110565955E+03  0.25500000920E-02 0.  1.
</event>
<event>
 5   0  0.3308275E-04  0.1806264E+04  0.7818609E-02  0.8702975E-01
       -1   -1    0    0    0  501  0.00000000000E+00  0.00000000000E+00  0.63946090799E+03  0.63946090801E+03  0.50400001928E-02 0.  1.
        1   -1    0    0  501    0  0.00000000000E+00  0.00000000000E+00 -0.12755235725E+04  0.12755235725E+04  0.50400001928E-02 0. -1.
    10030    2    1    2    0    0  0.00000000000E+00  0.00000000000E+00 -0.63606266447E+03  0.19149844805E+04  0.18062640580E+04 0.  0.
        3    1    3    3  502    0 -0.67615436549E+03 -0.29090700330E+03 -0.87282202110E+03  0.11417661325E+04  0.10100000352E+00 0. -1.
       -3    1    3    3    0  502  0.67615436549E+03  0.29090700330E+03  0.23675935663E+03  0.77321834800E+03  0.10100000352E+00 0.  1.
</event>
<event>
 5   0  0.2467375E-04  0.1461556E+04  0.7818609E-02  0.8910428E-01
       -3   -1    0    0    0  501  0.00000000000E+00  0.00000000000E+00  0.54458052747E+03  0.54458053683E+03  0.10100000352E+00 0. -1.
        3   -1    0    0  501    0  0.00000000000E+00  0.00000000000E+00 -0.98063820859E+03  0.98063821379E+03  0.10100000352E+00 0.  1.
    10030    2    1    2    0    0  0.00000000000E+00  0.00000000000E+00 -0.43605768112E+03  0.15252187506E+04  0.14615559982E+04 0.  0.
        4    1    3    3  502    0  0.38001470709E+03  0.52364925172E+03  0.13649716299E+03  0.66125093939E+03  0.12699999809E+01 0. -1.
       -4    1    3    3    0  502 -0.38001470709E+03 -0.52364925172E+03 -0.57255484411E+03  0.86396781124E+03  0.12699999809E+01 0.  1.
</event>
<event>
 5   0  0.6774451E-04  0.1779343E+04  0.7818609E-02  0.8717362E-01
        2   -1    0    0  501    0  0.00000000000E+00  0.00000000000E+00  0.29797199777E+04  0.29797199777E+04  0.25500000920E-02 0. -1.
       -2   -1    0    0    0  501  0.00000000000E+00  0.00000000000E+00 -0.26563428012E+03  0.26563428014E+03  0.25500000920E-02 0.  1.
    10030    2    1    2    0    0  0.00000000000E+00  0.00000000000E+00  0.27140856976E+04  0.32453542579E+04  0.17793434421E+04 0.  0.
        4    1    3    3  502    0 -0.18303889011E+03  0.82411465557E+03  0.18691867962E+04  0.20509824702E+04  0.12699999809E+01 0. -1.
       -4    1    3    3    0  502  0.18303889011E+03 -0.82411465557E+03  0.84489890140E+03  0.11943717877E+04  0.12699999809E+01 0.  1.
</event>
<event>
 5   0  0.3470962E-04  0.1626268E+04  0.7818609E-02  0.8804571E-01
        1   -1    0    0  501    0  0.00000000000E+00  0.00000000000E+00  0.25788372292E+04  0.25788372292E+04  0.50400001928E-02 0. -1.
       -1   -1    0    0    0  501  0.00000000000E+00  0.00000000000E+00 -0.25638959314E+03  0.25638959319E+03  0.50400001928E-02 0.  1.
    10030    2    1    2    0    0  0.00000000000E+00  0.00000000000E+00  0.23224476361E+04  0.28352268224E+04  0.16262681551E+04 0.  0.
        4    1    3    3  502    0 -0.78154427336E+02  0.30101679544E+03 -0.14860523056E+03  0.34468007355E+03  0.12699999809E+01 0.  1.
       -4    1    3    3    0  502  0.78154427336E+02 -0.30101679544E+03  0.24710528666E+04  0.24905467489E+04  0.12699999809E+01 0. -1.
</event>
<event>
 5   0  0.3308275E-04  0.1818491E+04  0.7818609E-02  0.8696528E-01
       -1   -1    0    0    0  501  0.00000000000E+00  0.00000000000E+00  0.53239764765E+03  0.53239764768E+03  0.50400001928E-02 0.  1.
        1   -1    0    0  501    0  0.00000000000E+00  0.00000000000E+00 -0.15528375981E+04  0.15528375981E+04  0.50400001928E-02 0. -1.
    10030    2    1    2    0    0  0.00000000000E+00  0.00000000000E+00 -0.10204399504E+04  0.20852352458E+04  0.18184906758E+04 0.  0.
        3    1    3    3  502    0 -0.53855656070E+03  0.23784033206E+03  0.28432230882E+03  0.65379689363E+03  0.10100000352E+00 0.  1.
       -3    1    3    3    0  502  0.53855656070E+03 -0.23784033206E+03 -0.13047622593E+04  0.14314383522E+04  0.10100000352E+00 0. -1.
</event>
<event>
 5   0  0.6853162E-04  0.1776401E+04  0.7818609E-02  0.8718951E-01
       -2   -1    0    0    0  501  0.00000000000E+00  0.00000000000E+00  0.10347635407E+04  0.10347635407E+04  0.25500000920E-02 0.  1.
        2   -1    0    0  501    0  0.00000000000E+00  0.00000000000E+00 -0.76239681042E+03  0.76239681042E+03  0.25500000920E-02 0. -1.
    10030    2    1    2    0    0  0.00000000000E+00  0.00000000000E+00  0.27236673027E+03  0.17971603511E+04  0.17764013319E+04 0.  0.
        2    1    3    3  502    0 -0.31988471380E+03 -0.77319051918E+03 -0.16520842734E+03  0.85290306222E+03  0.25500000920E-02 0. -1.
       -2    1    3    3    0  502  0.31988471380E+03  0.77319051918E+03  0.43757515761E+03  0.94425728890E+03  0.25500000920E-02 0.  1.
</event>
<event>
 5   0  0.3308275E-04  0.1821660E+04  0.7818609E-02  0.8694865E-01
        1   -1    0    0  501    0  0.00000000000E+00  0.00000000000E+00  0.16146397646E+04  0.16146397646E+04  0.50400001928E-02 0. -1.
       -1   -1    0    0    0  501  0.00000000000E+00  0.00000000000E+00 -0.51380579968E+03  0.51380579971E+03  0.50400001928E-02 0.  1.
    10030    2    1    2    0    0  0.00000000000E+00  0.00000000000E+00  0.11008339650E+04  0.21284455643E+04  0.18216599853E+04 0.  0.
        3    1    3    3  502    0  0.42922686249E+03  0.53915289690E+03 -0.14543926258E+03  0.70432530482E+03  0.10100000352E+00 0.  1.
       -3    1    3    3    0  502 -0.42922686249E+03 -0.53915289690E+03  0.12462732275E+04  0.14241202595E+04  0.10100000352E+00 0. -1.
</event>
<event>
 5   0  0.6774451E-04  0.1822867E+04  0.7818609E-02  0.8694233E-01
        2   -1    0    0  501    0  0.00000000000E+00  0.00000000000E+00  0.99425223007E+03  0.99425223008E+03  0.25500000920E-02 0.  1.
       -2   -1    0    0    0  501  0.00000000000E+00  0.00000000000E+00 -0.83551316281E+03  0.83551316281E+03  0.25500000920E-02 0. -1.
    10030    2    1    2    0    0  0.00000000000E+00  0.00000000000E+00  0.15873906727E+03  0.18297653929E+04  0.18228667811E+04 0.  0.
        4    1    3    3  502    0  0.10543831238E+03 -0.60921772519E+03  0.75156476801E+03  0.97319817500E+03  0.12699999809E+01 0. -1.
       -4    1    3    3    0  502 -0.10543831238E+03  0.60921772519E+03 -0.59282570074E+03  0.85656721789E+03  0.12699999809E+01 0.  1.
</event>
<event>
 5   0  0.6771967E-04  0.1785142E+04  0.7818609E-02  0.8714241E-01
       -2   -1    0    0    0  501  0.00000000000E+00  0.00000000000E+00  0.53048860386E+03  0.53048860387E+03  0.25500000920E-02 0.  1.
        2   -1    0    0  501    0  0.00000000000E+00  0.00000000000E+00 -0.15017904934E+04  0.15017904934E+04  0.25500000920E-02 0. -1.
    10030    2    1    2    0    0  0.00000000000E+00  0.00000000000E+00 -0.97130188954E+03  0.20322790973E+04  0.17851417223E+04 0.  0.
        1    1    3    3  502    0  0.12750257005E+03 -0.84895523007E+03 -0.20748694532E+03  0.88319461080E+03  0.50400001928E-02 0.  1.
       -1    1    3    3    0  502 -0.12750257005E+03  0.84895523007E+03 -0.76381494422E+03  0.11490844865E+04  0.50400001928E-02 0. -1.
</event>
<event>
 5   0  0.6929121E-04  0.1827517E+04  0.7818609E-02  0.8691802E-01
       -2   -1    0    0    0  501  0.00000000000E+00  0.00000000000E+00  0.80425251527E+03  0.80425251527E+03  0.25500000920E-02 0. -1.
        2   -1    0    0  501    0  0.00000000000E+00  0.00000000000E+00 -0.10381748406E+04  0.10381748406E+04  0.25500000920E-02 0.  1.
    10030    2    1    2    0    0  0.00000000000E+00  0.00000000000E+00 -0.23392232535E+03  0.18424273559E+04  0.18275171429E+04 0.  0.
        3    1    3    3  502    0 -0.64060150527E+03 -0.54544843614E+03 -0.47633889697E+03  0.96684178644E+03  0.10100000352E+00 0.  1.
       -3    1    3    3    0  502  0.64060150527E+03  0.54544843614E+03  0.24241657162E+03  0.87558556945E+03  0.10100000352E+00 0. -1.
</event>
<event>
 5   0  0.6929121E-04  0.1771131E+04  0.7818609E-02  0.8721804E-01
       -2   -1    0    0    0  501  0.00000000000E+00  0.00000000000E+00  0.91664441068E+03  0.91664441068E+03  0.25500000920E-02 0.  1.
        2   -1    0    0  501    0  0.00000000000E+00  0.00000000000E+00 -0.85554064213E+03  0.85554064213E+03  0.25500000920E-02 0. -1.
    10030    2    1    2    0    0  0.00000000000E+00  0.00000000000E+00  0.61103768552E+02  0.17721850528E+04  0.17711313308E+04 0.  0.
        3    1    3    3  502    0  0.17975772604E+03  0.19729854400E+03 -0.81433604170E+03  0.85696134950E+03  0.10100000352E+00 0. -1.
       -3    1    3    3    0  502 -0.17975772604E+03 -0.19729854400E+03  0.87543981025E+03  0.91522370331E+03  0.10100000352E+00 0.  1.
</event>
<event>
 5   0  0.6547153E-04  0.1830790E+04  0.7818609E-02  0.8690095E-01
       -2   -1    0    0    0  501  0.00000000000E+00  0.00000000000E+00  0.55879068416E+03  0.55879068416E+03  0.25500000920E-02 0. -1.
        2   -1    0    0  501    0  0.00000000000E+00  0.00000000000E+00 -0.14995736492E+04  0.14995736492E+04  0.25500000920E-02 0.  1.
    10030    2    1    2    0    0  0.00000000000E+00  0.00000000000E+00 -0.94078296503E+03  0.20583643334E+04  0.18307897590E+04 0.  0.
        5    1    3    3  502    0 -0.89401737290E+03  0.37781824161E+02 -0.68733021230E+03  0.11283348085E+04  0.46999998093E+01 0. -1.
       -5    1    3    3    0  502  0.89401737290E+03 -0.37781824161E+02 -0.25345275273E+03  0.93002952488E+03  0.46999998093E+01 0.  1.
</event>
<event>
 5   0  0.3308275E-04  0.1790313E+04  0.7818609E-02  0.8711468E-01
        1   -1    0    0  501    0  0.00000000000E+00  0.00000000000E+00  0.16765305151E+04  0.16765305151E+04  0.50400001928E-02 0. -1.
       -1   -1    0    0    0  501  0.00000000000E+00  0.00000000000E+00 -0.47795444598E+03  0.47795444600E+03  0.50400001928E-02 0.  1.
    10030    2    1    2    0    0  0.00000000000E+00  0.00000000000E+00  0.11985760692E+04  0.21544849611E+04  0.17903130604E+04 0.  0.
        3    1    3    3  502    0  0.78988658520E+03 -0.41659158675E+03  0.52475574082E+03  0.10357789172E+04  0.10100000352E+00 0. -1.
       -3    1    3    3    0  502 -0.78988658520E+03  0.41659158675E+03  0.67382032833E+03  0.11187060439E+04  0.10100000352E+00 0.  1.
</event>
<event>
 5   0  0.3470962E-04  0.1806398E+04  0.7818609E-02  0.8702905E-01
       -1   -1    0    0    0  501  0.00000000000E+00  0.00000000000E+00  0.47846428234E+03  0.47846428237E+03  0.50400001928E-02 0.  1.
        1   -1    0    0  501    0  0.00000000000E+00  0.00000000000E+00 -0.17049716264E+04  0.17049716264E+04  0.50400001928E-02 0. -1.
    10030    2    1    2    0    0  0.00000000000E+00  0.00000000000E+00 -0.12265073440E+04  0.21834359088E+04  0.18063975483E+04 0.  0.
        4    1    3    3  502    0 -0.74128217992E+03  0.50486401911E+03 -0.74219378012E+03  0.11641478292E+04  0.12699999809E+01 0. -1.
       -4    1    3    3    0  502  0.74128217992E+03 -0.50486401911E+03 -0.48431356391E+03  0.10192880796E+04  0.12699999809E+01 0.  1.
</event>
<event>
 5   0  0.6774451E-04  0.1458029E+04  0.7818609E-02  0.8912853E-01
        2   -1    0    0  501    0  0.00000000000E+00  0.00000000000E+00  0.17186960018E+04  0.17186960018E+04  0.25500000920E-02 0. -1.
       -2   -1    0    0    0  501  0.00000000000E+00  0.00000000000E+00 -0.30922389005E+03  0.30922389006E+03  0.25500000920E-02 0.  1.
    10030    2    1    2    0    0  0.00000000000E+00  0.00000000000E+00  0.14094721118E+04  0.20279198919E+04  0.14580286191E+04 0.  0.
        4    1    3    3  502    0  0.26358457605E+03  0.51910908785E+03  0.13149898174E+04  0.14381067090E+04  0.12699999809E+01 0.  1.
       -4    1    3    3    0  502 -0.26358457605E+03 -0.51910908785E+03  0.94482294396E+02  0.58981318286E+03  0.12699999809E+01 0. -1.
</event>
<event>
 5   0  0.3308275E-04  0.1786681E+04  0.7818609E-02  0.8713415E-01
        1   -1    0    0  501    0  0.00000000000E+00  0.00000000000E+00  0.81675889713E+03  0.81675889714E+03  0.50400001928E-02 0.  1.
       -1   -1    0    0    0  501  0.00000000000E+00  0.00000000000E+00 -0.97710214345E+03  0.97710214346E+03  0.50400001928E-02 0. -1.
    10030    2    1    2    0    0  0.00000000000E+00  0.00000000000E+00 -0.16034324632E+03  0.17938610406E+04  0.17866805748E+04 0.  0.
        3    1    3    3  502    0  0.88484654523E+03  0.12289411244E+03 -0.79470672432E+02  0.89686786622E+03  0.10100000352E+00 0. -1.
       -3    1    3    3    0  502 -0.88484654523E+03 -0.12289411244E+03 -0.80872573889E+02  0.89699317438E+03  0.10100000352E+00 0.  1.
</event>
<event>
 5   0  0.3377273E-04  0.1787028E+04  0.7818609E-02  0.8713229E-01
       -1   -1    0    0    0  501  0.00000000000E+00  0.00000000000E+00  0.16568214376E+04  0.16568214376E+04  0.50400001928E-02 0.  1.
        1   -1    0    0  501    0  0.00000000000E+00  0.00000000000E+00 -0.48186666142E+03  0.48186666145E+03  0.50400001928E-02 0. -1.
    10030    2    1    2    0    0  0.00000000000E+00  0.00000000000E+00  0.11749547761E+04  0.21386880990E+04  0.17870277163E+04 0.  0.
        2    1    3    3  502    0 -0.17714546304E+03  0.74572367448E+03  0.37890146665E+02  0.76741121765E+03  0.25500000920E-02 0. -1.
       -2    1    3    3    0  502  0.17714546304E+03 -0.74572367448E+03  0.11370646295E+04  0.13712768814E+04  0.25500000920E-02 0.  1.
</event>
<event>
 5   0  0.3308275E-04  0.1767375E+04  0.7818609E-02  0.8723844E-01
       -1   -1    0    0    0  501  0.00000000000E+00  0.00000000000E+00  0.60770891997E+03  0.60770891999E+03  0.50400001928E-02 0. -1.
        1   -1    0    0  501    0  0.00000000000E+00  0.00000000000E+00 -0.12849963705E+04  0.12849963705E+04  0.50400001928E-02 0.  1.
    10030    2    1    2    0    0  0.00000000000E+00  0.00000000000E+00 -0.67728745053E+03  0.18927052905E+04  0.17673751798E+04 0.  0.
        3    1    3    3  502    0 -0.68062476357E+03  0.52395686339E+02  0.26231735386E+03  0.73130416454E+03  0.10100000352E+00 0. -1.
       -3    1    3    3    0  502  0.68062476357E+03 -0.52395686339E+02 -0.93960480439E+03  0.11614011260E+04  0.10100000352E+00 0.  1.
</event>
<event>
 5   0  0.3308275E-04  0.1793404E+04  0.7818609E-02  0.8709815E-01
        1   -1    0    0  501    0  0.00000000000E+00  0.00000000000E+00  0.77670947532E+03  0.77670947533E+03  0.50400001928E-02 0.  1.
       -1   -1    0    0    0  501  0.00000000000E+00  0.00000000000E+00 -0.10352318338E+04  0.10352318338E+04  0.50400001928E-02 0. -1.
    10030    2    1    2    0    0  0.00000000000E+00  0.00000000000E+00 -0.25852235850E+03  0.18119413092E+04  0.17934038859E+04 0.  0.
        3    1    3    3  502    0 -0.25623471789E+03  0.34469254913E+03 -0.92454755012E+03  0.10194397318E+04  0.10100000352E+00 0. -1.
       -3    1    3    3    0  502  0.25623471789E+03 -0.34469254913E+03  0.66602519162E+03  0.79250157738E+03  0.10100000352E+00 0.  1.
</event>
<event>
 5   0  0.3413839E-04  0.1830206E+04  0.7818609E-02  0.8690399E-01
       -1   -1    0    0    0  501  0.00000000000E+00  0.00000000000E+00  0.11850036249E+04  0.11850036249E+04  0.50400001928E-02 0. -1.
        1   -1    0    0  501    0  0.00000000000E+00  0.00000000000E+00 -0.70667582718E+03  0.70667582720E+03  0.50400001928E-02 0.  1.
    10030    2    1    2    0    0  0.00000000000E+00  0.00000000000E+00  0.47832779774E+03  0.18916794521E+04  0.18302059085E+04 0.  0.
        5    1    3    3  502    0 -0.28984797720E+03  0.17015780447E+03 -0.64055626712E+03  0.72339473986E+03  0.46999998093E+01 0.  1.
       -5    1    3    3    0  502  0.28984797720E+03 -0.17015780447E+03  0.11188840649E+04  0.11682847123E+04  0.46999998093E+01 0. -1.
</event>
<event>
 5   0  0.3377273E-04  0.1847945E+04  0.7818609E-02  0.8681210E-01
        1   -1    0    0  501    0  0.00000000000E+00  0.00000000000E+00  0.16461761934E+04  0.16461761934E+04  0.50400001928E-02 0. -1.
       -1   -1    0    0    0  501  0.00000000000E+00  0.00000000000E+00 -0.51861119811E+03  0.51861119813E+03  0.50400001928E-02 0.  1.
    10030    2    1    2    0    0  0.00000000000E+00  0.00000000000E+00  0.11275649953E+04  0.21647873916E+04  0.18479452459E+04 0.  0.
        2    1    3    3  502    0  0.21502928601E+03  0.51354618537E+03  0.14276139888E+04  0.15323344867E+04  0.25500000920E-02 0. -1.
       -2    1    3    3    0  502 -0.21502928601E+03 -0.51354618537E+03 -0.30004899344E+03  0.63245290482E+03  0.25500000920E-02 0.  1.
</event>
<event>
 5   0  0.2467375E-04  0.1813749E+04  0.7818609E-02  0.8699022E-01
       -3   -1    0    0    0  501  0.00000000000E+00  0.00000000000E+00  0.60653076809E+03  0.60653077650E+03  0.10100000352E+00 0.  1.
        3   -1    0    0  501    0  0.00000000000E+00  0.00000000000E+00 -0.13559437619E+04  0.13559437656E+04  0.10100000352E+00 0. -1.
    10030    2    1    2    0    0  0.00000000000E+00  0.00000000000E+00 -0.74941299380E+03  0.19624745421E+04  0.18137492917E+04 0.  0.
        5    1    3    3  502    0 -0.85403848693E+03 -0.16385492366E+03 -0.65303343594E+03  0.10875223821E+04  0.46999998093E+01 0. -1.
       -5    1    3    3    0  502  0.85403848693E+03  0.16385492366E+03 -0.96379557859E+02  0.87495216002E+03  0.46999998093E+01 0.  1.
</event>
<event>
 5   0  0.3377273E-04  0.1722308E+04  0.7818609E-02  0.8748743E-01
       -1   -1    0    0    0  501  0.00000000000E+00  0.00000000000E+00  0.68123797526E+03  0.68123797528E+03  0.50400001928E-02 0.  1.
        1   -1    0    0  501    0  0.00000000000E+00  0.00000000000E+00 -0.10885856519E+04  0.10885856519E+04  0.50400001928E-02 0. -1.
    10030    2    1    2    0    0  0.00000000000E+00  0.00000000000E+00 -0.40734767659E+03  0.17698236271E+04  0.17223076211E+04 0.  0.
        2    1    3    3  502    0 -0.50455519170E+03  0.61400459402E+03  0.13715159606E+03  0.80646645513E+03  0.25500000920E-02 0.  1.
       -2    1    3    3    0  502  0.50455519170E+03 -0.61400459402E+03 -0.54449927265E+03  0.96335717201E+03  0.25500000920E-02 0. -1.
</event>
<event>
 5   0  0.6547153E-04  0.1761543E+04  0.7818609E-02  0.8727022E-01
        2   -1    0    0  501    0  0.00000000000E+00  0.00000000000E+00  0.10272304930E+04  0.10272304930E+04  0.25500000920E-02 0.  1.
       -2   -1    0    0    0  501  0.00000000000E+00  0.00000000000E+00 -0.75519422059E+03  0.75519422059E+03  0.25500000920E-02 0. -1.
    10030    2    1    2    0    0  0.00000000000E+00  0.00000000000E+00  0.27203627242E+03  0.17824247136E+04  0.17615431094E+04 0.  0.
        5    1    3    3  502    0 -0.55040629895E+03  0.68689922987E+03  0.16734961848E+03  0.89599421355E+03  0.46999998093E+01 0. -1.
       -5    1    3    3    0  502  0.55040629895E+03 -0.68689922987E+03  0.10468665394E+03  0.88643050005E+03  0.46999998093E+01 0.  1.
</event>
<event>
 5   0  0.3308275E-04  0.1801925E+04  0.7818609E-02  0.8705276E-01
        1   -1    0    0  501    0  0.00000000000E+00  0.00000000000E+00  0.13741045682E+04  0.13741045682E+04  0.50400001928E-02 0. -1.
       -1   -1    0    0    0  501  0.00000000000E+00  0.00000000000E+00 -0.59073659731E+03  0.59073659733E+03  0.50400001928E-02 0.  1.
    10030    2    1    2    0    0  0.00000000000E+00  0.00000000000E+00  0.78336797090E+03  0.19648411656E+04  0.18019254779E+04 0.  0.
        3    1    3    3  502    0 -0.33005104904E+02  0.72908974545E+03  0.96771950403E+03  0.12120817805E+04  0.10100000352E+00 0. -1.
       -3    1    3    3    0  502  0.33005104904E+02 -0.72908974545E+03 -0.18435153313E+03  0.75275938508E+03  0.10100000352E+00 0.  1.
</event>
<event>
 5   0  0.6547153E-04  0.1658746E+04  0.7818609E-02  0.8785249E-01
       -2   -1    0    0    0  501  0.00000000000E+00  0.00000000000E+00  0.41958424748E+03  0.41958424749E+03  0.25500000920E-02 0. -1.
        2   -1    0    0  501    0  0.00000000000E+00  0.00000000000E+00 -0.16393845168E+04  0.16393845168E+04  0.25500000920E-02 0.  1.
    10030    2    1    2    0    0  0.00000000000E+00  0.00000000000E+00 -0.12198002693E+04  0.20589687643E+04  0.16587464168E+04 0.  0.
        5    1    3    3  502    0  0.17385072533E+03  0.73782835343E+03 -0.19222633489E+03  0.78204079666E+03  0.46999998093E+01 0. -1.
       -5    1    3    3    0  502 -0.17385072533E+03 -0.73782835343E+03 -0.10275739345E+04  0.12769279677E+04  0.46999998093E+01 0.  1.
</event>
<event>
 5   0  0.3308275E-04  0.1870915E+04  0.7818609E-02  0.8669471E-01
       -1   -1    0    0    0  501  0.00000000000E+00  0.00000000000E+00  0.12771853424E+04  0.12771853424E+04  0.50400001928E-02 0. -1.
        1   -1    0    0  501    0  0.00000000000E+00  0.00000000000E+00 -0.68516345826E+03  0.68516345828E+03  0.50400001928E-02 0.  1.
    10030    2    1    2    0    0  0.00000000000E+00  0.00000000000E+00  0.59202188411E+03  0.19623488007E+04  0.18709149912E+04 0.  0.
        3    1    3    3  502    0 -0.64833089285E+03  0.66450931975E+03  0.41640350399E+03  0.10174956860E+04  0.10100000352E+00 0. -1.
       -3    1    3    3    0  502  0.64833089285E+03 -0.66450931975E+03  0.17561838012E+03  0.94485311467E+03  0.10100000352E+00 0.  1.
</event>
<event>
 5   0  0.6774451E-04  0.1858346E+04  0.7818609E-02  0.8675873E-01
        2   -1    0    0  501    0  0.00000000000E+00  0.00000000000E+00  0.26405370003E+04  0.26405370003E+04  0.25500000920E-02 0.  1.
       -2   -1    0    0    0  501  0.00000000000E+00  0.00000000000E+00 -0.32696473527E+03  0.32696473528E+03  0.25500000920E-02 0. -1.
    10030    2    1    2    0    0  0.00000000000E+00  0.00000000000E+00  0.23135722651E+04  0.29675017356E+04  0.18583460187E+04 0.  0.
        4    1    3    3  502    0 -0.22219438311E+03  0.89322528324E+03  0.95392245364E+03  0.13255909667E+04  0.12699999809E+01 0. -1.
       -4    1    3    3    0  502  0.22219438311E+03 -0.89322528324E+03  0.13596498114E+04  0.16419107689E+04  0.12699999809E+01 0.  1.
</event>
<event>
 5   0  0.3470962E-04  0.2037094E+04  0.7818609E-02  0.8589472E-01
        1   -1    0    0  501    0  0.00000000000E+00  0.00000000000E+00  0.73172971745E+03  0.73172971747E+03  0.50400001928E-02 0.  1.
       -1   -1    0    0    0  501  0.00000000000E+00  0.00000000000E+00 -0.14177885550E+04  0.14177885550E+04  0.50400001928E-02 0. -1.
    10030    2    1    2    0    0  0.00000000000E+00  0.00000000000E+00 -0.68605883753E+03  0.21495182725E+04  0.20370940271E+04 0.  0.
        4    1    3    3  502    0  0.12633920892E+03  0.10010130443E+04 -0.19587810744E+03  0.10277930514E+04  0.12699999809E+01 0.  1.
       -4    1    3    3    0  502 -0.12633920892E+03 -0.10010130443E+04 -0.49018073009E+03  0.11217252211E+04  0.12699999809E+01 0. -1.
</event>
<event>
 5   0  0.6774451E-04  0.1792691E+04  0.7818609E-02  0.8710196E-01
       -2   -1    0    0    0  501  0.00000000000E+00  0.00000000000E+00  0.10667255064E+04  0.10667255064E+04  0.25500000920E-02 0.  1.
        2   -1    0    0  501    0  0.00000000000E+00  0.00000000000E+00 -0.75317937551E+03  0.75317937551E+03  0.25500000920E-02 0. -1.
    10030    2    1    2    0    0  0.00000000000E+00  0.00000000000E+00  0.31354613084E+03  0.18199048819E+04  0.17926914411E+04 0.  0.
        4    1    3    3  502    0  0.56733482980E+03  0.65498525001E+03  0.38951196049E+03  0.95005034977E+03  0.12699999809E+01 0. -1.
       -4    1    3    3    0  502 -0.56733482980E+03 -0.65498525001E+03 -0.75965829653E+02  0.86985453210E+03  0.12699999809E+01 0.  1.
</event>
<event>
 5   0  0.6853162E-04  0.1789666E+04  0.7818609E-02  0.8711814E-01
       -2   -1    0    0    0  501  0.00000000000E+00  0.00000000000E+00  0.46075633650E+03  0.46075633651E+03  0.25500000920E-02 0. -1.
        2   -1    0    0  501    0  0.00000000000E+00  0.00000000000E+00 -0.17378520971E+04  0.17378520971E+04  0.25500000920E-02 0.  1.
    10030    2    1    2    0    0  0.00000000000E+00  0.00000000000E+00 -0.12770957606E+04  0.21986084336E+04  0.17896662992E+04 0.  0.
        2    1    3    3  502    0 -0.25922877698E+03  0.17219350656E+03  0.39213240927E+03  0.50061760748E+03  0.25500000920E-02 0. -1.
       -2    1    3    3    0  502  0.25922877698E+03 -0.17219350656E+03 -0.16692281698E+04  0.16979908261E+04  0.25500000920E-02 0.  1.
</event>
<event>
 5   0  0.3404261E-04  0.1755056E+04  0.7818609E-02  0.8730572E-01
        1   -1    0    0  501    0  0.00000000000E+00  0.00000000000E+00  0.13768510977E+04  0.13768510977E+04  0.50400001928E-02 0. -1.
       -1   -1    0    0    0  501  0.00000000000E+00  0.00000000000E+00 -0.55928747933E+03  0.55928747935E+03  0.50400001928E-02 0.  1.
    10030    2    1    2    0    0  0.00000000000E+00  0.00000000000E+00  0.81756361836E+03  0.19361385771E+04  0.17550562155E+04 0.  0.
        1    1    3    3  502    0 -0.73045164442E+03  0.31625796060E+03  0.81632622339E+03  0.11401610437E+04  0.50400001928E-02 0. -1.
       -1    1    3    3    0  502  0.73045164442E+03 -0.31625796060E+03  0.12373949718E+01  0.79597753339E+03  0.50400001928E-02 0.  1.
</event>
<event>
 5   0  0.2467375E-04  0.1746682E+04  0.7818609E-02  0.8735179E-01
       -3   -1    0    0    0  501  0.00000000000E+00  0.00000000000E+00  0.44878636365E+03  0.44878637502E+03  0.10100000352E+00 0. -1.
        3   -1    0    0  501    0  0.00000000000E+00  0.00000000000E+00 -0.16995261116E+04  0.16995261146E+04  0.10100000352E+00 0.  1.
    10030    2    1    2    0    0  0.00000000000E+00  0.00000000000E+00 -0.12507397480E+04  0.21483124896E+04  0.17466816069E+04 0.  0.
        4    1    3    3  502    0  0.70966602985E+02  0.48607889590E+03  0.26275673333E+03  0.55709215179E+03  0.12699999809E+01 0. -1.
       -4    1    3    3    0  502 -0.70966602985E+02 -0.48607889590E+03 -0.15134964813E+04  0.15912203378E+04  0.12699999809E+01 0.  1.
</event>
<event>
 5   0  0.3404261E-04  0.1794590E+04  0.7818609E-02  0.8709182E-01
        1   -1    0    0  501    0  0.00000000000E+00  0.00000000000E+00  0.89691747422E+03  0.89691747423E+03  0.50400001928E-02 0.  1.
       -1   -1    0    0    0  501  0.00000000000E+00  0.00000000000E+00 -0.89767263733E+03  0.89767263734E+03  0.50400001928E-02 0. -1.
    10030    2    1    2    0    0  0.00000000000E+00  0.00000000000E+00 -0.75516311431E+00  0.17945901116E+04  0.17945899527E+04 0.  0.
        1    1    3    3  502    0 -0.54026285355E+03 -0.42516899178E+03 -0.57699332095E+03  0.89753769556E+03  0.50400001928E-02 0. -1.
       -1    1    3    3    0  502  0.54026285355E+03  0.42516899178E+03  0.57623815784E+03  0.89705241601E+03  0.50400001928E-02 0.  1.
</event>
<event>
 5   0  0.6547153E-04  0.1852749E+04  0.7818609E-02  0.8678740E-01
       -2   -1    0    0    0  501  0.00000000000E+00  0.00000000000E+00  0.56568766808E+03  0.56568766808E+03  0.25500000920E-02 0.  1.
        2   -1    0    0  501    0  0.00000000000E+00  0.00000000000E+00 -0.15170385319E+04  0.15170385319E+04  0.25500000920E-02 0. -1.
    10030    2    1    2    0    0  0.00000000000E+00  0.00000000000E+00 -0.95135086379E+03  0.20827261999E+04  0.18527492971E+04 0.  0.
        5    1    3    3  502    0  0.46585961611E+03 -0.69027076934E+03 -0.19538697689E+02  0.83300826385E+03  0.46999998093E+01 0.  1.
       -5    1    3    3    0  502 -0.46585961611E+03  0.69027076934E+03 -0.93181216610E+03  0.12497179361E+04  0.46999998093E+01 0. -1.
</event>
<event>
 5   0  0.6929121E-04  0.1734643E+04  0.7818609E-02  0.8741849E-01
        2   -1    0    0  501    0  0.00000000000E+00  0.00000000000E+00  0.70502517886E+03  0.70502517887E+03  0.25500000920E-02 0.  1.
       -2   -1    0    0    0  501  0.00000000000E+00  0.00000000000E+00 -0.10669785065E+04  0.10669785065E+04  0.25500000920E-02 0. -1.
    10030    2    1    2    0    0  0.00000000000E+00  0.00000000000E+00 -0.36195332765E+03  0.17720036854E+04  0.17346431476E+04 0.  0.
        3    1    3    3  502    0  0.13333080133E+03 -0.58060027183E+03  0.46297550752E+03  0.75446677130E+03  0.10100000352E+00 0.  1.
       -3    1    3    3    0  502 -0.13333080133E+03  0.58060027183E+03 -0.82492883517E+03  0.10175369141E+04  0.10100000352E+00 0. -1.
</event>
<event>
 5   0  0.6547153E-04  0.1848015E+04  0.7818609E-02  0.8681174E-01
        2   -1    0    0  501    0  0.00000000000E+00  0.00000000000E+00  0.18827086587E+04  0.18827086587E+04  0.25500000920E-02 0. -1.
       -2   -1    0    0    0  501  0.00000000000E+00  0.00000000000E+00 -0.45349006236E+03  0.45349006237E+03  0.25500000920E-02 0.  1.
    10030    2    1    2    0    0  0.00000000000E+00  0.00000000000E+00  0.14292185963E+04  0.23361987211E+04  0.18480147911E+04 0.  0.
        5    1    3    3  502    0  0.35016807272E+03  0.23994354115E+03  0.17521328451E+04  0.18028261644E+04  0.46999998093E+01 0. -1.
       -5    1    3    3    0  502 -0.35016807272E+03 -0.23994354115E+03 -0.32291424881E+03  0.53337255664E+03  0.46999998093E+01 0.  1.
</event>
<event>
 5   0  0.3377273E-04  0.1849925E+04  0.7818609E-02  0.8680192E-01
        1   -1    0    0  501    0  0.00000000000E+00  0.00000000000E+00  0.10741734567E+04  0.10741734567E+04  0.50400001928E-02 0.  1.
       -1   -1    0    0    0  501  0.00000000000E+00  0.00000000000E+00 -0.79647773961E+03  0.79647773962E+03  0.50400001928E-02 0. -1.
    10030    2    1    2    0    0  0.00000000000E+00  0.00000000000E+00  0.27769571705E+03  0.18706511963E+04  0.18499245895E+04 0.  0.
        2    1    3    3  502    0 -0.16572602915E+03 -0.50511647840E+03  0.90426149470E+03  0.10489502487E+04  0.25500000920E-02 0.  1.
       -2    1    3    3    0  502  0.16572602915E+03  0.50511647840E+03 -0.62656577766E+03  0.82170094756E+03  0.25500000920E-02 0. -1.
</event>
<event>
 5   0  0.6774451E-04  0.1799933E+04  0.7818609E-02  0.8706335E-01
       -2   -1    0    0    0  501  0.00000000000E+00  0.00000000000E+00  0.86505429905E+03  0.86505429905E+03  0.25500000920E-02 0. -1.
        2   -1    0    0  501    0  0.00000000000E+00  0.00000000000E+00 -0.93628721683E+03  0.93628721683E+03  0.25500000920E-02 0.  1.
    10030    2    1    2    0    0  0.00000000000E+00  0.00000000000E+00 -0.71232917784E+02  0.18013415159E+04  0.17999325344E+04 0.  0.
        4    1    3    3  502    0 -0.25030964967E+03  0.24476360332E+02  0.82916855312E+03  0.86647337831E+03  0.12699999809E+01 0. -1.
       -4    1    3    3    0  502  0.25030964967E+03 -0.24476360332E+02 -0.90040147091E+03  0.93486813757E+03  0.12699999809E+01 0.  1.
</event>
<event>
 5   0  0.3404261E-04  0.1822920E+04  0.7818609E-02  0.8694205E-01
       -1   -1    0    0    0  501  0.00000000000E+00  0.00000000000E+00  0.31664165502E+03  0.31664165506E+03  0.50400001928E-02 0. -1.
        1   -1    0    0  501    0  0.00000000000E+00  0.00000000000E+00 -0.26236567046E+04  0.26236567046E+04  0.50400001928E-02 0.  1.
    10030    2    1    2    0    0  0.00000000000E+00  0.00000000000E+00 -0.23070150496E+04  0.29402983597E+04  0.18229196375E+04 0.  0.
        1    1    3    3  502    0  0.81203515840E+02 -0.85933443554E+03 -0.16257204804E+04  0.18406566121E+04  0.50400001928E-02 0.  1.
       -1    1    3    3    0  502 -0.81203515840E+02  0.85933443554E+03 -0.68129456917E+03  0.10996417476E+04  0.50400001928E-02 0. -1.
</event>
<event>
 5   0  0.6929121E-04  0.1782050E+04  0.7818609E-02  0.8715904E-01
        2   -1    0    0  501    0  0.00000000000E+00  0.00000000000E+00  0.67089413073E+03  0.67089413073E+03  0.25500000920E-02 0. -1.
       -2   -1    0    0    0  501  0.00000000000E+00  0.00000000000E+00 -0.11833839652E+04  0.11833839652E+04  0.25500000920E-02 0.  1.
    10030    2    1    2    0    0  0.00000000000E+00  0.00000000000E+00 -0.51248983451E+03  0.18542780960E+04  0.17820497823E+04 0.  0.
        3    1    3    3  502    0  0.58931573747E+03 -0.66194264813E+03 -0.16051471296E+03  0.90068090416E+03  0.10100000352E+00 0.  1.
       -3    1    3    3    0  502 -0.58931573747E+03  0.66194264813E+03 -0.35197512156E+03  0.95359719181E+03  0.10100000352E+00 0. -1.
</event>
<event>
 5   0  0.3404261E-04  0.1072110E+04  0.7818609E-02  0.9232809E-01
        1   -1    0    0  501    0  0.00000000000E+00  0.00000000000E+00  0.29299355460E+03  0.29299355465E+03  0.50400001928E-02 0. -1.
       -1   -1    0    0    0  501  0.00000000000E+00  0.00000000000E+00 -0.98075608225E+03  0.98075608226E+03  0.50400001928E-02 0.  1.
    10030    2    1    2    0    0  0.00000000000E+00  0.00000000000E+00 -0.68776252765E+03  0.12737496369E+04  0.10721104622E+04 0.  0.
        1    1    3    3  502    0  0.12468368930E+03  0.11541486153E+03 -0.94792061823E+03  0.96302653709E+03  0.50400001928E-02 0.  1.
       -1    1    3    3    0  502 -0.12468368930E+03 -0.11541486153E+03  0.26015809059E+03  0.31072309982E+03  0.50400001928E-02 0. -1.
</event>
<event>
 5   0  0.6547153E-04  0.1789252E+04  0.7818609E-02  0.8712036E-01
       -2   -1    0    0    0  501  0.00000000000E+00  0.00000000000E+00  0.66107880977E+03  0.66107880977E+03  0.25500000920E-02 0.  1.
        2   -1    0    0  501    0  0.00000000000E+00  0.00000000000E+00 -0.12106807040E+04  0.12106807040E+04  0.25500000920E-02 0. -1.
    10030    2    1    2    0    0  0.00000000000E+00  0.00000000000E+00 -0.54960189425E+03  0.18717595138E+04  0.17892516411E+04 0.  0.
        5    1    3    3  502    0 -0.12306869044E+03  0.22123283925E+03  0.62281246145E+03  0.67231489933E+03  0.46999998093E+01 0.  1.
       -5    1    3    3    0  502  0.12306869044E+03 -0.22123283925E+03 -0.11724143557E+04  0.11994446145E+04  0.46999998093E+01 0. -1.
</event>
<event>
 5   0  0.2467375E-04  0.1787217E+04  0.7818609E-02  0.8713127E-01
        3   -1    0    0  501    0  0.00000000000E+00  0.00000000000E+00  0.10592825570E+04  0.10592825618E+04  0.10100000352E+00 0.  1.
       -3   -1    0    0    0  501  0.00000000000E+00  0.00000000000E+00 -0.75384615608E+03  0.75384616284E+03  0.10100000352E+00 0. -1.
    10030    2    1    2    0    0  0.00000000000E+00  0.00000000000E+00  0.30543640091E+03  0.18131287246E+04  0.17872169362E+04 0.  0.
        1    1    3    3  502    0  0.64766175928E+03  0.40824933014E+03  0.62027191383E+03  0.98532761917E+03  0.50400001928E-02 0.  1.
       -1    1    3    3    0  502 -0.64766175928E+03 -0.40824933014E+03 -0.31483551292E+03  0.82780110547E+03  0.50400001928E-02 0. -1.
</event>
<event>
 5   0  0.3470962E-04  0.1833588E+04  0.7818609E-02  0.8688639E-01
       -1   -1    0    0    0  501  0.00000000000E+00  0.00000000000E+00  0.66852300187E+03  0.66852300189E+03  0.50400001928E-02 0. -1.
        1   -1    0    0  501    0  0.00000000000E+00  0.00000000000E+00 -0.12572662281E+04  0.12572662281E+04  0.50400001928E-02 0.  1.
    10030    2    1    2    0    0  0.00000000000E+00  0.00000000000E+00 -0.58874322625E+03  0.19257892300E+04  0.18335881686E+04 0.  0.
        4    1    3    3  502    0 -0.52755215886E+03 -0.74703606516E+03 -0.22682911515E+03  0.94224584019E+03  0.12699999809E+01 0.  1.
       -4    1    3    3    0  502  0.52755215886E+03  0.74703606516E+03 -0.36191411110E+03  0.98354338983E+03  0.12699999809E+01 0. -1.
</event>
<event>
 5   0  0.6853162E-04  0.1790270E+04  0.7818609E-02  0.8711491E-01
        2   -1    0    0  501    0  0.00000000000E+00  0.00000000000E+00  0.12831502172E+04  0.12831502172E+04  0.25500000920E-02 0. -1.
       -2   -1    0    0    0  501  0.00000000000E+00  0.00000000000E+00 -0.62445250824E+03  0.62445250825E+03  0.25500000920E-02 0.  1.
    10030    2    1    2    0    0  0.00000000000E+00  0.00000000000E+00  0.65869770895E+03  0.19076027254E+04  0.17902696686E+04 0.  0.
        2    1    3    3  502    0 -0.61314918508E+03  0.64817101233E+03  0.40610310046E+03  0.98030470396E+03  0.25500000920E-02 0. -1.
       -2    1    3    3    0  502  0.61314918508E+03 -0.64817101233E+03  0.25259460850E+03  0.92729802148E+03  0.25500000920E-02 0.  1.
</event>
<event>
 5   0  0.6929121E-04  0.1763570E+04  0.7818609E-02  0.8725916E-01
        2   -1    0    0  501    0  0.00000000000E+00  0.00000000000E+00  0.10608804223E+04  0.10608804224E+04  0.25500000920E-02 0.  1.
       -2   -1    0    0    0  501  0.00000000000E+00  0.00000000000E+00 -0.73292423042E+03  0.73292423042E+03  0.25500000920E-02 0. -1.
    10030    2    1    2    0    0  0.00000000000E+00  0.00000000000E+00  0.32795619193E+03  0.17938046528E+04  0.17635702051E+04 0.  0.
        3    1    3    3  502    0 -0.33964682508E+02  0.58685697253E+03 -0.50454954168E+03  0.77467732384E+03  0.10100000352E+00 0. -1.
       -3    1    3    3    0  502  0.33964682508E+02 -0.58685697253E+03  0.83250573361E+03  0.10191273289E+04  0.10100000352E+00 0.  1.
</event>
<event>
 5   0  0.3413839E-04  0.1797690E+04  0.7818609E-02  0.8707529E-01
        1   -1    0    0  501    0  0.00000000000E+00  0.00000000000E+00  0.98448476991E+03  0.98448476992E+03  0.50400001928E-02 0.  1.
       -1   -1    0    0    0  501  0.00000000000E+00  0.00000000000E+00 -0.82065503155E+03  0.82065503157E+03  0.50400001928E-02 0. -1.
    10030    2    1    2    0    0  0.00000000000E+00  0.00000000000E+00  0.16382973835E+03  0.18051398015E+04  0.17976900511E+04 0.  0.
        5    1    3    3  502    0 -0.88105082318E+03  0.84130733826E+02  0.23931827636E+03  0.91685541979E+03  0.46999998093E+01 0.  1.
       -5    1    3    3    0  502  0.88105082318E+03 -0.84130733826E+02 -0.75488538012E+02  0.88828438170E+03  0.46999998093E+01 0. -1.
</event>
<event>
 5   0  0.2467375E-04  0.1849719E+04  0.7818609E-02  0.8680297E-01
        4   -1    0    0  501    0  0.00000000000E+00  0.00000000000E+00  0.11023199213E+04  0.11023206529E+04  0.12699999809E+01 0. -1.
       -4   -1    0    0    0  501  0.00000000000E+00  0.00000000000E+00 -0.77596648209E+03  0.77596752137E+03  0.12699999809E+01 0.  1.
    10030    2    1    2    0    0  0.00000000000E+00  0.00000000000E+00  0.32635343924E+03  0.18782881743E+04  0.18497188701E+04 0.  0.
        4    1    3    3  502    0  0.51032341896E+03 -0.69107801484E+03 -0.18467003341E+03  0.87870555288E+03  0.12699999809E+01 0.  1.
       -4    1    3    3    0  502 -0.51032341896E+03  0.69107801484E+03  0.51102347265E+03  0.99958262141E+03  0.12699999809E+01 0. -1.
</event>
<event>
 5   0  0.6774451E-04  0.1888947E+04  0.7818609E-02  0.8660378E-01
        2   -1    0    0  501    0  0.00000000000E+00  0.00000000000E+00  0.21780582089E+04  0.21780582089E+04  0.25500000920E-02 0. -1.
       -2   -1    0    0    0  501  0.00000000000E+00  0.00000000000E+00 -0.40955279291E+03  0.40955279292E+03  0.25500000920E-02 0.  1.
    10030    2    1    2    0    0  0.00000000000E+00  0.00000000000E+00  0.17685054160E+04  0.25876110019E+04  0.18889466087E+04 0.  0.
        4    1    3    3  502    0 -0.29812392078E+03  0.83355564380E+03  0.13351362198E+04  0.16019623035E+04  0.12699999809E+01 0. -1.
       -4    1    3    3    0  502  0.29812392078E+03 -0.83355564380E+03  0.43336919619E+03  0.98564869835E+03  0.12699999809E+01 0.  1.
</event>
<event>
 5   0  0.6853162E-04  0.1810753E+04  0.7818609E-02  0.8700602E-01
       -2   -1    0    0    0  501  0.00000000000E+00  0.00000000000E+00  0.13052136996E+04  0.13052136996E+04  0.25500000920E-02 0. -1.
        2   -1    0    0  501    0  0.00000000000E+00  0.00000000000E+00 -0.62802512704E+03  0.62802512704E+03  0.25500000920E-02 0.  1.
    10030    2    1    2    0    0  0.00000000000E+00  0.00000000000E+00  0.67718857259E+03  0.19332388267E+04  0.18107534338E+04 0.  0.
        2    1    3    3  502    0 -0.46729417077E+03 -0.54433607168E+03  0.92825960184E+03  0.11731715516E+04  0.25500000920E-02 0. -1.
       -2    1    3    3    0  502  0.46729417077E+03  0.54433607168E+03 -0.25107102925E+03  0.76006727511E+03  0.25500000920E-02 0.  1.
</event>
<event>
 5   0  0.3377273E-04  0.1790692E+04  0.7818609E-02  0.8711265E-01
       -1   -1    0    0    0  501  0.00000000000E+00  0.00000000000E+00  0.33927399365E+03  0.33927399369E+03  0.50400001928E-02 0.  1.
        1   -1    0    0  501    0  0.00000000000E+00  0.00000000000E+00 -0.23628221631E+04  0.23628221631E+04  0.50400001928E-02 0. -1.
    10030    2    1    2    0    0  0.00000000000E+00  0.00000000000E+00 -0.20235481694E+04  0.27020961568E+04  0.17906916112E+04 0.  0.
        2    1    3    3  502    0  0.20090537122E+03 -0.78664618085E+03 -0.44221329788E+03  0.92451489055E+03  0.25500000920E-02 0.  1.
       -2    1    3    3    0  502 -0.20090537122E+03  0.78664618085E+03 -0.15813348716E+04  0.17775812662E+04  0.25500000920E-02 0. -1.
</event>
<event>
 5   0  0.6774451E-04  0.1799289E+04  0.7818609E-02  0.8706677E-01
        2   -1    0    0  501    0  0.00000000000E+00  0.00000000000E+00  0.11004816704E+04  0.11004816704E+04  0.25500000920E-02 0.  1.
       -2   -1    0    0    0  501  0.00000000000E+00  0.00000000000E+00 -0.73546030041E+03  0.73546030041E+03  0.25500000920E-02 0. -1.
    10030    2    1    2    0    0  0.00000000000E+00  0.00000000000E+00  0.36502136995E+03  0.18359419708E+04  0.17992893929E+04 0.  0.
        4    1    3    3  502    0 -0.36498698613E+03  0.73989521000E+03  0.54856434137E+03  0.99074965119E+03  0.12699999809E+01 0.  1.
       -4    1    3    3    0  502  0.36498698613E+03 -0.73989521000E+03 -0.18354297142E+03  0.84519231958E+03  0.12699999809E+01 0. -1.
</event>
<event>
 5   0  0.6547153E-04  0.1652787E+04  0.7818609E-02  0.8788759E-01
       -2   -1    0    0    0  501  0.00000000000E+00  0.00000000000E+00  0.60638692555E+03  0.60638692555E+03  0.25500000920E-02 0. -1.
        2   -1    0    0  501    0  0.00000000000E+00  0.00000000000E+00 -0.11262220549E+04  0.11262220549E+04  0.25500000920E-02 0.  1.
    10030    2    1    2    0    0  0.00000000000E+00  0.00000000000E+00 -0.51983512936E+03  0.17326089805E+04  0.16527871362E+04 0.  0.
        5    1    3    3  502    0  0.50297233395E+03 -0.17769900868E+03 -0.92154566161E+03  0.10648129426E+04  0.46999998093E+01 0.  1.
       -5    1    3    3    0  502 -0.50297233395E+03  0.17769900868E+03  0.40171053224E+03  0.66779603781E+03  0.46999998093E+01 0. -1.
</event>
<event>
 5   0  0.6774451E-04  0.1196636E+04  0.7818609E-02  0.9115806E-01
       -2   -1    0    0    0  501  0.00000000000E+00  0.00000000000E+00  0.25488921245E+03  0.25488921246E+03  0.25500000920E-02 0. -1.
        2   -1    0    0  501    0  0.00000000000E+00  0.00000000000E+00 -0.14044718570E+04  0.14044718570E+04  0.25500000920E-02 0.  1.
    10030    2    1    2    0    0  0.00000000000E+00  0.00000000000E+00 -0.11495826445E+04  0.16593610694E+04  0.11966364954E+04 0.  0.
        4    1    3    3  502    0 -0.22389779966E+03 -0.46714994161E+03 -0.15965533964E+03  0.54208000610E+03  0.12699999809E+01 0. -1.
       -4    1    3    3    0  502  0.22389779966E+03  0.46714994161E+03 -0.98992730488E+03  0.11172810633E+04  0.12699999809E+01 0.  1.
</event>
<event>
 5   0  0.6853162E-04  0.1795418E+04  0.7818609E-02  0.8708740E-01
       -2   -1    0    0    0  501  0.00000000000E+00  0.00000000000E+00  0.54452012658E+03  0.54452012658E+03  0.25500000920E-02 0. -1.
        2   -1    0    0  501    0  0.00000000000E+00  0.00000000000E+00 -0.14799843991E+04  0.14799843991E+04  0.25500000920E-02 0.  1.
    10030    2    1    2    0    0  0.00000000000E+00  0.00000000000E+00 -0.93546427251E+03  0.20245045257E+04  0.17954178258E+04 0.  0.
        2    1    3    3  502    0  0.24218602383E+03 -0.78621889383E+03 -0.62601956981E+02  0.82505346747E+03  0.25500000920E-02 0. -1.
       -2    1    3    3    0  502 -0.24218602383E+03  0.78621889383E+03 -0.87286231552E+03  0.11994510582E+04  0.25500000920E-02 0.  1.
</event>
<event>
 5   0  0.6547153E-04  0.1810701E+04  0.7818609E-02  0.8700630E-01
       -2   -1    0    0    0  501  0.00000000000E+00  0.00000000000E+00  0.73812697076E+03  0.73812697076E+03  0.25500000920E-02 0. -1.
        2   -1    0    0  501    0  0.00000000000E+00  0.00000000000E+00 -0.11104584207E+04  0.11104584207E+04  0.25500000920E-02 0.  1.
    10030    2    1    2    0    0  0.00000000000E+00  0.00000000000E+00 -0.37233144993E+03  0.18485853915E+04  0.18107007596E+04 0.  0.
        5    1    3    3  502    0  0.39042466411E+03  0.80677922674E+03 -0.55770757135E+02  0.89802929039E+03  0.46999998093E+01 0. -1.
       -5    1    3    3    0  502 -0.39042466411E+03 -0.80677922674E+03 -0.31656069280E+03  0.95055610106E+03  0.46999998093E+01 0.  1.
</event>
<event>
 5   0  0.3404261E-04  0.1182644E+04  0.7818609E-02  0.9128185E-01
       -1   -1    0    0    0  501  0.00000000000E+00  0.00000000000E+00  0.16558759015E+03  0.16558759022E+03  0.50400001928E-02 0.  1.
        1   -1    0    0  501    0  0.00000000000E+00  0.00000000000E+00 -0.21116421678E+04  0.21116421678E+04  0.50400001928E-02 0. -1.
    10030    2    1    2    0    0  0.00000000000E+00  0.00000000000E+00 -0.19460545776E+04  0.22772297580E+04  0.11826440511E+04 0.  0.
        1    1    3    3  502    0  0.23279102606E+03 -0.43745889056E+03 -0.15942935028E+04  0.16695309868E+04  0.50400001928E-02 0. -1.
       -1    1    3    3    0  502 -0.23279102606E+03  0.43745889056E+03 -0.35176107482E+03  0.60769877121E+03  0.50400001928E-02 0.  1.
</event>
<event>
 5   0  0.6929121E-04  0.1806354E+04  0.7818609E-02  0.8702928E-01
        2   -1    0    0  501    0  0.00000000000E+00  0.00000000000E+00  0.55829260569E+03  0.55829260569E+03  0.25500000920E-02 0.  1.
       -2   -1    0    0    0  501  0.00000000000E+00  0.00000000000E+00 -0.14611124908E+04  0.14611124908E+04  0.25500000920E-02 0. -1.
    10030    2    1    2    0    0  0.00000000000E+00  0.00000000000E+00 -0.90281988516E+03  0.20194050965E+04  0.18063535642E+04 0.  0.
        3    1    3    3  502    0  0.13646290970E+03 -0.81008466381E+03 -0.31816777284E+02  0.82211410752E+03  0.10100000352E+00 0.  1.
       -3    1    3    3    0  502 -0.13646290970E+03  0.81008466381E+03 -0.87100310787E+03  0.11972909890E+04  0.10100000352E+00 0. -1.
</event>
<event>
 5   0  0.3404261E-04  0.1723140E+04  0.7818609E-02  0.8748275E-01
        1   -1    0    0  501    0  0.00000000000E+00  0.00000000000E+00  0.16443652859E+04  0.16443652859E+04  0.50400001928E-02 0.  1.
       -1   -1    0    0    0  501  0.00000000000E+00  0.00000000000E+00 -0.45142236234E+03  0.45142236236E+03  0.50400001928E-02 0. -1.
    10030    2    1    2    0    0  0.00000000000E+00  0.00000000000E+00  0.11929429236E+04  0.20957876483E+04  0.17231404609E+04 0.  0.
        1    1    3    3  502    0 -0.83967447970E+03  0.18055547813E+03  0.67940713404E+03  0.10951016238E+04  0.50400001928E-02 0.  1.
       -1    1    3    3    0  502  0.83967447970E+03 -0.18055547813E+03  0.51353578955E+03  0.10006860245E+04  0.50400001928E-02 0. -1.
</event>
<event>
 5   0  0.6853162E-04  0.1621097E+04  0.7818609E-02  0.8807691E-01
       -2   -1    0    0    0  501  0.00000000000E+00  0.00000000000E+00  0.39163243854E+03  0.39163243855E+03  0.25500000920E-02 0. -1.
        2   -1    0    0  501    0  0.00000000000E+00  0.00000000000E+00 -0.16775648932E+04  0.16775648932E+04  0.25500000920E-02 0.  1.
    10030    2    1    2    0    0  0.00000000000E+00  0.00000000000E+00 -0.12859324546E+04  0.20691973317E+04  0.16210969495E+04 0.  0.
        2    1    3    3  502    0 -0.70672335696E+03  0.39635286096E+03 -0.66959832315E+03  0.10511495650E+04  0.25500000920E-02 0. -1.
       -2    1    3    3    0  502  0.70672335696E+03 -0.39635286096E+03 -0.61633413150E+03  0.10180477667E+04  0.25500000920E-02 0.  1.
</event>
<event>
 5   0  0.6547153E-04  0.1800414E+04  0.7818609E-02  0.8706079E-01
       -2   -1    0    0    0  501  0.00000000000E+00  0.00000000000E+00  0.71102731526E+03  0.71102731527E+03  0.25500000920E-02 0. -1.
        2   -1    0    0  501    0  0.00000000000E+00  0.00000000000E+00 -0.11397208450E+04  0.11397208450E+04  0.25500000920E-02 0.  1.
    10030    2    1    2    0    0  0.00000000000E+00  0.00000000000E+00 -0.42869352972E+03  0.18507481603E+04  0.18004140108E+04 0.  0.
        5    1    3    3  502    0 -0.74137977104E+03  0.11158574517E+03  0.29783502817E+03  0.80673610148E+03  0.46999998093E+01 0. -1.
       -5    1    3    3    0  502  0.74137977104E+03 -0.11158574517E+03 -0.72652855789E+03  0.10440120588E+04  0.46999998093E+01 0.  1.
</event>
<event>
 5   0  0.3404261E-04  0.1804348E+04  0.7818609E-02  0.8703990E-01
        1   -1    0    0  501    0  0.00000000000E+00  0.00000000000E+00  0.17264302937E+04  0.17264302938E+04  0.50400001928E-02 0. -1.
       -1   -1    0    0    0  501  0.00000000000E+00  0.00000000000E+00 -0.47144574808E+03  0.47144574811E+03  0.50400001928E-02 0.  1.
    10030    2    1    2    0    0  0.00000000000E+00  0.00000000000E+00  0.12549845457E+04  0.21978760419E+04  0.18043483271E+04 0.  0.
        1    1    3    3  502    0 -0.43052552850E+03  0.42119429673E+03  0.14456720858E+04  0.15661176986E+04  0.50400001928E-02 0. -1.
       -1    1    3    3    0  502  0.43052552850E+03 -0.42119429673E+03 -0.19068754010E+03  0.63175834325E+03  0.50400001928E-02 0.  1.
</event>
<event>
 5   0  0.3470962E-04  0.1790024E+04  0.7818609E-02  0.8711623E-01
        1   -1    0    0  501    0  0.00000000000E+00  0.00000000000E+00  0.11824390533E+04  0.11824390533E+04  0.50400001928E-02 0. -1.
       -1   -1    0    0    0  501  0.00000000000E+00  0.00000000000E+00 -0.67745284648E+03  0.67745284649E+03  0.50400001928E-02 0.  1.
    10030    2    1    2    0    0  0.00000000000E+00  0.00000000000E+00  0.50498620678E+03  0.18598918998E+04  0.17900242484E+04 0.  0.
        4    1    3    3  502    0 -0.70421513432E+03 -0.48661713760E+03  0.52409585609E+03  0.10036898292E+04  0.12699999809E+01 0. -1.
       -4    1    3    3    0  502  0.70421513432E+03  0.48661713760E+03 -0.19109649310E+02  0.85620207054E+03  0.12699999809E+01 0.  1.
</event>
<event>
 5   0  0.3413839E-04  0.1828386E+04  0.7818609E-02  0.8691348E-01
       -1   -1    0    0    0  501  0.00000000000E+00  0.00000000000E+00  0.78141452496E+03  0.78141452498E+03  0.50400001928E-02 0. -1.
        1   -1    0    0  501    0  0.00000000000E+00  0.00000000000E+00 -0.10695329167E+04  0.10695329167E+04  0.50400001928E-02 0.  1.
    10030    2    1    2    0    0  0.00000000000E+00  0.00000000000E+00 -0.28811839176E+03  0.18509474417E+04  0.18283856881E+04 0.  0.
        5    1    3    3  502    0  0.21373123905E+03  0.23251289881E+03 -0.10125399867E+04  0.10606613999E+04  0.46999998093E+01 0.  1.
       -5    1    3    3    0  502 -0.21373123905E+03 -0.23251289881E+03  0.72442159493E+03  0.79028604179E+03  0.46999998093E+01 0. -1.
</event>
<event>
 5   0  0.2467375E-04  0.1710777E+04  0.7818609E-02  0.8755242E-01
        3   -1    0    0  501    0  0.00000000000E+00  0.00000000000E+00  0.97346358256E+03  0.97346358780E+03  0.10100000352E+00 0. -1.
       -3   -1    0    0    0  501  0.00000000000E+00  0.00000000000E+00 -0.75163518096E+03  0.75163518774E+03  0.10100000352E+00 0.  1.
    10030    2    1    2    0    0  0.00000000000E+00  0.00000000000E+00  0.22182840160E+03  0.17250987755E+04  0.17107770006E+04 0.  0.
        3    1    3    3  502    0  0.68849082098E+01  0.22453193160E+03  0.94318880921E+03  0.96957059067E+03  0.10100000352E+00 0. -1.
       -3    1    3    3    0  502 -0.68849082098E+01 -0.22453193160E+03 -0.72136040761E+03  0.75552818487E+03  0.10100000352E+00 0.  1.
</event>
<event>
 5   0  0.2467375E-04  0.1804756E+04  0.7818609E-02  0.8703774E-01
       -3   -1    0    0    0  501  0.00000000000E+00  0.00000000000E+00  0.82839982708E+03  0.82839983323E+03  0.10100000352E+00 0. -1.
        3   -1    0    0  501    0  0.00000000000E+00  0.00000000000E+00 -0.98296311849E+03  0.98296312367E+03  0.10100000352E+00 0.  1.
    10030    2    1    2    0    0  0.00000000000E+00  0.00000000000E+00 -0.15456329141E+03  0.18113629569E+04  0.18047564796E+04 0.  0.
        2    1    3    3  502    0 -0.17043391039E+03 -0.47167707828E+03  0.67563741408E+03  0.84143502381E+03  0.25500000920E-02 0. -1.
       -2    1    3    3    0  502  0.17043391039E+03  0.47167707828E+03 -0.83020070549E+03  0.96992793309E+03  0.25500000920E-02 0.  1.
</event>
<event>
 5   0  0.3308275E-04  0.1741154E+04  0.7818609E-02  0.8738235E-01
       -1   -1    0    0    0  501  0.00000000000E+00  0.00000000000E+00  0.60687814362E+03  0.60687814365E+03  0.50400001928E-02 0. -1.
        1   -1    0    0  501    0  0.00000000000E+00  0.00000000000E+00 -0.12488570264E+04  0.12488570264E+04  0.50400001928E-02 0.  1.
    10030    2    1    2    0    0  0.00000000000E+00  0.00000000000E+00 -0.64197888280E+03  0.18557351701E+04  0.17411536795E+04 0.  0.
        3    1    3    3  502    0 -0.84608826858E+03 -0.19806708755E+03 -0.26451073559E+03  0.90832916326E+03  0.10100000352E+00 0.  1.
       -3    1    3    3    0  502  0.84608826858E+03  0.19806708755E+03 -0.37746814721E+03  0.94740600682E+03  0.10100000352E+00 0. -1.
</event>
<event>
 5   0  0.6547153E-04  0.1857793E+04  0.7818609E-02  0.8676156E-01
       -2   -1    0    0    0  501  0.00000000000E+00  0.00000000000E+00  0.58500918578E+03  0.58500918578E+03  0.25500000920E-02 0.  1.
        2   -1    0    0  501    0  0.00000000000E+00  0.00000000000E+00 -0.14749316770E+04  0.14749316770E+04  0.25500000920E-02 0. -1.
    10030    2    1    2    0    0  0.00000000000E+00  0.00000000000E+00 -0.88992249127E+03  0.20599408628E+04  0.18577928619E+04 0.  0.
        5    1    3    3  502    0 -0.53834609513E+03 -0.74652473525E+03 -0.58394258366E+03  0.10900122612E+04  0.46999998093E+01 0.  1.
       -5    1    3    3    0  502  0.53834609513E+03  0.74652473525E+03 -0.30597990761E+03  0.96992860167E+03  0.46999998093E+01 0. -1.
</event>
<event>
 5   0  0.2467375E-04  0.1890049E+04  0.7818609E-02  0.8659826E-01
        3   -1    0    0  501    0  0.00000000000E+00  0.00000000000E+00  0.11182893822E+04  0.11182893867E+04  0.10100000352E+00 0. -1.
       -3   -1    0    0    0  501  0.00000000000E+00  0.00000000000E+00 -0.79860458317E+03  0.79860458956E+03  0.10100000352E+00 0.  1.
    10030    2    1    2    0    0  0.00000000000E+00  0.00000000000E+00  0.31968479900E+03  0.19168939763E+04  0.18900487151E+04 0.  0.
        2    1    3    3  502    0  0.33593565694E+03  0.45350343442E+03 -0.60891641306E+03  0.83023932016E+03  0.25500000920E-02 0.  1.
       -2    1    3    3    0  502 -0.33593565694E+03 -0.45350343442E+03  0.92860121206E+03  0.10866546561E+04  0.25500000920E-02 0. -1.
</event>
<event>
 5   0  0.6547153E-04  0.1745468E+04  0.7818609E-02  0.8735849E-01
       -2   -1    0    0    0  501  0.00000000000E+00  0.00000000000E+00  0.75215829662E+03  0.75215829662E+03  0.25500000920E-02 0.  1.
        2   -1    0    0  501    0  0.00000000000E+00  0.00000000000E+00 -0.10126390582E+04  0.10126390582E+04  0.25500000920E-02 0. -1.
    10030    2    1    2    0    0  0.00000000000E+00  0.00000000000E+00 -0.26048076163E+03  0.17647973549E+04  0.17454682686E+04 0.  0.
        5    1    3    3  502    0  0.82327052052E+03  0.28428018990E+02  0.16115292700E+03  0.83938957469E+03  0.46999998093E+01 0.  1.
       -5    1    3    3    0  502 -0.82327052052E+03 -0.28428018990E+02 -0.42163368862E+03  0.92540778017E+03  0.46999998093E+01 0. -1.
</event>
<event>
 5   0  0.3470962E-04  0.1810494E+04  0.7818609E-02  0.8700739E-01
        1   -1    0    0  501    0  0.00000000000E+00  0.00000000000E+00  0.80966920732E+03  0.80966920734E+03  0.50400001928E-02 0. -1.
       -1   -1    0    0    0  501  0.00000000000E+00  0.00000000000E+00 -0.10121069283E+04  0.10121069283E+04  0.50400001928E-02 0.  1.
    10030    2    1    2    0    0  0.00000000000E+00  0.00000000000E+00 -0.20243772096E+03  0.18217761356E+04  0.18104936502E+04 0.  0.
        4    1    3    3  502    0 -0.80198287605E+03 -0.41339679216E+03 -0.27298416926E+02  0.90267394873E+03  0.12699999809E+01 0. -1.
       -4    1    3    3    0  502  0.80198287605E+03  0.41339679216E+03 -0.17513930403E+03  0.91910218690E+03  0.12699999809E+01 0.  1.
</event>
<event>
 5   0  0.3413839E-04  0.1766419E+04  0.7818609E-02  0.8724364E-01
       -1   -1    0    0    0  501  0.00000000000E+00  0.00000000000E+00  0.86712559131E+03  0.86712559132E+03  0.50400001928E-02 0.  1.
        1   -1    0    0  501    0  0.00000000000E+00  0.00000000000E+00 -0.89959162287E+03  0.89959162289E+03  0.50400001928E-02 0. -1.
    10030    2    1    2    0    0  0.00000000000E+00  0.00000000000E+00 -0.32466031567E+02  0.17667172142E+04  0.17664188834E+04 0.  0.
        5    1    3    3  502    0  0.65727509645E+03  0.31287123919E+03 -0.51645532837E+03  0.89255092903E+03  0.46999998093E+01 0. -1.
       -5    1    3    3    0  502 -0.65727509645E+03 -0.31287123919E+03  0.48398929680E+03  0.87416628517E+03  0.46999998093E+01 0.  1.
</event>
<event>
 5   0  0.6929121E-04  0.1815436E+04  0.7818609E-02  0.8698133E-01
        2   -1    0    0  501    0  0.00000000000E+00  0.00000000000E+00  0.74329020968E+03  0.74329020968E+03  0.25500000920E-02 0. -1.
       -2   -1    0    0    0  501  0.00000000000E+00  0.00000000000E+00 -0.11085203836E+04  0.11085203836E+04  0.25500000920E-02 0.  1.
    10030    2    1    2    0    0  0.00000000000E+00  0.00000000000E+00 -0.36523017394E+03  0.18518105933E+04  0.18154364196E+04 0.  0.
        3    1    3    3  502    0 -0.81389933067E+03  0.25434059450E+03  0.13479659599E+03  0.86330260683E+03  0.10100000352E+00 0. -1.
       -3    1    3    3    0  502  0.81389933067E+03 -0.25434059450E+03 -0.50002676992E+03  0.98850798647E+03  0.10100000352E+00 0.  1.
</event>
<event>
 5   0  0.6547153E-04  0.1635301E+04  0.7818609E-02  0.8799150E-01
       -2   -1    0    0    0  501  0.00000000000E+00  0.00000000000E+00  0.22184962750E+03  0.22184962751E+03  0.25500000920E-02 0. -1.
        2   -1    0    0  501    0  0.00000000000E+00  0.00000000000E+00 -0.30135374024E+04  0.30135374024E+04  0.25500000920E-02 0.  1.
    10030    2    1    2    0    0  0.00000000000E+00  0.00000000000E+00 -0.27916877749E+04  0.32353870299E+04  0.16353007677E+04 0.  0.
        5    1    3    3  502    0  0.36114818923E+03  0.12014927450E+03  0.35868788608E+02  0.38232515316E+03  0.46999998093E+01 0. -1.
       -5    1    3    3    0  502 -0.36114818923E+03 -0.12014927450E+03 -0.28275565635E+04  0.28530618768E+04  0.46999998093E+01 0.  1.
</event>
<event>
 5   0  0.2467375E-04  0.1671334E+04  0.7818609E-02  0.8777884E-01
        3   -1    0    0  501    0  0.00000000000E+00  0.00000000000E+00  0.87291840548E+03  0.87291841133E+03  0.10100000352E+00 0. -1.
       -3   -1    0    0    0  501  0.00000000000E+00  0.00000000000E+00 -0.80000559886E+03  0.80000560523E+03  0.10100000352E+00 0.  1.
    10030    2    1    2    0    0  0.00000000000E+00  0.00000000000E+00  0.72912806625E+02  0.16729240166E+04  0.16713343435E+04 0.  0.
        4    1    3    3  502    0  0.33058416575E+03  0.44897492596E+03 -0.58660945853E+03  0.80930627362E+03  0.12699999809E+01 0.  1.
       -4    1    3    3    0  502 -0.33058416575E+03 -0.44897492596E+03  0.65952226516E+03  0.86361774294E+03  0.12699999809E+01 0. -1.
</event>
<event>
 5   0  0.6774451E-04  0.1819737E+04  0.7818609E-02  0.8695874E-01
       -2   -1    0    0    0  501  0.00000000000E+00  0.00000000000E+00  0.42295370565E+03  0.42295370566E+03  0.25500000920E-02 0. -1.
        2   -1    0    0  501    0  0.00000000000E+00  0.00000000000E+00 -0.19573310129E+04  0.19573310129E+04  0.25500000920E-02 0.  1.
    10030    2    1    2    0    0  0.00000000000E+00  0.00000000000E+00 -0.15343773073E+04  0.23802847186E+04  0.18197366899E+04 0.  0.
        4    1    3    3  502    0 -0.84937045955E+03 -0.31144692417E+03 -0.89420599938E+03  0.12720201832E+04  0.12699999809E+01 0. -1.
       -4    1    3    3    0  502  0.84937045955E+03  0.31144692417E+03 -0.64017130790E+03  0.11082645354E+04  0.12699999809E+01 0.  1.
</event>
<event>
 5   0  0.3404261E-04  0.1613328E+04  0.7818609E-02  0.8812402E-01
        1   -1    0    0  501    0  0.00000000000E+00  0.00000000000E+00  0.10742672285E+04  0.10742672286E+04  0.50400001928E-02 0. -1.
       -1   -1    0    0    0  501  0.00000000000E+00  0.00000000000E+00 -0.60572179455E+03  0.60572179457E+03  0.50400001928E-02 0.  1.
    10030    2    1    2    0    0  0.00000000000E+00  0.00000000000E+00  0.46854543400E+03  0.16799890231E+04  0.16133283281E+04 0.  0.
        1    1    3    3  502    0 -0.80637895759E+03 -0.21448128332E+02  0.23409829923E+03  0.83994586681E+03  0.50400001928E-02 0. -1.
       -1    1    3    3    0  502  0.80637895759E+03  0.21448128332E+02  0.23444713477E+03  0.84004315632E+03  0.50400001928E-02 0.  1.
</event>
<event>
 5   0  0.3470962E-04  0.1803205E+04  0.7818609E-02  0.8704597E-01
       -1   -1    0    0    0  501  0.00000000000E+00  0.00000000000E+00  0.58284970972E+03  0.58284970974E+03  0.50400001928E-02 0. -1.
        1   -1    0    0  501    0  0.00000000000E+00  0.00000000000E+00 -0.13946770255E+04  0.13946770255E+04  0.50400001928E-02 0.  1.
    10030    2    1    2    0    0  0.00000000000E+00  0.00000000000E+00 -0.81182731575E+03  0.19775267352E+04  0.18032050349E+04 0.  0.
        4    1    3    3  502    0 -0.81275331372E+03 -0.37891086427E+03 -0.50846342413E+03  0.10308627739E+04  0.12699999809E+01 0.  1.
       -4    1    3    3    0  502  0.81275331372E+03  0.37891086427E+03 -0.30336389162E+03  0.94666396132E+03  0.12699999809E+01 0. -1.
</event>
<event>
 5   0  0.3470962E-04  0.1728901E+04  0.7818609E-02  0.8745051E-01
       -1   -1    0    0    0  501  0.00000000000E+00  0.00000000000E+00  0.49519054020E+03  0.49519054022E+03  0.50400001928E-02 0. -1.
        1   -1    0    0  501    0  0.00000000000E+00  0.00000000000E+00 -0.15090648625E+04  0.15090648625E+04  0.50400001928E-02 0.  1.
    10030    2    1    2    0    0  0.00000000000E+00  0.00000000000E+00 -0.10138743223E+04  0.20042554027E+04  0.17289009740E+04 0.  0.
        4    1    3    3  502    0 -0.49755241303E+03 -0.68513152365E+03 -0.70876068269E+03  0.11042223176E+04  0.12699999809E+01 0.  1.
       -4    1    3    3    0  502  0.49755241303E+03  0.68513152365E+03 -0.30511363962E+03  0.90003308516E+03  0.12699999809E+01 0. -1.
</event>
<event>
 5   0  0.3470962E-04  0.1557244E+04  0.7818609E-02  0.8847254E-01
       -1   -1    0    0    0  501  0.00000000000E+00  0.00000000000E+00  0.82345788785E+03  0.82345788787E+03  0.50400001928E-02 0.  1.
        1   -1    0    0  501    0  0.00000000000E+00  0.00000000000E+00 -0.73622745854E+03  0.73622745856E+03  0.50400001928E-02 0. -1.
    10030    2    1    2    0    0  0.00000000000E+00  0.00000000000E+00  0.87230429312E+02  0.15596853464E+04  0.15572441145E+04 0.  0.
        4    1    3    3  502    0 -0.30063937642E+03  0.61288305749E+03  0.41868995907E+03  0.80081993702E+03  0.12699999809E+01 0.  1.
       -4    1    3    3    0  502  0.30063937642E+03 -0.61288305749E+03 -0.33145952976E+03  0.75886540940E+03  0.12699999809E+01 0. -1.
</event>
<event>
 5   0  0.3404261E-04  0.1817750E+04  0.7818609E-02  0.8696917E-01
        1   -1    0    0  501    0  0.00000000000E+00  0.00000000000E+00  0.11001381496E+04  0.11001381496E+04  0.50400001928E-02 0.  1.
       -1   -1    0    0    0  501  0.00000000000E+00  0.00000000000E+00 -0.75086390472E+03  0.75086390474E+03  0.50400001928E-02 0. -1.
    10030    2    1    2    0    0  0.00000000000E+00  0.00000000000E+00  0.34927424484E+03  0.18510020543E+04  0.18177502873E+04 0.  0.
        1    1    3    3  502    0 -0.30284780967E+03  0.60559301321E+03 -0.44274931201E+03  0.80900348996E+03  0.50400001928E-02 0. -1.
       -1    1    3    3    0  502  0.30284780967E+03 -0.60559301321E+03  0.79202355685E+03  0.10419985643E+04  0.50400001928E-02 0.  1.
</event>
<event>
 5   0  0.3413839E-04  0.1792417E+04  0.7818609E-02  0.8710342E-01
       -1   -1    0    0    0  501  0.00000000000E+00  0.00000000000E+00  0.12352180977E+04  0.12352180977E+04  0.50400001928E-02 0.  1.
        1   -1    0    0  501    0  0.00000000000E+00  0.00000000000E+00 -0.65024129458E+03  0.65024129460E+03  0.50400001928E-02 0. -1.
    10030    2    1    2    0    0  0.00000000000E+00  0.00000000000E+00  0.58497680315E+03  0.18854593923E+04  0.17924171557E+04 0.  0.
        5    1    3    3  502    0 -0.39732997595E+03 -0.48015790594E+03 -0.38494822101E+03  0.73255030358E+03  0.46999998093E+01 0. -1.
       -5    1    3    3    0  502  0.39732997595E+03  0.48015790594E+03  0.96992502417E+03  0.11529090887E+04  0.46999998093E+01 0.  1.
</event>
<event>
 5   0  0.6774451E-04  0.1722348E+04  0.7818609E-02  0.8748720E-01
       -2   -1    0    0    0  501  0.00000000000E+00  0.00000000000E+00  0.64322744687E+03  0.64322744688E+03  0.25500000920E-02 0. -1.
        2   -1    0    0  501    0  0.00000000000E+00  0.00000000000E+00 -0.11529683459E+04  0.11529683459E+04  0.25500000920E-02 0.  1.
    10030    2    1    2    0    0  0.00000000000E+00  0.00000000000E+00 -0.50974089899E+03  0.17961957927E+04  0.17223482638E+04 0.  0.
        4    1    3    3  502    0 -0.70751675068E+03 -0.37851024222E+03  0.71216931671E+02  0.80555783170E+03  0.12699999809E+01 0. -1.
       -4    1    3    3    0  502  0.70751675068E+03  0.37851024222E+03 -0.58095783066E+03  0.99063796104E+03  0.12699999809E+01 0.  1.
</event>
<event>
 5   0  0.3413839E-04  0.1208655E+04  0.7818609E-02  0.9105315E-01
        1   -1    0    0  501    0  0.00000000000E+00  0.00000000000E+00  0.45481539144E+03  0.45481539147E+03  0.50400001928E-02 0. -1.
       -1   -1    0    0    0  501  0.00000000000E+00  0.00000000000E+00 -0.80298859472E+03  0.80298859474E+03  0.50400001928E-02 0.  1.
    10030    2    1    2    0    0  0.00000000000E+00  0.00000000000E+00 -0.34817320328E+03  0.12578039862E+04  0.12086547432E+04 0.  0.
        5    1    3    3  502    0  0.53178854611E+02  0.60008979345E+03 -0.12468264040E+03  0.61522646367E+03  0.46999998093E+01 0. -1.
       -5    1    3    3    0  502 -0.53178854611E+02 -0.60008979345E+03 -0.22349056287E+03  0.64257752254E+03  0.46999998093E+01 0.  1.
</event>
<event>
 5   0  0.6774451E-04  0.1732171E+04  0.7818609E-02  0.8743226E-01
        2   -1    0    0  501    0  0.00000000000E+00  0.00000000000E+00  0.12292347824E+04  0.12292347824E+04  0.25500000920E-02 0.  1.
       -2   -1    0    0    0  501  0.00000000000E+00  0.00000000000E+00 -0.61022065472E+03  0.61022065473E+03  0.25500000920E-02 0. -1.
    10030    2    1    2    0    0  0.00000000000E+00  0.00000000000E+00  0.61901412763E+03  0.18394554371E+04  0.17321714161E+04 0.  0.
        4    1    3    3  502    0 -0.81319973259E+03  0.23039820062E+03  0.10878791511E+03  0.85218164690E+03  0.12699999809E+01 0. -1.
       -4    1    3    3    0  502  0.81319973259E+03 -0.23039820062E+03  0.51022621252E+03  0.98727379018E+03  0.12699999809E+01 0.  1.
</event>
<event>
 5   0  0.3404261E-04  0.1783930E+04  0.7818609E-02  0.8714892E-01
        1   -1    0    0  501    0  0.00000000000E+00  0.00000000000E+00  0.17470427987E+04  0.17470427987E+04  0.50400001928E-02 0. -1.
       -1   -1    0    0    0  501  0.00000000000E+00  0.00000000000E+00 -0.45539921567E+03  0.45539921570E+03  0.50400001928E-02 0.  1.
    10030    2    1    2    0    0  0.00000000000E+00  0.00000000000E+00  0.12916435830E+04  0.22024420144E+04  0.17839304026E+04 0.  0.
        1    1    3    3  502    0 -0.41659301322E+03 -0.16758049741E+03 -0.30567745915E+03  0.54320499890E+03  0.50400001928E-02 0.  1.
       -1    1    3    3    0  502  0.41659301322E+03  0.16758049741E+03  0.15973210422E+04  0.16592370155E+04  0.50400001928E-02 0. -1.
</event>
<event>
 5   0  0.6771967E-04  0.1791668E+04  0.7818609E-02  0.8710743E-01
       -2   -1    0    0    0  501  0.00000000000E+00  0.00000000000E+00  0.10376686188E+04  0.10376686188E+04  0.25500000920E-02 0. -1.
        2   -1    0    0  501    0  0.00000000000E+00  0.00000000000E+00 -0.77338625290E+03  0.77338625291E+03  0.25500000920E-02 0.  1.
    10030    2    1    2    0    0  0.00000000000E+00  0.00000000000E+00  0.26428236590E+03  0.18110548717E+04  0.17916680997E+04 0.  0.
        1    1    3    3  502    0 -0.76996433005E+03 -0.45539851743E+03  0.18046818941E+03  0.91257966592E+03  0.50400001928E-02 0.  1.
       -1    1    3    3    0  502  0.76996433005E+03  0.45539851743E+03  0.83814176489E+02  0.89847520580E+03  0.50400001928E-02 0. -1.
</event>
<event>
 5   0  0.3308275E-04  0.1945347E+04  0.7818609E-02  0.8632608E-01
        1   -1    0    0  501    0  0.00000000000E+00  0.00000000000E+00  0.10784331265E+04  0.10784331265E+04  0.50400001928E-02 0.  1.
       -1   -1    0    0    0  501  0.00000000000E+00  0.00000000000E+00 -0.87728511445E+03  0.87728511447E+03  0.50400001928E-02 0. -1.
    10030    2    1    2    0    0  0.00000000000E+00  0.00000000000E+00  0.20114801206E+03  0.19557182410E+04  0.19453465798E+04 0.  0.
        3    1    3    3  502    0  0.56863933964E+03 -0.14868654005E+03  0.87971237927E+03  0.10579944547E+04  0.10100000352E+00 0.  1.
       -3    1    3    3    0  502 -0.56863933964E+03  0.14868654005E+03 -0.67856436721E+03  0.89772378627E+03  0.10100000352E+00 0. -1.
</event>
<event>
 5   0  0.6853162E-04  0.1805839E+04  0.7818609E-02  0.8703201E-01
        2   -1    0    0  501    0  0.00000000000E+00  0.00000000000E+00  0.28682347335E+04  0.28682347335E+04  0.25500000920E-02 0. -1.
       -2   -1    0    0    0  501  0.00000000000E+00  0.00000000000E+00 -0.28423876151E+03  0.28423876152E+03  0.25500000920E-02 0.  1.
    10030    2    1    2    0    0  0.00000000000E+00  0.00000000000E+00  0.25839959720E+04  0.31524734950E+04  0.18058388504E+04 0.  0.
        2    1    3    3  502    0 -0.26224580775E+03 -0.81146562113E+03  0.18099013735E+04  0.20007479351E+04  0.25500000920E-02 0. -1.
       -2    1    3    3    0  502  0.26224580775E+03  0.81146562113E+03  0.77409459850E+03  0.11517255599E+04  0.25500000920E-02 0.  1.
</event>
<event>
 5   0  0.3404261E-04  0.1698667E+04  0.7818609E-02  0.8762125E-01
        1   -1    0    0  501    0  0.00000000000E+00  0.00000000000E+00  0.19882966762E+04  0.19882966762E+04  0.50400001928E-02 0. -1.
       -1   -1    0    0    0  501  0.00000000000E+00  0.00000000000E+00 -0.36280692795E+03  0.36280692799E+03  0.50400001928E-02 0.  1.
    10030    2    1    2    0    0  0.00000000000E+00  0.00000000000E+00  0.16254897482E+04  0.23511036042E+04  0.16986674884E+04 0.  0.
        1    1    3    3  502    0  0.75631724551E+03 -0.76685090962E+01  0.27795466774E+03  0.80581224813E+03  0.50400001928E-02 0.  1.
       -1    1    3    3    0  502 -0.75631724551E+03  0.76685090962E+01  0.13475350805E+04  0.15452913561E+04  0.50400001928E-02 0. -1.
</event>
<event>
 5   0  0.3308275E-04  0.1762441E+04  0.7818609E-02  0.8726532E-01
       -1   -1    0    0    0  501  0.00000000000E+00  0.00000000000E+00  0.18107993011E+04  0.18107993012E+04  0.50400001928E-02 0.  1.
        1   -1    0    0  501    0  0.00000000000E+00  0.00000000000E+00 -0.42884348107E+03  0.42884348110E+03  0.50400001928E-02 0. -1.
    10030    2    1    2    0    0  0.00000000000E+00  0.00000000000E+00  0.13819558201E+04  0.22396427823E+04  0.17624408936E+04 0.  0.
        3    1    3    3  502    0 -0.34079887295E+03 -0.80015504774E+03  0.51055883276E+03  0.10084950690E+04  0.10100000352E+00 0. -1.
       -3    1    3    3    0  502  0.34079887295E+03  0.80015504774E+03  0.87139698732E+03  0.12311477133E+04  0.10100000352E+00 0.  1.
</event>
<event>
 5   0  0.3404261E-04  0.1834660E+04  0.7818609E-02  0.8688082E-01
       -1   -1    0    0    0  501  0.00000000000E+00  0.00000000000E+00  0.33728620979E+03  0.33728620983E+03  0.50400001928E-02 0.  1.
        1   -1    0    0  501    0  0.00000000000E+00  0.00000000000E+00 -0.24948964486E+04  0.24948964486E+04  0.50400001928E-02 0. -1.
    10030    2    1    2    0    0  0.00000000000E+00  0.00000000000E+00 -0.21576102388E+04  0.28321826584E+04  0.18346598235E+04 0.  0.
        1    1    3    3  502    0 -0.54792899977E+03 -0.73567463070E+03 -0.10898095039E+04  0.14244746772E+04  0.50400001928E-02 0.  1.
       -1    1    3    3    0  502  0.54792899977E+03  0.73567463070E+03 -0.10678007349E+04  0.14077079813E+04  0.50400001928E-02 0. -1.
</event>
<event>
 5   0  0.6547153E-04  0.1807157E+04  0.7818609E-02  0.8702503E-01
       -2   -1    0    0    0  501  0.00000000000E+00  0.00000000000E+00  0.36401013966E+03  0.36401013967E+03  0.25500000920E-02 0.  1.
        2   -1    0    0  501    0  0.00000000000E+00  0.00000000000E+00 -0.22429423893E+04  0.22429423893E+04  0.25500000920E-02 0. -1.
    10030    2    1    2    0    0  0.00000000000E+00  0.00000000000E+00 -0.18789322496E+04  0.26069525290E+04  0.18071566312E+04 0.  0.
        5    1    3    3  502    0 -0.64766585870E+03  0.12550755059E+03 -0.48792484205E+02  0.66153307272E+03  0.46999998093E+01 0.  1.
       -5    1    3    3    0  502  0.64766585870E+03 -0.12550755059E+03 -0.18301397654E+04  0.19454194563E+04  0.46999998093E+01 0. -1.
</event>
<event>
 5   0  0.6929121E-04  0.1785015E+04  0.7818609E-02  0.8714309E-01
       -2   -1    0    0    0  501  0.00000000000E+00  0.00000000000E+00  0.40482099898E+03  0.40482099898E+03  0.25500000920E-02 0.  1.
        2   -1    0    0  501    0  0.00000000000E+00  0.00000000000E+00 -0.19677078424E+04  0.19677078424E+04  0.25500000920E-02 0. -1.
    10030    2    1    2    0    0  0.00000000000E+00  0.00000000000E+00 -0.15628868434E+04  0.23725288414E+04  0.17850147948E+04 0.  0.
        3    1    3    3  502    0  0.72921063825E+03  0.51018128830E+03 -0.69192290220E+03  0.11272934022E+04  0.10100000352E+00 0.  1.
       -3    1    3    3    0  502 -0.72921063825E+03 -0.51018128830E+03 -0.87096394120E+03  0.12452354392E+04  0.10100000352E+00 0. -1.
</event>
<event>
 5   0  0.6771967E-04  0.1834196E+04  0.7818609E-02  0.8688323E-01
        2   -1    0    0  501    0  0.00000000000E+00  0.00000000000E+00  0.55397408610E+03  0.55397408611E+03  0.25500000920E-02 0. -1.
       -2   -1    0    0    0  501  0.00000000000E+00  0.00000000000E+00 -0.15182450545E+04  0.15182450546E+04  0.25500000920E-02 0.  1.
    10030    2    1    2    0    0  0.00000000000E+00  0.00000000000E+00 -0.96427096844E+03  0.20722191407E+04  0.18341956456E+04 0.  0.
        1    1    3    3  502    0 -0.55273224432E+03 -0.18092238394E+03  0.31898420593E+03  0.66332252078E+03  0.50400001928E-02 0. -1.
       -1    1    3    3    0  502  0.55273224432E+03  0.18092238394E+03 -0.12832551744E+04  0.14088966199E+04  0.50400001928E-02 0.  1.
</event>
<event>
 5   0  0.3377273E-04  0.1779849E+04  0.7818609E-02  0.8717090E-01
        1   -1    0    0  501    0  0.00000000000E+00  0.00000000000E+00  0.85783378732E+03  0.85783378734E+03  0.50400001928E-02 0. -1.
       -1   -1    0    0    0  501  0.00000000000E+00  0.00000000000E+00 -0.92321563807E+03  0.92321563808E+03  0.50400001928E-02 0.  1.
    10030    2    1    2    0    0  0.00000000000E+00  0.00000000000E+00 -0.65381850745E+02  0.17810494254E+04  0.17798489457E+04 0.  0.
        2    1    3    3  502    0  0.52819236630E+02 -0.87580424806E+03  0.11621338758E+03  0.88505847498E+03  0.25500000920E-02 0. -1.
       -2    1    3    3    0  502 -0.52819236630E+02  0.87580424806E+03 -0.18159523833E+03  0.89599095044E+03  0.25500000920E-02 0.  1.
</event>
<event>
 5   0  0.3404261E-04  0.1736475E+04  0.7818609E-02  0.8740830E-01
        1   -1    0    0  501    0  0.00000000000E+00  0.00000000000E+00  0.11698668544E+04  0.11698668544E+04  0.50400001928E-02 0. -1.
       -1   -1    0    0    0  501  0.00000000000E+00  0.00000000000E+00 -0.64437815654E+03  0.64437815656E+03  0.50400001928E-02 0.  1.
    10030    2    1    2    0    0  0.00000000000E+00  0.00000000000E+00  0.52548869784E+03  0.18142450110E+04  0.17364753348E+04 0.  0.
        1    1    3    3  502    0 -0.79023581841E+03 -0.99419708960E+02 -0.98394672024E+02  0.80252005503E+03  0.50400001928E-02 0.  1.
       -1    1    3    3    0  502  0.79023581841E+03  0.99419708960E+02  0.62388336987E+03  0.10117249559E+04  0.50400001928E-02 0. -1.
</event>
<event>
 5   0  0.6547153E-04  0.1807217E+04  0.7818609E-02  0.8702471E-01
        2   -1    0    0  501    0  0.00000000000E+00  0.00000000000E+00  0.18988030872E+04  0.18988030872E+04  0.25500000920E-02 0. -1.
       -2   -1    0    0    0  501  0.00000000000E+00  0.00000000000E+00 -0.43001211434E+03  0.43001211435E+03  0.25500000920E-02 0.  1.
    10030    2    1    2    0    0  0.00000000000E+00  0.00000000000E+00  0.14687909729E+04  0.23288152016E+04  0.18072170099E+04 0.  0.
        5    1    3    3  502    0  0.33592422641E+03  0.83466702504E+02  0.18099679320E+04  0.18427744792E+04  0.46999998093E+01 0. -1.
       -5    1    3    3    0  502 -0.33592422641E+03 -0.83466702504E+02 -0.34117695915E+03  0.48604072234E+03  0.46999998093E+01 0.  1.
</event>
<event>
 5   0  0.3308275E-04  0.1832139E+04  0.7818609E-02  0.8689393E-01
       -1   -1    0    0    0  501  0.00000000000E+00  0.00000000000E+00  0.83240489010E+03  0.83240489012E+03  0.50400001928E-02 0. -1.
        1   -1    0    0  501    0  0.00000000000E+00  0.00000000000E+00 -0.10081426505E+04  0.10081426505E+04  0.50400001928E-02 0.  1.
    10030    2    1    2    0    0  0.00000000000E+00  0.00000000000E+00 -0.17573776040E+03  0.18405475406E+04  0.18321385016E+04 0.  0.
        3    1    3    3  502    0  0.88622834697E+03 -0.85424548249E+02  0.12872408218E+03  0.89959320582E+03  0.10100000352E+00 0. -1.
       -3    1    3    3    0  502 -0.88622834697E+03  0.85424548249E+02 -0.30446184258E+03  0.94095433482E+03  0.10100000352E+00 0.  1.
</event>
<event>
 5   0  0.3470962E-04  0.1818311E+04  0.7818609E-02  0.8696622E-01
       -1   -1    0    0    0  501  0.00000000000E+00  0.00000000000E+00  0.32779253193E+03  0.32779253197E+03  0.50400001928E-02 0.  1.
        1   -1    0    0  501    0  0.00000000000E+00  0.00000000000E+00 -0.25216060108E+04  0.25216060108E+04  0.50400001928E-02 0. -1.
    10030    2    1    2    0    0  0.00000000000E+00  0.00000000000E+00 -0.21938134789E+04  0.28493985428E+04  0.18183108853E+04 0.  0.
        4    1    3    3  502    0 -0.88029211758E+03 -0.22119274183E+03 -0.10151554920E+04  0.13617572204E+04  0.12699999809E+01 0.  1.
       -4    1    3    3    0  502  0.88029211758E+03  0.22119274183E+03 -0.11786579868E+04  0.14876413224E+04  0.12699999809E+01 0. -1.
</event>
<event>
 5   0  0.6547153E-04  0.1805468E+04  0.7818609E-02  0.8703397E-01
       -2   -1    0    0    0  501  0.00000000000E+00  0.00000000000E+00  0.85003389384E+03  0.85003389385E+03  0.25500000920E-02 0.  1.
        2   -1    0    0  501    0  0.00000000000E+00  0.00000000000E+00 -0.95870170815E+03  0.95870170815E+03  0.25500000920E-02 0. -1.
    10030    2    1    2    0    0  0.00000000000E+00  0.00000000000E+00 -0.10866781430E+03  0.18087356020E+04  0.18054683005E+04 0.  0.
        5    1    3    3  502    0  0.39512818429E+03 -0.12672556036E+03 -0.85748366750E+03  0.95262058538E+03  0.46999998093E+01 0. -1.
       -5    1    3    3    0  502 -0.39512818429E+03  0.12672556036E+03  0.74881585320E+03  0.85611501661E+03  0.46999998093E+01 0.  1.
</event>
<event>
 5   0  0.3413839E-04  0.1754028E+04  0.7818609E-02  0.8731136E-01
        1   -1    0    0  501    0  0.00000000000E+00  0.00000000000E+00  0.23180663768E+04  0.23180663768E+04  0.50400001928E-02 0.  1.
       -1   -1    0    0    0  501  0.00000000000E+00  0.00000000000E+00 -0.33180815037E+03  0.33180815041E+03  0.50400001928E-02 0. -1.
    10030    2    1    2    0    0  0.00000000000E+00  0.00000000000E+00  0.19862582264E+04  0.26498745272E+04  0.17540277272E+04 0.  0.
        5    1    3    3  502    0  0.17331236462E+03  0.67671013723E+03  0.19207169361E+03  0.72449113938E+03  0.46999998093E+01 0. -1.
       -5    1    3    3    0  502 -0.17331236462E+03 -0.67671013723E+03  0.17941865328E+04  0.19253833878E+04  0.46999998093E+01 0.  1.
</event>
<event>
 5   0  0.6547153E-04  0.1797676E+04  0.7818609E-02  0.8707536E-01
        2   -1    0    0  501    0  0.00000000000E+00  0.00000000000E+00  0.18228371009E+04  0.18228371009E+04  0.25500000920E-02 0.  1.
       -2   -1    0    0    0  501  0.00000000000E+00  0.00000000000E+00 -0.44321563780E+03  0.44321563781E+03  0.25500000920E-02 0. -1.
    10030    2    1    2    0    0  0.00000000000E+00  0.00000000000E+00  0.13796214631E+04  0.22660527387E+04  0.17976761758E+04 0.  0.
        5    1    3    3  502    0  0.25767087299E+03  0.86069535010E+03  0.65653008884E+03  0.11127644010E+04  0.46999998093E+01 0.  1.
       -5    1    3    3    0  502 -0.25767087299E+03 -0.86069535010E+03  0.72309137426E+03  0.11532883378E+04  0.46999998093E+01 0. -1.
</event>
<event>
 5   0  0.6774451E-04  0.1856237E+04  0.7818609E-02  0.8676952E-01
        2   -1    0    0  501    0  0.00000000000E+00  0.00000000000E+00  0.15475124399E+04  0.15475124399E+04  0.25500000920E-02 0.  1.
       -2   -1    0    0    0  501  0.00000000000E+00  0.00000000000E+00 -0.55663763653E+03  0.55663763653E+03  0.25500000920E-02 0. -1.
    10030    2    1    2    0    0  0.00000000000E+00  0.00000000000E+00  0.99087480337E+03  0.21041500764E+04  0.18562366951E+04 0.  0.
        4    1    3    3  502    0 -0.51114726864E+03 -0.11602793109E+03  0.13636769707E+04  0.14609416499E+04  0.12699999809E+01 0.  1.
       -4    1    3    3    0  502  0.51114726864E+03  0.11602793109E+03 -0.37280216738E+03  0.64320842651E+03  0.12699999809E+01 0. -1.
</event>
<event>
 5   0  0.6771967E-04  0.1853648E+04  0.7818609E-02  0.8678279E-01
       -2   -1    0    0    0  501  0.00000000000E+00  0.00000000000E+00  0.15567580083E+04  0.15567580083E+04  0.25500000920E-02 0. -1.
        2   -1    0    0  501    0  0.00000000000E+00  0.00000000000E+00 -0.55178968584E+03  0.55178968585E+03  0.25500000920E-02 0.  1.
    10030    2    1    2    0    0  0.00000000000E+00  0.00000000000E+00  0.10049683225E+04  0.21085476942E+04  0.18536483079E+04 0.  0.
        1    1    3    3  502    0  0.56799318171E+03 -0.10203840518E+02 -0.33053110200E+03  0.65724514624E+03  0.50400001928E-02 0.  1.
       -1    1    3    3    0  502 -0.56799318171E+03  0.10203840518E+02  0.13354994245E+04  0.14513025480E+04  0.50400001928E-02 0. -1.
</event>
<event>
 5   0  0.6771967E-04  0.1700298E+04  0.7818609E-02  0.8761195E-01
       -2   -1    0    0    0  501  0.00000000000E+00  0.00000000000E+00  0.26101837454E+03  0.26101837455E+03  0.25500000920E-02 0. -1.
        2   -1    0    0  501    0  0.00000000000E+00  0.00000000000E+00 -0.27689739874E+04  0.27689739874E+04  0.25500000920E-02 0.  1.
    10030    2    1    2    0    0  0.00000000000E+00  0.00000000000E+00 -0.25079556129E+04  0.30299923619E+04  0.17002977261E+04 0.  0.
        1    1    3    3  502    0 -0.58587801158E+03  0.23803294465E+03 -0.24144180780E+03  0.67690979736E+03  0.50400001928E-02 0. -1.
       -1    1    3    3    0  502  0.58587801158E+03 -0.23803294465E+03 -0.22665138051E+04  0.23530825646E+04  0.50400001928E-02 0.  1.
</event>
<event>
 5   0  0.3377273E-04  0.1828679E+04  0.7818609E-02  0.8691195E-01
       -1   -1    0    0    0  501  0.00000000000E+00  0.00000000000E+00  0.60064129915E+03  0.60064129917E+03  0.50400001928E-02 0. -1.
        1   -1    0    0  501    0  0.00000000000E+00  0.00000000000E+00 -0.13918733290E+04  0.13918733290E+04  0.50400001928E-02 0.  1.
    10030    2    1    2    0    0  0.00000000000E+00  0.00000000000E+00 -0.79123202988E+03  0.19925146282E+04  0.18286788724E+04 0.  0.
        2    1    3    3  502    0  0.59442700755E+03  0.68033256150E+03 -0.24221648203E+03  0.93534201538E+03  0.25500000920E-02 0. -1.
       -2    1    3    3    0  502 -0.59442700755E+03 -0.68033256150E+03 -0.54901554784E+03  0.10571726128E+04  0.25500000920E-02 0.  1.
</event>
<event>
 5   0  0.6771967E-04  0.1798511E+04  0.7818609E-02  0.8707092E-01
       -2   -1    0    0    0  501  0.00000000000E+00  0.00000000000E+00  0.85243585940E+03  0.85243585940E+03  0.25500000920E-02 0. -1.
        2   -1    0    0  501    0  0.00000000000E+00  0.00000000000E+00 -0.94864677791E+03  0.94864677791E+03  0.25500000920E-02 0.  1.
    10030    2    1    2    0    0  0.00000000000E+00  0.00000000000E+00 -0.96210918509E+02  0.18010826373E+04  0.17985110858E+04 0.  0.
        1    1    3    3  502    0  0.31301305184E+03 -0.55169393732E+03 -0.68644699304E+03  0.93464048991E+03  0.50400001928E-02 0.  1.
       -1    1    3    3    0  502 -0.31301305184E+03  0.55169393732E+03  0.59023607453E+03  0.86644214740E+03  0.50400001928E-02 0. -1.
</event>
<event>
 5   0  0.3413839E-04  0.1787063E+04  0.7818609E-02  0.8713210E-01
        1   -1    0    0  501    0  0.00000000000E+00  0.00000000000E+00  0.13972682227E+04  0.13972682227E+04  0.50400001928E-02 0. -1.
       -1   -1    0    0    0  501  0.00000000000E+00  0.00000000000E+00 -0.57139975550E+03  0.57139975553E+03  0.50400001928E-02 0.  1.
    10030    2    1    2    0    0  0.00000000000E+00  0.00000000000E+00  0.82586846721E+03  0.19686679783E+04  0.17870632007E+04 0.  0.
        5    1    3    3  502    0 -0.76459809567E+03 -0.44234584354E+03  0.56112812793E+03  0.10465022500E+04  0.46999998093E+01 0. -1.
       -5    1    3    3    0  502  0.76459809567E+03  0.44234584354E+03  0.26474033929E+03  0.92216572830E+03  0.46999998093E+01 0.  1.
</event>
<event>
 5   0  0.3308275E-04  0.1754026E+04  0.7818609E-02  0.8731137E-01
       -1   -1    0    0    0  501  0.00000000000E+00  0.00000000000E+00  0.67716794008E+03  0.67716794010E+03  0.50400001928E-02 0.  1.
        1   -1    0    0  501    0  0.00000000000E+00  0.00000000000E+00 -0.11358362714E+04  0.11358362714E+04  0.50400001928E-02 0. -1.
    10030    2    1    2    0    0  0.00000000000E+00  0.00000000000E+00 -0.45866833133E+03  0.18130042115E+04  0.17540261209E+04 0.  0.
        3    1    3    3  502    0 -0.50568335370E+03 -0.67912199202E+03  0.68881679397E+01  0.84674068718E+03  0.10100000352E+00 0. -1.
       -3    1    3    3    0  502  0.50568335370E+03  0.67912199202E+03 -0.46555649927E+03  0.96626352434E+03  0.10100000352E+00 0.  1.
</event>
<event>
 5   0  0.6774451E-04  0.1839878E+04  0.7818609E-02  0.8685376E-01
       -2   -1    0    0    0  501  0.00000000000E+00  0.00000000000E+00  0.43635007195E+03  0.43635007196E+03  0.25500000920E-02 0. -1.
        2   -1    0    0  501    0  0.00000000000E+00  0.00000000000E+00 -0.19394695726E+04  0.19394695726E+04  0.25500000920E-02 0.  1.
    10030    2    1    2    0    0  0.00000000000E+00  0.00000000000E+00 -0.15031195006E+04  0.23758196445E+04  0.18398779172E+04 0.  0.
        4    1    3    3  502    0 -0.16975676737E+03  0.44615467871E+03  0.26390387288E+03  0.54545231178E+03  0.12699999809E+01 0. -1.
       -4    1    3    3    0  502  0.16975676737E+03 -0.44615467871E+03 -0.17670233735E+04  0.18303673327E+04  0.12699999809E+01 0.  1.
</event>
<event>
 5   0  0.3470962E-04  0.1395075E+04  0.7818609E-02  0.8957391E-01
        1   -1    0    0  501    0  0.00000000000E+00  0.00000000000E+00  0.10869775404E+04  0.10869775404E+04  0.50400001928E-02 0. -1.
       -1   -1    0    0    0  501  0.00000000000E+00  0.00000000000E+00 -0.44762526062E+03  0.44762526065E+03  0.50400001928E-02 0.  1.
    10030    2    1    2    0    0  0.00000000000E+00  0.00000000000E+00  0.63935227978E+03  0.15346028011E+04  0.13950750587E+04 0.  0.
        4    1    3    3  502    0  0.48376859870E+03 -0.27116646629E+03 -0.14571409196E+03  0.57340868412E+03  0.12699999809E+01 0.  1.
       -4    1    3    3    0  502 -0.48376859870E+03  0.27116646629E+03  0.78506637174E+03  0.96119411695E+03  0.12699999809E+01 0. -1.
</event>
<event>
 5   0  0.6929121E-04  0.1286794E+04  0.7818609E-02  0.9040104E-01
        2   -1    0    0  501    0  0.00000000000E+00  0.00000000000E+00  0.59358573637E+03  0.59358573638E+03  0.25500000920E-02 0. -1.
       -2   -1    0    0    0  501  0.00000000000E+00  0.00000000000E+00 -0.69738806919E+03  0.69738806919E+03  0.25500000920E-02 0.  1.
    10030    2    1    2    0    0  0.00000000000E+00  0.00000000000E+00 -0.10380233282E+03  0.12909738056E+04  0.12867938616E+04 0.  0.
        3    1    3    3  502    0  0.53690239675E+02  0.50319234720E+03  0.34672365180E+03  0.61343498518E+03  0.10100000352E+00 0. -1.
       -3    1    3    3    0  502 -0.53690239675E+02 -0.50319234720E+03 -0.45052598462E+03  0.67753882039E+03  0.10100000352E+00 0.  1.
</event>
<event>
 5   0  0.6929121E-04  0.1683915E+04  0.7818609E-02  0.8770592E-01
        2   -1    0    0  501    0  0.00000000000E+00  0.00000000000E+00  0.10311654931E+04  0.10311654931E+04  0.25500000920E-02 0. -1.
       -2   -1    0    0    0  501  0.00000000000E+00  0.00000000000E+00 -0.68746744963E+03  0.68746744964E+03  0.25500000920E-02 0.  1.
    10030    2    1    2    0    0  0.00000000000E+00  0.00000000000E+00  0.34369804348E+03  0.17186329428E+04  0.16839153324E+04 0.  0.
        3    1    3    3  502    0 -0.65094121694E+03 -0.17350404827E+03 -0.34360265493E+03  0.75623469727E+03  0.10100000352E+00 0.  1.
       -3    1    3    3    0  502  0.65094121694E+03  0.17350404827E+03  0.68730069841E+03  0.96239824549E+03  0.10100000352E+00 0. -1.
</event>
<event>
 5   0  0.6929121E-04  0.1816939E+04  0.7818609E-02  0.8697343E-01
       -2   -1    0    0    0  501  0.00000000000E+00  0.00000000000E+00  0.75953404703E+03  0.75953404703E+03  0.25500000920E-02 0.  1.
        2   -1    0    0  501    0  0.00000000000E+00  0.00000000000E+00 -0.10866088514E+04  0.10866088514E+04  0.25500000920E-02 0. -1.
    10030    2    1    2    0    0  0.00000000000E+00  0.00000000000E+00 -0.32707480440E+03  0.18461428985E+04  0.18169385443E+04 0.  0.
        3    1    3    3  502    0 -0.23264442917E+03  0.50266477617E+03  0.56812087996E+03  0.79344606123E+03  0.10100000352E+00 0.  1.
       -3    1    3    3    0  502  0.23264442917E+03 -0.50266477617E+03 -0.89519568436E+03  0.10526968372E+04  0.10100000352E+00 0. -1.
</event>
<event>
 5   0  0.3377273E-04  0.1810202E+04  0.7818609E-02  0.8700893E-01
        1   -1    0    0  501    0  0.00000000000E+00  0.00000000000E+00  0.20490830947E+04  0.20490830947E+04  0.50400001928E-02 0.  1.
       -1   -1    0    0    0  501  0.00000000000E+00  0.00000000000E+00 -0.39979235201E+03  0.39979235204E+03  0.50400001928E-02 0. -1.
    10030    2    1    2    0    0  0.00000000000E+00  0.00000000000E+00  0.16492907427E+04  0.24488754467E+04  0.18102019224E+04 0.  0.
        2    1    3    3  502    0  0.32381451848E+03 -0.18055680435E+03  0.19416439334E+04  0.19767239984E+04  0.25500000920E-02 0.  1.
       -2    1    3    3    0  502 -0.32381451848E+03  0.18055680435E+03 -0.29235319072E+03  0.47215144827E+03  0.25500000920E-02 0. -1.
</event>
<event>
 5   0  0.6547153E-04  0.1400300E+04  0.7818609E-02  0.8953601E-01
        2   -1    0    0  501    0  0.00000000000E+00  0.00000000000E+00  0.92735889542E+03  0.92735889543E+03  0.25500000920E-02 0. -1.
       -2   -1    0    0    0  501  0.00000000000E+00  0.00000000000E+00 -0.52860895705E+03  0.52860895706E+03  0.25500000920E-02 0.  1.
    10030    2    1    2    0    0  0.00000000000E+00  0.00000000000E+00  0.39874993837E+03  0.14559678525E+04  0.14003002800E+04 0.  0.
        5    1    3    3  502    0 -0.17021009993E+03  0.66343497836E+03  0.35030299281E+03  0.76931900106E+03  0.46999998093E+01 0. -1.
       -5    1    3    3    0  502  0.17021009993E+03 -0.66343497836E+03  0.48446945556E+02  0.68664885142E+03  0.46999998093E+01 0.  1.
</event>
<event>
 5   0  0.6547153E-04  0.1847895E+04  0.7818609E-02  0.8681236E-01
        2   -1    0    0  501    0  0.00000000000E+00  0.00000000000E+00  0.13256536009E+04  0.13256536009E+04  0.25500000920E-02 0. -1.
       -2   -1    0    0    0  501  0.00000000000E+00  0.00000000000E+00 -0.64396803061E+03  0.64396803062E+03  0.25500000920E-02 0.  1.
    10030    2    1    2    0    0  0.00000000000E+00  0.00000000000E+00  0.68168557027E+03  0.19696216315E+04  0.18478945193E+04 0.  0.
        5    1    3    3  502    0 -0.75985046469E+03  0.40468963974E+03  0.69836350824E+03  0.11085486515E+04  0.46999998093E+01 0. -1.
       -5    1    3    3    0  502  0.75985046469E+03 -0.40468963974E+03 -0.16677937975E+02  0.86107297996E+03  0.46999998093E+01 0.  1.
</event>
<event>
 5   0  0.6774451E-04  0.1788471E+04  0.7818609E-02  0.8712455E-01
       -2   -1    0    0    0  501  0.00000000000E+00  0.00000000000E+00  0.55215106984E+03  0.55215106985E+03  0.25500000920E-02 0.  1.
        2   -1    0    0  501    0  0.00000000000E+00  0.00000000000E+00 -0.14482572298E+04  0.14482572298E+04  0.25500000920E-02 0. -1.
    10030    2    1    2    0    0  0.00000000000E+00  0.00000000000E+00 -0.89610615991E+03  0.20004082996E+04  0.17884706079E+04 0.  0.
        4    1    3    3  502    0 -0.45983273198E+03  0.43305943178E+03 -0.11560469041E+04  0.13173582164E+04  0.12699999809E+01 0. -1.
       -4    1    3    3    0  502  0.45983273198E+03 -0.43305943178E+03  0.25994074417E+03  0.68305008325E+03  0.12699999809E+01 0.  1.
</event>
<event>
 5   0  0.6774451E-04  0.1817191E+04  0.7818609E-02  0.8697210E-01
        2   -1    0    0  501    0  0.00000000000E+00  0.00000000000E+00  0.17117811160E+04  0.17117811160E+04  0.25500000920E-02 0.  1.
       -2   -1    0    0    0  501  0.00000000000E+00  0.00000000000E+00 -0.48227320212E+03  0.48227320213E+03  0.25500000920E-02 0. -1.
    10030    2    1    2    0    0  0.00000000000E+00  0.00000000000E+00  0.12295079139E+04  0.21940543181E+04  0.18171914155E+04 0.  0.
        4    1    3    3  502    0 -0.90631541763E+03 -0.37877240920E+02  0.55199040654E+03  0.10618556133E+04  0.12699999809E+01 0. -1.
       -4    1    3    3    0  502  0.90631541763E+03  0.37877240920E+02  0.67751750731E+03  0.11321987048E+04  0.12699999809E+01 0.  1.
</event>
<event>
 5   0  0.3377273E-04  0.1779323E+04  0.7818609E-02  0.8717373E-01
        1   -1    0    0  501    0  0.00000000000E+00  0.00000000000E+00  0.65016245994E+03  0.65016245996E+03  0.50400001928E-02 0.  1.
       -1   -1    0    0    0  501  0.00000000000E+00  0.00000000000E+00 -0.12173839580E+04  0.12173839580E+04  0.50400001928E-02 0. -1.
    10030    2    1    2    0    0  0.00000000000E+00  0.00000000000E+00 -0.56722149810E+03  0.18675464180E+04  0.17793227351E+04 0.  0.
        2    1    3    3  502    0  0.78654272748E+03  0.13174220975E+03 -0.69748702248E+03  0.10594779934E+04  0.25500000920E-02 0. -1.
       -2    1    3    3    0  502 -0.78654272748E+03 -0.13174220975E+03  0.13026552438E+03  0.80806842460E+03  0.25500000920E-02 0.  1.
</event>
<event>
 5   0  0.6929121E-04  0.1801161E+04  0.7818609E-02  0.8705682E-01
        2   -1    0    0  501    0  0.00000000000E+00  0.00000000000E+00  0.16432743558E+04  0.16432743558E+04  0.25500000920E-02 0.  1.
       -2   -1    0    0    0  501  0.00000000000E+00  0.00000000000E+00 -0.49355452961E+03  0.49355452962E+03  0.25500000920E-02 0. -1.
    10030    2    1    2    0    0  0.00000000000E+00  0.00000000000E+00  0.11497198262E+04  0.21368288854E+04  0.18011612940E+04 0.  0.
        3    1    3    3  502    0 -0.37543905615E+03 -0.74121569242E+03  0.16271178596E+03  0.84665832723E+03  0.10100000352E+00 0. -1.
       -3    1    3    3    0  502  0.37543905615E+03  0.74121569242E+03  0.98700804024E+03  0.12901705582E+04  0.10100000352E+00 0.  1.
</event>
<event>
 5   0  0.3470962E-04  0.1789267E+04  0.7818609E-02  0.8712028E-01
       -1   -1    0    0    0  501  0.00000000000E+00  0.00000000000E+00  0.43228664805E+03  0.43228664808E+03  0.50400001928E-02 0.  1.
        1   -1    0    0  501    0  0.00000000000E+00  0.00000000000E+00 -0.18514769163E+04  0.18514769163E+04  0.50400001928E-02 0. -1.
    10030    2    1    2    0    0  0.00000000000E+00  0.00000000000E+00 -0.14191902682E+04  0.22837635644E+04  0.17892666097E+04 0.  0.
        4    1    3    3  502    0 -0.54488678865E+03 -0.70252754965E+03 -0.58246622379E+03  0.10628805602E+04  0.12699999809E+01 0.  1.
       -4    1    3    3    0  502  0.54488678865E+03  0.70252754965E+03 -0.83672404443E+03  0.12208830042E+04  0.12699999809E+01 0. -1.
</event>
<event>
 5   0  0.6771967E-04  0.1831784E+04  0.7818609E-02  0.8689577E-01
       -2   -1    0    0    0  501  0.00000000000E+00  0.00000000000E+00  0.91543599334E+03  0.91543599335E+03  0.25500000920E-02 0. -1.
        2   -1    0    0  501    0  0.00000000000E+00  0.00000000000E+00 -0.91634832290E+03  0.91634832291E+03  0.25500000920E-02 0.  1.
    10030    2    1    2    0    0  0.00000000000E+00  0.00000000000E+00 -0.91232955739E+00  0.18317843163E+04  0.18317840891E+04 0.  0.
        1    1    3    3  502    0  0.66998581959E+03 -0.19530765513E+03  0.59269832259E+03  0.91559673450E+03  0.50400001928E-02 0. -1.
       -1    1    3    3    0  502 -0.66998581959E+03  0.19530765513E+03 -0.59361065214E+03  0.91618758176E+03  0.50400001928E-02 0.  1.
</event>
<event>
 5   0  0.6853162E-04  0.1768001E+04  0.7818609E-02  0.8723504E-01
       -2   -1    0    0    0  501  0.00000000000E+00  0.00000000000E+00  0.88857126334E+03  0.88857126335E+03  0.25500000920E-02 0. -1.
        2   -1    0    0  501    0  0.00000000000E+00  0.00000000000E+00 -0.87945357852E+03  0.87945357852E+03  0.25500000920E-02 0.  1.
    10030    2    1    2    0    0  0.00000000000E+00  0.00000000000E+00  0.91176848281E+01  0.17680248419E+04  0.17680013318E+04 0.  0.
        2    1    3    3  502    0 -0.13646497156E+02 -0.25623713792E+03  0.85050949789E+03  0.88837497924E+03  0.25500000920E-02 0. -1.
       -2    1    3    3    0  502  0.13646497156E+02  0.25623713792E+03 -0.84139181306E+03  0.87964986263E+03  0.25500000920E-02 0.  1.
</event>
<event>
 5   0  0.3470962E-04  0.1849162E+04  0.7818609E-02  0.8680584E-01
       -1   -1    0    0    0  501  0.00000000000E+00  0.00000000000E+00  0.47540997646E+03  0.47540997648E+03  0.50400001928E-02 0. -1.
        1   -1    0    0  501    0  0.00000000000E+00  0.00000000000E+00 -0.17981315989E+04  0.17981315989E+04  0.50400001928E-02 0.  1.
    10030    2    1    2    0    0  0.00000000000E+00  0.00000000000E+00 -0.13227216225E+04  0.22735415754E+04  0.18491616491E+04 0.  0.
        4    1    3    3  502    0  0.22973113282E+03  0.25437497574E+03  0.39440915156E+03  0.52253537049E+03  0.12699999809E+01 0. -1.
       -4    1    3    3    0  502 -0.22973113282E+03 -0.25437497574E+03 -0.17171307740E+04  0.17510062049E+04  0.12699999809E+01 0.  1.
</event>
<event>
 5   0  0.3377273E-04  0.1799185E+04  0.7818609E-02  0.8706733E-01
       -1   -1    0    0    0  501  0.00000000000E+00  0.00000000000E+00  0.62685247387E+03  0.62685247389E+03  0.50400001928E-02 0.  1.
        1   -1    0    0  501    0  0.00000000000E+00  0.00000000000E+00 -0.12910002171E+04  0.12910002171E+04  0.50400001928E-02 0. -1.
    10030    2    1    2    0    0  0.00000000000E+00  0.00000000000E+00 -0.66414774323E+03  0.19178526910E+04  0.17991850154E+04 0.  0.
        2    1    3    3  502    0  0.43971690870E+03 -0.41188591736E+03 -0.10441659924E+04  0.12055221228E+04  0.25500000920E-02 0. -1.
       -2    1    3    3    0  502 -0.43971690870E+03  0.41188591736E+03  0.38001824920E+03  0.71233056824E+03  0.25500000920E-02 0.  1.
</event>
<event>
 5   0  0.6774451E-04  0.1774696E+04  0.7818609E-02  0.8719873E-01
       -2   -1    0    0    0  501  0.00000000000E+00  0.00000000000E+00  0.10015491477E+04  0.10015491478E+04  0.25500000920E-02 0.  1.
        2   -1    0    0  501    0  0.00000000000E+00  0.00000000000E+00 -0.78616847600E+03  0.78616847601E+03  0.25500000920E-02 0. -1.
    10030    2    1    2    0    0  0.00000000000E+00  0.00000000000E+00  0.21538067175E+03  0.17877176238E+04  0.17746958806E+04 0.  0.
        4    1    3    3  502    0 -0.18087745391E+03 -0.79765838036E+03 -0.23894091992E+03  0.85209736604E+03  0.12699999809E+01 0. -1.
       -4    1    3    3    0  502  0.18087745391E+03  0.79765838036E+03  0.45432159167E+03  0.93562025772E+03  0.12699999809E+01 0.  1.
</event>
<event>
 5   0  0.6774451E-04  0.1937124E+04  0.7818609E-02  0.8636595E-01
       -2   -1    0    0    0  501  0.00000000000E+00  0.00000000000E+00  0.49865577245E+03  0.49865577246E+03  0.25500000920E-02 0. -1.
        2   -1    0    0  501    0  0.00000000000E+00  0.00000000000E+00 -0.18812821847E+04  0.18812821847E+04  0.25500000920E-02 0.  1.
    10030    2    1    2    0    0  0.00000000000E+00  0.00000000000E+00 -0.13826264122E+04  0.23799379571E+04  0.19371238691E+04 0.  0.
        4    1    3    3  502    0  0.42416498937E+03 -0.69482819587E+03 -0.13360714030E+04  0.15645416475E+04  0.12699999809E+01 0.  1.
       -4    1    3    3    0  502 -0.42416498937E+03  0.69482819587E+03 -0.46555009232E+02  0.81539630963E+03  0.12699999809E+01 0. -1.
</event>
<event>
 5   0  0.3470962E-04  0.1737224E+04  0.7818609E-02  0.8740414E-01
        1   -1    0    0  501    0  0.00000000000E+00  0.00000000000E+00  0.11268155796E+04  0.11268155796E+04  0.50400001928E-02 0. -1.
       -1   -1    0    0    0  501  0.00000000000E+00  0.00000000000E+00 -0.66957448096E+03  0.66957448098E+03  0.50400001928E-02 0.  1.
    10030    2    1    2    0    0  0.00000000000E+00  0.00000000000E+00  0.45724109868E+03  0.17963900606E+04  0.17372241731E+04 0.  0.
        4    1    3    3  502    0  0.56402525122E+03  0.27749441327E+03 -0.39126036291E+03  0.74041469319E+03  0.12699999809E+01 0.  1.
       -4    1    3    3    0  502 -0.56402525122E+03 -0.27749441327E+03  0.84850146159E+03  0.10559753674E+04  0.12699999809E+01 0. -1.
</event>
<event>
 5   0  0.3377273E-04  0.1799145E+04  0.7818609E-02  0.8706754E-01
       -1   -1    0    0    0  501  0.00000000000E+00  0.00000000000E+00  0.10382866146E+04  0.10382866146E+04  0.50400001928E-02 0. -1.
        1   -1    0    0  501    0  0.00000000000E+00  0.00000000000E+00 -0.77939019635E+03  0.77939019637E+03  0.50400001928E-02 0.  1.
    10030    2    1    2    0    0  0.00000000000E+00  0.00000000000E+00  0.25889641828E+03  0.18176768110E+04  0.17991446951E+04 0.  0.
        2    1    3    3  502    0  0.25310726753E+03  0.86249746463E+03  0.16538485677E+03  0.91395695535E+03  0.25500000920E-02 0.  1.
       -2    1    3    3    0  502 -0.25310726753E+03 -0.86249746463E+03  0.93511561508E+02  0.90371985566E+03  0.25500000920E-02 0. -1.
</event>
<event>
 5   0  0.6547153E-04  0.1780181E+04  0.7818609E-02  0.8716911E-01
       -2   -1    0    0    0  501  0.00000000000E+00  0.00000000000E+00  0.38562382700E+03  0.38562382701E+03  0.25500000920E-02 0.  1.
        2   -1    0    0  501    0  0.00000000000E+00  0.00000000000E+00 -0.20544917463E+04  0.20544917463E+04  0.25500000920E-02 0. -1.
    10030    2    1    2    0    0  0.00000000000E+00  0.00000000000E+00 -0.16688679193E+04  0.24401155733E+04  0.17801808557E+04 0.  0.
        5    1    3    3  502    0  0.37163382554E+03  0.82440099162E+02  0.26839816744E+03  0.46579795675E+03  0.46999998093E+01 0.  1.
       -5    1    3    3    0  502 -0.37163382554E+03 -0.82440099162E+02 -0.19372660867E+04  0.19743176166E+04  0.46999998093E+01 0. -1.
</event>
<event>
 5   0  0.6547153E-04  0.1839193E+04  0.7818609E-02  0.8685730E-01
       -2   -1    0    0    0  501  0.00000000000E+00  0.00000000000E+00  0.53880989201E+03  0.53880989202E+03  0.25500000920E-02 0.  1.
        2   -1    0    0  501    0  0.00000000000E+00  0.00000000000E+00 -0.15694917511E+04  0.15694917511E+04  0.25500000920E-02 0. -1.
    10030    2    1    2    0    0  0.00000000000E+00  0.00000000000E+00 -0.10306818590E+04  0.21083016431E+04  0.18391929544E+04 0.  0.
        5    1    3    3  502    0 -0.71249957430E+02  0.12142383164E+03 -0.15570511180E+04  0.15634099198E+04  0.46999998093E+01 0. -1.
       -5    1    3    3    0  502  0.71249957430E+02 -0.12142383164E+03  0.52636925895E+03  0.54489172327E+03  0.46999998093E+01 0.  1.
</event>
<event>
 5   0  0.3413839E-04  0.1814166E+04  0.7818609E-02  0.8698802E-01
        1   -1    0    0  501    0  0.00000000000E+00  0.00000000000E+00  0.23545917086E+04  0.23545917086E+04  0.50400001928E-02 0.  1.
       -1   -1    0    0    0  501  0.00000000000E+00  0.00000000000E+00 -0.34944450095E+03  0.34944450099E+03  0.50400001928E-02 0. -1.
    10030    2    1    2    0    0  0.00000000000E+00  0.00000000000E+00  0.20051472077E+04  0.27040362096E+04  0.18141655102E+04 0.  0.
        5    1    3    3  502    0 -0.80201361380E+02  0.74990656995E+03  0.17537458894E+04  0.19090413449E+04  0.46999998093E+01 0.  1.
       -5    1    3    3    0  502  0.80201361380E+02 -0.74990656995E+03  0.25140131824E+03  0.79499486466E+03  0.46999998093E+01 0. -1.
</event>
<event>
 5   0  0.6853162E-04  0.1796780E+04  0.7818609E-02  0.8708014E-01
        2   -1    0    0  501    0  0.00000000000E+00  0.00000000000E+00  0.17129180805E+04  0.17129180805E+04  0.25500000920E-02 0. -1.
       -2   -1    0    0    0  501  0.00000000000E+00  0.00000000000E+00 -0.47118687440E+03  0.47118687440E+03  0.25500000920E-02 0.  1.
    10030    2    1    2    0    0  0.00000000000E+00  0.00000000000E+00  0.12417312061E+04  0.21841049549E+04  0.17967799158E+04 0.  0.
        2    1    3    3  502    0  0.87212152297E+02 -0.92923025489E+02  0.17018750443E+04  0.17066397729E+04  0.25500000920E-02 0. -1.
       -2    1    3    3    0  502 -0.87212152297E+02  0.92923025489E+02 -0.46014383818E+03  0.47746518197E+03  0.25500000920E-02 0.  1.
</event>
<event>
 5   0  0.3470962E-04  0.1763169E+04  0.7818609E-02  0.8726135E-01
        1   -1    0    0  501    0  0.00000000000E+00  0.00000000000E+00  0.67415732289E+03  0.67415732291E+03  0.50400001928E-02 0.  1.
       -1   -1    0    0    0  501  0.00000000000E+00  0.00000000000E+00 -0.11528333133E+04  0.11528333133E+04  0.50400001928E-02 0. -1.
    10030    2    1    2    0    0  0.00000000000E+00  0.00000000000E+00 -0.47867599040E+03  0.18269906362E+04  0.17631687614E+04 0.  0.
        4    1    3    3  502    0 -0.40497432566E+03  0.58006742385E+03  0.30573228298E+03  0.77068557947E+03  0.12699999809E+01 0.  1.
       -4    1    3    3    0  502  0.40497432566E+03 -0.58006742385E+03 -0.78440827337E+03  0.10563050567E+04  0.12699999809E+01 0. -1.
</event>
<event>
 5   0  0.6929121E-04  0.1810517E+04  0.7818609E-02  0.8700726E-01
       -2   -1    0    0    0  501  0.00000000000E+00  0.00000000000E+00  0.10908602514E+04  0.10908602514E+04  0.25500000920E-02 0.  1.
        2   -1    0    0  501    0  0.00000000000E+00  0.00000000000E+00 -0.75123590213E+03  0.75123590213E+03  0.25500000920E-02 0. -1.
    10030    2    1    2    0    0  0.00000000000E+00  0.00000000000E+00  0.33962434930E+03  0.18420961536E+04  0.18105174786E+04 0.  0.
        3    1    3    3  502    0  0.74136331625E+03  0.49953072749E+03  0.24696079301E+02  0.89429325220E+03  0.10100000352E+00 0. -1.
       -3    1    3    3    0  502 -0.74136331625E+03 -0.49953072749E+03  0.31492827000E+03  0.94780290137E+03  0.10100000352E+00 0.  1.
</event>
<event>
 5   0  0.2467375E-04  0.1793808E+04  0.7818609E-02  0.8709599E-01
        4   -1    0    0  501    0  0.00000000000E+00  0.00000000000E+00  0.68747333405E+03  0.68747450711E+03  0.12699999809E+01 0.  1.
       -4   -1    0    0    0  501  0.00000000000E+00  0.00000000000E+00 -0.11701331013E+04  0.11701337905E+04  0.12699999809E+01 0. -1.
    10030    2    1    2    0    0  0.00000000000E+00  0.00000000000E+00 -0.48265976726E+03  0.18576082976E+04  0.17938082775E+04 0.  0.
        4    1    3    3  502    0 -0.43537497717E+03 -0.61748322267E+03  0.25918058113E+03  0.79875721440E+03  0.12699999809E+01 0.  1.
       -4    1    3    3    0  502  0.43537497717E+03  0.61748322267E+03 -0.74184034840E+03  0.10588510832E+04  0.12699999809E+01 0. -1.
</event>
<event>
 5   0  0.6853162E-04  0.1902207E+04  0.7818609E-02  0.8653759E-01
       -2   -1    0    0    0  501  0.00000000000E+00  0.00000000000E+00  0.41208482322E+03  0.41208482322E+03  0.25500000920E-02 0.  1.
        2   -1    0    0  501    0  0.00000000000E+00  0.00000000000E+00 -0.21951743708E+04  0.21951743708E+04  0.25500000920E-02 0. -1.
    10030    2    1    2    0    0  0.00000000000E+00  0.00000000000E+00 -0.17830895476E+04  0.26072591940E+04  0.19022071838E+04 0.  0.
        2    1    3    3  502    0  0.11483082845E+03 -0.77257540669E+03 -0.14767328168E+03  0.79490016751E+03  0.25500000920E-02 0.  1.
       -2    1    3    3    0  502 -0.11483082845E+03  0.77257540669E+03 -0.16354162659E+04  0.18123590265E+04  0.25500000920E-02 0. -1.
</event>
<event>
 5   0  0.3308275E-04  0.1931546E+04  0.7818609E-02  0.8639311E-01
        1   -1    0    0  501    0  0.00000000000E+00  0.00000000000E+00  0.90156432429E+03  0.90156432431E+03  0.50400001928E-02 0. -1.
       -1   -1    0    0    0  501  0.00000000000E+00  0.00000000000E+00 -0.10345548149E+04  0.10345548149E+04  0.50400001928E-02 0.  1.
    10030    2    1    2    0    0  0.00000000000E+00  0.00000000000E+00 -0.13299049058E+03  0.19361191392E+04  0.19315462331E+04 0.  0.
        3    1    3    3  502    0  0.78414552521E+03 -0.25020273859E+03 -0.57289630573E+03  0.10028438575E+04  0.10100000352E+00 0.  1.
       -3    1    3    3    0  502 -0.78414552521E+03  0.25020273859E+03  0.43990581516E+03  0.93327528174E+03  0.10100000352E+00 0. -1.
</event>
<event>
 5   0  0.6853162E-04  0.1816429E+04  0.7818609E-02  0.8697611E-01
        2   -1    0    0  501    0  0.00000000000E+00  0.00000000000E+00  0.20422486705E+04  0.20422486705E+04  0.25500000920E-02 0.  1.
       -2   -1    0    0    0  501  0.00000000000E+00  0.00000000000E+00 -0.40389474087E+03  0.40389474088E+03  0.25500000920E-02 0. -1.
    10030    2    1    2    0    0  0.00000000000E+00  0.00000000000E+00  0.16383539296E+04  0.24461434113E+04  0.18164289114E+04 0.  0.
        2    1    3    3  502    0  0.31308977015E+03  0.82235381925E+03  0.51636172163E+03  0.10202550837E+04  0.25500000920E-02 0. -1.
       -2    1    3    3    0  502 -0.31308977015E+03 -0.82235381925E+03  0.11219922080E+04  0.14258883277E+04  0.25500000920E-02 0.  1.
</event>
<event>
 5   0  0.3413839E-04  0.1760274E+04  0.7818609E-02  0.8727715E-01
        1   -1    0    0  501    0  0.00000000000E+00  0.00000000000E+00  0.18253337388E+04  0.18253337388E+04  0.50400001928E-02 0. -1.
       -1   -1    0    0    0  501  0.00000000000E+00  0.00000000000E+00 -0.42438349496E+03  0.42438349499E+03  0.50400001928E-02 0.  1.
    10030    2    1    2    0    0  0.00000000000E+00  0.00000000000E+00  0.14009502438E+04  0.22497172338E+04  0.17602744236E+04 0.  0.
        5    1    3    3  502    0  0.20662238139E+03 -0.73735577098E+03  0.14598280776E+03  0.77956360334E+03  0.46999998093E+01 0.  1.
       -5    1    3    3    0  502 -0.20662238139E+03  0.73735577098E+03  0.12549674360E+04  0.14701536304E+04  0.46999998093E+01 0. -1.
</event>
<event>
 5   0  0.3470962E-04  0.1923249E+04  0.7818609E-02  0.8643369E-01
       -1   -1    0    0    0  501  0.00000000000E+00  0.00000000000E+00  0.81825336827E+03  0.81825336828E+03  0.50400001928E-02 0.  1.
        1   -1    0    0  501    0  0.00000000000E+00  0.00000000000E+00 -0.11301171106E+04  0.11301171107E+04  0.50400001928E-02 0. -1.
    10030    2    1    2    0    0  0.00000000000E+00  0.00000000000E+00 -0.31186374237E+03  0.19483704789E+04  0.19232494714E+04 0.  0.
        4    1    3    3  502    0 -0.63884528895E+03  0.14610352269E+03 -0.86886466055E+03  0.10883000293E+04  0.12699999809E+01 0. -1.
       -4    1    3    3    0  502  0.63884528895E+03 -0.14610352269E+03  0.55700091818E+03  0.86007044962E+03  0.12699999809E+01 0.  1.
</event>
<event>
 5   0  0.6929121E-04  0.1743136E+04  0.7818609E-02  0.8737137E-01
       -2   -1    0    0    0  501  0.00000000000E+00  0.00000000000E+00  0.12733281898E+04  0.12733281898E+04  0.25500000920E-02 0.  1.
        2   -1    0    0  501    0  0.00000000000E+00  0.00000000000E+00 -0.59657128065E+03  0.59657128065E+03  0.25500000920E-02 0. -1.
    10030    2    1    2    0    0  0.00000000000E+00  0.00000000000E+00  0.67675690917E+03  0.18698994705E+04  0.17431362871E+04 0.  0.
        3    1    3    3  502    0 -0.83809606832E+03  0.22280702188E+03  0.24496524366E+03  0.90114148142E+03  0.10100000352E+00 0.  1.
       -3    1    3    3    0  502  0.83809606832E+03 -0.22280702188E+03  0.43179166551E+03  0.96875798904E+03  0.10100000352E+00 0. -1.
</event>
<event>
 5   0  0.3308275E-04  0.1732436E+04  0.7818609E-02  0.8743078E-01
       -1   -1    0    0    0  501  0.00000000000E+00  0.00000000000E+00  0.63149605692E+03  0.63149605694E+03  0.50400001928E-02 0.  1.
        1   -1    0    0  501    0  0.00000000000E+00  0.00000000000E+00 -0.11881847250E+04  0.11881847250E+04  0.50400001928E-02 0. -1.
    10030    2    1    2    0    0  0.00000000000E+00  0.00000000000E+00 -0.55668866805E+03  0.18196807819E+04  0.17324363985E+04 0.  0.
        3    1    3    3  502    0 -0.27166016345E+03 -0.41349040622E+03  0.46849026975E+03  0.68136385543E+03  0.10100000352E+00 0.  1.
       -3    1    3    3    0  502  0.27166016345E+03  0.41349040622E+03 -0.10251789378E+04  0.11383169265E+04  0.10100000352E+00 0. -1.
</event>
<event>
 5   0  0.3377273E-04  0.1788672E+04  0.7818609E-02  0.8712347E-01
       -1   -1    0    0    0  501  0.00000000000E+00  0.00000000000E+00  0.58201017068E+03  0.58201017071E+03  0.50400001928E-02 0.  1.
        1   -1    0    0  501    0  0.00000000000E+00  0.00000000000E+00 -0.13742655555E+04  0.13742655555E+04  0.50400001928E-02 0. -1.
    10030    2    1    2    0    0  0.00000000000E+00  0.00000000000E+00 -0.79225538484E+03  0.19562757262E+04  0.17886716083E+04 0.  0.
        2    1    3    3  502    0  0.24171222262E+03 -0.20931376808E+03  0.51735963388E+03  0.60819243900E+03  0.25500000920E-02 0.  1.
       -2    1    3    3    0  502 -0.24171222262E+03  0.20931376808E+03 -0.13096150187E+04  0.13480832872E+04  0.25500000920E-02 0. -1.
</event>
<event>
 5   0  0.3377273E-04  0.1653019E+04  0.7818609E-02  0.8788622E-01
       -1   -1    0    0    0  501  0.00000000000E+00  0.00000000000E+00  0.72115264600E+03  0.72115264602E+03  0.50400001928E-02 0.  1.
        1   -1    0    0  501    0  0.00000000000E+00  0.00000000000E+00 -0.94725851974E+03  0.94725851976E+03  0.50400001928E-02 0. -1.
    10030    2    1    2    0    0  0.00000000000E+00  0.00000000000E+00 -0.22610587374E+03  0.16684111658E+04  0.16530190416E+04 0.  0.
        2    1    3    3  502    0 -0.39503252422E+03 -0.66358252920E+03  0.18418120063E+03  0.79392391507E+03  0.25500000920E-02 0.  1.
       -2    1    3    3    0  502  0.39503252422E+03  0.66358252920E+03 -0.41028707437E+03  0.87448725071E+03  0.25500000920E-02 0. -1.
</event>
<event>
 5   0  0.6774451E-04  0.1790812E+04  0.7818609E-02  0.8711201E-01
       -2   -1    0    0    0  501  0.00000000000E+00  0.00000000000E+00  0.48135350038E+03  0.48135350039E+03  0.25500000920E-02 0. -1.
        2   -1    0    0  501    0  0.00000000000E+00  0.00000000000E+00 -0.16656203877E+04  0.16656203877E+04  0.25500000920E-02 0.  1.
    10030    2    1    2    0    0  0.00000000000E+00  0.00000000000E+00 -0.11842668873E+04  0.21469738881E+04  0.17908123340E+04 0.  0.
        4    1    3    3  502    0 -0.34406252920E+03 -0.18667218464E+03  0.37333941126E+03  0.54093387527E+03  0.12699999809E+01 0. -1.
       -4    1    3    3    0  502  0.34406252920E+03  0.18667218464E+03 -0.15576062986E+04  0.16060400128E+04  0.12699999809E+01 0.  1.
</event>
<event>
 5   0  0.3404261E-04  0.1817122E+04  0.7818609E-02  0.8697247E-01
       -1   -1    0    0    0  501  0.00000000000E+00  0.00000000000E+00  0.96721140460E+03  0.96721140461E+03  0.50400001928E-02 0. -1.
        1   -1    0    0  501    0  0.00000000000E+00  0.00000000000E+00 -0.85346683182E+03  0.85346683184E+03  0.50400001928E-02 0.  1.
    10030    2    1    2    0    0  0.00000000000E+00  0.00000000000E+00  0.11374457278E+03  0.18206782364E+04  0.18171217386E+04 0.  0.
        1    1    3    3  502    0  0.47909845440E+03  0.13061010911E+03 -0.70546409585E+03  0.86271311580E+03  0.50400001928E-02 0.  1.
       -1    1    3    3    0  502 -0.47909845440E+03 -0.13061010911E+03  0.81920866862E+03  0.95796512065E+03  0.50400001928E-02 0. -1.
</event>
<event>
 5   0  0.3404261E-04  0.1799354E+04  0.7818609E-02  0.8706643E-01
       -1   -1    0    0    0  501  0.00000000000E+00  0.00000000000E+00  0.46730224406E+03  0.46730224409E+03  0.50400001928E-02 0. -1.
        1   -1    0    0  501    0  0.00000000000E+00  0.00000000000E+00 -0.17321104663E+04  0.17321104663E+04  0.50400001928E-02 0.  1.
    10030    2    1    2    0    0  0.00000000000E+00  0.00000000000E+00 -0.12648082223E+04  0.21994127104E+04  0.17993544486E+04 0.  0.
        1    1    3    3  502    0 -0.70265356912E+03 -0.54713173051E+03 -0.47613671440E+03  0.10098422350E+04  0.50400001928E-02 0.  1.
       -1    1    3    3    0  502  0.70265356912E+03  0.54713173051E+03 -0.78867150786E+03  0.11895704754E+04  0.50400001928E-02 0. -1.
</event>
<event>
 5   0  0.6547153E-04  0.1505192E+04  0.7818609E-02  0.8881007E-01
       -2   -1    0    0    0  501  0.00000000000E+00  0.00000000000E+00  0.58214495747E+03  0.58214495748E+03  0.25500000920E-02 0.  1.
        2   -1    0    0  501    0  0.00000000000E+00  0.00000000000E+00 -0.97295520739E+03  0.97295520740E+03  0.25500000920E-02 0. -1.
    10030    2    1    2    0    0  0.00000000000E+00  0.00000000000E+00 -0.39081024992E+03  0.15551001649E+04  0.15051923038E+04 0.  0.
        5    1    3    3  502    0  0.33314816246E+03 -0.16226289241E+03  0.48134192467E+03  0.60747763979E+03  0.46999998093E+01 0.  1.
       -5    1    3    3    0  502 -0.33314816246E+03  0.16226289241E+03 -0.87215217459E+03  0.94762252508E+03  0.46999998093E+01 0. -1.
</event>
<event>
 5   0  0.6771967E-04  0.1789619E+04  0.7818609E-02  0.8711840E-01
        2   -1    0    0  501    0  0.00000000000E+00  0.00000000000E+00  0.37858835562E+03  0.37858835562E+03  0.25500000920E-02 0. -1.
       -2   -1    0    0    0  501  0.00000000000E+00  0.00000000000E+00 -0.21149191070E+04  0.21149191070E+04  0.25500000920E-02 0.  1.
    10030    2    1    2    0    0  0.00000000000E+00  0.00000000000E+00 -0.17363307514E+04  0.24935074626E+04  0.17896186711E+04 0.  0.
        1    1    3    3  502    0 -0.53298865253E+03 -0.24951978422E+03 -0.18073346353E+04  0.19007355183E+04  0.50400001928E-02 0.  1.
       -1    1    3    3    0  502  0.53298865253E+03  0.24951978422E+03  0.71003883929E+02  0.59277194434E+03  0.50400001928E-02 0. -1.
</event>
<event>
 5   0  0.6771967E-04  0.1820229E+04  0.7818609E-02  0.8695615E-01
       -2   -1    0    0    0  501  0.00000000000E+00  0.00000000000E+00  0.62861660099E+03  0.62861660100E+03  0.25500000920E-02 0. -1.
        2   -1    0    0  501    0  0.00000000000E+00  0.00000000000E+00 -0.13176682005E+04  0.13176682005E+04  0.25500000920E-02 0.  1.
    10030    2    1    2    0    0  0.00000000000E+00  0.00000000000E+00 -0.68905159955E+03  0.19462848015E+04  0.18202286730E+04 0.  0.
        1    1    3    3  502    0 -0.22731623051E+03  0.30067369856E+03 -0.12302847142E+04  0.12867314481E+04  0.50400001928E-02 0.  1.
       -1    1    3    3    0  502  0.22731623051E+03 -0.30067369856E+03  0.54123311460E+03  0.65955335343E+03  0.50400001928E-02 0. -1.
</event>
<event>
 5   0  0.3308275E-04  0.1842185E+04  0.7818609E-02  0.8684182E-01
        1   -1    0    0  501    0  0.00000000000E+00  0.00000000000E+00  0.96737448075E+03  0.96737448076E+03  0.50400001928E-02 0. -1.
       -1   -1    0    0    0  501  0.00000000000E+00  0.00000000000E+00 -0.87702433678E+03  0.87702433680E+03  0.50400001928E-02 0.  1.
    10030    2    1    2    0    0  0.00000000000E+00  0.00000000000E+00  0.90350143969E+02  0.18443988176E+04  0.18421845319E+04 0.  0.
        3    1    3    3  502    0  0.42331325654E+03 -0.13882810523E+03 -0.76198475448E+03  0.88265969219E+03  0.10100000352E+00 0.  1.
       -3    1    3    3    0  502 -0.42331325654E+03  0.13882810523E+03  0.85233489844E+03  0.96173912537E+03  0.10100000352E+00 0. -1.
</event>
<event>
 5   0  0.6547153E-04  0.1840396E+04  0.7818609E-02  0.8685108E-01
        2   -1    0    0  501    0  0.00000000000E+00  0.00000000000E+00  0.11223887518E+04  0.11223887518E+04  0.25500000920E-02 0.  1.
       -2   -1    0    0    0  501  0.00000000000E+00  0.00000000000E+00 -0.75443022442E+03  0.75443022443E+03  0.25500000920E-02 0. -1.
    10030    2    1    2    0    0  0.00000000000E+00  0.00000000000E+00  0.36795852737E+03  0.18768189762E+04  0.18403956074E+04 0.  0.
        5    1    3    3  502    0  0.32729093917E+03 -0.12035688996E+03  0.10523819558E+04  0.11086636148E+04  0.46999998093E+01 0.  1.
       -5    1    3    3    0  502 -0.32729093917E+03  0.12035688996E+03 -0.68442342847E+03  0.76815536141E+03  0.46999998093E+01 0. -1.
</event>
<event>
 5   0  0.6853162E-04  0.1824505E+04  0.7818609E-02  0.8693376E-01
       -2   -1    0    0    0  501  0.00000000000E+00  0.00000000000E+00  0.40656268253E+03  0.40656268253E+03  0.25500000920E-02 0. -1.
        2   -1    0    0  501    0  0.00000000000E+00  0.00000000000E+00 -0.20469277865E+04  0.20469277865E+04  0.25500000920E-02 0.  1.
    10030    2    1    2    0    0  0.00000000000E+00  0.00000000000E+00 -0.16403651040E+04  0.24534904691E+04  0.18245048116E+04 0.  0.
        2    1    3    3  502    0 -0.80945060165E+03 -0.25213088432E+03 -0.12730720086E+04  0.15295399957E+04  0.25500000920E-02 0. -1.
       -2    1    3    3    0  502  0.80945060165E+03  0.25213088432E+03 -0.36729309544E+03  0.92395047340E+03  0.25500000920E-02 0.  1.
</event>
<event>
 5   0  0.3413839E-04  0.1785775E+04  0.7818609E-02  0.8713901E-01
       -1   -1    0    0    0  501  0.00000000000E+00  0.00000000000E+00  0.12770521410E+04  0.12770521410E+04  0.50400001928E-02 0.  1.
        1   -1    0    0  501    0  0.00000000000E+00  0.00000000000E+00 -0.62428804373E+03  0.62428804375E+03  0.50400001928E-02 0. -1.
    10030    2    1    2    0    0  0.00000000000E+00  0.00000000000E+00  0.65276409726E+03  0.19013401847E+04  0.17857753306E+04 0.  0.
        5    1    3    3  502    0 -0.58932941854E+02  0.26224316475E+03 -0.58017791866E+03  0.63943183874E+03  0.46999998093E+01 0. -1.
       -5    1    3    3    0  502  0.58932941854E+02 -0.26224316475E+03  0.12329420159E+04  0.12619083460E+04  0.46999998093E+01 0.  1.
</event>
<event>
 5   0  0.6771967E-04  0.1794383E+04  0.7818609E-02  0.8709292E-01
        2   -1    0    0  501    0  0.00000000000E+00  0.00000000000E+00  0.19549751586E+04  0.19549751586E+04  0.25500000920E-02 0.  1.
       -2   -1    0    0    0  501  0.00000000000E+00  0.00000000000E+00 -0.41174554044E+03  0.41174554045E+03  0.25500000920E-02 0. -1.
    10030    2    1    2    0    0  0.00000000000E+00  0.00000000000E+00  0.15432296181E+04  0.23667206990E+04  0.17943826829E+04 0.  0.
        1    1    3    3  502    0  0.45364474291E+03 -0.95289284249E+01  0.17924837300E+04  0.18490219782E+04  0.50400001928E-02 0.  1.
       -1    1    3    3    0  502 -0.45364474291E+03  0.95289284249E+01 -0.24925411191E+03  0.51769872085E+03  0.50400001928E-02 0. -1.
</event>
<event>
 5   0  0.6774451E-04  0.1746722E+04  0.7818609E-02  0.8735157E-01
        2   -1    0    0  501    0  0.00000000000E+00  0.00000000000E+00  0.10311317270E+04  0.10311317270E+04  0.25500000920E-02 0. -1.
       -2   -1    0    0    0  501  0.00000000000E+00  0.00000000000E+00 -0.73973029460E+03  0.73973029460E+03  0.25500000920E-02 0.  1.
    10030    2    1    2    0    0  0.00000000000E+00  0.00000000000E+00  0.29140143237E+03  0.17708620216E+04  0.17467219311E+04 0.  0.
        4    1    3    3  502    0  0.27695700286E+03  0.37538707726E+03  0.89423867790E+03  0.10086055052E+04  0.12699999809E+01 0. -1.
       -4    1    3    3    0  502 -0.27695700286E+03 -0.37538707726E+03 -0.60283724554E+03  0.76225651634E+03  0.12699999809E+01 0.  1.
</event>
<event>
 5   0  0.6771967E-04  0.1820417E+04  0.7818609E-02  0.8695517E-01
       -2   -1    0    0    0  501  0.00000000000E+00  0.00000000000E+00  0.73398715881E+03  0.73398715882E+03  0.25500000920E-02 0. -1.
        2   -1    0    0  501    0  0.00000000000E+00  0.00000000000E+00 -0.11287379551E+04  0.11287379551E+04  0.25500000920E-02 0.  1.
    10030    2    1    2    0    0  0.00000000000E+00  0.00000000000E+00 -0.39475079630E+03  0.18627251139E+04  0.18204166168E+04 0.  0.
        1    1    3    3  502    0 -0.52766016937E+03 -0.27376203481E+03 -0.90267602308E+03  0.10808306568E+04  0.50400001928E-02 0.  1.
       -1    1    3    3    0  502  0.52766016937E+03  0.27376203481E+03  0.50792522678E+03  0.78189445712E+03  0.50400001928E-02 0. -1.
</event>
<event>
 5   0  0.6853162E-04  0.9951324E+03  0.7818609E-02  0.9313900E-01
       -2   -1    0    0    0  501  0.00000000000E+00  0.00000000000E+00  0.17637443222E+03  0.17637443224E+03  0.25500000920E-02 0. -1.
        2   -1    0    0  501    0  0.00000000000E+00  0.00000000000E+00 -0.14036734462E+04  0.14036734462E+04  0.25500000920E-02 0.  1.
    10030    2    1    2    0    0  0.00000000000E+00  0.00000000000E+00 -0.12272990139E+04  0.15800478784E+04  0.99513236729E+03 0.  0.
        2    1    3    3  502    0  0.30512464756E+03  0.38333750755E+03 -0.75136944339E+03  0.89699762302E+03  0.25500000920E-02 0.  1.
       -2    1    3    3    0  502 -0.30512464756E+03 -0.38333750755E+03 -0.47592957055E+03  0.68305025538E+03  0.25500000920E-02 0. -1.
</event>
<event>
 5   0  0.3377273E-04  0.1846900E+04  0.7818609E-02  0.8681749E-01
       -1   -1    0    0    0  501  0.00000000000E+00  0.00000000000E+00  0.10921900151E+04  0.10921900151E+04  0.50400001928E-02 0. -1.
        1   -1    0    0  501    0  0.00000000000E+00  0.00000000000E+00 -0.78077938532E+03  0.78077938534E+03  0.50400001928E-02 0.  1.
    10030    2    1    2    0    0  0.00000000000E+00  0.00000000000E+00  0.31141062979E+03  0.18729694005E+04  0.18468995086E+04 0.  0.
        2    1    3    3  502    0  0.66168047121E+03 -0.57823703489E+03 -0.13216835774E+03  0.88862117311E+03  0.25500000920E-02 0.  1.
       -2    1    3    3    0  502 -0.66168047121E+03  0.57823703489E+03  0.44357898753E+03  0.98434822735E+03  0.25500000920E-02 0. -1.
</event>
<event>
 5   0  0.3377273E-04  0.1770647E+04  0.7818609E-02  0.8722067E-01
       -1   -1    0    0    0  501  0.00000000000E+00  0.00000000000E+00  0.17191938102E+04  0.17191938102E+04  0.50400001928E-02 0. -1.
        1   -1    0    0  501    0  0.00000000000E+00  0.00000000000E+00 -0.45590999172E+03  0.45590999175E+03  0.50400001928E-02 0.  1.
    10030    2    1    2    0    0  0.00000000000E+00  0.00000000000E+00  0.12632838185E+04  0.21751038019E+04  0.17706469279E+04 0.  0.
        2    1    3    3  502    0  0.12271601529E+03 -0.49832288241E+03  0.15178219595E+04  0.16022385641E+04  0.25500000920E-02 0. -1.
       -2    1    3    3    0  502 -0.12271601529E+03  0.49832288241E+03 -0.25453814100E+03  0.57286523788E+03  0.25500000920E-02 0.  1.
</event>
<event>
 5   0  0.6771967E-04  0.1855034E+04  0.7818609E-02  0.8677568E-01
        2   -1    0    0  501    0  0.00000000000E+00  0.00000000000E+00  0.54069854216E+03  0.54069854217E+03  0.25500000920E-02 0. -1.
       -2   -1    0    0    0  501  0.00000000000E+00  0.00000000000E+00 -0.15910677958E+04  0.15910677958E+04  0.25500000920E-02 0.  1.
    10030    2    1    2    0    0  0.00000000000E+00  0.00000000000E+00 -0.10503692537E+04  0.21317663380E+04  0.18550342721E+04 0.  0.
        1    1    3    3  502    0 -0.29657504513E+03 -0.87759882296E+03 -0.47187973842E+03  0.10396186508E+04  0.50400001928E-02 0.  1.
       -1    1    3    3    0  502  0.29657504513E+03  0.87759882296E+03 -0.57848951523E+03  0.10921476872E+04  0.50400001928E-02 0. -1.
</event>
<event>
 5   0  0.3404261E-04  0.1766466E+04  0.7818609E-02  0.8724338E-01
       -1   -1    0    0    0  501  0.00000000000E+00  0.00000000000E+00  0.47003867515E+03  0.47003867518E+03  0.50400001928E-02 0. -1.
        1   -1    0    0  501    0  0.00000000000E+00  0.00000000000E+00 -0.16596523882E+04  0.16596523883E+04  0.50400001928E-02 0.  1.
    10030    2    1    2    0    0  0.00000000000E+00  0.00000000000E+00 -0.11896137131E+04  0.21296910634E+04  0.17664663142E+04 0.  0.
        1    1    3    3  502    0  0.79291049055E+03 -0.29595802197E+03 -0.89933713612E+03  0.12349516109E+04  0.50400001928E-02 0.  1.
       -1    1    3    3    0  502 -0.79291049055E+03  0.29595802197E+03 -0.29027657698E+03  0.89473945255E+03  0.50400001928E-02 0. -1.
</event>
<event>
 5   0  0.3413839E-04  0.1717150E+04  0.7818609E-02  0.8751643E-01
       -1   -1    0    0    0  501  0.00000000000E+00  0.00000000000E+00  0.31014662564E+03  0.31014662568E+03  0.50400001928E-02 0. -1.
        1   -1    0    0  501    0  0.00000000000E+00  0.00000000000E+00 -0.23767812185E+04  0.23767812185E+04  0.50400001928E-02 0.  1.
    10030    2    1    2    0    0  0.00000000000E+00  0.00000000000E+00 -0.20666345928E+04  0.26869278441E+04  0.17171495856E+04 0.  0.
        5    1    3    3  502    0 -0.14143716383E+03  0.79737780319E+03 -0.58711972128E+03  0.10002737073E+04  0.46999998093E+01 0. -1.
       -5    1    3    3    0  502  0.14143716383E+03 -0.79737780319E+03 -0.14795148715E+04  0.16866541369E+04  0.46999998093E+01 0.  1.
</event>
<event>
 5   0  0.6771967E-04  0.1744264E+04  0.7818609E-02  0.8736514E-01
       -2   -1    0    0    0  501  0.00000000000E+00  0.00000000000E+00  0.38511896796E+03  0.38511896797E+03  0.25500000920E-02 0. -1.
        2   -1    0    0  501    0  0.00000000000E+00  0.00000000000E+00 -0.19750120154E+04  0.19750120154E+04  0.25500000920E-02 0.  1.
    10030    2    1    2    0    0  0.00000000000E+00  0.00000000000E+00 -0.15898930475E+04  0.23601309834E+04  0.17442644170E+04 0.  0.
        1    1    3    3  502    0  0.27304233916E+03 -0.55990707027E+03  0.30950138350E+02  0.62370342103E+03  0.50400001928E-02 0. -1.
       -1    1    3    3    0  502 -0.27304233916E+03  0.55990707027E+03 -0.16208431858E+04  0.17364275624E+04  0.50400001928E-02 0.  1.
</event>
<event>
 5   0  0.3470962E-04  0.1828229E+04  0.7818609E-02  0.8691430E-01
        1   -1    0    0  501    0  0.00000000000E+00  0.00000000000E+00  0.64649751972E+03  0.64649751974E+03  0.50400001928E-02 0. -1.
       -1   -1    0    0    0  501  0.00000000000E+00  0.00000000000E+00 -0.12925113997E+04  0.12925113997E+04  0.50400001928E-02 0.  1.
    10030    2    1    2    0    0  0.00000000000E+00  0.00000000000E+00 -0.64601387999E+03  0.19390089195E+04  0.18282291040E+04 0.  0.
        4    1    3    3  502    0  0.80734687196E+03  0.40261296384E+03 -0.47923367174E+03  0.10215540589E+04  0.12699999809E+01 0.  1.
       -4    1    3    3    0  502 -0.80734687196E+03 -0.40261296384E+03 -0.16678020825E+03  0.91745486051E+03  0.12699999809E+01 0. -1.
</event>
<event>
 5   0  0.6853162E-04  0.1804541E+04  0.7818609E-02  0.8703888E-01
        2   -1    0    0  501    0  0.00000000000E+00  0.00000000000E+00  0.25171592821E+04  0.25171592821E+04  0.25500000920E-02 0. -1.
       -2   -1    0    0    0  501  0.00000000000E+00  0.00000000000E+00 -0.32341710287E+03  0.32341710288E+03  0.25500000920E-02 0.  1.
    10030    2    1    2    0    0  0.00000000000E+00  0.00000000000E+00  0.21937421793E+04  0.28405763850E+04  0.18045413406E+04 0.  0.
        2    1    3    3  502    0  0.88002485020E+02  0.67993352008E+03  0.17357062528E+03  0.70723460822E+03  0.25500000920E-02 0. -1.
       -2    1    3    3    0  502 -0.88002485020E+02 -0.67993352008E+03  0.20201715540E+04  0.21333417768E+04  0.25500000920E-02 0.  1.
</event>
<event>
 5   0  0.3470962E-04  0.1765471E+04  0.7818609E-02  0.8724880E-01
       -1   -1    0    0    0  501  0.00000000000E+00  0.00000000000E+00  0.13673366340E+04  0.13673366340E+04  0.50400001928E-02 0.  1.
        1   -1    0    0  501    0  0.00000000000E+00  0.00000000000E+00 -0.56988304278E+03  0.56988304280E+03  0.50400001928E-02 0. -1.
    10030    2    1    2    0    0  0.00000000000E+00  0.00000000000E+00  0.79745359120E+03  0.19372196768E+04  0.17654709983E+04 0.  0.
        4    1    3    3  502    0 -0.85206855790E+03 -0.22952554779E+03  0.37376407085E+03  0.95833396997E+03  0.12699999809E+01 0. -1.
       -4    1    3    3    0  502  0.85206855790E+03  0.22952554779E+03  0.42368952035E+03  0.97888570681E+03  0.12699999809E+01 0.  1.
</event>
<event>
 5   0  0.3404261E-04  0.1808614E+04  0.7818609E-02  0.8701732E-01
       -1   -1    0    0    0  501  0.00000000000E+00  0.00000000000E+00  0.81271938058E+03  0.81271938060E+03  0.50400001928E-02 0. -1.
        1   -1    0    0  501    0  0.00000000000E+00  0.00000000000E+00 -0.10062163726E+04  0.10062163727E+04  0.50400001928E-02 0.  1.
    10030    2    1    2    0    0  0.00000000000E+00  0.00000000000E+00 -0.19349699206E+03  0.18189357532E+04  0.18086144389E+04 0.  0.
        1    1    3    3  502    0 -0.35653049579E+03  0.57091610512E+03  0.51061208651E+03  0.84485732311E+03  0.50400001928E-02 0. -1.
       -1    1    3    3    0  502  0.35653049579E+03 -0.57091610512E+03 -0.70410907856E+03  0.97407843013E+03  0.50400001928E-02 0.  1.
</event>
<event>
 5   0  0.6547153E-04  0.1775902E+04  0.7818609E-02  0.8719220E-01
        2   -1    0    0  501    0  0.00000000000E+00  0.00000000000E+00  0.19738223778E+04  0.19738223778E+04  0.25500000920E-02 0. -1.
       -2   -1    0    0    0  501  0.00000000000E+00  0.00000000000E+00 -0.39945706997E+03  0.39945706997E+03  0.25500000920E-02 0.  1.
    10030    2    1    2    0    0  0.00000000000E+00  0.00000000000E+00  0.15743653078E+04  0.23732794478E+04  0.17759023663E+04 0.  0.
        5    1    3    3  502    0  0.26551369055E+03  0.42226819482E+03  0.17688780062E+04  0.18378681778E+04  0.46999998093E+01 0. -1.
       -5    1    3    3    0  502 -0.26551369055E+03 -0.42226819482E+03 -0.19451269833E+03  0.53541126999E+03  0.46999998093E+01 0.  1.
</event>
<event>
 5   0  0.3308275E-04  0.1791767E+04  0.7818609E-02  0.8710690E-01
        1   -1    0    0  501    0  0.00000000000E+00  0.00000000000E+00  0.11704832861E+04  0.11704832861E+04  0.50400001928E-02 0.  1.
       -1   -1    0    0    0  501  0.00000000000E+00  0.00000000000E+00 -0.68570610442E+03  0.68570610444E+03  0.50400001928E-02 0. -1.
    10030    2    1    2    0    0  0.00000000000E+00  0.00000000000E+00  0.48477718171E+03  0.18561893906E+04  0.17917673225E+04 0.  0.
        3    1    3    3  502    0 -0.12204365461E+02 -0.39099052150E+03  0.10773351219E+04  0.11461559709E+04  0.10100000352E+00 0.  1.
       -3    1    3    3    0  502  0.12204365461E+02  0.39099052150E+03 -0.59255794020E+03  0.71003341973E+03  0.10100000352E+00 0. -1.
</event>
<event>
 5   0  0.3308275E-04  0.1922831E+04  0.7818609E-02  0.8643575E-01
       -1   -1    0    0    0  501  0.00000000000E+00  0.00000000000E+00  0.13676043295E+04  0.13676043295E+04  0.50400001928E-02 0. -1.
        1   -1    0    0  501    0  0.00000000000E+00  0.00000000000E+00 -0.67586785954E+03  0.67586785956E+03  0.50400001928E-02 0.  1.
    10030    2    1    2    0    0  0.00000000000E+00  0.00000000000E+00  0.69173646996E+03  0.20434721891E+04  0.19228310492E+04 0.  0.
        3    1    3    3  502    0 -0.27231487669E+03 -0.88142989803E+01  0.13257173849E+04  0.13534251656E+04  0.10100000352E+00 0. -1.
       -3    1    3    3    0  502  0.27231487669E+03  0.88142989803E+01 -0.63398091494E+03  0.69004702350E+03  0.10100000352E+00 0.  1.
</event>
<event>
 5   0  0.6853162E-04  0.1891235E+04  0.7818609E-02  0.8659231E-01
        2   -1    0    0  501    0  0.00000000000E+00  0.00000000000E+00  0.24770969042E+04  0.24770969042E+04  0.25500000920E-02 0.  1.
       -2   -1    0    0    0  501  0.00000000000E+00  0.00000000000E+00 -0.36098419485E+03  0.36098419486E+03  0.25500000920E-02 0. -1.
    10030    2    1    2    0    0  0.00000000000E+00  0.00000000000E+00  0.21161127093E+04  0.28380810990E+04  0.18912353968E+04 0.  0.
        2    1    3    3  502    0  0.66355351493E+03  0.12444134770E+03  0.20516674348E+04  0.21598907794E+04  0.25500000920E-02 0.  1.
       -2    1    3    3    0  502 -0.66355351493E+03 -0.12444134770E+03  0.64445274560E+02  0.67819031961E+03  0.25500000920E-02 0. -1.
</event>
<event>
 5   0  0.6774451E-04  0.1832392E+04  0.7818609E-02  0.8689261E-01
        2   -1    0    0  501    0  0.00000000000E+00  0.00000000000E+00  0.93147791451E+03  0.93147791452E+03  0.25500000920E-02 0. -1.
       -2   -1    0    0    0  501  0.00000000000E+00  0.00000000000E+00 -0.90116484428E+03  0.90116484428E+03  0.25500000920E-02 0.  1.
    10030    2    1    2    0    0  0.00000000000E+00  0.00000000000E+00  0.30313070235E+02  0.18326427588E+04  0.18323920430E+04 0.  0.
        4    1    3    3  502    0  0.54350212477E+03 -0.72673787324E+03  0.14115409165E+03  0.91840545867E+03  0.12699999809E+01 0. -1.
       -4    1    3    3    0  502 -0.54350212477E+03  0.72673787324E+03 -0.11084102141E+03  0.91423730013E+03  0.12699999809E+01 0.  1.
</event>
<event>
 5   0  0.3308275E-04  0.1374087E+04  0.7818609E-02  0.8972792E-01
       -1   -1    0    0    0  501  0.00000000000E+00  0.00000000000E+00  0.33197504505E+03  0.33197504509E+03  0.50400001928E-02 0.  1.
        1   -1    0    0  501    0  0.00000000000E+00  0.00000000000E+00 -0.14218800527E+04  0.14218800527E+04  0.50400001928E-02 0. -1.
    10030    2    1    2    0    0  0.00000000000E+00  0.00000000000E+00 -0.10899050077E+04  0.17538550978E+04  0.13740868890E+04 0.  0.
        3    1    3    3  502    0  0.16881859095E+03  0.44179687276E+03  0.91120229400E+02  0.48165039172E+03  0.10100000352E+00 0.  1.
       -3    1    3    3    0  502 -0.16881859095E+03 -0.44179687276E+03 -0.11810252371E+04  0.12722047061E+04  0.10100000352E+00 0. -1.
</event>
<event>
 5   0  0.6853162E-04  0.1783379E+04  0.7818609E-02  0.8715189E-01
       -2   -1    0    0    0  501  0.00000000000E+00  0.00000000000E+00  0.72425273342E+03  0.72425273343E+03  0.25500000920E-02 0.  1.
        2   -1    0    0  501    0  0.00000000000E+00  0.00000000000E+00 -0.10978347431E+04  0.10978347431E+04  0.25500000920E-02 0. -1.
    10030    2    1    2    0    0  0.00000000000E+00  0.00000000000E+00 -0.37358200965E+03  0.18220874765E+04  0.17833786065E+04 0.  0.
        2    1    3    3  502    0 -0.24467221185E+03  0.25131449462E+03 -0.10243939721E+04  0.10827772054E+04  0.25500000920E-02 0. -1.
       -2    1    3    3    0  502  0.24467221185E+03 -0.25131449462E+03  0.65081196246E+03  0.73931027109E+03  0.25500000920E-02 0.  1.
</event>
<event>
 5   0  0.6774451E-04  0.1925749E+04  0.7818609E-02  0.8642145E-01
       -2   -1    0    0    0  501  0.00000000000E+00  0.00000000000E+00  0.79775143100E+03  0.79775143101E+03  0.25500000920E-02 0. -1.
        2   -1    0    0  501    0  0.00000000000E+00  0.00000000000E+00 -0.11621757474E+04  0.11621757474E+04  0.25500000920E-02 0.  1.
    10030    2    1    2    0    0  0.00000000000E+00  0.00000000000E+00 -0.36442431639E+03  0.19599271784E+04  0.19257490652E+04 0.  0.
        4    1    3    3  502    0 -0.12569363196E+03  0.48566851061E+03 -0.10186579386E+04  0.11354903787E+04  0.12699999809E+01 0.  1.
       -4    1    3    3    0  502  0.12569363196E+03 -0.48566851061E+03  0.65423362224E+03  0.82443679969E+03  0.12699999809E+01 0. -1.
</event>
<event>
 5   0  0.6929121E-04  0.1614637E+04  0.7818609E-02  0.8811606E-01
        2   -1    0    0  501    0  0.00000000000E+00  0.00000000000E+00  0.16516145304E+04  0.16516145304E+04  0.25500000920E-02 0.  1.
       -2   -1    0    0    0  501  0.00000000000E+00  0.00000000000E+00 -0.39462164447E+03  0.39462164448E+03  0.25500000920E-02 0. -1.
    10030    2    1    2    0    0  0.00000000000E+00  0.00000000000E+00  0.12569928859E+04  0.20462361749E+04  0.16146366056E+04 0.  0.
        3    1    3    3  502    0  0.33822781622E+02  0.55554033851E+03 -0.11262617919E+03  0.56785008120E+03  0.10100000352E+00 0. -1.
       -3    1    3    3    0  502 -0.33822781622E+02 -0.55554033851E+03  0.13696190651E+04  0.14783860937E+04  0.10100000352E+00 0.  1.
</event>
<event>
 5   0  0.3308275E-04  0.1813199E+04  0.7818609E-02  0.8699312E-01
       -1   -1    0    0    0  501  0.00000000000E+00  0.00000000000E+00  0.10278830209E+04  0.10278830209E+04  0.50400001928E-02 0.  1.
        1   -1    0    0  501    0  0.00000000000E+00  0.00000000000E+00 -0.79962663108E+03  0.79962663109E+03  0.50400001928E-02 0. -1.
    10030    2    1    2    0    0  0.00000000000E+00  0.00000000000E+00  0.22825638981E+03  0.18275096520E+04  0.18131989821E+04 0.  0.
        3    1    3    3  502    0  0.19581549230E+03  0.81081237106E+03 -0.24386838037E+03  0.86904096867E+03  0.10100000352E+00 0. -1.
       -3    1    3    3    0  502 -0.19581549230E+03 -0.81081237106E+03  0.47212477018E+03  0.95846868332E+03  0.10100000352E+00 0.  1.
</event>
<event>
 5   0  0.6853162E-04  0.1804367E+04  0.7818609E-02  0.8703981E-01
       -2   -1    0    0    0  501  0.00000000000E+00  0.00000000000E+00  0.48675809758E+03  0.48675809759E+03  0.25500000920E-02 0.  1.
        2   -1    0    0  501    0  0.00000000000E+00  0.00000000000E+00 -0.16721549529E+04  0.16721549529E+04  0.25500000920E-02 0. -1.
    10030    2    1    2    0    0  0.00000000000E+00  0.00000000000E+00 -0.11853968553E+04  0.21589130505E+04  0.18043668848E+04 0.  0.
        2    1    3    3  502    0 -0.16080531913E+03  0.86273181080E+03 -0.84302141818E+03  0.12169016557E+04  0.25500000920E-02 0. -1.
       -2    1    3    3    0  502  0.16080531913E+03 -0.86273181080E+03 -0.34237543714E+03  0.94201139483E+03  0.25500000920E-02 0.  1.
</event>
<event>
 5   0  0.2467375E-04  0.1381860E+04  0.7818609E-02  0.8967055E-01
       -3   -1    0    0    0  501  0.00000000000E+00  0.00000000000E+00  0.71565174867E+03  0.71565175580E+03  0.10100000352E+00 0.  1.
        3   -1    0    0  501    0  0.00000000000E+00  0.00000000000E+00 -0.66706240345E+03  0.66706241110E+03  0.10100000352E+00 0. -1.
    10030    2    1    2    0    0  0.00000000000E+00  0.00000000000E+00  0.48589345222E+02  0.13827141669E+04  0.13818601749E+04 0.  0.
        2    1    3    3  502    0  0.18177536808E+03  0.64628555557E+03 -0.13907619492E+03  0.68561614026E+03  0.25500000920E-02 0. -1.
       -2    1    3    3    0  502 -0.18177536808E+03 -0.64628555557E+03  0.18766554014E+03  0.69709802664E+03  0.25500000920E-02 0.  1.
</event>
<event>
 5   0  0.3470962E-04  0.1759528E+04  0.7818609E-02  0.8728123E-01
        1   -1    0    0  501    0  0.00000000000E+00  0.00000000000E+00  0.88662141188E+03  0.88662141189E+03  0.50400001928E-02 0. -1.
       -1   -1    0    0    0  501  0.00000000000E+00  0.00000000000E+00 -0.87295967199E+03  0.87295967201E+03  0.50400001928E-02 0.  1.
    10030    2    1    2    0    0  0.00000000000E+00  0.00000000000E+00  0.13661739882E+02  0.17595810839E+04  0.17595280469E+04 0.  0.
        4    1    3    3  502    0  0.23707267319E+03 -0.84716620198E+03 -0.26085812237E+01  0.87971725216E+03  0.12699999809E+01 0. -1.
       -4    1    3    3    0  502 -0.23707267319E+03  0.84716620198E+03  0.16270321106E+02  0.87986383174E+03  0.12699999809E+01 0.  1.
</event>
<event>
 5   0  0.6853162E-04  0.1784563E+04  0.7818609E-02  0.8714552E-01
       -2   -1    0    0    0  501  0.00000000000E+00  0.00000000000E+00  0.90610279517E+03  0.90610279517E+03  0.25500000920E-02 0. -1.
        2   -1    0    0  501    0  0.00000000000E+00  0.00000000000E+00 -0.87867141076E+03  0.87867141077E+03  0.25500000920E-02 0.  1.
    10030    2    1    2    0    0  0.00000000000E+00  0.00000000000E+00  0.27431384404E+02  0.17847742059E+04  0.17845633879E+04 0.  0.
        2    1    3    3  502    0  0.22310161677E+03 -0.83219519642E+03  0.24578500780E+03  0.89595393096E+03  0.25500000920E-02 0. -1.
       -2    1    3    3    0  502 -0.22310161677E+03  0.83219519642E+03 -0.21835362339E+03  0.88882027497E+03  0.25500000920E-02 0.  1.
</event>
<event>
 5   0  0.3413839E-04  0.1788447E+04  0.7818609E-02  0.8712467E-01
        1   -1    0    0  501    0  0.00000000000E+00  0.00000000000E+00  0.13760578553E+04  0.13760578553E+04  0.50400001928E-02 0.  1.
       -1   -1    0    0    0  501  0.00000000000E+00  0.00000000000E+00 -0.58110641582E+03  0.58110641585E+03  0.50400001928E-02 0. -1.
    10030    2    1    2    0    0  0.00000000000E+00  0.00000000000E+00  0.79495143949E+03  0.19571642712E+04  0.17884474253E+04 0.  0.
        5    1    3    3  502    0 -0.44131549699E+03 -0.25483207634E+03  0.12015827878E+04  0.13051904232E+04  0.46999998093E+01 0.  1.
       -5    1    3    3    0  502  0.44131549699E+03  0.25483207634E+03 -0.40663134827E+03  0.65197384795E+03  0.46999998093E+01 0. -1.
</event>
<event>
 5   0  0.3308275E-04  0.1683004E+04  0.7818609E-02  0.8771118E-01
        1   -1    0    0  501    0  0.00000000000E+00  0.00000000000E+00  0.11893431041E+04  0.11893431041E+04  0.50400001928E-02 0.  1.
       -1   -1    0    0    0  501  0.00000000000E+00  0.00000000000E+00 -0.59539225546E+03  0.59539225548E+03  0.50400001928E-02 0. -1.
    10030    2    1    2    0    0  0.00000000000E+00  0.00000000000E+00  0.59395084866E+03  0.17847353596E+04  0.16830040681E+04 0.  0.
        3    1    3    3  502    0 -0.59020108622E+03 -0.11463717531E+03  0.92133125485E+03  0.11001501241E+04  0.10100000352E+00 0.  1.
       -3    1    3    3    0  502  0.59020108622E+03  0.11463717531E+03 -0.32738040619E+03  0.68458523553E+03  0.10100000352E+00 0. -1.
</event>
<event>
 5   0  0.3308275E-04  0.1954149E+04  0.7818609E-02  0.8628363E-01
       -1   -1    0    0    0  501  0.00000000000E+00  0.00000000000E+00  0.57563114650E+03  0.57563114653E+03  0.50400001928E-02 0.  1.
        1   -1    0    0  501    0  0.00000000000E+00  0.00000000000E+00 -0.16584826938E+04  0.16584826938E+04  0.50400001928E-02 0. -1.
    10030    2    1    2    0    0  0.00000000000E+00  0.00000000000E+00 -0.10828515473E+04  0.22341138404E+04  0.19541487093E+04 0.  0.
        3    1    3    3  502    0  0.58365314527E+03 -0.21103739704E+03  0.32133304752E+03  0.69888676806E+03  0.10100000352E+00 0.  1.
       -3    1    3    3    0  502 -0.58365314527E+03  0.21103739704E+03 -0.14041845948E+04  0.15352270723E+04  0.10100000352E+00 0. -1.
</event>
<event>
 5   0  0.3377273E-04  0.1839406E+04  0.7818609E-02  0.8685620E-01
       -1   -1    0    0    0  501  0.00000000000E+00  0.00000000000E+00  0.10357720528E+04  0.10357720528E+04  0.50400001928E-02 0. -1.
        1   -1    0    0  501    0  0.00000000000E+00  0.00000000000E+00 -0.81664067471E+03  0.81664067473E+03  0.50400001928E-02 0.  1.
    10030    2    1    2    0    0  0.00000000000E+00  0.00000000000E+00  0.21913137805E+03  0.18524127275E+04  0.18394059781E+04 0.  0.
        2    1    3    3  502    0 -0.71520158008E+03  0.30541271898E+03 -0.38488816292E+03  0.86771488809E+03  0.25500000920E-02 0.  1.
       -2    1    3    3    0  502  0.71520158008E+03 -0.30541271898E+03  0.60401954097E+03  0.98469783941E+03  0.25500000920E-02 0. -1.
</event>
<event>
 5   0  0.6547153E-04  0.1793201E+04  0.7818609E-02  0.8709923E-01
       -2   -1    0    0    0  501  0.00000000000E+00  0.00000000000E+00  0.66318249585E+03  0.66318249586E+03  0.25500000920E-02 0. -1.
        2   -1    0    0  501    0  0.00000000000E+00  0.00000000000E+00 -0.12121743661E+04  0.12121743661E+04  0.25500000920E-02 0.  1.
    10030    2    1    2    0    0  0.00000000000E+00  0.00000000000E+00 -0.54899187028E+03  0.18753568620E+04  0.17932014070E+04 0.  0.
        5    1    3    3  502    0  0.13772411398E+03 -0.70866451112E+02  0.64907222056E+03  0.66731313711E+03  0.46999998093E+01 0. -1.
       -5    1    3    3    0  502 -0.13772411398E+03  0.70866451112E+02 -0.11980640908E+04  0.12080437249E+04  0.46999998093E+01 0.  1.
</event>
<event>
 5   0  0.3470962E-04  0.1797363E+04  0.7818609E-02  0.8707703E-01
        1   -1    0    0  501    0  0.00000000000E+00  0.00000000000E+00  0.17062614089E+04  0.17062614089E+04  0.50400001928E-02 0.  1.
       -1   -1    0    0    0  501  0.00000000000E+00  0.00000000000E+00 -0.47333215032E+03  0.47333215035E+03  0.50400001928E-02 0. -1.
    10030    2    1    2    0    0  0.00000000000E+00  0.00000000000E+00  0.12329292586E+04  0.21795935593E+04  0.17973629369E+04 0.  0.
        4    1    3    3  502    0  0.88119140245E+03  0.17844025811E+02  0.82932072376E+03  0.12102029469E+04  0.12699999809E+01 0.  1.
       -4    1    3    3    0  502 -0.88119140245E+03 -0.17844025811E+02  0.40360853485E+03  0.96939061235E+03  0.12699999809E+01 0. -1.
</event>
<event>
 5   0  0.3308275E-04  0.1660571E+04  0.7818609E-02  0.8784177E-01
        1   -1    0    0  501    0  0.00000000000E+00  0.00000000000E+00  0.10115775142E+04  0.10115775143E+04  0.50400001928E-02 0. -1.
       -1   -1    0    0    0  501  0.00000000000E+00  0.00000000000E+00 -0.68148407449E+03  0.68148407451E+03  0.50400001928E-02 0.  1.
    10030    2    1    2    0    0  0.00000000000E+00  0.00000000000E+00  0.33009343975E+03  0.16930615888E+04  0.16605709453E+04 0.  0.
        3    1    3    3  502    0  0.12138821856E+03  0.63032991506E+03  0.70196514713E+03  0.95121289910E+03  0.10100000352E+00 0. -1.
       -3    1    3    3    0  502 -0.12138821856E+03 -0.63032991506E+03 -0.37187170738E+03  0.74184868967E+03  0.10100000352E+00 0.  1.
</event>
<event>
 5   0  0.6853162E-04  0.1778288E+04  0.7818609E-02  0.8717932E-01
        2   -1    0    0  501    0  0.00000000000E+00  0.00000000000E+00  0.27254741698E+04  0.27254741698E+04  0.25500000920E-02 0. -1.
       -2   -1    0    0    0  501  0.00000000000E+00  0.00000000000E+00 -0.29006951754E+03  0.29006951756E+03  0.25500000920E-02 0.  1.
    10030    2    1    2    0    0  0.00000000000E+00  0.00000000000E+00  0.24354046523E+04  0.30155436874E+04  0.17782879154E+04 0.  0.
        2    1    3    3  502    0  0.19377750964E+03 -0.21646489301E+03  0.26427134093E+04  0.26586351643E+04  0.25500000920E-02 0. -1.
       -2    1    3    3    0  502 -0.19377750964E+03  0.21646489301E+03 -0.20730875698E+03  0.35690852312E+03  0.25500000920E-02 0.  1.
</event>
<event>
 5   0  0.3377273E-04  0.1788053E+04  0.7818609E-02  0.8712679E-01
        1   -1    0    0  501    0  0.00000000000E+00  0.00000000000E+00  0.10805686912E+04  0.10805686912E+04  0.50400001928E-02 0. -1.
       -1   -1    0    0    0  501  0.00000000000E+00  0.00000000000E+00 -0.73968767223E+03  0.73968767225E+03  0.50400001928E-02 0.  1.
    10030    2    1    2    0    0  0.00000000000E+00  0.00000000000E+00  0.34088101896E+03  0.18202563634E+04  0.17880529521E+04 0.  0.
        2    1    3    3  502    0 -0.56922910116E+03  0.53894726558E+03 -0.26718247960E+03  0.82817413754E+03  0.25500000920E-02 0.  1.
       -2    1    3    3    0  502  0.56922910116E+03 -0.53894726558E+03  0.60806349856E+03  0.99208222591E+03  0.25500000920E-02 0. -1.
</event>
<event>
 5   0  0.6547153E-04  0.1761675E+04  0.7818609E-02  0.8726950E-01
       -2   -1    0    0    0  501  0.00000000000E+00  0.00000000000E+00  0.90800723315E+03  0.90800723315E+03  0.25500000920E-02 0. -1.
        2   -1    0    0  501    0  0.00000000000E+00  0.00000000000E+00 -0.85448029678E+03  0.85448029678E+03  0.25500000920E-02 0.  1.
    10030    2    1    2    0    0  0.00000000000E+00  0.00000000000E+00  0.53526936368E+02  0.17624875299E+04  0.17616745330E+04 0.  0.
        5    1    3    3  502    0 -0.69365718530E+03  0.49079271679E+03  0.25884987385E+03  0.88829225414E+03  0.46999998093E+01 0. -1.
       -5    1    3    3    0  502  0.69365718530E+03 -0.49079271679E+03 -0.20532293748E+03  0.87419527580E+03  0.46999998093E+01 0.  1.
</event>
<event>
 5   0  0.3404261E-04  0.2274928E+04  0.7818609E-02  0.8487873E-01
       -1   -1    0    0    0  501  0.00000000000E+00  0.00000000000E+00  0.51742234097E+03  0.51742234100E+03  0.50400001928E-02 0. -1.
        1   -1    0    0  501    0  0.00000000000E+00  0.00000000000E+00 -0.25005188692E+04  0.25005188692E+04  0.50400001928E-02 0.  1.
    10030    2    1    2    0    0  0.00000000000E+00  0.00000000000E+00 -0.19830965282E+04  0.30179412102E+04  0.22749279786E+04 0.  0.
        1    1    3    3  502    0  0.65242624574E+03 -0.80712496598E+02 -0.22229748418E+04  0.23181440120E+04  0.50400001928E-02 0.  1.
       -1    1    3    3    0  502 -0.65242624574E+03  0.80712496598E+02  0.23987831356E+03  0.69979719818E+03  0.50400001928E-02 0. -1.
</event>
<event>
 5   0  0.6929121E-04  0.1781380E+04  0.7818609E-02  0.8716264E-01
        2   -1    0    0  501    0  0.00000000000E+00  0.00000000000E+00  0.18491108138E+04  0.18491108138E+04  0.25500000920E-02 0.  1.
       -2   -1    0    0    0  501  0.00000000000E+00  0.00000000000E+00 -0.42903260437E+03  0.42903260438E+03  0.25500000920E-02 0. -1.
    10030    2    1    2    0    0  0.00000000000E+00  0.00000000000E+00  0.14200782094E+04  0.22781434182E+04  0.17813801708E+04 0.  0.
        3    1    3    3  502    0  0.82868431375E+03 -0.18250368608E+03  0.10562868022E+04  0.13549048328E+04  0.10100000352E+00 0.  1.
       -3    1    3    3    0  502 -0.82868431375E+03  0.18250368608E+03  0.36379140720E+03  0.92323858533E+03  0.10100000352E+00 0. -1.
</event>
<event>
 5   0  0.6547153E-04  0.1768735E+04  0.7818609E-02  0.8723105E-01
        2   -1    0    0  501    0  0.00000000000E+00  0.00000000000E+00  0.64077139391E+03  0.64077139392E+03  0.25500000920E-02 0.  1.
       -2   -1    0    0    0  501  0.00000000000E+00  0.00000000000E+00 -0.12205697179E+04  0.12205697179E+04  0.25500000920E-02 0. -1.
    10030    2    1    2    0    0  0.00000000000E+00  0.00000000000E+00 -0.57979832395E+03  0.18613411118E+04  0.17687353216E+04 0.  0.
        5    1    3    3  502    0  0.45372464311E+02 -0.10085153296E+03 -0.12132514140E+04  0.12182901033E+04  0.46999998093E+01 0. -1.
       -5    1    3    3    0  502 -0.45372464311E+02  0.10085153296E+03  0.63345309005E+03  0.64305100848E+03  0.46999998093E+01 0.  1.
</event>
<event>
 5   0  0.3404261E-04  0.1770079E+04  0.7818609E-02  0.8722375E-01
       -1   -1    0    0    0  501  0.00000000000E+00  0.00000000000E+00  0.51853248857E+03  0.51853248860E+03  0.50400001928E-02 0.  1.
        1   -1    0    0  501    0  0.00000000000E+00  0.00000000000E+00 -0.15105990051E+04  0.15105990051E+04  0.50400001928E-02 0. -1.
    10030    2    1    2    0    0  0.00000000000E+00  0.00000000000E+00 -0.99206651654E+03  0.20291314937E+04  0.17700787117E+04 0.  0.
        1    1    3    3  502    0  0.72797564343E+03  0.44899252188E+03 -0.75681699687E+03  0.11420660178E+04  0.50400001928E-02 0. -1.
       -1    1    3    3    0  502 -0.72797564343E+03 -0.44899252188E+03 -0.23524951967E+03  0.88706547597E+03  0.50400001928E-02 0.  1.
</event>
<event>
 5   0  0.6853162E-04  0.1790851E+04  0.7818609E-02  0.8711180E-01
       -2   -1    0    0    0  501  0.00000000000E+00  0.00000000000E+00  0.90685988201E+03  0.90685988201E+03  0.25500000920E-02 0.  1.
        2   -1    0    0  501    0  0.00000000000E+00  0.00000000000E+00 -0.88413531275E+03  0.88413531275E+03  0.25500000920E-02 0. -1.
    10030    2    1    2    0    0  0.00000000000E+00  0.00000000000E+00  0.22724569258E+02  0.17909951948E+04  0.17908510216E+04 0.  0.
        2    1    3    3  502    0  0.62411948965E+03  0.46103895450E+03  0.45828168049E+03  0.90116821604E+03  0.25500000920E-02 0.  1.
       -2    1    3    3    0  502 -0.62411948965E+03 -0.46103895450E+03 -0.43555711123E+03  0.88982697873E+03  0.25500000920E-02 0. -1.
</event>
<event>
 5   0  0.6547153E-04  0.1774881E+04  0.7818609E-02  0.8719772E-01
       -2   -1    0    0    0  501  0.00000000000E+00  0.00000000000E+00  0.48267630405E+03  0.48267630406E+03  0.25500000920E-02 0. -1.
        2   -1    0    0  501    0  0.00000000000E+00  0.00000000000E+00 -0.16316338758E+04  0.16316338758E+04  0.25500000920E-02 0.  1.
    10030    2    1    2    0    0  0.00000000000E+00  0.00000000000E+00 -0.11489575717E+04  0.21143101799E+04  0.17748814143E+04 0.  0.
        5    1    3    3  502    0 -0.71062608102E+02 -0.80177675555E+03 -0.12934200077E+03  0.81525904053E+03  0.46999998093E+01 0. -1.
       -5    1    3    3    0  502  0.71062608102E+02  0.80177675555E+03 -0.10196155710E+04  0.12990511393E+04  0.46999998093E+01 0.  1.
</event>
<event>
 5   0  0.3377273E-04  0.1781885E+04  0.7818609E-02  0.8715993E-01
        1   -1    0    0  501    0  0.00000000000E+00  0.00000000000E+00  0.16783964771E+04  0.16783964771E+04  0.50400001928E-02 0.  1.
       -1   -1    0    0    0  501  0.00000000000E+00  0.00000000000E+00 -0.47293841955E+03  0.47293841958E+03  0.50400001928E-02 0. -1.
    10030    2    1    2    0    0  0.00000000000E+00  0.00000000000E+00  0.12054580575E+04  0.21513348967E+04  0.17818845948E+04 0.  0.
        2    1    3    3  502    0  0.33317710181E+03 -0.79590467495E+03  0.33463786861E+03  0.92544785693E+03  0.25500000920E-02 0.  1.
       -2    1    3    3    0  502 -0.33317710181E+03  0.79590467495E+03  0.87082018893E+03  0.12258870398E+04  0.25500000920E-02 0. -1.
</event>
<event>
 5   0  0.6547153E-04  0.1728153E+04  0.7818609E-02  0.8745469E-01
       -2   -1    0    0    0  501  0.00000000000E+00  0.00000000000E+00  0.52872597811E+03  0.52872597812E+03  0.25500000920E-02 0. -1.
        2   -1    0    0  501    0  0.00000000000E+00  0.00000000000E+00 -0.14121262844E+04  0.14121262844E+04  0.25500000920E-02 0.  1.
    10030    2    1    2    0    0  0.00000000000E+00  0.00000000000E+00 -0.88340030632E+03  0.19408522626E+04  0.17281525985E+04 0.  0.
        5    1    3    3  502    0  0.13549507018E+03  0.61265609313E+03 -0.11088690999E+04  0.12740954333E+04  0.46999998093E+01 0.  1.
       -5    1    3    3    0  502 -0.13549507018E+03 -0.61265609313E+03  0.22546879355E+03  0.66675682926E+03  0.46999998093E+01 0. -1.
</event>
<event>
 5   0  0.3470962E-04  0.1759674E+04  0.7818609E-02  0.8728043E-01
       -1   -1    0    0    0  501  0.00000000000E+00  0.00000000000E+00  0.10975249621E+04  0.10975249621E+04  0.50400001928E-02 0. -1.
        1   -1    0    0  501    0  0.00000000000E+00  0.00000000000E+00 -0.70532646539E+03  0.70532646541E+03  0.50400001928E-02 0.  1.
    10030    2    1    2    0    0  0.00000000000E+00  0.00000000000E+00  0.39219849673E+03  0.18028514275E+04  0.17596742906E+04 0.  0.
        4    1    3    3  502    0 -0.73729632246E+03 -0.28403621946E+03  0.59267494373E+03  0.98769815374E+03  0.12699999809E+01 0. -1.
       -4    1    3    3    0  502  0.73729632246E+03  0.28403621946E+03 -0.20047644701E+03  0.81515327380E+03  0.12699999809E+01 0.  1.
</event>
<event>
 5   0  0.3413839E-04  0.1867763E+04  0.7818609E-02  0.8671071E-01
        1   -1    0    0  501    0  0.00000000000E+00  0.00000000000E+00  0.17466696672E+04  0.17466696672E+04  0.50400001928E-02 0. -1.
       -1   -1    0    0    0  501  0.00000000000E+00  0.00000000000E+00 -0.49931302606E+03  0.49931302609E+03  0.50400001928E-02 0.  1.
    10030    2    1    2    0    0  0.00000000000E+00  0.00000000000E+00  0.12473566411E+04  0.22459826933E+04  0.18677632795E+04 0.  0.
        5    1    3    3  502    0 -0.83338254067E+03 -0.21698628622E+03  0.18927278376E+03  0.88173453158E+03  0.46999998093E+01 0.  1.
       -5    1    3    3    0  502  0.83338254067E+03  0.21698628622E+03  0.10580838574E+04  0.13642481617E+04  0.46999998093E+01 0. -1.
</event>
<event>
 5   0  0.3413839E-04  0.1755862E+04  0.7818609E-02  0.8730130E-01
        1   -1    0    0  501    0  0.00000000000E+00  0.00000000000E+00  0.79129349672E+03  0.79129349673E+03  0.50400001928E-02 0.  1.
       -1   -1    0    0    0  501  0.00000000000E+00  0.00000000000E+00 -0.97405420580E+03  0.97405420581E+03  0.50400001928E-02 0. -1.
    10030    2    1    2    0    0  0.00000000000E+00  0.00000000000E+00 -0.18276070908E+03  0.17653477025E+04  0.17558619063E+04 0.  0.
        5    1    3    3  502    0 -0.39497838373E+03 -0.78263728176E+03 -0.44098320983E+02  0.87777889604E+03  0.46999998093E+01 0.  1.
       -5    1    3    3    0  502  0.39497838373E+03  0.78263728176E+03 -0.13866238809E+03  0.88756880651E+03  0.46999998093E+01 0. -1.
</event>
<event>
 5   0  0.2467375E-04  0.1815063E+04  0.7818609E-02  0.8698330E-01
        3   -1    0    0  501    0  0.00000000000E+00  0.00000000000E+00  0.74232981935E+03  0.74232982622E+03  0.10100000352E+00 0. -1.
       -3   -1    0    0    0  501  0.00000000000E+00  0.00000000000E+00 -0.11094975417E+04  0.11094975463E+04  0.10100000352E+00 0.  1.
    10030    2    1    2    0    0  0.00000000000E+00  0.00000000000E+00 -0.36716772232E+03  0.18518273725E+04  0.18150626659E+04 0.  0.
        2    1    3    3  502    0  0.42696278275E+03  0.73763465362E+03  0.13451830456E+03  0.86284255478E+03  0.25500000920E-02 0. -1.
       -2    1    3    3    0  502 -0.42696278275E+03 -0.73763465362E+03 -0.50168602688E+03  0.98898481770E+03  0.25500000920E-02 0.  1.
</event>
<event>
 5   0  0.6929121E-04  0.1810094E+04  0.7818609E-02  0.8700950E-01
       -2   -1    0    0    0  501  0.00000000000E+00  0.00000000000E+00  0.49929899050E+03  0.49929899050E+03  0.25500000920E-02 0.  1.
        2   -1    0    0  501    0  0.00000000000E+00  0.00000000000E+00 -0.16405199420E+04  0.16405199420E+04  0.25500000920E-02 0. -1.
    10030    2    1    2    0    0  0.00000000000E+00  0.00000000000E+00 -0.11412209515E+04  0.21398189325E+04  0.18100938660E+04 0.  0.
        3    1    3    3  502    0 -0.48588429145E+03  0.71137491550E+03 -0.24263401947E+03  0.89499111319E+03  0.10100000352E+00 0.  1.
       -3    1    3    3    0  502  0.48588429145E+03 -0.71137491550E+03 -0.89858693198E+03  0.12448278193E+04  0.10100000352E+00 0. -1.
</event>
<event>
 5   0  0.3413839E-04  0.1778467E+04  0.7818609E-02  0.8717835E-01
       -1   -1    0    0    0  501  0.00000000000E+00  0.00000000000E+00  0.99990886931E+03  0.99990886932E+03  0.50400001928E-02 0.  1.
        1   -1    0    0  501    0  0.00000000000E+00  0.00000000000E+00 -0.79080825748E+03  0.79080825750E+03  0.50400001928E-02 0. -1.
    10030    2    1    2    0    0  0.00000000000E+00  0.00000000000E+00  0.20910061183E+03  0.17907171268E+04  0.17784669697E+04 0.  0.
        5    1    3    3  502    0 -0.76135486290E+03  0.30105707637E+03 -0.24485219170E+03  0.85455911221E+03  0.46999998093E+01 0. -1.
       -5    1    3    3    0  502  0.76135486290E+03 -0.30105707637E+03  0.45395280352E+03  0.93615801461E+03  0.46999998093E+01 0.  1.
</event>
<event>
 5   0  0.3413839E-04  0.1151471E+04  0.7818609E-02  0.9156427E-01
        1   -1    0    0  501    0  0.00000000000E+00  0.00000000000E+00  0.38107920388E+03  0.38107920391E+03  0.50400001928E-02 0. -1.
       -1   -1    0    0    0  501  0.00000000000E+00  0.00000000000E+00 -0.86982301315E+03  0.86982301317E+03  0.50400001928E-02 0.  1.
    10030    2    1    2    0    0  0.00000000000E+00  0.00000000000E+00 -0.48874380927E+03  0.12509022171E+04  0.11514711658E+04 0.  0.
        5    1    3    3  502    0  0.33877025039E+03  0.87729482688E+00  0.26131654593E+03  0.42787203621E+03  0.46999998093E+01 0. -1.
       -5    1    3    3    0  502 -0.33877025039E+03 -0.87729482688E+00 -0.75006035520E+03  0.82303018087E+03  0.46999998093E+01 0.  1.
</event>
<event>
 5   0  0.6929121E-04  0.1775485E+04  0.7818609E-02  0.8719446E-01
        2   -1    0    0  501    0  0.00000000000E+00  0.00000000000E+00  0.74331389659E+03  0.74331389659E+03  0.25500000920E-02 0. -1.
       -2   -1    0    0    0  501  0.00000000000E+00  0.00000000000E+00 -0.10602336456E+04  0.10602336456E+04  0.25500000920E-02 0.  1.
    10030    2    1    2    0    0  0.00000000000E+00  0.00000000000E+00 -0.31691974899E+03  0.18035475422E+04  0.17754846126E+04 0.  0.
        3    1    3    3  502    0 -0.91749466437E+02  0.87219246922E+03 -0.18629773973E+02  0.87720279676E+03  0.10100000352E+00 0.  1.
       -3    1    3    3    0  502  0.91749466437E+02 -0.87219246922E+03 -0.29828997502E+03  0.92634474542E+03  0.10100000352E+00 0. -1.
</event>
<event>
 5   0  0.6771967E-04  0.1723877E+04  0.7818609E-02  0.8747862E-01
        2   -1    0    0  501    0  0.00000000000E+00  0.00000000000E+00  0.12277132562E+04  0.12277132562E+04  0.25500000920E-02 0.  1.
       -2   -1    0    0    0  501  0.00000000000E+00  0.00000000000E+00 -0.60513990729E+03  0.60513990730E+03  0.25500000920E-02 0. -1.
    10030    2    1    2    0    0  0.00000000000E+00  0.00000000000E+00  0.62257334895E+03  0.18328531635E+04  0.17238773577E+04 0.  0.
        1    1    3    3  502    0  0.91231251297E+02  0.26356337164E+03 -0.55583679415E+03  0.62188691403E+03  0.50400001928E-02 0. -1.
       -1    1    3    3    0  502 -0.91231251297E+02 -0.26356337164E+03  0.11784101431E+04  0.12109662495E+04  0.50400001928E-02 0.  1.
</event>
<event>
 5   0  0.6774451E-04  0.1786111E+04  0.7818609E-02  0.8713721E-01
        2   -1    0    0  501    0  0.00000000000E+00  0.00000000000E+00  0.83951931363E+03  0.83951931363E+03  0.25500000920E-02 0. -1.
       -2   -1    0    0    0  501  0.00000000000E+00  0.00000000000E+00 -0.95000561957E+03  0.95000561958E+03  0.25500000920E-02 0.  1.
    10030    2    1    2    0    0  0.00000000000E+00  0.00000000000E+00 -0.11048630594E+03  0.17895249332E+04  0.17861109324E+04 0.  0.
        4    1    3    3  502    0 -0.73189450681E+03  0.46729290508E+03  0.15375620374E+03  0.88185872526E+03  0.12699999809E+01 0. -1.
       -4    1    3    3    0  502  0.73189450681E+03 -0.46729290508E+03 -0.26424250969E+03  0.90766620795E+03  0.12699999809E+01 0.  1.
</event>
<event>
 5   0  0.3377273E-04  0.1843192E+04  0.7818609E-02  0.8683662E-01
       -1   -1    0    0    0  501  0.00000000000E+00  0.00000000000E+00  0.81432584388E+03  0.81432584390E+03  0.50400001928E-02 0. -1.
        1   -1    0    0  501    0  0.00000000000E+00  0.00000000000E+00 -0.10429966195E+04  0.10429966195E+04  0.50400001928E-02 0.  1.
    10030    2    1    2    0    0  0.00000000000E+00  0.00000000000E+00 -0.22867077558E+03  0.18573224634E+04  0.18431919079E+04 0.  0.
        2    1    3    3  502    0  0.23514532437E+03  0.44792302905E+03  0.66190182138E+03  0.83309206255E+03  0.25500000920E-02 0. -1.
       -2    1    3    3    0  502 -0.23514532437E+03 -0.44792302905E+03 -0.89057259696E+03  0.10242304008E+04  0.25500000920E-02 0.  1.
</event>
<event>
 5   0  0.6547153E-04  0.1760895E+04  0.7818609E-02  0.8727376E-01
        2   -1    0    0  501    0  0.00000000000E+00  0.00000000000E+00  0.18641435440E+04  0.18641435440E+04  0.25500000920E-02 0. -1.
       -2   -1    0    0    0  501  0.00000000000E+00  0.00000000000E+00 -0.41584113439E+03  0.41584113440E+03  0.25500000920E-02 0.  1.
    10030    2    1    2    0    0  0.00000000000E+00  0.00000000000E+00  0.14483024096E+04  0.22799846784E+04  0.17608947340E+04 0.  0.
        5    1    3    3  502    0  0.55867886578E+03 -0.50691813044E+03  0.13119297473E+04  0.15133637427E+04  0.46999998093E+01 0. -1.
       -5    1    3    3    0  502 -0.55867886578E+03  0.50691813044E+03  0.13637266239E+03  0.76662093572E+03  0.46999998093E+01 0.  1.
</event>
<event>
 5   0  0.3470962E-04  0.1801687E+04  0.7818609E-02  0.8705403E-01
       -1   -1    0    0    0  501  0.00000000000E+00  0.00000000000E+00  0.91005867860E+03  0.91005867861E+03  0.50400001928E-02 0.  1.
        1   -1    0    0  501    0  0.00000000000E+00  0.00000000000E+00 -0.89172172790E+03  0.89172172792E+03  0.50400001928E-02 0. -1.
    10030    2    1    2    0    0  0.00000000000E+00  0.00000000000E+00  0.18336950691E+02  0.18017804065E+04  0.18016870954E+04 0.  0.
        4    1    3    3  502    0 -0.78867876579E+02 -0.60924007490E+03  0.66808337293E+03  0.90759606484E+03  0.12699999809E+01 0.  1.
       -4    1    3    3    0  502  0.78867876579E+02  0.60924007490E+03 -0.64974642224E+03  0.89418434169E+03  0.12699999809E+01 0. -1.
</event>
<event>
 5   0  0.6771967E-04  0.1785236E+04  0.7818609E-02  0.8714190E-01
        2   -1    0    0  501    0  0.00000000000E+00  0.00000000000E+00  0.13777216201E+04  0.13777216201E+04  0.25500000920E-02 0. -1.
       -2   -1    0    0    0  501  0.00000000000E+00  0.00000000000E+00 -0.57832229545E+03  0.57832229545E+03  0.25500000920E-02 0.  1.
    10030    2    1    2    0    0  0.00000000000E+00  0.00000000000E+00  0.79939932465E+03  0.19560439155E+04  0.17852362643E+04 0.  0.
        1    1    3    3  502    0 -0.73438081608E+03  0.11474090681E+02 -0.15610209876E+03  0.75087595716E+03  0.50400001928E-02 0.  1.
       -1    1    3    3    0  502  0.73438081608E+03 -0.11474090681E+02  0.95550142340E+03  0.12051679584E+04  0.50400001928E-02 0. -1.
</event>
<event>
 5   0  0.6547153E-04  0.1657651E+04  0.7818609E-02  0.8785893E-01
       -2   -1    0    0    0  501  0.00000000000E+00  0.00000000000E+00  0.52692226755E+03  0.52692226756E+03  0.25500000920E-02 0. -1.
        2   -1    0    0  501    0  0.00000000000E+00  0.00000000000E+00 -0.13037059010E+04  0.13037059010E+04  0.25500000920E-02 0.  1.
    10030    2    1    2    0    0  0.00000000000E+00  0.00000000000E+00 -0.77678363341E+03  0.18306281685E+04  0.16576509519E+04 0.  0.
        5    1    3    3  502    0 -0.62696367952E+03  0.53488444697E+03 -0.29120422387E+03  0.87407483492E+03  0.46999998093E+01 0. -1.
       -5    1    3    3    0  502  0.62696367952E+03 -0.53488444697E+03 -0.48557940954E+03  0.95655333360E+03  0.46999998093E+01 0.  1.
</event>
<event>
 5   0  0.6853162E-04  0.1760772E+04  0.7818609E-02  0.8727443E-01
       -2   -1    0    0    0  501  0.00000000000E+00  0.00000000000E+00  0.59277740273E+03  0.59277740274E+03  0.25500000920E-02 0.  1.
        2   -1    0    0  501    0  0.00000000000E+00  0.00000000000E+00 -0.13075381921E+04  0.13075381921E+04  0.25500000920E-02 0. -1.
    10030    2    1    2    0    0  0.00000000000E+00  0.00000000000E+00 -0.71476078936E+03  0.19003155948E+04  0.17607715280E+04 0.  0.
        2    1    3    3  502    0 -0.99501769087E+02  0.62942820930E+03 -0.10129745858E+04  0.11967447448E+04  0.25500000920E-02 0. -1.
       -2    1    3    3    0  502  0.99501769087E+02 -0.62942820930E+03  0.29821379639E+03  0.70357085008E+03  0.25500000920E-02 0.  1.
</event>
<event>
 5   0  0.3404261E-04  0.1735333E+04  0.7818609E-02  0.8741465E-01
       -1   -1    0    0    0  501  0.00000000000E+00  0.00000000000E+00  0.96244307704E+03  0.96244307705E+03  0.50400001928E-02 0. -1.
        1   -1    0    0  501    0  0.00000000000E+00  0.00000000000E+00 -0.78222341929E+03  0.78222341931E+03  0.50400001928E-02 0.  1.
    10030    2    1    2    0    0  0.00000000000E+00  0.00000000000E+00  0.18021965774E+03  0.17446664964E+04  0.17353334142E+04 0.  0.
        1    1    3    3  502    0 -0.30771805154E+03  0.11577560722E+03 -0.71717268563E+03  0.78894299637E+03  0.50400001928E-02 0.  1.
       -1    1    3    3    0  502  0.30771805154E+03 -0.11577560722E+03  0.89739234338E+03  0.95572350000E+03  0.50400001928E-02 0. -1.
</event>
<event>
 5   0  0.3470962E-04  0.1824023E+04  0.7818609E-02  0.8693627E-01
        1   -1    0    0  501    0  0.00000000000E+00  0.00000000000E+00  0.10680035964E+04  0.10680035964E+04  0.50400001928E-02 0. -1.
       -1   -1    0    0    0  501  0.00000000000E+00  0.00000000000E+00 -0.77880376764E+03  0.77880376766E+03  0.50400001928E-02 0.  1.
    10030    2    1    2    0    0  0.00000000000E+00  0.00000000000E+00  0.28919982878E+03  0.18468073641E+04  0.18240232726E+04 0.  0.
        4    1    3    3  502    0 -0.10582257531E+03 -0.80957253976E+03  0.55607199163E+03  0.98783793577E+03  0.12699999809E+01 0. -1.
       -4    1    3    3    0  502  0.10582257531E+03  0.80957253976E+03 -0.26687216285E+03  0.85896942832E+03  0.12699999809E+01 0.  1.
</event>
<event>
 5   0  0.6853162E-04  0.1809837E+04  0.7818609E-02  0.8701086E-01
        2   -1    0    0  501    0  0.00000000000E+00  0.00000000000E+00  0.34286706429E+03  0.34286706430E+03  0.25500000920E-02 0. -1.
       -2   -1    0    0    0  501  0.00000000000E+00  0.00000000000E+00 -0.23883237885E+04  0.23883237885E+04  0.25500000920E-02 0.  1.
    10030    2    1    2    0    0  0.00000000000E+00  0.00000000000E+00 -0.20454567243E+04  0.27311908528E+04  0.18098370821E+04 0.  0.
        2    1    3    3  502    0 -0.12483495211E+03 -0.51786261617E+03  0.81184916287E+02  0.53884733008E+03  0.25500000920E-02 0. -1.
       -2    1    3    3    0  502  0.12483495211E+03  0.51786261617E+03 -0.21266416405E+04  0.21923435228E+04  0.25500000920E-02 0.  1.
</event>
<event>
 5   0  0.6547153E-04  0.1731148E+04  0.7818609E-02  0.8743796E-01
        2   -1    0    0  501    0  0.00000000000E+00  0.00000000000E+00  0.20225448690E+04  0.20225448690E+04  0.25500000920E-02 0. -1.
       -2   -1    0    0    0  501  0.00000000000E+00  0.00000000000E+00 -0.37043357558E+03  0.37043357559E+03  0.25500000920E-02 0.  1.
    10030    2    1    2    0    0  0.00000000000E+00  0.00000000000E+00  0.16521112934E+04  0.23929784446E+04  0.17311482058E+04 0.  0.
        5    1    3    3  502    0 -0.63317191578E+02  0.55640092963E+03  0.17383839585E+04  0.18263602981E+04  0.46999998093E+01 0. -1.
       -5    1    3    3    0  502  0.63317191578E+02 -0.55640092963E+03 -0.86272665057E+02  0.56661814653E+03  0.46999998093E+01 0.  1.
</event>
<event>
 5   0  0.3470962E-04  0.1703035E+04  0.7818609E-02  0.8759635E-01
       -1   -1    0    0    0  501  0.00000000000E+00  0.00000000000E+00  0.80778757015E+03  0.80778757016E+03  0.50400001928E-02 0. -1.
        1   -1    0    0  501    0  0.00000000000E+00  0.00000000000E+00 -0.89761495713E+03  0.89761495714E+03  0.50400001928E-02 0.  1.
    10030    2    1    2    0    0  0.00000000000E+00  0.00000000000E+00 -0.89827386981E+02  0.17054025273E+04  0.17030351789E+04 0.  0.
        4    1    3    3  502    0 -0.53383269991E+03 -0.59453671307E+03  0.24982406743E+03  0.83717676285E+03  0.12699999809E+01 0.  1.
       -4    1    3    3    0  502  0.53383269991E+03  0.59453671307E+03 -0.33965145442E+03  0.86822576446E+03  0.12699999809E+01 0. -1.
</event>
<event>
 5   0  0.3377273E-04  0.1876883E+04  0.7818609E-02  0.8666450E-01
        1   -1    0    0  501    0  0.00000000000E+00  0.00000000000E+00  0.10225130938E+04  0.10225130938E+04  0.50400001928E-02 0. -1.
       -1   -1    0    0    0  501  0.00000000000E+00  0.00000000000E+00 -0.86128211247E+03  0.86128211249E+03  0.50400001928E-02 0.  1.
    10030    2    1    2    0    0  0.00000000000E+00  0.00000000000E+00  0.16123098135E+03  0.18837952063E+04  0.18768827747E+04 0.  0.
        2    1    3    3  502    0  0.58910533668E+03 -0.42233001255E+03  0.67885135476E+03  0.99309964207E+03  0.25500000920E-02 0. -1.
       -2    1    3    3    0  502 -0.58910533668E+03  0.42233001255E+03 -0.51762037342E+03  0.89069556426E+03  0.25500000920E-02 0.  1.
</event>
<event>
 5   0  0.6774451E-04  0.1261464E+04  0.7818609E-02  0.9060695E-01
       -2   -1    0    0    0  501  0.00000000000E+00  0.00000000000E+00  0.12512031771E+04  0.12512031771E+04  0.25500000920E-02 0.  1.
        2   -1    0    0  501    0  0.00000000000E+00  0.00000000000E+00 -0.31795231898E+03  0.31795231899E+03  0.25500000920E-02 0. -1.
    10030    2    1    2    0    0  0.00000000000E+00  0.00000000000E+00  0.93325085808E+03  0.15691554961E+04  0.12614641520E+04 0.  0.
        4    1    3    3  502    0  0.65858243898E+02  0.41373610193E+02  0.12452137897E+04  0.12476410056E+04  0.12699999809E+01 0.  1.
       -4    1    3    3    0  502 -0.65858243898E+02 -0.41373610193E+02 -0.31196293166E+03  0.32151449041E+03  0.12699999809E+01 0. -1.
</event>
<event>
 5   0  0.3413839E-04  0.1840364E+04  0.7818609E-02  0.8685124E-01
       -1   -1    0    0    0  501  0.00000000000E+00  0.00000000000E+00  0.67446207448E+03  0.67446207450E+03  0.50400001928E-02 0.  1.
        1   -1    0    0  501    0  0.00000000000E+00  0.00000000000E+00 -0.12554223298E+04  0.12554223298E+04  0.50400001928E-02 0. -1.
    10030    2    1    2    0    0  0.00000000000E+00  0.00000000000E+00 -0.58096025529E+03  0.19298844043E+04  0.18403638215E+04 0.  0.
        5    1    3    3  502    0 -0.48049153332E+03 -0.74963013357E+03 -0.47034103528E+02  0.89165674317E+03  0.46999998093E+01 0.  1.
       -5    1    3    3    0  502  0.48049153332E+03  0.74963013357E+03 -0.53392615176E+03  0.10382276611E+04  0.46999998093E+01 0. -1.
</event>
<event>
 5   0  0.6774451E-04  0.1790914E+04  0.7818609E-02  0.8711146E-01
        2   -1    0    0  501    0  0.00000000000E+00  0.00000000000E+00  0.69823762958E+03  0.69823762958E+03  0.25500000920E-02 0.  1.
       -2   -1    0    0    0  501  0.00000000000E+00  0.00000000000E+00 -0.11483815152E+04  0.11483815152E+04  0.25500000920E-02 0. -1.
    10030    2    1    2    0    0  0.00000000000E+00  0.00000000000E+00 -0.45014388562E+03  0.18466191448E+04  0.17909139421E+04 0.  0.
        4    1    3    3  502    0  0.71773681824E+03 -0.28400601924E+03  0.24295859112E+03  0.80921940728E+03  0.12699999809E+01 0.  1.
       -4    1    3    3    0  502 -0.71773681824E+03  0.28400601924E+03 -0.69310247674E+03  0.10373997375E+04  0.12699999809E+01 0. -1.
</event>
<event>
 5   0  0.6774451E-04  0.1793486E+04  0.7818609E-02  0.8709771E-01
       -2   -1    0    0    0  501  0.00000000000E+00  0.00000000000E+00  0.44217455293E+03  0.44217455293E+03  0.25500000920E-02 0.  1.
        2   -1    0    0  501    0  0.00000000000E+00  0.00000000000E+00 -0.18186211614E+04  0.18186211614E+04  0.25500000920E-02 0. -1.
    10030    2    1    2    0    0  0.00000000000E+00  0.00000000000E+00 -0.13764466085E+04  0.22607957143E+04  0.17934859899E+04 0.  0.
        4    1    3    3  502    0  0.61986232149E+03  0.58578965934E+03 -0.33896060087E+03  0.91775526391E+03  0.12699999809E+01 0.  1.
       -4    1    3    3    0  502 -0.61986232149E+03 -0.58578965934E+03 -0.10374860076E+04  0.13430404504E+04  0.12699999809E+01 0. -1.
</event>
<event>
 5   0  0.6929121E-04  0.1842927E+04  0.7818609E-02  0.8683798E-01
        2   -1    0    0  501    0  0.00000000000E+00  0.00000000000E+00  0.98970469250E+03  0.98970469250E+03  0.25500000920E-02 0. -1.
       -2   -1    0    0    0  501  0.00000000000E+00  0.00000000000E+00 -0.85792797737E+03  0.85792797737E+03  0.25500000920E-02 0.  1.
    10030    2    1    2    0    0  0.00000000000E+00  0.00000000000E+00  0.13177671513E+03  0.18476326699E+04  0.18429273942E+04 0.  0.
        3    1    3    3  502    0 -0.42715181092E+03 -0.58548983907E+03 -0.50463249406E+03  0.88312569065E+03  0.10100000352E+00 0.  1.
       -3    1    3    3    0  502  0.42715181092E+03  0.58548983907E+03  0.63640920919E+03  0.96450697922E+03  0.10100000352E+00 0. -1.
</event>
<event>
 5   0  0.3377273E-04  0.1707539E+04  0.7818609E-02  0.8757076E-01
       -1   -1    0    0    0  501  0.00000000000E+00  0.00000000000E+00  0.59564944457E+03  0.59564944459E+03  0.50400001928E-02 0. -1.
        1   -1    0    0  501    0  0.00000000000E+00  0.00000000000E+00 -0.12237440802E+04  0.12237440802E+04  0.50400001928E-02 0.  1.
    10030    2    1    2    0    0  0.00000000000E+00  0.00000000000E+00 -0.62809463565E+03  0.18193935248E+04  0.17075391436E+04 0.  0.
        2    1    3    3  502    0 -0.47361254239E+03  0.69555263817E+03 -0.46779129123E+03  0.96277256137E+03  0.25500000920E-02 0. -1.
       -2    1    3    3    0  502  0.47361254239E+03 -0.69555263817E+03 -0.16030334442E+03  0.85662096344E+03  0.25500000920E-02 0.  1.
</event>
<event>
 5   0  0.3404261E-04  0.1792400E+04  0.7818609E-02  0.8710351E-01
        1   -1    0    0  501    0  0.00000000000E+00  0.00000000000E+00  0.57479634186E+03  0.57479634188E+03  0.50400001928E-02 0. -1.
       -1   -1    0    0    0  501  0.00000000000E+00  0.00000000000E+00 -0.13973205103E+04  0.13973205103E+04  0.50400001928E-02 0.  1.
    10030    2    1    2    0    0  0.00000000000E+00  0.00000000000E+00 -0.82252416845E+03  0.19721168522E+04  0.17924003099E+04 0.  0.
        1    1    3    3  502    0  0.30605462551E+03  0.19639740571E+03 -0.13124955737E+04  0.13619419980E+04  0.50400001928E-02 0.  1.
       -1    1    3    3    0  502 -0.30605462551E+03 -0.19639740571E+03  0.48997140525E+03  0.61017485425E+03  0.50400001928E-02 0. -1.
</event>
<event>
 5   0  0.3413839E-04  0.1876020E+04  0.7818609E-02  0.8666886E-01
        1   -1    0    0  501    0  0.00000000000E+00  0.00000000000E+00  0.90662618425E+03  0.90662618427E+03  0.50400001928E-02 0.  1.
       -1   -1    0    0    0  501  0.00000000000E+00  0.00000000000E+00 -0.97048024128E+03  0.97048024129E+03  0.50400001928E-02 0. -1.
    10030    2    1    2    0    0  0.00000000000E+00  0.00000000000E+00 -0.63854057029E+02  0.18771064256E+04  0.18760200405E+04 0.  0.
        5    1    3    3  502    0  0.27601939462E+03  0.89416684808E+03 -0.96148694235E+02  0.94073785924E+03  0.46999998093E+01 0. -1.
       -5    1    3    3    0  502 -0.27601939462E+03 -0.89416684808E+03  0.32294637206E+02  0.93636856632E+03  0.46999998093E+01 0.  1.
</event>
<event>
 5   0  0.6771967E-04  0.1832823E+04  0.7818609E-02  0.8689037E-01
        2   -1    0    0  501    0  0.00000000000E+00  0.00000000000E+00  0.82344538416E+03  0.82344538416E+03  0.25500000920E-02 0.  1.
       -2   -1    0    0    0  501  0.00000000000E+00  0.00000000000E+00 -0.10198735291E+04  0.10198735291E+04  0.25500000920E-02 0. -1.
    10030    2    1    2    0    0  0.00000000000E+00  0.00000000000E+00 -0.19642814493E+03  0.18433189133E+04  0.18328231229E+04 0.  0.
        1    1    3    3  502    0 -0.26044393235E+03  0.37843248801E+03 -0.89570385133E+03  0.10066417333E+04  0.50400001928E-02 0. -1.
       -1    1    3    3    0  502  0.26044393235E+03 -0.37843248801E+03  0.69927570640E+03  0.83667717996E+03  0.50400001928E-02 0.  1.
</event>
<event>
 5   0  0.6547153E-04  0.1035267E+04  0.7818609E-02  0.9270689E-01
       -2   -1    0    0    0  501  0.00000000000E+00  0.00000000000E+00  0.29264719106E+03  0.29264719107E+03  0.25500000920E-02 0.  1.
        2   -1    0    0  501    0  0.00000000000E+00  0.00000000000E+00 -0.91558820679E+03  0.91558820679E+03  0.25500000920E-02 0. -1.
    10030    2    1    2    0    0  0.00000000000E+00  0.00000000000E+00 -0.62294101573E+03  0.12082353979E+04  0.10352667616E+04 0.  0.
        5    1    3    3  502    0 -0.45068675141E+03 -0.14414663909E+03 -0.66591777337E+02  0.47786332384E+03  0.46999998093E+01 0.  1.
       -5    1    3    3    0  502  0.45068675141E+03  0.14414663909E+03 -0.55634923839E+03  0.73037207403E+03  0.46999998093E+01 0. -1.
</event>
<event>
 5   0  0.6774451E-04  0.1810814E+04  0.7818609E-02  0.8700570E-01
       -2   -1    0    0    0  501  0.00000000000E+00  0.00000000000E+00  0.52679612932E+03  0.52679612932E+03  0.25500000920E-02 0.  1.
        2   -1    0    0  501    0  0.00000000000E+00  0.00000000000E+00 -0.15561275854E+04  0.15561275854E+04  0.25500000920E-02 0. -1.
    10030    2    1    2    0    0  0.00000000000E+00  0.00000000000E+00 -0.10293314561E+04  0.20829237147E+04  0.18108141690E+04 0.  0.
        4    1    3    3  502    0 -0.29413175143E+03 -0.81156215705E+03 -0.82886771385E+03  0.11967330203E+04  0.12699999809E+01 0. -1.
       -4    1    3    3    0  502  0.29413175143E+03  0.81156215705E+03 -0.20046374220E+03  0.88619069437E+03  0.12699999809E+01 0.  1.
</event>
<event>
 5   0  0.3413839E-04  0.1758270E+04  0.7818609E-02  0.8728811E-01
        1   -1    0    0  501    0  0.00000000000E+00  0.00000000000E+00  0.78463575012E+03  0.78463575014E+03  0.50400001928E-02 0. -1.
       -1   -1    0    0    0  501  0.00000000000E+00  0.00000000000E+00 -0.98501537327E+03  0.98501537329E+03  0.50400001928E-02 0.  1.
    10030    2    1    2    0    0  0.00000000000E+00  0.00000000000E+00 -0.20037962315E+03  0.17696511234E+04  0.17582699182E+04 0.  0.
        5    1    3    3  502    0 -0.33811184353E+03  0.79943108504E+03  0.40163583346E+02  0.86893318608E+03  0.46999998093E+01 0. -1.
       -5    1    3    3    0  502  0.33811184353E+03 -0.79943108504E+03 -0.24054320650E+03  0.90071793734E+03  0.46999998093E+01 0.  1.
</event>
<event>
 5   0  0.3404261E-04  0.1751911E+04  0.7818609E-02  0.8732299E-01
        1   -1    0    0  501    0  0.00000000000E+00  0.00000000000E+00  0.14138186970E+04  0.14138186970E+04  0.50400001928E-02 0. -1.
       -1   -1    0    0    0  501  0.00000000000E+00  0.00000000000E+00 -0.54271326857E+03  0.54271326859E+03  0.50400001928E-02 0.  1.
    10030    2    1    2    0    0  0.00000000000E+00  0.00000000000E+00  0.87110542842E+03  0.19565319656E+04  0.17519111464E+04 0.  0.
        1    1    3    3  502    0 -0.83749039468E+03  0.28713660380E+02  0.72046450630E+03  0.11051170709E+04  0.50400001928E-02 0.  1.
       -1    1    3    3    0  502  0.83749039468E+03 -0.28713660380E+02  0.15064092211E+03  0.85141489470E+03  0.50400001928E-02 0. -1.
</event>
<event>
 5   0  0.3377273E-04  0.1846618E+04  0.7818609E-02  0.8681894E-01
       -1   -1    0    0    0  501  0.00000000000E+00  0.00000000000E+00  0.12654065234E+04  0.12654065234E+04  0.50400001928E-02 0. -1.
        1   -1    0    0  501    0  0.00000000000E+00  0.00000000000E+00 -0.67369630900E+03  0.67369630902E+03  0.50400001928E-02 0.  1.
    10030    2    1    2    0    0  0.00000000000E+00  0.00000000000E+00  0.59171021444E+03  0.19391028325E+04  0.18466182109E+04 0.  0.
        2    1    3    3  502    0  0.44161918518E+03  0.62754342115E+03 -0.24334137236E+03  0.80501756108E+03  0.25500000920E-02 0.  1.
       -2    1    3    3    0  502 -0.44161918518E+03 -0.62754342115E+03  0.83505158680E+03  0.11340852714E+04  0.25500000920E-02 0. -1.
</event>
<event>
 5   0  0.3377273E-04  0.1793380E+04  0.7818609E-02  0.8709828E-01
        1   -1    0    0  501    0  0.00000000000E+00  0.00000000000E+00  0.99236563847E+03  0.99236563848E+03  0.50400001928E-02 0.  1.
       -1   -1    0    0    0  501  0.00000000000E+00  0.00000000000E+00 -0.81023838518E+03  0.81023838519E+03  0.50400001928E-02 0. -1.
    10030    2    1    2    0    0  0.00000000000E+00  0.00000000000E+00  0.18212725329E+03  0.18026040237E+04  0.17933797506E+04 0.  0.
        2    1    3    3  502    0 -0.54565484181E+03 -0.63852517049E+03 -0.22455645060E+03  0.86941313497E+03  0.25500000920E-02 0. -1.
       -2    1    3    3    0  502  0.54565484181E+03  0.63852517049E+03  0.40668370390E+03  0.93319088870E+03  0.25500000920E-02 0.  1.
</event>
<event>
 5   0  0.3413839E-04  0.1766273E+04  0.7818609E-02  0.8724444E-01
        1   -1    0    0  501    0  0.00000000000E+00  0.00000000000E+00  0.91306395217E+03  0.91306395219E+03  0.50400001928E-02 0.  1.
       -1   -1    0    0    0  501  0.00000000000E+00  0.00000000000E+00 -0.85418956431E+03  0.85418956433E+03  0.50400001928E-02 0. -1.
    10030    2    1    2    0    0  0.00000000000E+00  0.00000000000E+00  0.58874387862E+02  0.17672535165E+04  0.17662725719E+04 0.  0.
        5    1    3    3  502    0  0.10679995912E+02  0.74327627075E+03  0.50649747744E+03  0.89951957267E+03  0.46999998093E+01 0.  1.
       -5    1    3    3    0  502 -0.10679995912E+02 -0.74327627075E+03 -0.44762308958E+03  0.86773394384E+03  0.46999998093E+01 0. -1.
</event>
<event>
 5   0  0.6771967E-04  0.1751701E+04  0.7818609E-02  0.8732415E-01
        2   -1    0    0  501    0  0.00000000000E+00  0.00000000000E+00  0.14967444789E+04  0.14967444789E+04  0.25500000920E-02 0.  1.
       -2   -1    0    0    0  501  0.00000000000E+00  0.00000000000E+00 -0.51252158860E+03  0.51252158860E+03  0.25500000920E-02 0. -1.
    10030    2    1    2    0    0  0.00000000000E+00  0.00000000000E+00  0.98422289026E+03  0.20092660675E+04  0.17517007256E+04 0.  0.
        1    1    3    3  502    0 -0.19032949683E+03 -0.27862952638E+02 -0.48799296134E+03  0.52453674021E+03  0.50400001928E-02 0. -1.
       -1    1    3    3    0  502  0.19032949683E+03  0.27862952638E+02  0.14722158516E+04  0.14847293273E+04  0.50400001928E-02 0.  1.
</event>
<event>
 5   0  0.3377273E-04  0.1784271E+04  0.7818609E-02  0.8714709E-01
        1   -1    0    0  501    0  0.00000000000E+00  0.00000000000E+00  0.94071816233E+03  0.94071816234E+03  0.50400001928E-02 0.  1.
       -1   -1    0    0    0  501  0.00000000000E+00  0.00000000000E+00 -0.84606199290E+03  0.84606199292E+03  0.50400001928E-02 0. -1.
    10030    2    1    2    0    0  0.00000000000E+00  0.00000000000E+00  0.94656169424E+02  0.17867801553E+04  0.17842711489E+04 0.  0.
        2    1    3    3  502    0 -0.64353489062E+01  0.89187711120E+03  0.67843180003E+02  0.89447688192E+03  0.25500000920E-02 0. -1.
       -2    1    3    3    0  502  0.64353489062E+01 -0.89187711120E+03  0.26812989421E+02  0.89230327334E+03  0.25500000920E-02 0.  1.
</event>
<event>
 5   0  0.3404261E-04  0.1959552E+04  0.7818609E-02  0.8625768E-01
        1   -1    0    0  501    0  0.00000000000E+00  0.00000000000E+00  0.80752513919E+03  0.80752513920E+03  0.50400001928E-02 0.  1.
       -1   -1    0    0    0  501  0.00000000000E+00  0.00000000000E+00 -0.11887697777E+04  0.11887697777E+04  0.50400001928E-02 0. -1.
    10030    2    1    2    0    0  0.00000000000E+00  0.00000000000E+00 -0.38124463848E+03  0.19962949169E+04  0.19595524797E+04 0.  0.
        1    1    3    3  502    0 -0.19567228540E+03 -0.23521812524E+03 -0.11388520258E+04  0.11792366796E+04  0.50400001928E-02 0. -1.
       -1    1    3    3    0  502  0.19567228540E+03  0.23521812524E+03  0.75760738736E+03  0.81705823729E+03  0.50400001928E-02 0.  1.
</event>
<event>
 5   0  0.6774451E-04  0.1763671E+04  0.7818609E-02  0.8725861E-01
       -2   -1    0    0    0  501  0.00000000000E+00  0.00000000000E+00  0.86646564594E+03  0.86646564594E+03  0.25500000920E-02 0.  1.
        2   -1    0    0  501    0  0.00000000000E+00  0.00000000000E+00 -0.89747798670E+03  0.89747798670E+03  0.25500000920E-02 0. -1.
    10030    2    1    2    0    0  0.00000000000E+00  0.00000000000E+00 -0.31012340765E+02  0.17639436326E+04  0.17636709937E+04 0.  0.
        4    1    3    3  502    0  0.39502347422E+03  0.78827094862E+03 -0.75272277818E+00  0.88171243222E+03  0.12699999809E+01 0. -1.
       -4    1    3    3    0  502 -0.39502347422E+03 -0.78827094862E+03 -0.30259617987E+02  0.88223120043E+03  0.12699999809E+01 0.  1.
</event>
<event>
 5   0  0.3413839E-04  0.1916693E+04  0.7818609E-02  0.8646591E-01
        1   -1    0    0  501    0  0.00000000000E+00  0.00000000000E+00  0.15290968123E+04  0.15290968123E+04  0.50400001928E-02 0. -1.
       -1   -1    0    0    0  501  0.00000000000E+00  0.00000000000E+00 -0.60063439300E+03  0.60063439302E+03  0.50400001928E-02 0.  1.
    10030    2    1    2    0    0  0.00000000000E+00  0.00000000000E+00  0.92846241926E+03  0.21297312053E+04  0.19166931269E+04 0.  0.
        5    1    3    3  502    0 -0.66243355736E+03 -0.68853198892E+03  0.38173989617E+03  0.10289032783E+04  0.46999998093E+01 0.  1.
       -5    1    3    3    0  502  0.66243355736E+03  0.68853198892E+03  0.54672252309E+03  0.11008279270E+04  0.46999998093E+01 0. -1.
</event>
<event>
 5   0  0.3413839E-04  0.1792439E+04  0.7818609E-02  0.8710331E-01
        1   -1    0    0  501    0  0.00000000000E+00  0.00000000000E+00  0.12255665835E+04  0.12255665835E+04  0.50400001928E-02 0.  1.
       -1   -1    0    0    0  501  0.00000000000E+00  0.00000000000E+00 -0.65537786776E+03  0.65537786778E+03  0.50400001928E-02 0. -1.
    10030    2    1    2    0    0  0.00000000000E+00  0.00000000000E+00  0.57018871575E+03  0.18809444513E+04  0.17924388015E+04 0.  0.
        5    1    3    3  502    0  0.81638484903E+03 -0.36721984110E+03  0.23992856114E+03  0.92678068488E+03  0.46999998093E+01 0. -1.
       -5    1    3    3    0  502 -0.81638484903E+03  0.36721984110E+03  0.33026015461E+03  0.95416376641E+03  0.46999998093E+01 0.  1.
</event>
<event>
 5   0  0.3377273E-04  0.1808793E+04  0.7818609E-02  0.8701637E-01
       -1   -1    0    0    0  501  0.00000000000E+00  0.00000000000E+00  0.11731491045E+04  0.11731491045E+04  0.50400001928E-02 0. -1.
        1   -1    0    0  501    0  0.00000000000E+00  0.00000000000E+00 -0.69721134731E+03  0.69721134733E+03  0.50400001928E-02 0.  1.
    10030    2    1    2    0    0  0.00000000000E+00  0.00000000000E+00  0.47593775721E+03  0.18703604519E+04  0.18087928215E+04 0.  0.
        2    1    3    3  502    0  0.64964125650E+03  0.58068198025E+03  0.48851255119E+03  0.99893435070E+03  0.25500000920E-02 0. -1.
       -2    1    3    3    0  502 -0.64964125650E+03 -0.58068198025E+03 -0.12574793971E+02  0.87142610116E+03  0.25500000920E-02 0.  1.
</event>
<event>
 5   0  0.6771967E-04  0.1587907E+04  0.7818609E-02  0.8828012E-01
        2   -1    0    0  501    0  0.00000000000E+00  0.00000000000E+00  0.97682891280E+03  0.97682891281E+03  0.25500000920E-02 0.  1.
       -2   -1    0    0    0  501  0.00000000000E+00  0.00000000000E+00 -0.64531461677E+03  0.64531461677E+03  0.25500000920E-02 0. -1.
    10030    2    1    2    0    0  0.00000000000E+00  0.00000000000E+00  0.33151429604E+03  0.16221435296E+04  0.15879067674E+04 0.  0.
        1    1    3    3  502    0  0.67018040404E+03 -0.41311737388E+03  0.60808294519E+02  0.78962357315E+03  0.50400001928E-02 0.  1.
       -1    1    3    3    0  502 -0.67018040404E+03  0.41311737388E+03  0.27070600152E+03  0.83251995643E+03  0.50400001928E-02 0. -1.
</event>
<event>
 5   0  0.3377273E-04  0.1711086E+04  0.7818609E-02  0.8755066E-01
       -1   -1    0    0    0  501  0.00000000000E+00  0.00000000000E+00  0.87291081838E+03  0.87291081839E+03  0.50400001928E-02 0. -1.
        1   -1    0    0  501    0  0.00000000000E+00  0.00000000000E+00 -0.83852118025E+03  0.83852118026E+03  0.50400001928E-02 0.  1.
    10030    2    1    2    0    0  0.00000000000E+00  0.00000000000E+00  0.34389638129E+02  0.17114319987E+04  0.17110864498E+04 0.  0.
        2    1    3    3  502    0  0.18830169156E+03 -0.31641784339E+03  0.78960489684E+03  0.87123686319E+03  0.25500000920E-02 0. -1.
       -2    1    3    3    0  502 -0.18830169156E+03  0.31641784339E+03 -0.75521525871E+03  0.84019513546E+03  0.25500000920E-02 0.  1.
</event>
<event>
 5   0  0.6771967E-04  0.1786432E+04  0.7818609E-02  0.8713548E-01
       -2   -1    0    0    0  501  0.00000000000E+00  0.00000000000E+00  0.13194215130E+04  0.13194215130E+04  0.25500000920E-02 0. -1.
        2   -1    0    0  501    0  0.00000000000E+00  0.00000000000E+00 -0.60468560887E+03  0.60468560887E+03  0.25500000920E-02 0.  1.
    10030    2    1    2    0    0  0.00000000000E+00  0.00000000000E+00  0.71473590410E+03  0.19241071218E+04  0.17864324235E+04 0.  0.
        1    1    3    3  502    0  0.79725353721E+03 -0.25111194759E+03  0.69654105035E+03  0.10880440467E+04  0.50400001928E-02 0. -1.
       -1    1    3    3    0  502 -0.79725353721E+03  0.25111194759E+03  0.18194853748E+02  0.83606307510E+03  0.50400001928E-02 0.  1.
</event>
<event>
 5   0  0.6929121E-04  0.1764805E+04  0.7818609E-02  0.8725243E-01
       -2   -1    0    0    0  501  0.00000000000E+00  0.00000000000E+00  0.83493458140E+03  0.83493458140E+03  0.25500000920E-02 0. -1.
        2   -1    0    0  501    0  0.00000000000E+00  0.00000000000E+00 -0.93256956852E+03  0.93256956852E+03  0.25500000920E-02 0.  1.
    10030    2    1    2    0    0  0.00000000000E+00  0.00000000000E+00 -0.97634987126E+02  0.17675041499E+04  0.17648054650E+04 0.  0.
        3    1    3    3  502    0 -0.48634553578E+03  0.20592041166E+03  0.65915764270E+03  0.84464430635E+03  0.10100000352E+00 0. -1.
       -3    1    3    3    0  502  0.48634553578E+03 -0.20592041166E+03 -0.75679262983E+03  0.92285984357E+03  0.10100000352E+00 0.  1.
</event>
<event>
 5   0  0.6929121E-04  0.1799358E+04  0.7818609E-02  0.8706641E-01
        2   -1    0    0  501    0  0.00000000000E+00  0.00000000000E+00  0.97595921191E+03  0.97595921191E+03  0.25500000920E-02 0. -1.
       -2   -1    0    0    0  501  0.00000000000E+00  0.00000000000E+00 -0.82936114056E+03  0.82936114057E+03  0.25500000920E-02 0.  1.
    10030    2    1    2    0    0  0.00000000000E+00  0.00000000000E+00  0.14659807135E+03  0.18053203525E+04  0.17993583802E+04 0.  0.
        3    1    3    3  502    0 -0.73047543296E+02 -0.82922520412E+03  0.41571014297E+03  0.93046510730E+03  0.10100000352E+00 0. -1.
       -3    1    3    3    0  502  0.73047543296E+02  0.82922520412E+03 -0.26911207163E+03  0.87485524518E+03  0.10100000352E+00 0.  1.
</event>
<event>
 5   0  0.3404261E-04  0.1168319E+04  0.7818609E-02  0.9141048E-01
        1   -1    0    0  501    0  0.00000000000E+00  0.00000000000E+00  0.53922786042E+03  0.53922786044E+03  0.50400001928E-02 0. -1.
       -1   -1    0    0    0  501  0.00000000000E+00  0.00000000000E+00 -0.63283554981E+03  0.63283554983E+03  0.50400001928E-02 0.  1.
    10030    2    1    2    0    0  0.00000000000E+00  0.00000000000E+00 -0.93607689391E+02  0.11720634103E+04  0.11683194076E+04 0.  0.
        1    1    3    3  502    0  0.40407929333E+02 -0.35280008847E+03 -0.51212411639E+03  0.62319484416E+03  0.50400001928E-02 0.  1.
       -1    1    3    3    0  502 -0.40407929333E+02  0.35280008847E+03  0.41851642700E+03  0.54886856611E+03  0.50400001928E-02 0. -1.
</event>
<event>
 5   0  0.3413839E-04  0.1827367E+04  0.7818609E-02  0.8691880E-01
       -1   -1    0    0    0  501  0.00000000000E+00  0.00000000000E+00  0.18504776158E+04  0.18504776158E+04  0.50400001928E-02 0. -1.
        1   -1    0    0  501    0  0.00000000000E+00  0.00000000000E+00 -0.45113623683E+03  0.45113623686E+03  0.50400001928E-02 0.  1.
    10030    2    1    2    0    0  0.00000000000E+00  0.00000000000E+00  0.13993413789E+04  0.23016138526E+04  0.18273669669E+04 0.  0.
        5    1    3    3  502    0 -0.17665525972E+03  0.70881044077E+03  0.84496597052E+01  0.73055650602E+03  0.46999998093E+01 0.  1.
       -5    1    3    3    0  502  0.17665525972E+03 -0.70881044077E+03  0.13908917192E+04  0.15710573466E+04  0.46999998093E+01 0. -1.
</event>
<event>
 5   0  0.6929121E-04  0.1790430E+04  0.7818609E-02  0.8711405E-01
       -2   -1    0    0    0  501  0.00000000000E+00  0.00000000000E+00  0.11592695379E+04  0.11592695379E+04  0.25500000920E-02 0. -1.
        2   -1    0    0  501    0  0.00000000000E+00  0.00000000000E+00 -0.69130606146E+03  0.69130606147E+03  0.25500000920E-02 0.  1.
    10030    2    1    2    0    0  0.00000000000E+00  0.00000000000E+00  0.46796347639E+03  0.18505755993E+04  0.17904301812E+04 0.  0.
        3    1    3    3  502    0 -0.42874460219E+03  0.66553986442E+03  0.66592556828E+03  0.10345154024E+04  0.10100000352E+00 0. -1.
       -3    1    3    3    0  502  0.42874460219E+03 -0.66553986442E+03 -0.19796209189E+03  0.81606019696E+03  0.10100000352E+00 0.  1.
</event>
<event>
 5   0  0.3413839E-04  0.1719362E+04  0.7818609E-02  0.8750398E-01
       -1   -1    0    0    0  501  0.00000000000E+00  0.00000000000E+00  0.45761924532E+03  0.45761924535E+03  0.50400001928E-02 0. -1.
        1   -1    0    0  501    0  0.00000000000E+00  0.00000000000E+00 -0.16149915544E+04  0.16149915544E+04  0.50400001928E-02 0.  1.
    10030    2    1    2    0    0  0.00000000000E+00  0.00000000000E+00 -0.11573723090E+04  0.20726107997E+04  0.17193617611E+04 0.  0.
        5    1    3    3  502    0 -0.68087734014E+03 -0.49490818597E+03 -0.78921323601E+03  0.11538664077E+04  0.46999998093E+01 0.  1.
       -5    1    3    3    0  502  0.68087734014E+03  0.49490818597E+03 -0.36815907303E+03  0.91874439205E+03  0.46999998093E+01 0. -1.
</event>
<event>
 5   0  0.6853162E-04  0.1829825E+04  0.7818609E-02  0.8690598E-01
       -2   -1    0    0    0  501  0.00000000000E+00  0.00000000000E+00  0.70158036829E+03  0.70158036829E+03  0.25500000920E-02 0.  1.
        2   -1    0    0  501    0  0.00000000000E+00  0.00000000000E+00 -0.11931133472E+04  0.11931133472E+04  0.25500000920E-02 0. -1.
    10030    2    1    2    0    0  0.00000000000E+00  0.00000000000E+00 -0.49153297888E+03  0.18946937155E+04  0.18298250206E+04 0.  0.
        2    1    3    3  502    0  0.76187363754E+03 -0.44748552040E+03 -0.49160738475E+03  0.10111243995E+04  0.25500000920E-02 0. -1.
       -2    1    3    3    0  502 -0.76187363754E+03  0.44748552040E+03  0.74405867351E-01  0.88356931595E+03  0.25500000920E-02 0.  1.
</event>
<event>
 5   0  0.3308275E-04  0.1757854E+04  0.7818609E-02  0.8729039E-01
        1   -1    0    0  501    0  0.00000000000E+00  0.00000000000E+00  0.88360502083E+03  0.88360502085E+03  0.50400001928E-02 0.  1.
       -1   -1    0    0    0  501  0.00000000000E+00  0.00000000000E+00 -0.87427333443E+03  0.87427333444E+03  0.50400001928E-02 0. -1.
    10030    2    1    2    0    0  0.00000000000E+00  0.00000000000E+00  0.93316864042E+01  0.17578783553E+04  0.17578535865E+04 0.  0.
        3    1    3    3  502    0  0.10730396336E+03  0.89475095064E+02  0.87242939655E+03  0.88354569512E+03  0.10100000352E+00 0.  1.
       -3    1    3    3    0  502 -0.10730396336E+03 -0.89475095064E+02 -0.86309771015E+03  0.87433266018E+03  0.10100000352E+00 0. -1.
</event>
<event>
 5   0  0.3404261E-04  0.1800255E+04  0.7818609E-02  0.8706164E-01
       -1   -1    0    0    0  501  0.00000000000E+00  0.00000000000E+00  0.70413311416E+03  0.70413311418E+03  0.50400001928E-02 0.  1.
        1   -1    0    0  501    0  0.00000000000E+00  0.00000000000E+00 -0.11506769889E+04  0.11506769889E+04  0.50400001928E-02 0. -1.
    10030    2    1    2    0    0  0.00000000000E+00  0.00000000000E+00 -0.44654387470E+03  0.18548101030E+04  0.18002552837E+04 0.  0.
        1    1    3    3  502    0 -0.37561464114E+03  0.79975197673E+03 -0.46190927179E+02  0.88477295658E+03  0.50400001928E-02 0.  1.
       -1    1    3    3    0  502  0.37561464114E+03 -0.79975197673E+03 -0.40035294752E+03  0.97003714647E+03  0.50400001928E-02 0. -1.
</event>
<event>
 5   0  0.3470962E-04  0.1794262E+04  0.7818609E-02  0.8709357E-01
       -1   -1    0    0    0  501  0.00000000000E+00  0.00000000000E+00  0.70593918949E+03  0.70593918951E+03  0.50400001928E-02 0. -1.
        1   -1    0    0  501    0  0.00000000000E+00  0.00000000000E+00 -0.11401041976E+04  0.11401041976E+04  0.50400001928E-02 0.  1.
    10030    2    1    2    0    0  0.00000000000E+00  0.00000000000E+00 -0.43416500814E+03  0.18460433871E+04  0.17942622252E+04 0.  0.
        4    1    3    3  502    0  0.55166433242E+03  0.34932563163E+03 -0.85004481627E+03  0.10718860644E+04  0.12699999809E+01 0.  1.
       -4    1    3    3    0  502 -0.55166433242E+03 -0.34932563163E+03  0.41587980813E+03  0.77415732270E+03  0.12699999809E+01 0. -1.
</event>
<event>
 5   0  0.6774451E-04  0.1852553E+04  0.7818609E-02  0.8678841E-01
       -2   -1    0    0    0  501  0.00000000000E+00  0.00000000000E+00  0.38169916021E+03  0.38169916022E+03  0.25500000920E-02 0. -1.
        2   -1    0    0  501    0  0.00000000000E+00  0.00000000000E+00 -0.22478131873E+04  0.22478131873E+04  0.25500000920E-02 0.  1.
    10030    2    1    2    0    0  0.00000000000E+00  0.00000000000E+00 -0.18661140271E+04  0.26295123476E+04  0.18525532715E+04 0.  0.
        4    1    3    3  502    0  0.73307823386E+03 -0.35961256257E+03 -0.31230413358E+03  0.87421986758E+03  0.12699999809E+01 0. -1.
       -4    1    3    3    0  502 -0.73307823386E+03  0.35961256257E+03 -0.15538098935E+04  0.17552924800E+04  0.12699999809E+01 0.  1.
</event>
<event>
 5   0  0.3308275E-04  0.1796922E+04  0.7818609E-02  0.8707938E-01
        1   -1    0    0  501    0  0.00000000000E+00  0.00000000000E+00  0.23352313017E+04  0.23352313017E+04  0.50400001928E-02 0.  1.
       -1   -1    0    0    0  501  0.00000000000E+00  0.00000000000E+00 -0.34567561717E+03  0.34567561720E+03  0.50400001928E-02 0. -1.
    10030    2    1    2    0    0  0.00000000000E+00  0.00000000000E+00  0.19895556846E+04  0.26809069189E+04  0.17969223929E+04 0.  0.
        3    1    3    3  502    0 -0.48855170140E+03 -0.36764684563E+03  0.19769545368E+04  0.20693468097E+04  0.10100000352E+00 0.  1.
       -3    1    3    3    0  502  0.48855170140E+03  0.36764684563E+03  0.12601147722E+02  0.61156010920E+03  0.10100000352E+00 0. -1.
</event>
<event>
 5   0  0.3413839E-04  0.1795004E+04  0.7818609E-02  0.8708961E-01
        1   -1    0    0  501    0  0.00000000000E+00  0.00000000000E+00  0.72899442938E+03  0.72899442940E+03  0.50400001928E-02 0. -1.
       -1   -1    0    0    0  501  0.00000000000E+00  0.00000000000E+00 -0.11049605062E+04  0.11049605062E+04  0.50400001928E-02 0.  1.
    10030    2    1    2    0    0  0.00000000000E+00  0.00000000000E+00 -0.37596607680E+03  0.18339549356E+04  0.17950042381E+04 0.  0.
        5    1    3    3  502    0  0.71645415483E+03 -0.15533634922E+03 -0.71695509283E+03  0.10254182720E+04  0.46999998093E+01 0.  1.
       -5    1    3    3    0  502 -0.71645415483E+03  0.15533634922E+03  0.34098901603E+03  0.80853666362E+03  0.46999998093E+01 0. -1.
</event>
<event>
 5   0  0.3470962E-04  0.1845131E+04  0.7818609E-02  0.8682661E-01
        1   -1    0    0  501    0  0.00000000000E+00  0.00000000000E+00  0.18733630408E+04  0.18733630408E+04  0.50400001928E-02 0. -1.
       -1   -1    0    0    0  501  0.00000000000E+00  0.00000000000E+00 -0.45433124466E+03  0.45433124469E+03  0.50400001928E-02 0.  1.
    10030    2    1    2    0    0  0.00000000000E+00  0.00000000000E+00  0.14190317961E+04  0.23276942855E+04  0.18451312821E+04 0.  0.
        4    1    3    3  502    0  0.80613022992E+03 -0.44463735711E+03  0.63406163730E+03  0.11178479770E+04  0.12699999809E+01 0.  1.
       -4    1    3    3    0  502 -0.80613022992E+03  0.44463735711E+03  0.78497015880E+03  0.12098463084E+04  0.12699999809E+01 0. -1.
</event>
<event>
 5   0  0.6853162E-04  0.1420115E+04  0.7818609E-02  0.8939386E-01
        2   -1    0    0  501    0  0.00000000000E+00  0.00000000000E+00  0.12740616771E+04  0.12740616771E+04  0.25500000920E-02 0. -1.
       -2   -1    0    0    0  501  0.00000000000E+00  0.00000000000E+00 -0.39572780882E+03  0.39572780883E+03  0.25500000920E-02 0.  1.
    10030    2    1    2    0    0  0.00000000000E+00  0.00000000000E+00  0.87833386830E+03  0.16697894860E+04  0.14201149753E+04 0.  0.
        2    1    3    3  502    0 -0.19381940451E+02 -0.17420195971E+02 -0.39516532586E+03  0.39602368315E+03  0.25500000920E-02 0.  1.
       -2    1    3    3    0  502  0.19381940451E+02  0.17420195971E+02  0.12734991942E+04  0.12737658028E+04  0.25500000920E-02 0. -1.
</event>
<event>
 5   0  0.6774451E-04  0.1738860E+04  0.7818609E-02  0.8739506E-01
        2   -1    0    0  501    0  0.00000000000E+00  0.00000000000E+00  0.85093969524E+03  0.85093969524E+03  0.25500000920E-02 0. -1.
       -2   -1    0    0    0  501  0.00000000000E+00  0.00000000000E+00 -0.88832218806E+03  0.88832218807E+03  0.25500000920E-02 0.  1.
    10030    2    1    2    0    0  0.00000000000E+00  0.00000000000E+00 -0.37382492824E+02  0.17392618833E+04  0.17388601002E+04 0.  0.
        4    1    3    3  502    0 -0.68086458838E+03  0.53824317431E+03  0.32552385015E+02  0.86852954646E+03  0.12699999809E+01 0. -1.
       -4    1    3    3    0  502  0.68086458838E+03 -0.53824317431E+03 -0.69934877839E+02  0.87073233685E+03  0.12699999809E+01 0.  1.
</event>
<event>
 5   0  0.6774451E-04  0.1823924E+04  0.7818609E-02  0.8693680E-01
       -2   -1    0    0    0  501  0.00000000000E+00  0.00000000000E+00  0.50859382358E+03  0.50859382359E+03  0.25500000920E-02 0.  1.
        2   -1    0    0  501    0  0.00000000000E+00  0.00000000000E+00 -0.16352429162E+04  0.16352429162E+04  0.25500000920E-02 0. -1.
    10030    2    1    2    0    0  0.00000000000E+00  0.00000000000E+00 -0.11266490927E+04  0.21438367398E+04  0.18239237344E+04 0.  0.
        4    1    3    3  502    0 -0.24656823996E+03 -0.64580862640E+03  0.13582318744E+03  0.70449572749E+03  0.12699999809E+01 0.  1.
       -4    1    3    3    0  502  0.24656823996E+03  0.64580862640E+03 -0.12624722801E+04  0.14393410124E+04  0.12699999809E+01 0. -1.
</event>
<event>
 5   0  0.3470962E-04  0.1834820E+04  0.7818609E-02  0.8687999E-01
        1   -1    0    0  501    0  0.00000000000E+00  0.00000000000E+00  0.17122643318E+04  0.17122643318E+04  0.50400001928E-02 0.  1.
       -1   -1    0    0    0  501  0.00000000000E+00  0.00000000000E+00 -0.49153670716E+03  0.49153670719E+03  0.50400001928E-02 0. -1.
    10030    2    1    2    0    0  0.00000000000E+00  0.00000000000E+00  0.12207276247E+04  0.22038010390E+04  0.18348196331E+04 0.  0.
        4    1    3    3  502    0 -0.21467807432E+03  0.47989369786E+03 -0.29266379449E+03  0.60169622431E+03  0.12699999809E+01 0. -1.
       -4    1    3    3    0  502  0.21467807432E+03 -0.47989369786E+03  0.15133914192E+04  0.16021048147E+04  0.12699999809E+01 0.  1.
</event>
<event>
 5   0  0.6853162E-04  0.1835042E+04  0.7818609E-02  0.8687884E-01
        2   -1    0    0  501    0  0.00000000000E+00  0.00000000000E+00  0.16667243301E+04  0.16667243301E+04  0.25500000920E-02 0. -1.
       -2   -1    0    0    0  501  0.00000000000E+00  0.00000000000E+00 -0.50508918037E+03  0.50508918037E+03  0.25500000920E-02 0.  1.
    10030    2    1    2    0    0  0.00000000000E+00  0.00000000000E+00  0.11616351497E+04  0.21718135104E+04  0.18350416080E+04 0.  0.
        2    1    3    3  502    0  0.58389956906E+03 -0.90543990452E+02 -0.24993405733E+03  0.64156367881E+03  0.25500000920E-02 0.  1.
       -2    1    3    3    0  502 -0.58389956906E+03  0.90543990452E+02  0.14115692070E+04  0.15302498316E+04  0.25500000920E-02 0. -1.
</event>
<event>
 5   0  0.6774451E-04  0.1644832E+04  0.7818609E-02  0.8793470E-01
       -2   -1    0    0    0  501  0.00000000000E+00  0.00000000000E+00  0.76529370795E+03  0.76529370796E+03  0.25500000920E-02 0. -1.
        2   -1    0    0  501    0  0.00000000000E+00  0.00000000000E+00 -0.88380179350E+03  0.88380179351E+03  0.25500000920E-02 0.  1.
    10030    2    1    2    0    0  0.00000000000E+00  0.00000000000E+00 -0.11850808555E+03  0.16490955015E+04  0.16448318475E+04 0.  0.
        4    1    3    3  502    0  0.53687931301E+03  0.42331815181E+03  0.39901797030E+03  0.79161518929E+03  0.12699999809E+01 0. -1.
       -4    1    3    3    0  502 -0.53687931301E+03 -0.42331815181E+03 -0.51752605585E+03  0.85748031218E+03  0.12699999809E+01 0.  1.
</event>
<event>
 5   0  0.6547153E-04  0.1821160E+04  0.7818609E-02  0.8695127E-01
       -2   -1    0    0    0  501  0.00000000000E+00  0.00000000000E+00  0.50721524578E+03  0.50721524578E+03  0.25500000920E-02 0.  1.
        2   -1    0    0  501    0  0.00000000000E+00  0.00000000000E+00 -0.16347221117E+04  0.16347221117E+04  0.25500000920E-02 0. -1.
    10030    2    1    2    0    0  0.00000000000E+00  0.00000000000E+00 -0.11275068659E+04  0.21419373575E+04  0.18211600453E+04 0.  0.
        5    1    3    3  502    0 -0.84675160238E+03 -0.22907017284E+03 -0.27644680178E+03  0.91973166980E+03  0.46999998093E+01 0.  1.
       -5    1    3    3    0  502  0.84675160238E+03  0.22907017284E+03 -0.85106006413E+03  0.12222056877E+04  0.46999998093E+01 0. -1.
</event>
<event>
 5   0  0.2467375E-04  0.1793563E+04  0.7818609E-02  0.8709730E-01
       -4   -1    0    0    0  501  0.00000000000E+00  0.00000000000E+00  0.14723502020E+04  0.14723507497E+04  0.12699999809E+01 0.  1.
        4   -1    0    0  501    0  0.00000000000E+00  0.00000000000E+00 -0.54621152147E+03  0.54621299791E+03  0.12699999809E+01 0. -1.
    10030    2    1    2    0    0  0.00000000000E+00  0.00000000000E+00  0.92613868053E+03  0.20185637476E+04  0.17935625854E+04 0.  0.
        3    1    3    3  502    0  0.42489887674E+03  0.73488033505E+03  0.13760521521E+03  0.85995544521E+03  0.10100000352E+00 0.  1.
       -3    1    3    3    0  502 -0.42489887674E+03 -0.73488033505E+03  0.78853346532E+03  0.11586083024E+04  0.10100000352E+00 0. -1.
</event>
<event>
 5   0  0.6547153E-04  0.1809901E+04  0.7818609E-02  0.8701052E-01
       -2   -1    0    0    0  501  0.00000000000E+00  0.00000000000E+00  0.54419587036E+03  0.54419587037E+03  0.25500000920E-02 0.  1.
        2   -1    0    0  501    0  0.00000000000E+00  0.00000000000E+00 -0.15048533812E+04  0.15048533812E+04  0.25500000920E-02 0. -1.
    10030    2    1    2    0    0  0.00000000000E+00  0.00000000000E+00 -0.96065751088E+03  0.20490492516E+04  0.18099005449E+04 0.  0.
        5    1    3    3  502    0 -0.50344363504E+02 -0.37588442708E+03  0.44987541482E+03  0.58841621010E+03  0.46999998093E+01 0.  1.
       -5    1    3    3    0  502  0.50344363504E+02  0.37588442708E+03 -0.14105329257E+04  0.14606330415E+04  0.46999998093E+01 0. -1.
</event>
<event>
 5   0  0.3413839E-04  0.1637126E+04  0.7818609E-02  0.8798059E-01
        1   -1    0    0  501    0  0.00000000000E+00  0.00000000000E+00  0.18309414251E+04  0.18309414252E+04  0.50400001928E-02 0. -1.
       -1   -1    0    0    0  501  0.00000000000E+00  0.00000000000E+00 -0.36595695218E+03  0.36595695222E+03  0.50400001928E-02 0.  1.
    10030    2    1    2    0    0  0.00000000000E+00  0.00000000000E+00  0.14649844730E+04  0.21968983774E+04  0.16371264381E+04 0.  0.
        5    1    3    3  502    0  0.46580973538E+03 -0.67287095200E+03  0.70965484380E+03  0.10832202523E+04  0.46999998093E+01 0.  1.
       -5    1    3    3    0  502 -0.46580973538E+03  0.67287095200E+03  0.75532962916E+03  0.11136781251E+04  0.46999998093E+01 0. -1.
</event>
<event>
 5   0  0.3377273E-04  0.1768223E+04  0.7818609E-02  0.8723383E-01
       -1   -1    0    0    0  501  0.00000000000E+00  0.00000000000E+00  0.68253027171E+03  0.68253027173E+03  0.50400001928E-02 0.  1.
        1   -1    0    0  501    0  0.00000000000E+00  0.00000000000E+00 -0.11452291618E+04  0.11452291618E+04  0.50400001928E-02 0. -1.
    10030    2    1    2    0    0  0.00000000000E+00  0.00000000000E+00 -0.46269889012E+03  0.18277594336E+04  0.17682234825E+04 0.  0.
        2    1    3    3  502    0 -0.35190864350E+03  0.45852921659E+03  0.46017869726E+03  0.73881876617E+03  0.25500000920E-02 0.  1.
       -2    1    3    3    0  502  0.35190864350E+03 -0.45852921659E+03 -0.92287758738E+03  0.10889406674E+04  0.25500000920E-02 0. -1.
</event>
<event>
 5   0  0.6771967E-04  0.1820743E+04  0.7818609E-02  0.8695345E-01
        2   -1    0    0  501    0  0.00000000000E+00  0.00000000000E+00  0.10028281846E+04  0.10028281846E+04  0.25500000920E-02 0.  1.
       -2   -1    0    0    0  501  0.00000000000E+00  0.00000000000E+00 -0.82643938437E+03  0.82643938437E+03  0.25500000920E-02 0. -1.
    10030    2    1    2    0    0  0.00000000000E+00  0.00000000000E+00  0.17638880028E+03  0.18292675690E+04  0.18207434828E+04 0.  0.
        1    1    3    3  502    0 -0.60246340025E+03 -0.55417748678E+03 -0.31204468354E+03  0.87604036439E+03  0.50400001928E-02 0. -1.
       -1    1    3    3    0  502  0.60246340025E+03  0.55417748678E+03  0.48843348382E+03  0.95322720462E+03  0.50400001928E-02 0.  1.
</event>
<event>
 5   0  0.3470962E-04  0.1839429E+04  0.7818609E-02  0.8685608E-01
        1   -1    0    0  501    0  0.00000000000E+00  0.00000000000E+00  0.66051571286E+03  0.66051571288E+03  0.50400001928E-02 0. -1.
       -1   -1    0    0    0  501  0.00000000000E+00  0.00000000000E+00 -0.12806280190E+04  0.12806280190E+04  0.50400001928E-02 0.  1.
    10030    2    1    2    0    0  0.00000000000E+00  0.00000000000E+00 -0.62011230612E+03  0.19411437319E+04  0.18394291820E+04 0.  0.
        4    1    3    3  502    0 -0.47076418042E+03  0.30483348058E+03  0.45917555813E+03  0.72483527131E+03  0.12699999809E+01 0. -1.
       -4    1    3    3    0  502  0.47076418042E+03 -0.30483348058E+03 -0.10792878642E+04  0.12163084606E+04  0.12699999809E+01 0.  1.
</event>
<event>
 5   0  0.6929121E-04  0.2046609E+04  0.7818609E-02  0.8585134E-01
        2   -1    0    0  501    0  0.00000000000E+00  0.00000000000E+00  0.19783733451E+04  0.19783733451E+04  0.25500000920E-02 0.  1.
       -2   -1    0    0    0  501  0.00000000000E+00  0.00000000000E+00 -0.52929945700E+03  0.52929945701E+03  0.25500000920E-02 0. -1.
    10030    2    1    2    0    0  0.00000000000E+00  0.00000000000E+00  0.14490738881E+04  0.25076728021E+04  0.20466088413E+04 0.  0.
        3    1    3    3  502    0  0.47514457976E+03  0.85006746265E+03  0.33944960084E+03  0.10313113519E+04  0.10100000352E+00 0. -1.
       -3    1    3    3    0  502 -0.47514457976E+03 -0.85006746265E+03  0.11096242872E+04  0.14763614502E+04  0.10100000352E+00 0.  1.
</event>
<event>
 5   0  0.3413839E-04  0.1789125E+04  0.7818609E-02  0.8712104E-01
       -1   -1    0    0    0  501  0.00000000000E+00  0.00000000000E+00  0.80520998916E+03  0.80520998917E+03  0.50400001928E-02 0.  1.
        1   -1    0    0  501    0  0.00000000000E+00  0.00000000000E+00 -0.99383028726E+03  0.99383028727E+03  0.50400001928E-02 0. -1.
    10030    2    1    2    0    0  0.00000000000E+00  0.00000000000E+00 -0.18862029810E+03  0.17990402764E+04  0.17891250094E+04 0.  0.
        5    1    3    3  502    0 -0.73189077250E+03 -0.51422253130E+03 -0.10582218942E+03  0.90072711758E+03  0.46999998093E+01 0.  1.
       -5    1    3    3    0  502  0.73189077250E+03  0.51422253130E+03 -0.82798108680E+02  0.89831315886E+03  0.46999998093E+01 0. -1.
</event>
<event>
 5   0  0.3308275E-04  0.1791918E+04  0.7818609E-02  0.8710609E-01
        1   -1    0    0  501    0  0.00000000000E+00  0.00000000000E+00  0.84672504450E+03  0.84672504451E+03  0.50400001928E-02 0. -1.
       -1   -1    0    0    0  501  0.00000000000E+00  0.00000000000E+00 -0.94805603724E+03  0.94805603726E+03  0.50400001928E-02 0.  1.
    10030    2    1    2    0    0  0.00000000000E+00  0.00000000000E+00 -0.10133099274E+03  0.17947810818E+04  0.17919182909E+04 0.  0.
        3    1    3    3  502    0  0.15887168592E+03 -0.76182707747E+03  0.39402813305E+03  0.87228372012E+03  0.10100000352E+00 0. -1.
       -3    1    3    3    0  502 -0.15887168592E+03  0.76182707747E+03 -0.49535912580E+03  0.92249736165E+03  0.10100000352E+00 0.  1.
</event>
<event>
 5   0  0.2467375E-04  0.1797211E+04  0.7818609E-02  0.8707784E-01
        3   -1    0    0  501    0  0.00000000000E+00  0.00000000000E+00  0.68065227129E+03  0.68065227878E+03  0.10100000352E+00 0.  1.
       -3   -1    0    0    0  501  0.00000000000E+00  0.00000000000E+00 -0.11863498145E+04  0.11863498188E+04  0.10100000352E+00 0. -1.
    10030    2    1    2    0    0  0.00000000000E+00  0.00000000000E+00 -0.50569754322E+03  0.18670020976E+04  0.17972108466E+04 0.  0.
        4    1    3    3  502    0 -0.56131731472E+03  0.32410230198E+03 -0.89940922682E+03  0.11086288830E+04  0.12699999809E+01 0. -1.
       -4    1    3    3    0  502  0.56131731472E+03 -0.32410230198E+03  0.39371168360E+03  0.75837321462E+03  0.12699999809E+01 0.  1.
</event>
<event>
 5   0  0.6853162E-04  0.1770445E+04  0.7818609E-02  0.8722176E-01
        2   -1    0    0  501    0  0.00000000000E+00  0.00000000000E+00  0.62175434579E+03  0.62175434580E+03  0.25500000920E-02 0. -1.
       -2   -1    0    0    0  501  0.00000000000E+00  0.00000000000E+00 -0.12603352966E+04  0.12603352966E+04  0.25500000920E-02 0.  1.
    10030    2    1    2    0    0  0.00000000000E+00  0.00000000000E+00 -0.63858095081E+03  0.18820896424E+04  0.17704450828E+04 0.  0.
        2    1    3    3  502    0  0.42744728320E+03  0.48119226875E+03 -0.96536678283E+03  0.11602543707E+04  0.25500000920E-02 0.  1.
       -2    1    3    3    0  502 -0.42744728320E+03 -0.48119226875E+03  0.32678583202E+03  0.72183527167E+03  0.25500000920E-02 0. -1.
</event>
<event>
 5   0  0.6547153E-04  0.1733289E+04  0.7818609E-02  0.8742603E-01
        2   -1    0    0  501    0  0.00000000000E+00  0.00000000000E+00  0.88176458265E+03  0.88176458265E+03  0.25500000920E-02 0.  1.
       -2   -1    0    0    0  501  0.00000000000E+00  0.00000000000E+00 -0.85178398891E+03  0.85178398891E+03  0.25500000920E-02 0. -1.
    10030    2    1    2    0    0  0.00000000000E+00  0.00000000000E+00  0.29980593737E+02  0.17335485716E+04  0.17332893048E+04 0.  0.
        5    1    3    3  502    0 -0.76354571447E+03 -0.10068441907E+03 -0.38244988447E+03  0.85990081664E+03  0.46999998093E+01 0. -1.
       -5    1    3    3    0  502  0.76354571447E+03  0.10068441907E+03  0.41243047820E+03  0.87364775492E+03  0.46999998093E+01 0.  1.
</event>
<event>
 5   0  0.3470962E-04  0.1880430E+04  0.7818609E-02  0.8664659E-01
        1   -1    0    0  501    0  0.00000000000E+00  0.00000000000E+00  0.11567302645E+04  0.11567302645E+04  0.50400001928E-02 0.  1.
       -1   -1    0    0    0  501  0.00000000000E+00  0.00000000000E+00 -0.76422695706E+03  0.76422695708E+03  0.50400001928E-02 0. -1.
    10030    2    1    2    0    0  0.00000000000E+00  0.00000000000E+00  0.39250330746E+03  0.19209572216E+04  0.18804302170E+04 0.  0.
        4    1    3    3  502    0 -0.34937790004E+03  0.54847008450E+03  0.88994373856E+03  0.11022185905E+04  0.12699999809E+01 0.  1.
       -4    1    3    3    0  502  0.34937790004E+03 -0.54847008450E+03 -0.49744043109E+03  0.81873863108E+03  0.12699999809E+01 0. -1.
</event>
<event>
 5   0  0.6774451E-04  0.1774385E+04  0.7818609E-02  0.8720041E-01
        2   -1    0    0  501    0  0.00000000000E+00  0.00000000000E+00  0.14196484482E+04  0.14196484482E+04  0.25500000920E-02 0.  1.
       -2   -1    0    0    0  501  0.00000000000E+00  0.00000000000E+00 -0.55444042536E+03  0.55444042536E+03  0.25500000920E-02 0. -1.
    10030    2    1    2    0    0  0.00000000000E+00  0.00000000000E+00  0.86520802288E+03  0.19740888736E+04  0.17743849520E+04 0.  0.
        4    1    3    3  502    0  0.62667710269E+03  0.61606412376E+03  0.56817832583E+03  0.10464642461E+04  0.12699999809E+01 0.  1.
       -4    1    3    3    0  502 -0.62667710269E+03 -0.61606412376E+03  0.29702969705E+03  0.92762462745E+03  0.12699999809E+01 0. -1.
</event>
<event>
 5   0  0.3413839E-04  0.1481219E+04  0.7818609E-02  0.8897039E-01
       -1   -1    0    0    0  501  0.00000000000E+00  0.00000000000E+00  0.61586350603E+03  0.61586350605E+03  0.50400001928E-02 0.  1.
        1   -1    0    0  501    0  0.00000000000E+00  0.00000000000E+00 -0.89062360525E+03  0.89062360526E+03  0.50400001928E-02 0. -1.
    10030    2    1    2    0    0  0.00000000000E+00  0.00000000000E+00 -0.27476009922E+03  0.15064871113E+04  0.14812191953E+04 0.  0.
        5    1    3    3  502    0 -0.44066928802E+03 -0.22663052189E+03 -0.69715955715E+03  0.85533873581E+03  0.46999998093E+01 0. -1.
       -5    1    3    3    0  502  0.44066928802E+03  0.22663052189E+03  0.42239945793E+03  0.65114837550E+03  0.46999998093E+01 0.  1.
</event>
<event>
 5   0  0.6853162E-04  0.1778871E+04  0.7818609E-02  0.8717617E-01
       -2   -1    0    0    0  501  0.00000000000E+00  0.00000000000E+00  0.65576113348E+03  0.65576113349E+03  0.25500000920E-02 0.  1.
        2   -1    0    0  501    0  0.00000000000E+00  0.00000000000E+00 -0.12063780191E+04  0.12063780191E+04  0.25500000920E-02 0. -1.
    10030    2    1    2    0    0  0.00000000000E+00  0.00000000000E+00 -0.55061688560E+03  0.18621391526E+04  0.17788713469E+04 0.  0.
        2    1    3    3  502    0  0.75006344743E+03 -0.47507579616E+03 -0.33073628029E+03  0.94745906211E+03  0.25500000920E-02 0. -1.
       -2    1    3    3    0  502 -0.75006344743E+03  0.47507579616E+03 -0.21988060531E+03  0.91468009045E+03  0.25500000920E-02 0.  1.
</event>
<event>
 5   0  0.6929121E-04  0.1723733E+04  0.7818609E-02  0.8747943E-01
       -2   -1    0    0    0  501  0.00000000000E+00  0.00000000000E+00  0.19014059398E+04  0.19014059398E+04  0.25500000920E-02 0.  1.
        2   -1    0    0  501    0  0.00000000000E+00  0.00000000000E+00 -0.39066573682E+03  0.39066573683E+03  0.25500000920E-02 0. -1.
    10030    2    1    2    0    0  0.00000000000E+00  0.00000000000E+00  0.15107402029E+04  0.22920716766E+04  0.17237333349E+04 0.  0.
        3    1    3    3  502    0 -0.53815403837E+03 -0.38888351492E+03  0.14860764478E+04  0.16276557916E+04  0.10100000352E+00 0.  1.
       -3    1    3    3    0  502  0.53815403837E+03  0.38888351492E+03  0.24663755186E+02  0.66441588498E+03  0.10100000352E+00 0. -1.
</event>
<event>
 5   0  0.3377273E-04  0.1744370E+04  0.7818609E-02  0.8736455E-01
        1   -1    0    0  501    0  0.00000000000E+00  0.00000000000E+00  0.10363117389E+04  0.10363117389E+04  0.50400001928E-02 0.  1.
       -1   -1    0    0    0  501  0.00000000000E+00  0.00000000000E+00 -0.73405200436E+03  0.73405200438E+03  0.50400001928E-02 0. -1.
    10030    2    1    2    0    0  0.00000000000E+00  0.00000000000E+00  0.30225973457E+03  0.17703637433E+04  0.17443700400E+04 0.  0.
        2    1    3    3  502    0 -0.22494578847E+02 -0.21050666801E+03 -0.70757973970E+03  0.73857169685E+03  0.25500000920E-02 0. -1.
       -2    1    3    3    0  502  0.22494578847E+02  0.21050666801E+03  0.10098394743E+04  0.10317920465E+04  0.25500000920E-02 0.  1.
</event>
<event>
 5   0  0.3413839E-04  0.1847701E+04  0.7818609E-02  0.8681336E-01
        1   -1    0    0  501    0  0.00000000000E+00  0.00000000000E+00  0.63307400205E+03  0.63307400207E+03  0.50400001928E-02 0. -1.
       -1   -1    0    0    0  501  0.00000000000E+00  0.00000000000E+00 -0.13481831487E+04  0.13481831487E+04  0.50400001928E-02 0.  1.
    10030    2    1    2    0    0  0.00000000000E+00  0.00000000000E+00 -0.71510914663E+03  0.19812571508E+04  0.18477009514E+04 0.  0.
        5    1    3    3  502    0 -0.78614326696E+03 -0.36022776253E+03 -0.89517423736E+01  0.86480489174E+03  0.46999998093E+01 0. -1.
       -5    1    3    3    0  502  0.78614326696E+03  0.36022776253E+03 -0.70615740425E+03  0.11164522590E+04  0.46999998093E+01 0.  1.
</event>
<event>
 5   0  0.6929121E-04  0.1767053E+04  0.7818609E-02  0.8724019E-01
        2   -1    0    0  501    0  0.00000000000E+00  0.00000000000E+00  0.99510247166E+03  0.99510247167E+03  0.25500000920E-02 0.  1.
       -2   -1    0    0    0  501  0.00000000000E+00  0.00000000000E+00 -0.78446061095E+03  0.78446061096E+03  0.25500000920E-02 0. -1.
    10030    2    1    2    0    0  0.00000000000E+00  0.00000000000E+00  0.21064186071E+03  0.17795630826E+04  0.17670525662E+04 0.  0.
        3    1    3    3  502    0 -0.81650216261E+03  0.33552077951E+03  0.68062953779E+02  0.88537141975E+03  0.10100000352E+00 0.  1.
       -3    1    3    3    0  502  0.81650216261E+03 -0.33552077951E+03  0.14257890693E+03  0.89419166287E+03  0.10100000352E+00 0. -1.
</event>
<event>
 5   0  0.6929121E-04  0.1036724E+04  0.7818609E-02  0.9269159E-01
       -2   -1    0    0    0  501  0.00000000000E+00  0.00000000000E+00  0.43568405823E+03  0.43568405824E+03  0.25500000920E-02 0. -1.
        2   -1    0    0  501    0  0.00000000000E+00  0.00000000000E+00 -0.61672910723E+03  0.61672910724E+03  0.25500000920E-02 0.  1.
    10030    2    1    2    0    0  0.00000000000E+00  0.00000000000E+00 -0.18104504900E+03  0.10524131655E+04  0.10367237632E+04 0.  0.
        3    1    3    3  502    0 -0.17376281454E+02  0.61438803180E+02 -0.61272207678E+03  0.61603978384E+03  0.10100000352E+00 0.  1.
       -3    1    3    3    0  502  0.17376281454E+02 -0.61438803180E+02  0.43167702778E+03  0.43637338165E+03  0.10100000352E+00 0. -1.
</event>
<event>
 5   0  0.6853162E-04  0.1777179E+04  0.7818609E-02  0.8718530E-01
        2   -1    0    0  501    0  0.00000000000E+00  0.00000000000E+00  0.68154864774E+03  0.68154864774E+03  0.25500000920E-02 0.  1.
       -2   -1    0    0    0  501  0.00000000000E+00  0.00000000000E+00 -0.11585255640E+04  0.11585255640E+04  0.25500000920E-02 0. -1.
    10030    2    1    2    0    0  0.00000000000E+00  0.00000000000E+00 -0.47697691629E+03  0.18400742118E+04  0.17771792611E+04 0.  0.
        2    1    3    3  502    0  0.51239106898E+03  0.21234113614E+01 -0.99015788462E+03  0.11148819457E+04  0.25500000920E-02 0. -1.
       -2    1    3    3    0  502 -0.51239106898E+03 -0.21234113614E+01  0.51318096833E+03  0.72519226603E+03  0.25500000920E-02 0.  1.
</event>
<event>
 5   0  0.3404261E-04  0.1629779E+04  0.7818609E-02  0.8802460E-01
        1   -1    0    0  501    0  0.00000000000E+00  0.00000000000E+00  0.22422556445E+04  0.22422556445E+04  0.50400001928E-02 0. -1.
       -1   -1    0    0    0  501  0.00000000000E+00  0.00000000000E+00 -0.29615028745E+03  0.29615028749E+03  0.50400001928E-02 0.  1.
    10030    2    1    2    0    0  0.00000000000E+00  0.00000000000E+00  0.19461053571E+04  0.25384059320E+04  0.16297787012E+04 0.  0.
        1    1    3    3  502    0 -0.30783198255E+03  0.67369799729E+03  0.44392093836E+03  0.86353651953E+03  0.50400001928E-02 0.  1.
       -1    1    3    3    0  502  0.30783198255E+03 -0.67369799729E+03  0.15021844187E+04  0.16748694125E+04  0.50400001928E-02 0. -1.
</event>
<event>
 5   0  0.6774451E-04  0.1798273E+04  0.7818609E-02  0.8707218E-01
       -2   -1    0    0    0  501  0.00000000000E+00  0.00000000000E+00  0.77657915175E+03  0.77657915176E+03  0.25500000920E-02 0.  1.
        2   -1    0    0  501    0  0.00000000000E+00  0.00000000000E+00 -0.10410353359E+04  0.10410353359E+04  0.25500000920E-02 0. -1.
    10030    2    1    2    0    0  0.00000000000E+00  0.00000000000E+00 -0.26445618410E+03  0.18176144876E+04  0.17982728804E+04 0.  0.
        4    1    3    3  502    0  0.63636647483E+03  0.35829647535E+03  0.39791885872E+03  0.83167282363E+03  0.12699999809E+01 0.  1.
       -4    1    3    3    0  502 -0.63636647483E+03 -0.35829647535E+03 -0.66237504282E+03  0.98594166399E+03  0.12699999809E+01 0. -1.
</event>
<event>
 5   0  0.6929121E-04  0.1799622E+04  0.7818609E-02  0.8706501E-01
        2   -1    0    0  501    0  0.00000000000E+00  0.00000000000E+00  0.19551484257E+04  0.19551484257E+04  0.25500000920E-02 0.  1.
       -2   -1    0    0    0  501  0.00000000000E+00  0.00000000000E+00 -0.41411671586E+03  0.41411671587E+03  0.25500000920E-02 0. -1.
    10030    2    1    2    0    0  0.00000000000E+00  0.00000000000E+00  0.15410317099E+04  0.23692651416E+04  0.17996217882E+04 0.  0.
        3    1    3    3  502    0  0.39932382188E+03  0.80618256220E+03  0.79214058244E+03  0.11986978564E+04  0.10100000352E+00 0. -1.
       -3    1    3    3    0  502 -0.39932382188E+03 -0.80618256220E+03  0.74889112743E+03  0.11705672852E+04  0.10100000352E+00 0.  1.
</event>
<event>
 5   0  0.3377273E-04  0.1798628E+04  0.7818609E-02  0.8707029E-01
       -1   -1    0    0    0  501  0.00000000000E+00  0.00000000000E+00  0.52007094259E+03  0.52007094262E+03  0.50400001928E-02 0. -1.
        1   -1    0    0  501    0  0.00000000000E+00  0.00000000000E+00 -0.15551065184E+04  0.15551065184E+04  0.50400001928E-02 0.  1.
    10030    2    1    2    0    0  0.00000000000E+00  0.00000000000E+00 -0.10350355758E+04  0.20751774611E+04  0.17986280470E+04 0.  0.
        2    1    3    3  502    0  0.46560492191E+02  0.25870028148E+03 -0.15097960317E+04  0.15325070219E+04  0.25500000920E-02 0.  1.
       -2    1    3    3    0  502 -0.46560492191E+02 -0.25870028148E+03  0.47476045582E+03  0.54267043911E+03  0.25500000920E-02 0. -1.
</event>
<event>
 5   0  0.3404261E-04  0.1734483E+04  0.7818609E-02  0.8741938E-01
        1   -1    0    0  501    0  0.00000000000E+00  0.00000000000E+00  0.86209087449E+03  0.86209087451E+03  0.50400001928E-02 0. -1.
       -1   -1    0    0    0  501  0.00000000000E+00  0.00000000000E+00 -0.87242247129E+03  0.87242247131E+03  0.50400001928E-02 0.  1.
    10030    2    1    2    0    0  0.00000000000E+00  0.00000000000E+00 -0.10331596801E+02  0.17345133458E+04  0.17344825756E+04 0.  0.
        1    1    3    3  502    0 -0.75261645519E+03 -0.13852622124E+02 -0.43585200503E+03  0.86982204737E+03  0.50400001928E-02 0.  1.
       -1    1    3    3    0  502  0.75261645519E+03  0.13852622124E+02  0.42552040823E+03  0.86469129845E+03  0.50400001928E-02 0. -1.
</event>
<event>
 5   0  0.6771967E-04  0.1945687E+04  0.7818609E-02  0.8632443E-01
       -2   -1    0    0    0  501  0.00000000000E+00  0.00000000000E+00  0.61370446732E+03  0.61370446732E+03  0.25500000920E-02 0.  1.
        2   -1    0    0  501    0  0.00000000000E+00  0.00000000000E+00 -0.15421507825E+04  0.15421507826E+04  0.25500000920E-02 0. -1.
    10030    2    1    2    0    0  0.00000000000E+00  0.00000000000E+00 -0.92844631523E+03  0.21558552499E+04  0.19456873588E+04 0.  0.
        1    1    3    3  502    0 -0.92574194310E+03  0.29263721805E+03 -0.39600907431E+03  0.10485503677E+04  0.50400001928E-02 0. -1.
       -1    1    3    3    0  502  0.92574194310E+03 -0.29263721805E+03 -0.53243724092E+03  0.11073048822E+04  0.50400001928E-02 0.  1.
</event>
<event>
 5   0  0.3413839E-04  0.1800445E+04  0.7818609E-02  0.8706063E-01
       -1   -1    0    0    0  501  0.00000000000E+00  0.00000000000E+00  0.48819108177E+03  0.48819108180E+03  0.50400001928E-02 0. -1.
        1   -1    0    0  501    0  0.00000000000E+00  0.00000000000E+00 -0.16600066809E+04  0.16600066809E+04  0.50400001928E-02 0.  1.
    10030    2    1    2    0    0  0.00000000000E+00  0.00000000000E+00 -0.11718155992E+04  0.21481977627E+04  0.18004448976E+04 0.  0.
        5    1    3    3  502    0  0.43625818899E+03 -0.69608376643E+03 -0.14666625249E+03  0.83449799099E+03  0.46999998093E+01 0. -1.
       -5    1    3    3    0  502 -0.43625818899E+03  0.69608376643E+03 -0.10251493467E+04  0.13136997718E+04  0.46999998093E+01 0.  1.
</event>
<event>
 5   0  0.3404261E-04  0.1535486E+04  0.7818609E-02  0.8861192E-01
       -1   -1    0    0    0  501  0.00000000000E+00  0.00000000000E+00  0.29764340816E+03  0.29764340820E+03  0.50400001928E-02 0. -1.
        1   -1    0    0  501    0  0.00000000000E+00  0.00000000000E+00 -0.19803199467E+04  0.19803199467E+04  0.50400001928E-02 0.  1.
    10030    2    1    2    0    0  0.00000000000E+00  0.00000000000E+00 -0.16826765386E+04  0.22779633549E+04  0.15354858231E+04 0.  0.
        1    1    3    3  502    0 -0.70669664084E+03 -0.11658523943E+03 -0.12514438520E+04  0.14419167712E+04  0.50400001928E-02 0.  1.
       -1    1    3    3    0  502  0.70669664084E+03  0.11658523943E+03 -0.43123268654E+03  0.83604658375E+03  0.50400001928E-02 0. -1.
</event>
<event>
 5   0  0.6929121E-04  0.1781731E+04  0.7818609E-02  0.8716075E-01
        2   -1    0    0  501    0  0.00000000000E+00  0.00000000000E+00  0.65813591255E+03  0.65813591255E+03  0.25500000920E-02 0. -1.
       -2   -1    0    0    0  501  0.00000000000E+00  0.00000000000E+00 -0.12058934289E+04  0.12058934289E+04  0.25500000920E-02 0.  1.
    10030    2    1    2    0    0  0.00000000000E+00  0.00000000000E+00 -0.54775751635E+03  0.18640293415E+04  0.17817314862E+04 0.  0.
        3    1    3    3  502    0  0.59852279771E+03  0.13508259934E+03 -0.94959502929E+03  0.11305784262E+04  0.10100000352E+00 0.  1.
       -3    1    3    3    0  502 -0.59852279771E+03 -0.13508259934E+03  0.40183751294E+03  0.73345091522E+03  0.10100000352E+00 0. -1.
</event>
<event>
 5   0  0.3404261E-04  0.1958755E+04  0.7818609E-02  0.8626151E-01
       -1   -1    0    0    0  501  0.00000000000E+00  0.00000000000E+00  0.12650577384E+04  0.12650577384E+04  0.50400001928E-02 0. -1.
        1   -1    0    0  501    0  0.00000000000E+00  0.00000000000E+00 -0.75821067868E+03  0.75821067870E+03  0.50400001928E-02 0.  1.
    10030    2    1    2    0    0  0.00000000000E+00  0.00000000000E+00  0.50684705971E+03  0.20232684171E+04  0.19587549989E+04 0.  0.
        1    1    3    3  502    0  0.40735571331E+03  0.39463936354E+03  0.10781576265E+04  0.12182375679E+04  0.50400001928E-02 0. -1.
       -1    1    3    3    0  502 -0.40735571331E+03 -0.39463936354E+03 -0.57131056674E+03  0.80503084917E+03  0.50400001928E-02 0.  1.
</event>
<event>
 5   0  0.3404261E-04  0.1829380E+04  0.7818609E-02  0.8690830E-01
       -1   -1    0    0    0  501  0.00000000000E+00  0.00000000000E+00  0.13220411215E+04  0.13220411216E+04  0.50400001928E-02 0. -1.
        1   -1    0    0  501    0  0.00000000000E+00  0.00000000000E+00 -0.63285291830E+03  0.63285291832E+03  0.50400001928E-02 0.  1.
    10030    2    1    2    0    0  0.00000000000E+00  0.00000000000E+00  0.68918820325E+03  0.19548940399E+04  0.18293797658E+04 0.  0.
        1    1    3    3  502    0  0.70760217881E+02 -0.99132238043E+02  0.13133371423E+04  0.13189725768E+04  0.50400001928E-02 0. -1.
       -1    1    3    3    0  502 -0.70760217881E+02  0.99132238043E+02 -0.62414893904E+03  0.63592146306E+03  0.50400001928E-02 0.  1.
</event>
<event>
 5   0  0.3377273E-04  0.1823459E+04  0.7818609E-02  0.8693923E-01
       -1   -1    0    0    0  501  0.00000000000E+00  0.00000000000E+00  0.96934735775E+03  0.96934735777E+03  0.50400001928E-02 0.  1.
        1   -1    0    0  501    0  0.00000000000E+00  0.00000000000E+00 -0.85753653811E+03  0.85753653812E+03  0.50400001928E-02 0. -1.
    10030    2    1    2    0    0  0.00000000000E+00  0.00000000000E+00  0.11181081965E+03  0.18268838959E+04  0.18234591056E+04 0.  0.
        2    1    3    3  502    0 -0.38699230642E+03 -0.16629422327E+02 -0.77099995139E+03  0.86283283895E+03  0.25500000920E-02 0. -1.
       -2    1    3    3    0  502  0.38699230642E+03  0.16629422327E+02  0.88281077104E+03  0.96405105694E+03  0.25500000920E-02 0.  1.
</event>
<event>
 5   0  0.6771967E-04  0.1806385E+04  0.7818609E-02  0.8702911E-01
        2   -1    0    0  501    0  0.00000000000E+00  0.00000000000E+00  0.97180361720E+03  0.97180361721E+03  0.25500000920E-02 0. -1.
       -2   -1    0    0    0  501  0.00000000000E+00  0.00000000000E+00 -0.83942541344E+03  0.83942541345E+03  0.25500000920E-02 0.  1.
    10030    2    1    2    0    0  0.00000000000E+00  0.00000000000E+00  0.13237820376E+03  0.18112290307E+04  0.18063849569E+04 0.  0.
        1    1    3    3  502    0 -0.63311913889E+03  0.14150570799E+03  0.69627933724E+03  0.95166623609E+03  0.50400001928E-02 0. -1.
       -1    1    3    3    0  502  0.63311913889E+03 -0.14150570799E+03 -0.56390113348E+03  0.85956279456E+03  0.50400001928E-02 0.  1.
</event>
<event>
 5   0  0.2467375E-04  0.1042100E+04  0.7818609E-02  0.9263538E-01
        3   -1    0    0  501    0  0.00000000000E+00  0.00000000000E+00  0.10043002996E+04  0.10043003047E+04  0.10100000352E+00 0. -1.
       -3   -1    0    0    0  501  0.00000000000E+00  0.00000000000E+00 -0.27033082613E+03  0.27033084500E+03  0.10100000352E+00 0.  1.
    10030    2    1    2    0    0  0.00000000000E+00  0.00000000000E+00  0.73396947345E+03  0.12746311497E+04  0.10421004653E+04 0.  0.
        2    1    3    3  502    0 -0.36750577978E+03  0.33103146380E+03  0.56741131189E+03  0.75272699238E+03  0.25500000920E-02 0. -1.
       -2    1    3    3    0  502  0.36750577978E+03 -0.33103146380E+03  0.16655816156E+03  0.52190415728E+03  0.25500000920E-02 0.  1.
</event>
<event>
 5   0  0.6929121E-04  0.1815876E+04  0.7818609E-02  0.8697902E-01
        2   -1    0    0  501    0  0.00000000000E+00  0.00000000000E+00  0.25996385510E+04  0.25996385510E+04  0.25500000920E-02 0.  1.
       -2   -1    0    0    0  501  0.00000000000E+00  0.00000000000E+00 -0.31710217490E+03  0.31710217491E+03  0.25500000920E-02 0. -1.
    10030    2    1    2    0    0  0.00000000000E+00  0.00000000000E+00  0.22825363761E+04  0.29167407259E+04  0.18158755888E+04 0.  0.
        3    1    3    3  502    0 -0.15905501590E+02 -0.57137177724E+03  0.22743624272E+04  0.23450891568E+04  0.10100000352E+00 0.  1.
       -3    1    3    3    0  502  0.15905501590E+02  0.57137177724E+03  0.81739488616E+01  0.57165156909E+03  0.10100000352E+00 0. -1.
</event>
<event>
 5   0  0.6853162E-04  0.1692290E+04  0.7818609E-02  0.8765774E-01
        2   -1    0    0  501    0  0.00000000000E+00  0.00000000000E+00  0.79726000892E+03  0.79726000893E+03  0.25500000920E-02 0.  1.
       -2   -1    0    0    0  501  0.00000000000E+00  0.00000000000E+00 -0.89802763786E+03  0.89802763786E+03  0.25500000920E-02 0. -1.
    10030    2    1    2    0    0  0.00000000000E+00  0.00000000000E+00 -0.10076762893E+03  0.16952876468E+04  0.16922901909E+04 0.  0.
        2    1    3    3  502    0 -0.28387432581E+02  0.70496605733E+03  0.41753937668E+03  0.81983054310E+03  0.25500000920E-02 0. -1.
       -2    1    3    3    0  502  0.28387432581E+02 -0.70496605733E+03 -0.51830700561E+03  0.87545710368E+03  0.25500000920E-02 0.  1.
</event>
<event>
 5   0  0.6774451E-04  0.1786112E+04  0.7818609E-02  0.8713720E-01
       -2   -1    0    0    0  501  0.00000000000E+00  0.00000000000E+00  0.95107455225E+03  0.95107455225E+03  0.25500000920E-02 0.  1.
        2   -1    0    0  501    0  0.00000000000E+00  0.00000000000E+00 -0.83857671548E+03  0.83857671548E+03  0.25500000920E-02 0. -1.
    10030    2    1    2    0    0  0.00000000000E+00  0.00000000000E+00  0.11249783677E+03  0.17896512677E+04  0.17861119497E+04 0.  0.
        4    1    3    3  502    0  0.49825735672E+03 -0.69471670986E+03 -0.20244025645E+03  0.87856438058E+03  0.12699999809E+01 0. -1.
       -4    1    3    3    0  502 -0.49825735672E+03  0.69471670986E+03  0.31493809322E+03  0.91108688715E+03  0.12699999809E+01 0.  1.
</event>
<event>
 5   0  0.6929121E-04  0.1806490E+04  0.7818609E-02  0.8702856E-01
       -2   -1    0    0    0  501  0.00000000000E+00  0.00000000000E+00  0.93847570174E+03  0.93847570174E+03  0.25500000920E-02 0. -1.
        2   -1    0    0  501    0  0.00000000000E+00  0.00000000000E+00 -0.86933665344E+03  0.86933665345E+03  0.25500000920E-02 0.  1.
    10030    2    1    2    0    0  0.00000000000E+00  0.00000000000E+00  0.69139048295E+02  0.18078123552E+04  0.18064897740E+04 0.  0.
        3    1    3    3  502    0  0.46748273610E+03 -0.22696300994E+03  0.77389251238E+03  0.93218128460E+03  0.10100000352E+00 0. -1.
       -3    1    3    3    0  502 -0.46748273610E+03  0.22696300994E+03 -0.70475346409E+03  0.87563107059E+03  0.10100000352E+00 0.  1.
</event>
<event>
 5   0  0.3404261E-04  0.1801730E+04  0.7818609E-02  0.8705380E-01
        1   -1    0    0  501    0  0.00000000000E+00  0.00000000000E+00  0.92287708403E+03  0.92287708404E+03  0.50400001928E-02 0. -1.
       -1   -1    0    0    0  501  0.00000000000E+00  0.00000000000E+00 -0.87937785784E+03  0.87937785785E+03  0.50400001928E-02 0.  1.
    10030    2    1    2    0    0  0.00000000000E+00  0.00000000000E+00  0.43499226191E+02  0.18022549419E+04  0.18017299167E+04 0.  0.
        1    1    3    3  502    0  0.84032670370E+03 -0.29308180461E+03  0.16147481906E+03  0.90449987859E+03  0.50400001928E-02 0. -1.
       -1    1    3    3    0  502 -0.84032670370E+03  0.29308180461E+03 -0.11797559287E+03  0.89775506330E+03  0.50400001928E-02 0.  1.
</event>
<event>
 5   0  0.2467375E-04  0.1769594E+04  0.7818609E-02  0.8722638E-01
       -3   -1    0    0    0  501  0.00000000000E+00  0.00000000000E+00  0.17574782994E+04  0.17574783023E+04  0.10100000352E+00 0.  1.
        3   -1    0    0  501    0  0.00000000000E+00  0.00000000000E+00 -0.44544806613E+03  0.44544807758E+03  0.10100000352E+00 0. -1.
    10030    2    1    2    0    0  0.00000000000E+00  0.00000000000E+00  0.13120302333E+04  0.22029263799E+04  0.17695935415E+04 0.  0.
        2    1    3    3  502    0  0.81671084801E+03  0.24589160323E+03  0.36304279011E+03  0.92697322359E+03  0.25500000920E-02 0. -1.
       -2    1    3    3    0  502 -0.81671084801E+03 -0.24589160323E+03  0.94898744319E+03  0.12759531563E+04  0.25500000920E-02 0.  1.
</event>
<event>
 5   0  0.2467375E-04  0.1073479E+04  0.7818609E-02  0.9231433E-01
        3   -1    0    0  501    0  0.00000000000E+00  0.00000000000E+00  0.39530587804E+03  0.39530589094E+03  0.10100000352E+00 0. -1.
       -3   -1    0    0    0  501  0.00000000000E+00  0.00000000000E+00 -0.72877602105E+03  0.72877602805E+03  0.10100000352E+00 0.  1.
    10030    2    1    2    0    0  0.00000000000E+00  0.00000000000E+00 -0.33347014301E+03  0.11240819190E+04  0.10734793078E+04 0.  0.
        3    1    3    3  502    0  0.37656543273E+03 -0.15292688301E+03 -0.53383348194E+03  0.67094437424E+03  0.10100000352E+00 0.  1.
       -3    1    3    3    0  502 -0.37656543273E+03  0.15292688301E+03  0.20036333893E+03  0.45313754475E+03  0.10100000352E+00 0. -1.
</event>
<event>
 5   0  0.6774451E-04  0.1796106E+04  0.7818609E-02  0.8708373E-01
        2   -1    0    0  501    0  0.00000000000E+00  0.00000000000E+00  0.20777270190E+04  0.20777270190E+04  0.25500000920E-02 0.  1.
       -2   -1    0    0    0  501  0.00000000000E+00  0.00000000000E+00 -0.38816422423E+03  0.38816422424E+03  0.25500000920E-02 0. -1.
    10030    2    1    2    0    0  0.00000000000E+00  0.00000000000E+00  0.16895627947E+04  0.24658912432E+04  0.17961061177E+04 0.  0.
        4    1    3    3  502    0 -0.21725551936E+03  0.15669514832E+03 -0.33203864118E+03  0.42661997414E+03  0.12699999809E+01 0. -1.
       -4    1    3    3    0  502  0.21725551936E+03 -0.15669514832E+03  0.20216014359E+04  0.20392712691E+04  0.12699999809E+01 0.  1.
</event>
<event>
 5   0  0.6853162E-04  0.1930729E+04  0.7818609E-02  0.8639710E-01
        2   -1    0    0  501    0  0.00000000000E+00  0.00000000000E+00  0.12347692464E+04  0.12347692464E+04  0.25500000920E-02 0.  1.
       -2   -1    0    0    0  501  0.00000000000E+00  0.00000000000E+00 -0.75473906753E+03  0.75473906753E+03  0.25500000920E-02 0. -1.
    10030    2    1    2    0    0  0.00000000000E+00  0.00000000000E+00  0.48003017883E+03  0.19895083139E+04  0.19307289707E+04 0.  0.
        2    1    3    3  502    0 -0.62405690873E+02  0.59842359392E+03 -0.53790083088E+03  0.80705797306E+03  0.25500000920E-02 0. -1.
       -2    1    3    3    0  502  0.62405690873E+02 -0.59842359392E+03  0.10179310097E+04  0.11824503408E+04  0.25500000920E-02 0.  1.
</event>
<event>
 5   0  0.3377273E-04  0.1787914E+04  0.7818609E-02  0.8712753E-01
        1   -1    0    0  501    0  0.00000000000E+00  0.00000000000E+00  0.11219349746E+04  0.11219349746E+04  0.50400001928E-02 0. -1.
       -1   -1    0    0    0  501  0.00000000000E+00  0.00000000000E+00 -0.71230463041E+03  0.71230463043E+03  0.50400001928E-02 0.  1.
    10030    2    1    2    0    0  0.00000000000E+00  0.00000000000E+00  0.40963034419E+03  0.18342396050E+04  0.17879144023E+04 0.  0.
        2    1    3    3  502    0  0.12327725878E+03  0.85740086570E+03  0.43150639045E+03  0.96774546863E+03  0.25500000920E-02 0.  1.
       -2    1    3    3    0  502 -0.12327725878E+03 -0.85740086570E+03 -0.21876046265E+02  0.86649413642E+03  0.25500000920E-02 0. -1.
</event>
<event>
 5   0  0.2467375E-04  0.1367464E+04  0.7818609E-02  0.8977713E-01
       -4   -1    0    0    0  501  0.00000000000E+00  0.00000000000E+00  0.15346611448E+04  0.15346616703E+04  0.12699999809E+01 0.  1.
        4   -1    0    0  501    0  0.00000000000E+00  0.00000000000E+00 -0.30461864814E+03  0.30462129554E+03  0.12699999809E+01 0. -1.
    10030    2    1    2    0    0  0.00000000000E+00  0.00000000000E+00  0.12300424967E+04  0.18392829659E+04  0.13674638148E+04 0.  0.
        5    1    3    3  502    0 -0.35882146107E+03  0.22753520348E+03 -0.10547190487E+03  0.43780306356E+03  0.46999998093E+01 0. -1.
       -5    1    3    3    0  502  0.35882146107E+03 -0.22753520348E+03  0.13355144016E+04  0.14014799023E+04  0.46999998093E+01 0.  1.
</event>
<event>
 5   0  0.6771967E-04  0.1789632E+04  0.7818609E-02  0.8711832E-01
        2   -1    0    0  501    0  0.00000000000E+00  0.00000000000E+00  0.12803444935E+04  0.12803444935E+04  0.25500000920E-02 0.  1.
       -2   -1    0    0    0  501  0.00000000000E+00  0.00000000000E+00 -0.62537549975E+03  0.62537549976E+03  0.25500000920E-02 0. -1.
    10030    2    1    2    0    0  0.00000000000E+00  0.00000000000E+00  0.65496899376E+03  0.19057199933E+04  0.17896324511E+04 0.  0.
        1    1    3    3  502    0  0.51208892042E+02  0.42114050363E+03  0.11664443048E+04  0.12411986105E+04  0.50400001928E-02 0. -1.
       -1    1    3    3    0  502 -0.51208892042E+02 -0.42114050363E+03 -0.51147531101E+03  0.66452138282E+03  0.50400001928E-02 0.  1.
</event>
<event>
 5   0  0.3404261E-04  0.1720077E+04  0.7818609E-02  0.8749996E-01
       -1   -1    0    0    0  501  0.00000000000E+00  0.00000000000E+00  0.57330282618E+03  0.57330282620E+03  0.50400001928E-02 0. -1.
        1   -1    0    0  501    0  0.00000000000E+00  0.00000000000E+00 -0.12901839064E+04  0.12901839065E+04  0.50400001928E-02 0.  1.
    10030    2    1    2    0    0  0.00000000000E+00  0.00000000000E+00 -0.71688108026E+03  0.18634867327E+04  0.17200768354E+04 0.  0.
        1    1    3    3  502    0  0.58801748572E+03 -0.49706171752E+03 -0.77357384866E+03  0.10914446454E+04  0.50400001928E-02 0. -1.
       -1    1    3    3    0  502 -0.58801748572E+03  0.49706171752E+03  0.56692768405E+02  0.77204208729E+03  0.50400001928E-02 0.  1.
</event>
<event>
 5   0  0.3413839E-04  0.1756808E+04  0.7818609E-02  0.8729612E-01
        1   -1    0    0  501    0  0.00000000000E+00  0.00000000000E+00  0.14798756525E+04  0.14798756525E+04  0.50400001928E-02 0.  1.
       -1   -1    0    0    0  501  0.00000000000E+00  0.00000000000E+00 -0.52139075885E+03  0.52139075887E+03  0.50400001928E-02 0. -1.
    10030    2    1    2    0    0  0.00000000000E+00  0.00000000000E+00  0.95848489364E+03  0.20012664114E+04  0.17568078887E+04 0.  0.
        5    1    3    3  502    0 -0.58345983749E+03 -0.25592272882E+03 -0.20958932370E+03  0.67072468249E+03  0.46999998093E+01 0. -1.
       -5    1    3    3    0  502  0.58345983749E+03  0.25592272882E+03  0.11680742173E+04  0.13305417289E+04  0.46999998093E+01 0.  1.
</event>
<event>
 5   0  0.3404261E-04  0.1866425E+04  0.7818609E-02  0.8671752E-01
       -1   -1    0    0    0  501  0.00000000000E+00  0.00000000000E+00  0.74770250550E+03  0.74770250552E+03  0.50400001928E-02 0.  1.
        1   -1    0    0  501    0  0.00000000000E+00  0.00000000000E+00 -0.11647487018E+04  0.11647487018E+04  0.50400001928E-02 0. -1.
    10030    2    1    2    0    0  0.00000000000E+00  0.00000000000E+00 -0.41704619626E+03  0.19124512073E+04  0.18664249491E+04 0.  0.
        1    1    3    3  502    0  0.84464977370E+03 -0.37142934798E+03 -0.35158165749E+03  0.98742223120E+03  0.50400001928E-02 0. -1.
       -1    1    3    3    0  502 -0.84464977370E+03  0.37142934798E+03 -0.65464538768E+02  0.92502897609E+03  0.50400001928E-02 0.  1.
</event>
<event>
 5   0  0.3308275E-04  0.1812520E+04  0.7818609E-02  0.8699670E-01
        1   -1    0    0  501    0  0.00000000000E+00  0.00000000000E+00  0.10350406939E+04  0.10350406939E+04  0.50400001928E-02 0. -1.
       -1   -1    0    0    0  501  0.00000000000E+00  0.00000000000E+00 -0.79350208266E+03  0.79350208268E+03  0.50400001928E-02 0.  1.
    10030    2    1    2    0    0  0.00000000000E+00  0.00000000000E+00  0.24153861124E+03  0.18285427766E+04  0.18125197337E+04 0.  0.
        3    1    3    3  502    0 -0.27120063804E+03  0.66421464176E+03 -0.43781856366E+03  0.84048556281E+03  0.10100000352E+00 0.  1.
       -3    1    3    3    0  502  0.27120063804E+03 -0.66421464176E+03  0.67935717489E+03  0.98805721377E+03  0.10100000352E+00 0. -1.
</event>
<event>
 5   0  0.6929121E-04  0.1855539E+04  0.7818609E-02  0.8677310E-01
       -2   -1    0    0    0  501  0.00000000000E+00  0.00000000000E+00  0.60696956336E+03  0.60696956336E+03  0.25500000920E-02 0.  1.
        2   -1    0    0  501    0  0.00000000000E+00  0.00000000000E+00 -0.14181205384E+04  0.14181205384E+04  0.25500000920E-02 0. -1.
    10030    2    1    2    0    0  0.00000000000E+00  0.00000000000E+00 -0.81115097508E+03  0.20250901018E+04  0.18555387401E+04 0.  0.
        3    1    3    3  502    0  0.62179228788E+03  0.42236498669E+03 -0.99908544558E+03  0.12502757972E+04  0.10100000352E+00 0. -1.
       -3    1    3    3    0  502 -0.62179228788E+03 -0.42236498669E+03  0.18793447050E+03  0.77481430462E+03  0.10100000352E+00 0.  1.
</event>
<event>
 5   0  0.6771967E-04  0.1755529E+04  0.7818609E-02  0.8730313E-01
       -2   -1    0    0    0  501  0.00000000000E+00  0.00000000000E+00  0.43777190703E+03  0.43777190704E+03  0.25500000920E-02 0.  1.
        2   -1    0    0  501    0  0.00000000000E+00  0.00000000000E+00 -0.17599807625E+04  0.17599807625E+04  0.25500000920E-02 0. -1.
    10030    2    1    2    0    0  0.00000000000E+00  0.00000000000E+00 -0.13222088555E+04  0.21977526696E+04  0.17555285640E+04 0.  0.
        1    1    3    3  502    0 -0.21477831443E+03  0.49926032749E+03  0.20178287360E+03  0.57974729586E+03  0.50400001928E-02 0.  1.
       -1    1    3    3    0  502  0.21477831443E+03 -0.49926032749E+03 -0.15239917291E+04  0.16180053737E+04  0.50400001928E-02 0. -1.
</event>
<event>
 5   0  0.2467375E-04  0.1843657E+04  0.7818609E-02  0.8683422E-01
       -3   -1    0    0    0  501  0.00000000000E+00  0.00000000000E+00  0.10174522782E+04  0.10174522832E+04  0.10100000352E+00 0.  1.
        3   -1    0    0  501    0  0.00000000000E+00  0.00000000000E+00 -0.83519180438E+03  0.83519181049E+03  0.10100000352E+00 0. -1.
    10030    2    1    2    0    0  0.00000000000E+00  0.00000000000E+00  0.18226047377E+03  0.18526440937E+04  0.18436570336E+04 0.  0.
        4    1    3    3  502    0 -0.24453997494E+03  0.81826531267E+03  0.43982067511E+03  0.96062571297E+03  0.12699999809E+01 0. -1.
       -4    1    3    3    0  502  0.24453997494E+03 -0.81826531267E+03 -0.25756020133E+03  0.89201838069E+03  0.12699999809E+01 0.  1.
</event>
<event>
 5   0  0.6774451E-04  0.1364816E+04  0.7818609E-02  0.8979688E-01
        2   -1    0    0  501    0  0.00000000000E+00  0.00000000000E+00  0.86560903403E+03  0.86560903403E+03  0.25500000920E-02 0. -1.
       -2   -1    0    0    0  501  0.00000000000E+00  0.00000000000E+00 -0.53798006902E+03  0.53798006903E+03  0.25500000920E-02 0.  1.
    10030    2    1    2    0    0  0.00000000000E+00  0.00000000000E+00  0.32762896501E+03  0.14035891031E+04  0.13648156035E+04 0.  0.
        4    1    3    3  502    0 -0.65753537858E+03  0.18199064036E+03  0.14907454886E+03  0.69835392265E+03  0.12699999809E+01 0. -1.
       -4    1    3    3    0  502  0.65753537858E+03 -0.18199064036E+03  0.17855441615E+03  0.70523518041E+03  0.12699999809E+01 0.  1.
</event>
<event>
 5   0  0.3377273E-04  0.1858025E+04  0.7818609E-02  0.8676037E-01
       -1   -1    0    0    0  501  0.00000000000E+00  0.00000000000E+00  0.74512126220E+03  0.74512126222E+03  0.50400001928E-02 0. -1.
        1   -1    0    0  501    0  0.00000000000E+00  0.00000000000E+00 -0.11582871497E+04  0.11582871497E+04  0.50400001928E-02 0.  1.
    10030    2    1    2    0    0  0.00000000000E+00  0.00000000000E+00 -0.41316588751E+03  0.19034084119E+04  0.18580251699E+04 0.  0.
        2    1    3    3  502    0  0.47507171200E+03 -0.17901091101E+03  0.59044799382E+03  0.77869562167E+03  0.25500000920E-02 0.  1.
       -2    1    3    3    0  502 -0.47507171200E+03  0.17901091101E+03 -0.10036138813E+04  0.11247127903E+04  0.25500000920E-02 0. -1.
</event>
<event>
 5   0  0.6547153E-04  0.1776361E+04  0.7818609E-02  0.8718972E-01
        2   -1    0    0  501    0  0.00000000000E+00  0.00000000000E+00  0.16306813546E+04  0.16306813546E+04  0.25500000920E-02 0. -1.
       -2   -1    0    0    0  501  0.00000000000E+00  0.00000000000E+00 -0.48376372404E+03  0.48376372405E+03  0.25500000920E-02 0.  1.
    10030    2    1    2    0    0  0.00000000000E+00  0.00000000000E+00  0.11469176306E+04  0.21144450786E+04  0.17763608697E+04 0.  0.
        5    1    3    3  502    0  0.39983292275E+03 -0.65694311592E+03  0.44598799284E+02  0.77035820666E+03  0.46999998093E+01 0.  1.
       -5    1    3    3    0  502 -0.39983292275E+03  0.65694311592E+03  0.11023188313E+04  0.13440868720E+04  0.46999998093E+01 0. -1.
</event>
<event>
 5   0  0.6547153E-04  0.1716192E+04  0.7818609E-02  0.8752183E-01
        2   -1    0    0  501    0  0.00000000000E+00  0.00000000000E+00  0.11240365139E+04  0.11240365139E+04  0.25500000920E-02 0.  1.
       -2   -1    0    0    0  501  0.00000000000E+00  0.00000000000E+00 -0.65507562305E+03  0.65507562305E+03  0.25500000920E-02 0. -1.
    10030    2    1    2    0    0  0.00000000000E+00  0.00000000000E+00  0.46896089089E+03  0.17791121370E+04  0.17161922033E+04 0.  0.
        5    1    3    3  502    0 -0.11062619139E+03 -0.84250339705E+03  0.11070145816E+03  0.85692883666E+03  0.46999998093E+01 0. -1.
       -5    1    3    3    0  502  0.11062619139E+03  0.84250339705E+03  0.35825943273E+03  0.92218330033E+03  0.46999998093E+01 0.  1.
</event>
<event>
 5   0  0.6929121E-04  0.1788657E+04  0.7818609E-02  0.8712355E-01
       -2   -1    0    0    0  501  0.00000000000E+00  0.00000000000E+00  0.51547552092E+03  0.51547552093E+03  0.25500000920E-02 0.  1.
        2   -1    0    0  501    0  0.00000000000E+00  0.00000000000E+00 -0.15516219439E+04  0.15516219439E+04  0.25500000920E-02 0. -1.
    10030    2    1    2    0    0  0.00000000000E+00  0.00000000000E+00 -0.10361464230E+04  0.20670974648E+04  0.17886566242E+04 0.  0.
        3    1    3    3  502    0  0.31635641497E+02  0.51393086150E+03  0.32698768343E+03  0.60995630953E+03  0.10100000352E+00 0.  1.
       -3    1    3    3    0  502 -0.31635641497E+02 -0.51393086150E+03 -0.13631341064E+04  0.14571411553E+04  0.10100000352E+00 0. -1.
</event>
<event>
 5   0  0.6547153E-04  0.1778020E+04  0.7818609E-02  0.8718076E-01
       -2   -1    0    0    0  501  0.00000000000E+00  0.00000000000E+00  0.78001856859E+03  0.78001856860E+03  0.25500000920E-02 0.  1.
        2   -1    0    0  501    0  0.00000000000E+00  0.00000000000E+00 -0.10132303046E+04  0.10132303046E+04  0.25500000920E-02 0. -1.
    10030    2    1    2    0    0  0.00000000000E+00  0.00000000000E+00 -0.23321173604E+03  0.17932488732E+04  0.17780196308E+04 0.  0.
        5    1    3    3  502    0 -0.72102898112E+02  0.85039202280E+03  0.13442548713E+03  0.86397784807E+03  0.46999998093E+01 0.  1.
       -5    1    3    3    0  502  0.72102898112E+02 -0.85039202280E+03 -0.36763722318E+03  0.92927102517E+03  0.46999998093E+01 0. -1.
</event>
<event>
 5   0  0.6853162E-04  0.1782396E+04  0.7818609E-02  0.8715718E-01
       -2   -1    0    0    0  501  0.00000000000E+00  0.00000000000E+00  0.49432309618E+03  0.49432309619E+03  0.25500000920E-02 0.  1.
        2   -1    0    0  501    0  0.00000000000E+00  0.00000000000E+00 -0.16067094940E+04  0.16067094940E+04  0.25500000920E-02 0. -1.
    10030    2    1    2    0    0  0.00000000000E+00  0.00000000000E+00 -0.11123863978E+04  0.21010325902E+04  0.17823957044E+04 0.  0.
        2    1    3    3  502    0  0.14990140850E+03 -0.37470613773E+03 -0.14928202023E+04  0.15464110962E+04  0.25500000920E-02 0. -1.
       -2    1    3    3    0  502 -0.14990140850E+03  0.37470613773E+03  0.38043380455E+03  0.55462149397E+03  0.25500000920E-02 0.  1.
</event>
<event>
 5   0  0.6547153E-04  0.1758889E+04  0.7818609E-02  0.8728473E-01
        2   -1    0    0  501    0  0.00000000000E+00  0.00000000000E+00  0.13655995452E+04  0.13655995452E+04  0.25500000920E-02 0.  1.
       -2   -1    0    0    0  501  0.00000000000E+00  0.00000000000E+00 -0.56636106473E+03  0.56636106473E+03  0.25500000920E-02 0. -1.
    10030    2    1    2    0    0  0.00000000000E+00  0.00000000000E+00  0.79923848047E+03  0.19319606099E+04  0.17588887542E+04 0.  0.
        5    1    3    3  502    0 -0.74011106738E+03  0.14017774445E+03 -0.98896510853E+02  0.75974785419E+03  0.46999998093E+01 0. -1.
       -5    1    3    3    0  502  0.74011106738E+03 -0.14017774445E+03  0.89813499133E+03  0.11722127557E+04  0.46999998093E+01 0.  1.
</event>
<event>
 5   0  0.6853162E-04  0.1810916E+04  0.7818609E-02  0.8700516E-01
        2   -1    0    0  501    0  0.00000000000E+00  0.00000000000E+00  0.70522353041E+03  0.70522353042E+03  0.25500000920E-02 0.  1.
       -2   -1    0    0    0  501  0.00000000000E+00  0.00000000000E+00 -0.11625453651E+04  0.11625453651E+04  0.25500000920E-02 0. -1.
    10030    2    1    2    0    0  0.00000000000E+00  0.00000000000E+00 -0.45732183466E+03  0.18677688955E+04  0.18109161732E+04 0.  0.
        2    1    3    3  502    0  0.86832110720E+03 -0.84332161250E+02 -0.47867758726E+03  0.99510084473E+03  0.25500000920E-02 0. -1.
       -2    1    3    3    0  502 -0.86832110720E+03  0.84332161250E+02  0.21355752599E+02  0.87266805076E+03  0.25500000920E-02 0.  1.
</event>
<event>
 5   0  0.6774451E-04  0.1809141E+04  0.7818609E-02  0.8701453E-01
       -2   -1    0    0    0  501  0.00000000000E+00  0.00000000000E+00  0.58050038511E+03  0.58050038512E+03  0.25500000920E-02 0. -1.
        2   -1    0    0  501    0  0.00000000000E+00  0.00000000000E+00 -0.14095566808E+04  0.14095566808E+04  0.25500000920E-02 0.  1.
    10030    2    1    2    0    0  0.00000000000E+00  0.00000000000E+00 -0.82905629564E+03  0.19900570659E+04  0.18091414494E+04 0.  0.
        4    1    3    3  502    0  0.37256139664E+03  0.26593370118E+03 -0.12727571116E+04  0.13525660819E+04  0.12699999809E+01 0.  1.
       -4    1    3    3    0  502 -0.37256139664E+03 -0.26593370118E+03  0.44370081599E+03  0.63749098402E+03  0.12699999809E+01 0. -1.
</event>
<event>
 5   0  0.6771967E-04  0.1664242E+04  0.7818609E-02  0.8782025E-01
        2   -1    0    0  501    0  0.00000000000E+00  0.00000000000E+00  0.10691319161E+04  0.10691319161E+04  0.25500000920E-02 0. -1.
       -2   -1    0    0    0  501  0.00000000000E+00  0.00000000000E+00 -0.64765209772E+03  0.64765209772E+03  0.25500000920E-02 0.  1.
    10030    2    1    2    0    0  0.00000000000E+00  0.00000000000E+00  0.42147981840E+03  0.17167840138E+04  0.16642422038E+04 0.  0.
        1    1    3    3  502    0  0.61574097680E+03  0.65251063605E+02  0.78419586318E+03  0.99917856446E+03  0.50400001928E-02 0. -1.
       -1    1    3    3    0  502 -0.61574097680E+03 -0.65251063605E+02 -0.36271604478E+03  0.71760544938E+03  0.50400001928E-02 0.  1.
</event>
<event>
 5   0  0.3404261E-04  0.1424183E+04  0.7818609E-02  0.8936497E-01
        1   -1    0    0  501    0  0.00000000000E+00  0.00000000000E+00  0.18844618099E+04  0.18844618099E+04  0.50400001928E-02 0. -1.
       -1   -1    0    0    0  501  0.00000000000E+00  0.00000000000E+00 -0.26908187861E+03  0.26908187866E+03  0.50400001928E-02 0.  1.
    10030    2    1    2    0    0  0.00000000000E+00  0.00000000000E+00  0.16153799313E+04  0.21535436886E+04  0.14241833085E+04 0.  0.
        1    1    3    3  502    0  0.35693616857E+03  0.39694499570E+03  0.15203258903E+04  0.16113223050E+04  0.50400001928E-02 0. -1.
       -1    1    3    3    0  502 -0.35693616857E+03 -0.39694499570E+03  0.95054041057E+02  0.54222138357E+03  0.50400001928E-02 0.  1.
</event>
<event>
 5   0  0.3413839E-04  0.1710148E+04  0.7818609E-02  0.8755598E-01
       -1   -1    0    0    0  501  0.00000000000E+00  0.00000000000E+00  0.61201424389E+03  0.61201424391E+03  0.50400001928E-02 0. -1.
        1   -1    0    0  501    0  0.00000000000E+00  0.00000000000E+00 -0.11946637622E+04  0.11946637622E+04  0.50400001928E-02 0.  1.
    10030    2    1    2    0    0  0.00000000000E+00  0.00000000000E+00 -0.58264951834E+03  0.18066780062E+04  0.17101476418E+04 0.  0.
        5    1    3    3  502    0  0.19828336913E+03 -0.44677744424E+02 -0.11687578738E+04  0.11863091726E+04  0.46999998093E+01 0.  1.
       -5    1    3    3    0  502 -0.19828336913E+03  0.44677744424E+02  0.58610835548E+03  0.62036883358E+03  0.46999998093E+01 0. -1.
</event>
<event>
 5   0  0.3377273E-04  0.1847284E+04  0.7818609E-02  0.8681551E-01
        1   -1    0    0  501    0  0.00000000000E+00  0.00000000000E+00  0.58011282623E+03  0.58011282625E+03  0.50400001928E-02 0.  1.
       -1   -1    0    0    0  501  0.00000000000E+00  0.00000000000E+00 -0.14706011811E+04  0.14706011811E+04  0.50400001928E-02 0. -1.
    10030    2    1    2    0    0  0.00000000000E+00  0.00000000000E+00 -0.89048835488E+03  0.20507140074E+04  0.18472840685E+04 0.  0.
        2    1    3    3  502    0  0.53044647634E+03 -0.44315127213E+03 -0.11253778946E+04  0.13206937267E+04  0.25500000920E-02 0. -1.
       -2    1    3    3    0  502 -0.53044647634E+03  0.44315127213E+03  0.23488953969E+03  0.73002028062E+03  0.25500000920E-02 0.  1.
</event>
<event>
 5   0  0.3413839E-04  0.1801381E+04  0.7818609E-02  0.8705565E-01
       -1   -1    0    0    0  501  0.00000000000E+00  0.00000000000E+00  0.82149460976E+03  0.82149460978E+03  0.50400001928E-02 0. -1.
        1   -1    0    0  501    0  0.00000000000E+00  0.00000000000E+00 -0.98752139094E+03  0.98752139095E+03  0.50400001928E-02 0.  1.
    10030    2    1    2    0    0  0.00000000000E+00  0.00000000000E+00 -0.16602678117E+03  0.18090160007E+04  0.18013811365E+04 0.  0.
        5    1    3    3  502    0 -0.50163157307E+03 -0.29987791009E+03  0.60520896496E+03  0.84134474345E+03  0.46999998093E+01 0. -1.
       -5    1    3    3    0  502  0.50163157307E+03  0.29987791009E+03 -0.77123574613E+03  0.96767125728E+03  0.46999998093E+01 0.  1.
</event>
<event>
 5   0  0.6771967E-04  0.1012343E+04  0.7818609E-02  0.9295110E-01
       -2   -1    0    0    0  501  0.00000000000E+00  0.00000000000E+00  0.40890350012E+03  0.40890350012E+03  0.25500000920E-02 0.  1.
        2   -1    0    0  501    0  0.00000000000E+00  0.00000000000E+00 -0.62657722307E+03  0.62657722308E+03  0.25500000920E-02 0. -1.
    10030    2    1    2    0    0  0.00000000000E+00  0.00000000000E+00 -0.21767372296E+03  0.10354807232E+04  0.10123430636E+04 0.  0.
        1    1    3    3  502    0  0.48070531540E+01  0.50320357882E+03 -0.53068528420E+02  0.50601701378E+03  0.50400001928E-02 0. -1.
       -1    1    3    3    0  502 -0.48070531540E+01 -0.50320357882E+03 -0.16460519454E+03  0.52946370942E+03  0.50400001928E-02 0.  1.
</event>
<event>
 5   0  0.6774451E-04  0.1910526E+04  0.7818609E-02  0.8649634E-01
        2   -1    0    0  501    0  0.00000000000E+00  0.00000000000E+00  0.20083671050E+04  0.20083671050E+04  0.25500000920E-02 0. -1.
       -2   -1    0    0    0  501  0.00000000000E+00  0.00000000000E+00 -0.45436304281E+03  0.45436304282E+03  0.25500000920E-02 0.  1.
    10030    2    1    2    0    0  0.00000000000E+00  0.00000000000E+00  0.15540040622E+04  0.24627301478E+04  0.19105264080E+04 0.  0.
        4    1    3    3  502    0  0.73914789754E+03 -0.49075987472E+02 -0.46514464024E+00  0.74077654947E+03  0.12699999809E+01 0.  1.
       -4    1    3    3    0  502 -0.73914789754E+03  0.49075987472E+02  0.15544692068E+04  0.17219535983E+04  0.12699999809E+01 0. -1.
</event>
<event>
 5   0  0.3470962E-04  0.1782909E+04  0.7818609E-02  0.8715442E-01
       -1   -1    0    0    0  501  0.00000000000E+00  0.00000000000E+00  0.14141408420E+04  0.14141408420E+04  0.50400001928E-02 0.  1.
        1   -1    0    0  501    0  0.00000000000E+00  0.00000000000E+00 -0.56196024301E+03  0.56196024303E+03  0.50400001928E-02 0. -1.
    10030    2    1    2    0    0  0.00000000000E+00  0.00000000000E+00  0.85218059896E+03  0.19761010850E+04  0.17829087820E+04 0.  0.
        4    1    3    3  502    0  0.80792482982E+03  0.35654599904E+03  0.29115374938E+03  0.92986004256E+03  0.12699999809E+01 0.  1.
       -4    1    3    3    0  502 -0.80792482982E+03 -0.35654599904E+03  0.56102684958E+03  0.10462410425E+04  0.12699999809E+01 0. -1.
</event>
<event>
 5   0  0.3377273E-04  0.1862225E+04  0.7818609E-02  0.8673891E-01
        1   -1    0    0  501    0  0.00000000000E+00  0.00000000000E+00  0.12981688903E+04  0.12981688903E+04  0.50400001928E-02 0. -1.
       -1   -1    0    0    0  501  0.00000000000E+00  0.00000000000E+00 -0.66784077183E+03  0.66784077185E+03  0.50400001928E-02 0.  1.
    10030    2    1    2    0    0  0.00000000000E+00  0.00000000000E+00  0.63032811849E+03  0.19660096622E+04  0.18622245984E+04 0.  0.
        2    1    3    3  502    0 -0.42115929894E+03 -0.44314846531E+03  0.10565962898E+04  0.12207175910E+04  0.25500000920E-02 0. -1.
       -2    1    3    3    0  502  0.42115929894E+03  0.44314846531E+03 -0.42626817134E+03  0.74529207114E+03  0.25500000920E-02 0.  1.
</event>
<event>
 5   0  0.3377273E-04  0.1858222E+04  0.7818609E-02  0.8675936E-01
       -1   -1    0    0    0  501  0.00000000000E+00  0.00000000000E+00  0.75308503307E+03  0.75308503309E+03  0.50400001928E-02 0. -1.
        1   -1    0    0  501    0  0.00000000000E+00  0.00000000000E+00 -0.11462808681E+04  0.11462808682E+04  0.50400001928E-02 0.  1.
    10030    2    1    2    0    0  0.00000000000E+00  0.00000000000E+00 -0.39319583508E+03  0.18993659012E+04  0.18582216935E+04 0.  0.
        2    1    3    3  502    0 -0.23448517177E+03  0.12204781258E+03  0.71383604720E+03  0.76121013303E+03  0.25500000920E-02 0. -1.
       -2    1    3    3    0  502  0.23448517177E+03 -0.12204781258E+03 -0.11070318823E+04  0.11381557682E+04  0.25500000920E-02 0.  1.
</event>
<event>
 5   0  0.6853162E-04  0.1815711E+04  0.7818609E-02  0.8697989E-01
       -2   -1    0    0    0  501  0.00000000000E+00  0.00000000000E+00  0.88029003474E+03  0.88029003474E+03  0.25500000920E-02 0. -1.
        2   -1    0    0  501    0  0.00000000000E+00  0.00000000000E+00 -0.93628414085E+03  0.93628414085E+03  0.25500000920E-02 0.  1.
    10030    2    1    2    0    0  0.00000000000E+00  0.00000000000E+00 -0.55994106109E+02  0.18165741756E+04  0.18157109890E+04 0.  0.
        2    1    3    3  502    0 -0.41701534817E+03 -0.72372326667E+03 -0.38386888283E+03  0.91925648572E+03  0.25500000920E-02 0. -1.
       -2    1    3    3    0  502  0.41701534817E+03  0.72372326667E+03  0.32787477673E+03  0.89731768987E+03  0.25500000920E-02 0.  1.
</event>
<event>
 5   0  0.3404261E-04  0.1168258E+04  0.7818609E-02  0.9141103E-01
       -1   -1    0    0    0  501  0.00000000000E+00  0.00000000000E+00  0.20432937248E+03  0.20432937255E+03  0.50400001928E-02 0. -1.
        1   -1    0    0  501    0  0.00000000000E+00  0.00000000000E+00 -0.16698870677E+04  0.16698870677E+04  0.50400001928E-02 0.  1.
    10030    2    1    2    0    0  0.00000000000E+00  0.00000000000E+00 -0.14655576952E+04  0.18742164403E+04  0.11682584932E+04 0.  0.
        1    1    3    3  502    0  0.43630428379E+03  0.31430097299E+03 -0.10988240698E+04  0.12233400452E+04  0.50400001928E-02 0.  1.
       -1    1    3    3    0  502 -0.43630428379E+03 -0.31430097299E+03 -0.36673362542E+03  0.65087639511E+03  0.50400001928E-02 0. -1.
</event>
<event>
 5   0  0.3377273E-04  0.1814680E+04  0.7818609E-02  0.8698532E-01
        1   -1    0    0  501    0  0.00000000000E+00  0.00000000000E+00  0.27934154955E+04  0.27934154955E+04  0.50400001928E-02 0. -1.
       -1   -1    0    0    0  501  0.00000000000E+00  0.00000000000E+00 -0.29471652759E+03  0.29471652764E+03  0.50400001928E-02 0.  1.
    10030    2    1    2    0    0  0.00000000000E+00  0.00000000000E+00  0.24986989679E+04  0.30881320232E+04  0.18146798230E+04 0.  0.
        2    1    3    3  502    0 -0.24676070770E+03  0.79960088791E+03  0.65249032544E+03  0.10611296111E+04  0.25500000920E-02 0.  1.
       -2    1    3    3    0  502  0.24676070770E+03 -0.79960088791E+03  0.18462086425E+04  0.20270024120E+04  0.25500000920E-02 0. -1.
</event>
<event>
 5   0  0.3308275E-04  0.1802535E+04  0.7818609E-02  0.8704952E-01
       -1   -1    0    0    0  501  0.00000000000E+00  0.00000000000E+00  0.40283446603E+03  0.40283446606E+03  0.50400001928E-02 0.  1.
        1   -1    0    0  501    0  0.00000000000E+00  0.00000000000E+00 -0.20164198858E+04  0.20164198858E+04  0.50400001928E-02 0. -1.
    10030    2    1    2    0    0  0.00000000000E+00  0.00000000000E+00 -0.16135854198E+04  0.24192543519E+04  0.18025353567E+04 0.  0.
        3    1    3    3  502    0  0.69866245335E+03  0.20291754356E+03 -0.15207538678E+04  0.16858223779E+04  0.10100000352E+00 0. -1.
       -3    1    3    3    0  502 -0.69866245335E+03 -0.20291754356E+03 -0.92831551967E+02  0.73343197397E+03  0.10100000352E+00 0.  1.
</event>
<event>
 5   0  0.3470962E-04  0.1822147E+04  0.7818609E-02  0.8694610E-01
       -1   -1    0    0    0  501  0.00000000000E+00  0.00000000000E+00  0.16990832167E+04  0.16990832167E+04  0.50400001928E-02 0.  1.
        1   -1    0    0  501    0  0.00000000000E+00  0.00000000000E+00 -0.48853095829E+03  0.48853095832E+03  0.50400001928E-02 0. -1.
    10030    2    1    2    0    0  0.00000000000E+00  0.00000000000E+00  0.12105522584E+04  0.21876141750E+04  0.18221468131E+04 0.  0.
        4    1    3    3  502    0 -0.35814487805E+03  0.11231570185E+03 -0.39139235183E+03  0.54228420273E+03  0.12699999809E+01 0. -1.
       -4    1    3    3    0  502  0.35814487805E+03 -0.11231570185E+03  0.16019446102E+04  0.16453299723E+04  0.12699999809E+01 0.  1.
</event>
<event>
 5   0  0.6774451E-04  0.1598692E+04  0.7818609E-02  0.8821352E-01
        2   -1    0    0  501    0  0.00000000000E+00  0.00000000000E+00  0.23557604982E+04  0.23557604982E+04  0.25500000920E-02 0.  1.
       -2   -1    0    0    0  501  0.00000000000E+00  0.00000000000E+00 -0.27123039354E+03  0.27123039355E+03  0.25500000920E-02 0. -1.
    10030    2    1    2    0    0  0.00000000000E+00  0.00000000000E+00  0.20845301047E+04  0.26269908918E+04  0.15986917740E+04 0.  0.
        4    1    3    3  502    0 -0.79092244666E+03 -0.52335753702E+02  0.12118816073E+04  0.14480870108E+04  0.12699999809E+01 0.  1.
       -4    1    3    3    0  502  0.79092244666E+03  0.52335753702E+02  0.87264849740E+03  0.11789038810E+04  0.12699999809E+01 0. -1.
</event>
<event>
 5   0  0.6853162E-04  0.1778444E+04  0.7818609E-02  0.8717847E-01
       -2   -1    0    0    0  501  0.00000000000E+00  0.00000000000E+00  0.37513039273E+03  0.37513039274E+03  0.25500000920E-02 0. -1.
        2   -1    0    0  501    0  0.00000000000E+00  0.00000000000E+00 -0.21078436309E+04  0.21078436309E+04  0.25500000920E-02 0.  1.
    10030    2    1    2    0    0  0.00000000000E+00  0.00000000000E+00 -0.17327132382E+04  0.24829740236E+04  0.17784444991E+04 0.  0.
        2    1    3    3  502    0 -0.24018930318E+03  0.55241438237E+03  0.46882611473E+02  0.60419411655E+03  0.25500000920E-02 0. -1.
       -2    1    3    3    0  502  0.24018930318E+03 -0.55241438237E+03 -0.17795958496E+04  0.18787799071E+04  0.25500000920E-02 0.  1.
</event>
<event>
 5   0  0.6547153E-04  0.1813185E+04  0.7818609E-02  0.8699319E-01
        2   -1    0    0  501    0  0.00000000000E+00  0.00000000000E+00  0.83896091999E+03  0.83896091999E+03  0.25500000920E-02 0. -1.
       -2   -1    0    0    0  501  0.00000000000E+00  0.00000000000E+00 -0.97967590727E+03  0.97967590728E+03  0.25500000920E-02 0.  1.
    10030    2    1    2    0    0  0.00000000000E+00  0.00000000000E+00 -0.14071498728E+03  0.18186368273E+04  0.18131848229E+04 0.  0.
        5    1    3    3  502    0 -0.40750268638E+03  0.49627341388E+03  0.57152142674E+03  0.85965375120E+03  0.46999998093E+01 0. -1.
       -5    1    3    3    0  502  0.40750268638E+03 -0.49627341388E+03 -0.71223641402E+03  0.95898307607E+03  0.46999998093E+01 0.  1.
</event>
<event>
 5   0  0.6929121E-04  0.1831005E+04  0.7818609E-02  0.8689983E-01
        2   -1    0    0  501    0  0.00000000000E+00  0.00000000000E+00  0.97108982834E+03  0.97108982835E+03  0.25500000920E-02 0. -1.
       -2   -1    0    0    0  501  0.00000000000E+00  0.00000000000E+00 -0.86309710296E+03  0.86309710296E+03  0.25500000920E-02 0.  1.
    10030    2    1    2    0    0  0.00000000000E+00  0.00000000000E+00  0.10799272539E+03  0.18341869313E+04  0.18310049891E+04 0.  0.
        3    1    3    3  502    0  0.52595139521E+03  0.13082861734E+03  0.79311583680E+03  0.96061112737E+03  0.10100000352E+00 0. -1.
       -3    1    3    3    0  502 -0.52595139521E+03 -0.13082861734E+03 -0.68512311141E+03  0.87357580394E+03  0.10100000352E+00 0.  1.
</event>
<event>
 5   0  0.6771967E-04  0.1852163E+04  0.7818609E-02  0.8679041E-01
        2   -1    0    0  501    0  0.00000000000E+00  0.00000000000E+00  0.54002556120E+03  0.54002556120E+03  0.25500000920E-02 0.  1.
       -2   -1    0    0    0  501  0.00000000000E+00  0.00000000000E+00 -0.15881224614E+04  0.15881224614E+04  0.25500000920E-02 0. -1.
    10030    2    1    2    0    0  0.00000000000E+00  0.00000000000E+00 -0.10480969002E+04  0.21281480226E+04  0.18521627612E+04 0.  0.
        1    1    3    3  502    0  0.36390987319E+03 -0.82152496174E+03 -0.26637080968E+03  0.93716971081E+03  0.50400001928E-02 0. -1.
       -1    1    3    3    0  502 -0.36390987319E+03  0.82152496174E+03 -0.78172609056E+03  0.11909783118E+04  0.50400001928E-02 0.  1.
</event>
<event>
 5   0  0.3308275E-04  0.1882196E+04  0.7818609E-02  0.8663770E-01
        1   -1    0    0  501    0  0.00000000000E+00  0.00000000000E+00  0.98540263622E+03  0.98540263624E+03  0.50400001928E-02 0.  1.
       -1   -1    0    0    0  501  0.00000000000E+00  0.00000000000E+00 -0.89878555327E+03  0.89878555328E+03  0.50400001928E-02 0. -1.
    10030    2    1    2    0    0  0.00000000000E+00  0.00000000000E+00  0.86617082958E+02  0.18841881895E+04  0.18821962210E+04 0.  0.
        3    1    3    3  502    0 -0.80664132581E+03  0.11315150830E+03 -0.42856294668E+03  0.92040192406E+03  0.10100000352E+00 0. -1.
       -3    1    3    3    0  502  0.80664132581E+03 -0.11315150830E+03  0.51518002964E+03  0.96378626546E+03  0.10100000352E+00 0.  1.
</event>
<event>
 5   0  0.3308275E-04  0.1761546E+04  0.7818609E-02  0.8727020E-01
        1   -1    0    0  501    0  0.00000000000E+00  0.00000000000E+00  0.12921792832E+04  0.12921792832E+04  0.50400001928E-02 0.  1.
       -1   -1    0    0    0  501  0.00000000000E+00  0.00000000000E+00 -0.60035124254E+03  0.60035124256E+03  0.50400001928E-02 0. -1.
    10030    2    1    2    0    0  0.00000000000E+00  0.00000000000E+00  0.69182804065E+03  0.18925305258E+04  0.17615464096E+04 0.  0.
        3    1    3    3  502    0 -0.87642134023E+03 -0.74589032933E+01  0.43952149309E+03  0.98048414263E+03  0.10100000352E+00 0.  1.
       -3    1    3    3    0  502  0.87642134023E+03  0.74589032933E+01  0.25230654756E+03  0.91204638314E+03  0.10100000352E+00 0. -1.
</event>
<event>
 5   0  0.6547153E-04  0.1863842E+04  0.7818609E-02  0.8673067E-01
       -2   -1    0    0    0  501  0.00000000000E+00  0.00000000000E+00  0.56032116009E+03  0.56032116010E+03  0.25500000920E-02 0. -1.
        2   -1    0    0  501    0  0.00000000000E+00  0.00000000000E+00 -0.15499625015E+04  0.15499625015E+04  0.25500000920E-02 0.  1.
    10030    2    1    2    0    0  0.00000000000E+00  0.00000000000E+00 -0.98964134141E+03  0.21102836616E+04  0.18638420394E+04 0.  0.
        5    1    3    3  502    0 -0.58375673451E+03 -0.64394360867E+03 -0.87545524440E+03  0.12336447103E+04  0.46999998093E+01 0.  1.
       -5    1    3    3    0  502  0.58375673451E+03  0.64394360867E+03 -0.11418609701E+03  0.87663895133E+03  0.46999998093E+01 0. -1.
</event>
<event>
 5   0  0.3470962E-04  0.1757752E+04  0.7818609E-02  0.8729095E-01
        1   -1    0    0  501    0  0.00000000000E+00  0.00000000000E+00  0.10828790782E+04  0.10828790783E+04  0.50400001928E-02 0. -1.
       -1   -1    0    0    0  501  0.00000000000E+00  0.00000000000E+00 -0.71330527229E+03  0.71330527230E+03  0.50400001928E-02 0.  1.
    10030    2    1    2    0    0  0.00000000000E+00  0.00000000000E+00  0.36957380596E+03  0.17961843506E+04  0.17577523782E+04 0.  0.
        4    1    3    3  502    0 -0.32337199523E+03  0.75027831407E+03  0.51580586611E+03  0.96620096267E+03  0.12699999809E+01 0. -1.
       -4    1    3    3    0  502  0.32337199523E+03 -0.75027831407E+03 -0.14623206015E+03  0.82998338789E+03  0.12699999809E+01 0.  1.
</event>
<event>
 5   0  0.6771967E-04  0.1756558E+04  0.7818609E-02  0.8729749E-01
       -2   -1    0    0    0  501  0.00000000000E+00  0.00000000000E+00  0.43490045647E+03  0.43490045648E+03  0.25500000920E-02 0.  1.
        2   -1    0    0  501    0  0.00000000000E+00  0.00000000000E+00 -0.17736790701E+04  0.17736790701E+04  0.25500000920E-02 0. -1.
    10030    2    1    2    0    0  0.00000000000E+00  0.00000000000E+00 -0.13387786137E+04  0.22085795266E+04  0.17565578126E+04 0.  0.
        1    1    3    3  502    0  0.70512892062E+02 -0.62392654886E+03 -0.14415165876E+04  0.15723315422E+04  0.50400001928E-02 0.  1.
       -1    1    3    3    0  502 -0.70512892062E+02  0.62392654886E+03  0.10273797394E+03  0.63624798438E+03  0.50400001928E-02 0. -1.
</event>
<event>
 5   0  0.6929121E-04  0.1811484E+04  0.7818609E-02  0.8700216E-01
       -2   -1    0    0    0  501  0.00000000000E+00  0.00000000000E+00  0.77350866242E+03  0.77350866242E+03  0.25500000920E-02 0. -1.
        2   -1    0    0  501    0  0.00000000000E+00  0.00000000000E+00 -0.10605806958E+04  0.10605806958E+04  0.25500000920E-02 0.  1.
    10030    2    1    2    0    0  0.00000000000E+00  0.00000000000E+00 -0.28707203342E+03  0.18340893583E+04  0.18114837625E+04 0.  0.
        3    1    3    3  502    0 -0.40608473994E+03 -0.68723350357E+03 -0.57686479687E+03  0.98486938653E+03  0.10100000352E+00 0.  1.
       -3    1    3    3    0  502  0.40608473994E+03  0.68723350357E+03  0.28979276345E+03  0.84921997174E+03  0.10100000352E+00 0. -1.
</event>
<event>
 5   0  0.3404261E-04  0.1789396E+04  0.7818609E-02  0.8711959E-01
        1   -1    0    0  501    0  0.00000000000E+00  0.00000000000E+00  0.54610214380E+03  0.54610214382E+03  0.50400001928E-02 0. -1.
       -1   -1    0    0    0  501  0.00000000000E+00  0.00000000000E+00 -0.14658138983E+04  0.14658138983E+04  0.50400001928E-02 0.  1.
    10030    2    1    2    0    0  0.00000000000E+00  0.00000000000E+00 -0.91971175452E+03  0.20119160421E+04  0.17893955542E+04 0.  0.
        1    1    3    3  502    0  0.13931020345E+03  0.86237189424E+03 -0.67727108428E+03  0.11053455290E+04  0.50400001928E-02 0.  1.
       -1    1    3    3    0  502 -0.13931020345E+03 -0.86237189424E+03 -0.24244067024E+03  0.90657051318E+03  0.50400001928E-02 0. -1.
</event>
<event>
 5   0  0.6929121E-04  0.1806738E+04  0.7818609E-02  0.8702725E-01
        2   -1    0    0  501    0  0.00000000000E+00  0.00000000000E+00  0.14539205002E+04  0.14539205003E+04  0.25500000920E-02 0. -1.
       -2   -1    0    0    0  501  0.00000000000E+00  0.00000000000E+00 -0.56129305681E+03  0.56129305682E+03  0.25500000920E-02 0.  1.
    10030    2    1    2    0    0  0.00000000000E+00  0.00000000000E+00  0.89262744344E+03  0.20152135571E+04  0.18067379245E+04 0.  0.
        3    1    3    3  502    0  0.79240439773E+03 -0.16795365133E+03  0.89241632058E+03  0.12052054007E+04  0.10100000352E+00 0. -1.
       -3    1    3    3    0  502 -0.79240439773E+03  0.16795365133E+03  0.21112285526E+00  0.81000815632E+03  0.10100000352E+00 0.  1.
</event>
<event>
 5   0  0.6771967E-04  0.1092125E+04  0.7818609E-02  0.9212901E-01
       -2   -1    0    0    0  501  0.00000000000E+00  0.00000000000E+00  0.22783534900E+03  0.22783534901E+03  0.25500000920E-02 0. -1.
        2   -1    0    0  501    0  0.00000000000E+00  0.00000000000E+00 -0.13087716715E+04  0.13087716715E+04  0.25500000920E-02 0.  1.
    10030    2    1    2    0    0  0.00000000000E+00  0.00000000000E+00 -0.10809363225E+04  0.15366070205E+04  0.10921253601E+04 0.  0.
        1    1    3    3  502    0 -0.34248224027E+03 -0.34216934443E+03 -0.18505262089E+03  0.51828410905E+03  0.50400001928E-02 0. -1.
       -1    1    3    3    0  502  0.34248224027E+03  0.34216934443E+03 -0.89588370157E+03  0.10183229114E+04  0.50400001928E-02 0.  1.
</event>
<event>
 5   0  0.3377273E-04  0.1799795E+04  0.7818609E-02  0.8706408E-01
       -1   -1    0    0    0  501  0.00000000000E+00  0.00000000000E+00  0.99767266625E+03  0.99767266626E+03  0.50400001928E-02 0.  1.
        1   -1    0    0  501    0  0.00000000000E+00  0.00000000000E+00 -0.81170464334E+03  0.81170464335E+03  0.50400001928E-02 0. -1.
    10030    2    1    2    0    0  0.00000000000E+00  0.00000000000E+00  0.18596802291E+03  0.18093773096E+04  0.17997950280E+04 0.  0.
        2    1    3    3  502    0 -0.59259534944E+03 -0.40267534808E+02  0.77261939607E+03  0.97454166341E+03  0.25500000920E-02 0.  1.
       -2    1    3    3    0  502  0.59259534944E+03  0.40267534808E+02 -0.58665137316E+03  0.83483564620E+03  0.25500000920E-02 0. -1.
</event>
<event>
 5   0  0.6774451E-04  0.9661037E+03  0.7818609E-02  0.9346523E-01
        2   -1    0    0  501    0  0.00000000000E+00  0.00000000000E+00  0.12415239263E+04  0.12415239263E+04  0.25500000920E-02 0.  1.
       -2   -1    0    0    0  501  0.00000000000E+00  0.00000000000E+00 -0.18794571448E+03  0.18794571450E+03  0.25500000920E-02 0. -1.
    10030    2    1    2    0    0  0.00000000000E+00  0.00000000000E+00  0.10535782118E+04  0.14294696408E+04  0.96610372399E+03 0.  0.
        4    1    3    3  502    0 -0.89138015100E+02  0.77139545455E+02  0.12199123384E+04  0.12255952927E+04  0.12699999809E+01 0.  1.
       -4    1    3    3    0  502  0.89138015100E+02 -0.77139545455E+02 -0.16633412663E+03  0.20387434804E+03  0.12699999809E+01 0. -1.
</event>
<event>
 5   0  0.6853162E-04  0.1846090E+04  0.7818609E-02  0.8682166E-01
        2   -1    0    0  501    0  0.00000000000E+00  0.00000000000E+00  0.59451189587E+03  0.59451189587E+03  0.25500000920E-02 0.  1.
       -2   -1    0    0    0  501  0.00000000000E+00  0.00000000000E+00 -0.14331279521E+04  0.14331279521E+04  0.25500000920E-02 0. -1.
    10030    2    1    2    0    0  0.00000000000E+00  0.00000000000E+00 -0.83861605620E+03  0.20276398479E+04  0.18460895057E+04 0.  0.
        2    1    3    3  502    0 -0.62458126849E+03 -0.33918473832E+03 -0.10661786201E+04  0.12813605650E+04  0.25500000920E-02 0. -1.
       -2    1    3    3    0  502  0.62458126849E+03  0.33918473832E+03  0.22756256387E+03  0.74627928293E+03  0.25500000920E-02 0.  1.
</event>
<event>
 5   0  0.3308275E-04  0.1747895E+04  0.7818609E-02  0.8734510E-01
        1   -1    0    0  501    0  0.00000000000E+00  0.00000000000E+00  0.63023551221E+03  0.63023551223E+03  0.50400001928E-02 0.  1.
       -1   -1    0    0    0  501  0.00000000000E+00  0.00000000000E+00 -0.12119027315E+04  0.12119027315E+04  0.50400001928E-02 0. -1.
    10030    2    1    2    0    0  0.00000000000E+00  0.00000000000E+00 -0.58166721925E+03  0.18421382437E+04  0.17478948924E+04 0.  0.
        3    1    3    3  502    0 -0.65896400195E+02  0.18028861064E+02  0.62741693279E+03  0.63112549714E+03  0.10100000352E+00 0.  1.
       -3    1    3    3    0  502  0.65896400195E+02 -0.18028861064E+02 -0.12090841520E+04  0.12110127465E+04  0.10100000352E+00 0. -1.
</event>
<event>
 5   0  0.3470962E-04  0.1809282E+04  0.7818609E-02  0.8701379E-01
        1   -1    0    0  501    0  0.00000000000E+00  0.00000000000E+00  0.57642894020E+03  0.57642894022E+03  0.50400001928E-02 0. -1.
       -1   -1    0    0    0  501  0.00000000000E+00  0.00000000000E+00 -0.14197329823E+04  0.14197329823E+04  0.50400001928E-02 0.  1.
    10030    2    1    2    0    0  0.00000000000E+00  0.00000000000E+00 -0.84330404208E+03  0.19961619225E+04  0.18092818226E+04 0.  0.
        4    1    3    3  502    0  0.52588890060E+03 -0.70107539506E+03 -0.17419096314E+03  0.89353788384E+03  0.12699999809E+01 0. -1.
       -4    1    3    3    0  502 -0.52588890060E+03  0.70107539506E+03 -0.66911307894E+03  0.11026240387E+04  0.12699999809E+01 0.  1.
</event>
<event>
 5   0  0.3413839E-04  0.1681496E+04  0.7818609E-02  0.8771989E-01
       -1   -1    0    0    0  501  0.00000000000E+00  0.00000000000E+00  0.10434050479E+04  0.10434050479E+04  0.50400001928E-02 0. -1.
        1   -1    0    0  501    0  0.00000000000E+00  0.00000000000E+00 -0.67745238904E+03  0.67745238906E+03  0.50400001928E-02 0.  1.
    10030    2    1    2    0    0  0.00000000000E+00  0.00000000000E+00  0.36595265888E+03  0.17208574370E+04  0.16814960511E+04 0.  0.
        5    1    3    3  502    0 -0.15356498588E+03  0.62833480743E+03 -0.36666963827E+03  0.74354256686E+03  0.46999998093E+01 0.  1.
       -5    1    3    3    0  502  0.15356498588E+03 -0.62833480743E+03  0.73262229715E+03  0.97731487014E+03  0.46999998093E+01 0. -1.
</event>
<event>
 5   0  0.3470962E-04  0.1698052E+04  0.7818609E-02  0.8762476E-01
        1   -1    0    0  501    0  0.00000000000E+00  0.00000000000E+00  0.17804487636E+04  0.17804487636E+04  0.50400001928E-02 0.  1.
       -1   -1    0    0    0  501  0.00000000000E+00  0.00000000000E+00 -0.40486711154E+03  0.40486711157E+03  0.50400001928E-02 0. -1.
    10030    2    1    2    0    0  0.00000000000E+00  0.00000000000E+00  0.13755816521E+04  0.21853158752E+04  0.16980519995E+04 0.  0.
        4    1    3    3  502    0  0.36063964683E+03 -0.62855858804E+03  0.12571088931E+04  0.14510242022E+04  0.12699999809E+01 0.  1.
       -4    1    3    3    0  502 -0.36063964683E+03  0.62855858804E+03  0.11847275897E+03  0.73429167296E+03  0.12699999809E+01 0. -1.
</event>
<event>
 5   0  0.3404261E-04  0.1747914E+04  0.7818609E-02  0.8734499E-01
       -1   -1    0    0    0  501  0.00000000000E+00  0.00000000000E+00  0.13158401557E+04  0.13158401558E+04  0.50400001928E-02 0. -1.
        1   -1    0    0  501    0  0.00000000000E+00  0.00000000000E+00 -0.58046621626E+03  0.58046621628E+03  0.50400001928E-02 0.  1.
    10030    2    1    2    0    0  0.00000000000E+00  0.00000000000E+00  0.73537393948E+03  0.18963063720E+04  0.17479139068E+04 0.  0.
        1    1    3    3  502    0  0.72987593266E+03  0.12697435296E+03  0.87068545846E+03  0.11432123735E+04  0.50400001928E-02 0. -1.
       -1    1    3    3    0  502 -0.72987593266E+03 -0.12697435296E+03 -0.13531151897E+03  0.75309399850E+03  0.50400001928E-02 0.  1.
</event>
<event>
 5   0  0.6547153E-04  0.2078727E+04  0.7818609E-02  0.8570673E-01
       -2   -1    0    0    0  501  0.00000000000E+00  0.00000000000E+00  0.11649192350E+04  0.11649192350E+04  0.25500000920E-02 0.  1.
        2   -1    0    0  501    0  0.00000000000E+00  0.00000000000E+00 -0.92733986027E+03  0.92733986027E+03  0.25500000920E-02 0. -1.
    10030    2    1    2    0    0  0.00000000000E+00  0.00000000000E+00  0.23757937477E+03  0.20922590953E+04  0.20787265724E+04 0.  0.
        5    1    3    3  502    0 -0.51175600649E+02  0.77347221056E+03  0.81566667962E+03  0.11252610474E+04  0.46999998093E+01 0.  1.
       -5    1    3    3    0  502  0.51175600649E+02 -0.77347221056E+03 -0.57808730485E+03  0.96699804790E+03  0.46999998093E+01 0. -1.
</event>
<event>
 5   0  0.3470962E-04  0.1756092E+04  0.7818609E-02  0.8730004E-01
        1   -1    0    0  501    0  0.00000000000E+00  0.00000000000E+00  0.76645141437E+03  0.76645141439E+03  0.50400001928E-02 0.  1.
       -1   -1    0    0    0  501  0.00000000000E+00  0.00000000000E+00 -0.10058887433E+04  0.10058887433E+04  0.50400001928E-02 0. -1.
    10030    2    1    2    0    0  0.00000000000E+00  0.00000000000E+00 -0.23943732896E+03  0.17723401577E+04  0.17560920819E+04 0.  0.
        4    1    3    3  502    0  0.33598553301E+03 -0.37760137231E+03  0.60490359174E+03  0.78827599416E+03  0.12699999809E+01 0.  1.
       -4    1    3    3    0  502 -0.33598553301E+03  0.37760137231E+03 -0.84434092070E+03  0.98406416358E+03  0.12699999809E+01 0. -1.
</event>
<event>
 5   0  0.2467375E-04  0.1680672E+04  0.7818609E-02  0.8772465E-01
       -4   -1    0    0    0  501  0.00000000000E+00  0.00000000000E+00  0.10405682934E+04  0.10405690684E+04  0.12699999809E+01 0.  1.
        4   -1    0    0  501    0  0.00000000000E+00  0.00000000000E+00 -0.67863203847E+03  0.67863322682E+03  0.12699999809E+01 0. -1.
    10030    2    1    2    0    0  0.00000000000E+00  0.00000000000E+00  0.36193625489E+03  0.17192022952E+04  0.16806720915E+04 0.  0.
        4    1    3    3  502    0 -0.40028069178E+03 -0.38872501238E+03 -0.46179325318E+03  0.72428336239E+03  0.12699999809E+01 0. -1.
       -4    1    3    3    0  502  0.40028069178E+03  0.38872501238E+03  0.82372950807E+03  0.99491893279E+03  0.12699999809E+01 0.  1.
</event>
<event>
 5   0  0.6929121E-04  0.1552100E+04  0.7818609E-02  0.8850527E-01
       -2   -1    0    0    0  501  0.00000000000E+00  0.00000000000E+00  0.77670259635E+03  0.77670259635E+03  0.25500000920E-02 0. -1.
        2   -1    0    0  501    0  0.00000000000E+00  0.00000000000E+00 -0.77539835980E+03  0.77539835980E+03  0.25500000920E-02 0.  1.
    10030    2    1    2    0    0  0.00000000000E+00  0.00000000000E+00  0.13042365476E+01  0.15521009562E+04  0.15521004082E+04 0.  0.
        3    1    3    3  502    0 -0.22050195136E+03  0.73397647119E+03 -0.12145991542E+03  0.77594786685E+03  0.10100000352E+00 0.  1.
       -3    1    3    3    0  502  0.22050195136E+03 -0.73397647119E+03  0.12276415197E+03  0.77615308930E+03  0.10100000352E+00 0. -1.
</event>
<event>
 5   0  0.6929121E-04  0.1796402E+04  0.7818609E-02  0.8708215E-01
       -2   -1    0    0    0  501  0.00000000000E+00  0.00000000000E+00  0.36701877222E+03  0.36701877223E+03  0.25500000920E-02 0.  1.
        2   -1    0    0  501    0  0.00000000000E+00  0.00000000000E+00 -0.21981567275E+04  0.21981567275E+04  0.25500000920E-02 0. -1.
    10030    2    1    2    0    0  0.00000000000E+00  0.00000000000E+00 -0.18311379553E+04  0.25651754997E+04  0.17964017182E+04 0.  0.
        3    1    3    3  502    0  0.21335133283E+03  0.30321465817E+03 -0.20837933359E+04  0.21165189811E+04  0.10100000352E+00 0. -1.
       -3    1    3    3    0  502 -0.21335133283E+03 -0.30321465817E+03  0.25265538067E+03  0.44865651865E+03  0.10100000352E+00 0.  1.
</event>
<event>
 5   0  0.3413839E-04  0.1798013E+04  0.7818609E-02  0.8707357E-01
        1   -1    0    0  501    0  0.00000000000E+00  0.00000000000E+00  0.16349664610E+04  0.16349664610E+04  0.50400001928E-02 0. -1.
       -1   -1    0    0    0  501  0.00000000000E+00  0.00000000000E+00 -0.49432970835E+03  0.49432970838E+03  0.50400001928E-02 0.  1.
    10030    2    1    2    0    0  0.00000000000E+00  0.00000000000E+00  0.11406367526E+04  0.21292961693E+04  0.17980127851E+04 0.  0.
        5    1    3    3  502    0  0.66814654481E+03 -0.45087549641E+02 -0.13997257319E+03  0.68415429818E+03  0.46999998093E+01 0.  1.
       -5    1    3    3    0  502 -0.66814654481E+03  0.45087549641E+02  0.12806093258E+04  0.14451418712E+04  0.46999998093E+01 0. -1.
</event>
<event>
 5   0  0.6547153E-04  0.1792793E+04  0.7818609E-02  0.8710141E-01
        2   -1    0    0  501    0  0.00000000000E+00  0.00000000000E+00  0.65209648933E+03  0.65209648934E+03  0.25500000920E-02 0. -1.
       -2   -1    0    0    0  501  0.00000000000E+00  0.00000000000E+00 -0.12322211483E+04  0.12322211483E+04  0.25500000920E-02 0.  1.
    10030    2    1    2    0    0  0.00000000000E+00  0.00000000000E+00 -0.58012465899E+03  0.18843176377E+04  0.17927934459E+04 0.  0.
        5    1    3    3  502    0  0.11552016881E+03  0.61665129683E+03  0.38285774756E+03  0.73498699046E+03  0.46999998093E+01 0. -1.
       -5    1    3    3    0  502 -0.11552016881E+03 -0.61665129683E+03 -0.96298240656E+03  0.11493306472E+04  0.46999998093E+01 0.  1.
</event>
<event>
 5   0  0.6929121E-04  0.1878815E+04  0.7818609E-02  0.8665474E-01
        2   -1    0    0  501    0  0.00000000000E+00  0.00000000000E+00  0.83116642170E+03  0.83116642170E+03  0.25500000920E-02 0. -1.
       -2   -1    0    0    0  501  0.00000000000E+00  0.00000000000E+00 -0.10617447697E+04  0.10617447697E+04  0.25500000920E-02 0.  1.
    10030    2    1    2    0    0  0.00000000000E+00  0.00000000000E+00 -0.23057834803E+03  0.18929111914E+04  0.18788151596E+04 0.  0.
        3    1    3    3  502    0 -0.71222907758E+03  0.56317716267E+03  0.12744958250E+03  0.91688722414E+03  0.10100000352E+00 0. -1.
       -3    1    3    3    0  502  0.71222907758E+03 -0.56317716267E+03 -0.35802793053E+03  0.97602396730E+03  0.10100000352E+00 0.  1.
</event>
<event>
 5   0  0.3308275E-04  0.1040940E+04  0.7818609E-02  0.9264748E-01
       -1   -1    0    0    0  501  0.00000000000E+00  0.00000000000E+00  0.10607310734E+04  0.10607310734E+04  0.50400001928E-02 0. -1.
        1   -1    0    0  501    0  0.00000000000E+00  0.00000000000E+00 -0.25537976396E+03  0.25537976401E+03  0.50400001928E-02 0.  1.
    10030    2    1    2    0    0  0.00000000000E+00  0.00000000000E+00  0.80535130947E+03  0.13161108375E+04  0.10409404425E+04 0.  0.
        3    1    3    3  502    0 -0.22076184126E+03 -0.58807840721E+02 -0.18859469071E+03  0.29624672192E+03  0.10100000352E+00 0.  1.
       -3    1    3    3    0  502  0.22076184126E+03  0.58807840721E+02  0.99394600017E+03  0.10198641155E+04  0.10100000352E+00 0. -1.
</event>
<event>
 5   0  0.3308275E-04  0.1862124E+04  0.7818609E-02  0.8673943E-01
       -1   -1    0    0    0  501  0.00000000000E+00  0.00000000000E+00  0.35429918062E+03  0.35429918066E+03  0.50400001928E-02 0. -1.
        1   -1    0    0  501    0  0.00000000000E+00  0.00000000000E+00 -0.24467369091E+04  0.24467369091E+04  0.50400001928E-02 0.  1.
    10030    2    1    2    0    0  0.00000000000E+00  0.00000000000E+00 -0.20924377285E+04  0.28010360897E+04  0.18621244664E+04 0.  0.
        3    1    3    3  502    0  0.74081030734E+03 -0.23948263867E+03 -0.27814788141E+03  0.82675153452E+03  0.10100000352E+00 0. -1.
       -3    1    3    3    0  502 -0.74081030734E+03  0.23948263867E+03 -0.18142898470E+04  0.19742845552E+04  0.10100000352E+00 0.  1.
</event>
<event>
 5   0  0.3470962E-04  0.1801582E+04  0.7818609E-02  0.8705459E-01
       -1   -1    0    0    0  501  0.00000000000E+00  0.00000000000E+00  0.42035251164E+03  0.42035251167E+03  0.50400001928E-02 0.  1.
        1   -1    0    0  501    0  0.00000000000E+00  0.00000000000E+00 -0.19303428542E+04  0.19303428542E+04  0.50400001928E-02 0. -1.
    10030    2    1    2    0    0  0.00000000000E+00  0.00000000000E+00 -0.15099903426E+04  0.23506953659E+04  0.18015820460E+04 0.  0.
        4    1    3    3  502    0  0.15384051123E+03  0.81726468140E+03 -0.12066774420E+04  0.14654898582E+04  0.12699999809E+01 0. -1.
       -4    1    3    3    0  502 -0.15384051123E+03 -0.81726468140E+03 -0.30331290053E+03  0.88520550772E+03  0.12699999809E+01 0.  1.
</event>
<event>
 5   0  0.6771967E-04  0.1829671E+04  0.7818609E-02  0.8690678E-01
        2   -1    0    0  501    0  0.00000000000E+00  0.00000000000E+00  0.14167310914E+04  0.14167310914E+04  0.25500000920E-02 0. -1.
       -2   -1    0    0    0  501  0.00000000000E+00  0.00000000000E+00 -0.59074310028E+03  0.59074310028E+03  0.25500000920E-02 0.  1.
    10030    2    1    2    0    0  0.00000000000E+00  0.00000000000E+00  0.82598799114E+03  0.20074741917E+04  0.18296711368E+04 0.  0.
        1    1    3    3  502    0  0.45686887360E+03 -0.46718147838E+03  0.11154759677E+04  0.12927777596E+04  0.50400001928E-02 0. -1.
       -1    1    3    3    0  502 -0.45686887360E+03  0.46718147838E+03 -0.28948797652E+03  0.71469643205E+03  0.50400001928E-02 0.  1.
</event>
<event>
 5   0  0.2467375E-04  0.1818450E+04  0.7818609E-02  0.8696549E-01
       -4   -1    0    0    0  501  0.00000000000E+00  0.00000000000E+00  0.11736577019E+04  0.11736583890E+04  0.12699999809E+01 0. -1.
        4   -1    0    0  501    0  0.00000000000E+00  0.00000000000E+00 -0.70436959044E+03  0.70437073537E+03  0.12699999809E+01 0.  1.
    10030    2    1    2    0    0  0.00000000000E+00  0.00000000000E+00  0.46928811142E+03  0.18780291244E+04  0.18184504559E+04 0.  0.
        2    1    3    3  502    0 -0.63910082797E+03 -0.41749420619E+03 -0.27543991755E+03  0.81155309666E+03  0.25500000920E-02 0.  1.
       -2    1    3    3    0  502  0.63910082797E+03  0.41749420619E+03  0.74472802897E+03  0.10664760277E+04  0.25500000920E-02 0. -1.
</event>
<event>
 5   0  0.6853162E-04  0.1820261E+04  0.7818609E-02  0.8695598E-01
       -2   -1    0    0    0  501  0.00000000000E+00  0.00000000000E+00  0.87626664950E+03  0.87626664951E+03  0.25500000920E-02 0. -1.
        2   -1    0    0  501    0  0.00000000000E+00  0.00000000000E+00 -0.94530309910E+03  0.94530309910E+03  0.25500000920E-02 0.  1.
    10030    2    1    2    0    0  0.00000000000E+00  0.00000000000E+00 -0.69036449596E+02  0.18215697486E+04  0.18202610576E+04 0.  0.
        2    1    3    3  502    0  0.64188134640E+03  0.25894875227E+03  0.55689860261E+03  0.88837051547E+03  0.25500000920E-02 0. -1.
       -2    1    3    3    0  502 -0.64188134640E+03 -0.25894875227E+03 -0.62593505220E+03  0.93319923314E+03  0.25500000920E-02 0.  1.
</event>
<event>
 5   0  0.6929121E-04  0.1802501E+04  0.7818609E-02  0.8704971E-01
       -2   -1    0    0    0  501  0.00000000000E+00  0.00000000000E+00  0.92995483849E+03  0.92995483849E+03  0.25500000920E-02 0.  1.
        2   -1    0    0  501    0  0.00000000000E+00  0.00000000000E+00 -0.87343228089E+03  0.87343228089E+03  0.25500000920E-02 0. -1.
    10030    2    1    2    0    0  0.00000000000E+00  0.00000000000E+00  0.56522557600E+02  0.18033871194E+04  0.18025011242E+04 0.  0.
        3    1    3    3  502    0  0.47268124012E+03  0.67241797707E+03  0.39814433248E+03  0.91328659814E+03  0.10100000352E+00 0.  1.
       -3    1    3    3    0  502 -0.47268124012E+03 -0.67241797707E+03 -0.34162177488E+03  0.89010052124E+03  0.10100000352E+00 0. -1.
</event>
<event>
 5   0  0.3377273E-04  0.1056864E+04  0.7818609E-02  0.9248286E-01
       -1   -1    0    0    0  501  0.00000000000E+00  0.00000000000E+00  0.50931310224E+03  0.50931310226E+03  0.50400001928E-02 0. -1.
        1   -1    0    0  501    0  0.00000000000E+00  0.00000000000E+00 -0.54826827981E+03  0.54826827983E+03  0.50400001928E-02 0.  1.
    10030    2    1    2    0    0  0.00000000000E+00  0.00000000000E+00 -0.38955177574E+02  0.10575813821E+04  0.10568636969E+04 0.  0.
        2    1    3    3  502    0 -0.35130283611E+03 -0.26533679517E+03  0.27299288277E+03  0.51801777149E+03  0.25500000920E-02 0. -1.
       -2    1    3    3    0  502  0.35130283611E+03  0.26533679517E+03 -0.31194806035E+03  0.53956361060E+03  0.25500000920E-02 0.  1.
</event>
<event>
 5   0  0.3404261E-04  0.1787236E+04  0.7818609E-02  0.8713117E-01
       -1   -1    0    0    0  501  0.00000000000E+00  0.00000000000E+00  0.59013592706E+03  0.59013592708E+03  0.50400001928E-02 0.  1.
        1   -1    0    0  501    0  0.00000000000E+00  0.00000000000E+00 -0.13531685056E+04  0.13531685056E+04  0.50400001928E-02 0. -1.
    10030    2    1    2    0    0  0.00000000000E+00  0.00000000000E+00 -0.76303257852E+03  0.19433044327E+04  0.17872362469E+04 0.  0.
        1    1    3    3  502    0  0.45302984179E+03  0.58570976918E+03 -0.92546229795E+03  0.11852309632E+04  0.50400001928E-02 0.  1.
       -1    1    3    3    0  502 -0.45302984179E+03 -0.58570976918E+03  0.16242971944E+03  0.75807346943E+03  0.50400001928E-02 0. -1.
</event>
<event>
 5   0  0.6929121E-04  0.1812246E+04  0.7818609E-02  0.8699814E-01
        2   -1    0    0  501    0  0.00000000000E+00  0.00000000000E+00  0.17611216179E+04  0.17611216179E+04  0.25500000920E-02 0. -1.
       -2   -1    0    0    0  501  0.00000000000E+00  0.00000000000E+00 -0.46621353654E+03  0.46621353654E+03  0.25500000920E-02 0.  1.
    10030    2    1    2    0    0  0.00000000000E+00  0.00000000000E+00  0.12949080814E+04  0.22273351544E+04  0.18122458307E+04 0.  0.
        3    1    3    3  502    0 -0.63401869897E+03  0.52410526096E+03  0.18042802935E+03  0.84215219479E+03  0.10100000352E+00 0.  1.
       -3    1    3    3    0  502  0.63401869897E+03 -0.52410526096E+03  0.11144800520E+04  0.13851829597E+04  0.10100000352E+00 0. -1.
</event>
<event>
 5   0  0.6547153E-04  0.1457681E+04  0.7818609E-02  0.8913093E-01
        2   -1    0    0  501    0  0.00000000000E+00  0.00000000000E+00  0.75334670666E+03  0.75334670667E+03  0.25500000920E-02 0.  1.
       -2   -1    0    0    0  501  0.00000000000E+00  0.00000000000E+00 -0.70513100790E+03  0.70513100791E+03  0.25500000920E-02 0. -1.
    10030    2    1    2    0    0  0.00000000000E+00  0.00000000000E+00  0.48215698760E+02  0.14584777146E+04  0.14576805172E+04 0.  0.
        5    1    3    3  502    0  0.72620398473E+01 -0.50839088246E+03  0.54657347805E+03  0.74651100695E+03  0.46999998093E+01 0.  1.
       -5    1    3    3    0  502 -0.72620398473E+01  0.50839088246E+03 -0.49835777929E+03  0.71196670763E+03  0.46999998093E+01 0. -1.
</event>
<event>
 5   0  0.3308275E-04  0.1780154E+04  0.7818609E-02  0.8716925E-01
        1   -1    0    0  501    0  0.00000000000E+00  0.00000000000E+00  0.12071371474E+04  0.12071371474E+04  0.50400001928E-02 0. -1.
       -1   -1    0    0    0  501  0.00000000000E+00  0.00000000000E+00 -0.65629398547E+03  0.65629398549E+03  0.50400001928E-02 0.  1.
    10030    2    1    2    0    0  0.00000000000E+00  0.00000000000E+00  0.55084316189E+03  0.18634311329E+04  0.17801537568E+04 0.  0.
        3    1    3    3  502    0 -0.38797957279E+03 -0.38924755883E+03  0.10083140905E+04  0.11483636733E+04  0.10100000352E+00 0. -1.
       -3    1    3    3    0  502  0.38797957279E+03  0.38924755883E+03 -0.45747092860E+03  0.71506745953E+03  0.10100000352E+00 0.  1.
</event>
<event>
 5   0  0.3377273E-04  0.1590385E+04  0.7818609E-02  0.8826477E-01
       -1   -1    0    0    0  501  0.00000000000E+00  0.00000000000E+00  0.15442533204E+04  0.15442533204E+04  0.50400001928E-02 0. -1.
        1   -1    0    0  501    0  0.00000000000E+00  0.00000000000E+00 -0.40947356605E+03  0.40947356608E+03  0.50400001928E-02 0.  1.
    10030    2    1    2    0    0  0.00000000000E+00  0.00000000000E+00  0.11347797544E+04  0.19537268865E+04  0.15903847510E+04 0.  0.
        2    1    3    3  502    0  0.68543618876E+03  0.32313669625E+03  0.27130555879E+03  0.80488930888E+03  0.25500000920E-02 0.  1.
       -2    1    3    3    0  502 -0.68543618876E+03 -0.32313669625E+03  0.86347419560E+03  0.11488375776E+04  0.25500000920E-02 0. -1.
</event>
<event>
 5   0  0.3377273E-04  0.1777928E+04  0.7818609E-02  0.8718126E-01
       -1   -1    0    0    0  501  0.00000000000E+00  0.00000000000E+00  0.73446203734E+03  0.73446203735E+03  0.50400001928E-02 0. -1.
        1   -1    0    0  501    0  0.00000000000E+00  0.00000000000E+00 -0.10759674416E+04  0.10759674416E+04  0.50400001928E-02 0.  1.
    10030    2    1    2    0    0  0.00000000000E+00  0.00000000000E+00 -0.34150540429E+03  0.18104294790E+04  0.17779282767E+04 0.  0.
        2    1    3    3  502    0 -0.80377527873E+02 -0.41726030542E+02  0.72975244399E+03  0.73535041859E+03  0.25500000920E-02 0. -1.
       -2    1    3    3    0  502  0.80377527873E+02  0.41726030542E+02 -0.10712578483E+04  0.10750790604E+04  0.25500000920E-02 0.  1.
</event>
<event>
 5   0  0.6774451E-04  0.1739862E+04  0.7818609E-02  0.8738951E-01
        2   -1    0    0  501    0  0.00000000000E+00  0.00000000000E+00  0.59468144549E+03  0.59468144549E+03  0.25500000920E-02 0. -1.
       -2   -1    0    0    0  501  0.00000000000E+00  0.00000000000E+00 -0.12725804595E+04  0.12725804596E+04  0.25500000920E-02 0.  1.
    10030    2    1    2    0    0  0.00000000000E+00  0.00000000000E+00 -0.67789901406E+03  0.18672619050E+04  0.17398620488E+04 0.  0.
        4    1    3    3  502    0 -0.43285918637E+03  0.18846647727E+03  0.44523273058E+03  0.64893796742E+03  0.12699999809E+01 0. -1.
       -4    1    3    3    0  502  0.43285918637E+03 -0.18846647727E+03 -0.11231317446E+04  0.12183239376E+04  0.12699999809E+01 0.  1.
</event>
<event>
 5   0  0.3413839E-04  0.1900004E+04  0.7818609E-02  0.8654854E-01
        1   -1    0    0  501    0  0.00000000000E+00  0.00000000000E+00  0.10019496346E+04  0.10019496346E+04  0.50400001928E-02 0. -1.
       -1   -1    0    0    0  501  0.00000000000E+00  0.00000000000E+00 -0.90074803181E+03  0.90074803183E+03  0.50400001928E-02 0.  1.
    10030    2    1    2    0    0  0.00000000000E+00  0.00000000000E+00  0.10120160278E+03  0.19026976664E+04  0.19000043804E+04 0.  0.
        5    1    3    3  502    0 -0.25118221898E+02  0.27162245238E+03 -0.86067394576E+03  0.90287951168E+03  0.46999998093E+01 0.  1.
       -5    1    3    3    0  502  0.25118221898E+02 -0.27162245238E+03  0.96187554854E+03  0.99981815476E+03  0.46999998093E+01 0. -1.
</event>
<event>
 5   0  0.6547153E-04  0.1832907E+04  0.7818609E-02  0.8688993E-01
       -2   -1    0    0    0  501  0.00000000000E+00  0.00000000000E+00  0.52418742432E+03  0.52418742432E+03  0.25500000920E-02 0.  1.
        2   -1    0    0  501    0  0.00000000000E+00  0.00000000000E+00 -0.16022653128E+04  0.16022653128E+04  0.25500000920E-02 0. -1.
    10030    2    1    2    0    0  0.00000000000E+00  0.00000000000E+00 -0.10780778885E+04  0.21264527372E+04  0.18329073380E+04 0.  0.
        5    1    3    3  502    0  0.76535098585E+03  0.98410231513E+02 -0.11126034799E+04  0.13540145120E+04  0.46999998093E+01 0. -1.
       -5    1    3    3    0  502 -0.76535098585E+03 -0.98410231513E+02  0.34525591400E+02  0.77243822515E+03  0.46999998093E+01 0.  1.
</event>
<event>
 5   0  0.3377273E-04  0.1780811E+04  0.7818609E-02  0.8716571E-01
       -1   -1    0    0    0  501  0.00000000000E+00  0.00000000000E+00  0.64432518915E+03  0.64432518917E+03  0.50400001928E-02 0. -1.
        1   -1    0    0  501    0  0.00000000000E+00  0.00000000000E+00 -0.12304684610E+04  0.12304684610E+04  0.50400001928E-02 0.  1.
    10030    2    1    2    0    0  0.00000000000E+00  0.00000000000E+00 -0.58614327182E+03  0.18747936502E+04  0.17808108534E+04 0.  0.
        2    1    3    3  502    0 -0.17443917426E+03 -0.86616695857E+03 -0.40910446738E+03  0.97367381133E+03  0.25500000920E-02 0.  1.
       -2    1    3    3    0  502  0.17443917426E+03  0.86616695857E+03 -0.17703880443E+03  0.90111983882E+03  0.25500000920E-02 0. -1.
</event>
<event>
 5   0  0.6771967E-04  0.1713092E+04  0.7818609E-02  0.8753932E-01
        2   -1    0    0  501    0  0.00000000000E+00  0.00000000000E+00  0.25887480599E+04  0.25887480599E+04  0.25500000920E-02 0. -1.
       -2   -1    0    0    0  501  0.00000000000E+00  0.00000000000E+00 -0.28340776494E+03  0.28340776495E+03  0.25500000920E-02 0.  1.
    10030    2    1    2    0    0  0.00000000000E+00  0.00000000000E+00  0.23053402949E+04  0.28721558248E+04  0.17130922937E+04 0.  0.
        1    1    3    3  502    0 -0.36618055051E+03  0.73024648713E+03  0.15844475288E+04  0.17826446923E+04  0.50400001928E-02 0. -1.
       -1    1    3    3    0  502  0.36618055051E+03 -0.73024648713E+03  0.72089276613E+03  0.10895111325E+04  0.50400001928E-02 0.  1.
</event>
<event>
 5   0  0.3413839E-04  0.1811068E+04  0.7818609E-02  0.8700435E-01
        1   -1    0    0  501    0  0.00000000000E+00  0.00000000000E+00  0.71927449657E+03  0.71927449659E+03  0.50400001928E-02 0.  1.
       -1   -1    0    0    0  501  0.00000000000E+00  0.00000000000E+00 -0.11400267842E+04  0.11400267842E+04  0.50400001928E-02 0. -1.
    10030    2    1    2    0    0  0.00000000000E+00  0.00000000000E+00 -0.42075228767E+03  0.18593012808E+04  0.18110684044E+04 0.  0.
        5    1    3    3  502    0 -0.34268872540E+03  0.71767674031E+03 -0.65489089046E+03  0.10302425125E+04  0.46999998093E+01 0. -1.
       -5    1    3    3    0  502  0.34268872540E+03 -0.71767674031E+03  0.23413860279E+03  0.82905876837E+03  0.46999998093E+01 0.  1.
</event>
<event>
 5   0  0.3377273E-04  0.1605967E+04  0.7818609E-02  0.8816890E-01
        1   -1    0    0  501    0  0.00000000000E+00  0.00000000000E+00  0.11741206553E+04  0.11741206553E+04  0.50400001928E-02 0. -1.
       -1   -1    0    0    0  501  0.00000000000E+00  0.00000000000E+00 -0.54916220673E+03  0.54916220676E+03  0.50400001928E-02 0.  1.
    10030    2    1    2    0    0  0.00000000000E+00  0.00000000000E+00  0.62495844859E+03  0.17232828621E+04  0.16059672351E+04 0.  0.
        2    1    3    3  502    0 -0.71180081810E+03  0.28547799831E+03  0.57137107737E+02  0.76904014281E+03  0.25500000920E-02 0. -1.
       -2    1    3    3    0  502  0.71180081810E+03 -0.28547799831E+03  0.56782134085E+03  0.95424271928E+03  0.25500000920E-02 0.  1.
</event>
<event>
 5   0  0.6853162E-04  0.1806545E+04  0.7818609E-02  0.8702827E-01
       -2   -1    0    0    0  501  0.00000000000E+00  0.00000000000E+00  0.58942968642E+03  0.58942968643E+03  0.25500000920E-02 0.  1.
        2   -1    0    0  501    0  0.00000000000E+00  0.00000000000E+00 -0.13842215873E+04  0.13842215873E+04  0.25500000920E-02 0. -1.
    10030    2    1    2    0    0  0.00000000000E+00  0.00000000000E+00 -0.79479190086E+03  0.19736512737E+04  0.18065450962E+04 0.  0.
        2    1    3    3  502    0  0.56418600764E+03  0.47624216807E+03  0.17111259195E+03  0.75788651723E+03  0.25500000920E-02 0.  1.
       -2    1    3    3    0  502 -0.56418600764E+03 -0.47624216807E+03 -0.96590449281E+03  0.12157647565E+04  0.25500000920E-02 0. -1.
</event>
<event>
 5   0  0.6853162E-04  0.1791055E+04  0.7818609E-02  0.8711071E-01
       -2   -1    0    0    0  501  0.00000000000E+00  0.00000000000E+00  0.63811649379E+03  0.63811649380E+03  0.25500000920E-02 0.  1.
        2   -1    0    0  501    0  0.00000000000E+00  0.00000000000E+00 -0.12567757355E+04  0.12567757355E+04  0.25500000920E-02 0. -1.
    10030    2    1    2    0    0  0.00000000000E+00  0.00000000000E+00 -0.61865924173E+03  0.18948922293E+04  0.17910548019E+04 0.  0.
        2    1    3    3  502    0  0.25996887414E+03  0.41380263503E+03 -0.11032716608E+04  0.12066585241E+04  0.25500000920E-02 0. -1.
       -2    1    3    3    0  502 -0.25996887414E+03 -0.41380263503E+03  0.48461241906E+03  0.68823370521E+03  0.25500000920E-02 0.  1.
</event>
<event>
 5   0  0.6774451E-04  0.1796953E+04  0.7818609E-02  0.8707921E-01
       -2   -1    0    0    0  501  0.00000000000E+00  0.00000000000E+00  0.94203151278E+03  0.94203151278E+03  0.25500000920E-02 0.  1.
        2   -1    0    0  501    0  0.00000000000E+00  0.00000000000E+00 -0.85693558906E+03  0.85693558906E+03  0.25500000920E-02 0. -1.
    10030    2    1    2    0    0  0.00000000000E+00  0.00000000000E+00  0.85095923721E+02  0.17989671018E+04  0.17969533431E+04 0.  0.
        4    1    3    3  502    0 -0.41115558712E+03 -0.48251143737E+03 -0.59486997725E+03  0.86933198880E+03  0.12699999809E+01 0. -1.
       -4    1    3    3    0  502  0.41115558712E+03  0.48251143737E+03  0.67996590097E+03  0.92963511304E+03  0.12699999809E+01 0.  1.
</event>
<event>
 5   0  0.6853162E-04  0.1764433E+04  0.7818609E-02  0.8725446E-01
        2   -1    0    0  501    0  0.00000000000E+00  0.00000000000E+00  0.10321221807E+04  0.10321221807E+04  0.25500000920E-02 0. -1.
       -2   -1    0    0    0  501  0.00000000000E+00  0.00000000000E+00 -0.75408282477E+03  0.75408282477E+03  0.25500000920E-02 0.  1.
    10030    2    1    2    0    0  0.00000000000E+00  0.00000000000E+00  0.27803935598E+03  0.17862050055E+04  0.17644326109E+04 0.  0.
        2    1    3    3  502    0 -0.62215103356E+03  0.40170037129E+03 -0.34634465423E+03  0.81755104818E+03  0.25500000920E-02 0.  1.
       -2    1    3    3    0  502  0.62215103356E+03 -0.40170037129E+03  0.62438401021E+03  0.96865395734E+03  0.25500000920E-02 0. -1.
</event>
<event>
 5   0  0.6853162E-04  0.1923029E+04  0.7818609E-02  0.8643477E-01
       -2   -1    0    0    0  501  0.00000000000E+00  0.00000000000E+00  0.50535785731E+03  0.50535785731E+03  0.25500000920E-02 0.  1.
        2   -1    0    0  501    0  0.00000000000E+00  0.00000000000E+00 -0.18294173704E+04  0.18294173704E+04  0.25500000920E-02 0. -1.
    10030    2    1    2    0    0  0.00000000000E+00  0.00000000000E+00 -0.13240595131E+04  0.23347752278E+04  0.19230293211E+04 0.  0.
        2    1    3    3  502    0  0.33761989877E+03  0.44018522222E+03 -0.16155224002E+04  0.17081167558E+04  0.25500000920E-02 0. -1.
       -2    1    3    3    0  502 -0.33761989877E+03 -0.44018522222E+03  0.29146288708E+03  0.62665847194E+03  0.25500000920E-02 0.  1.
</event>
<event>
 5   0  0.6929121E-04  0.1793852E+04  0.7818609E-02  0.8709576E-01
       -2   -1    0    0    0  501  0.00000000000E+00  0.00000000000E+00  0.11220472804E+04  0.11220472804E+04  0.25500000920E-02 0.  1.
        2   -1    0    0  501    0  0.00000000000E+00  0.00000000000E+00 -0.71697191231E+03  0.71697191231E+03  0.25500000920E-02 0. -1.
    10030    2    1    2    0    0  0.00000000000E+00  0.00000000000E+00  0.40507536805E+03  0.18390191927E+04  0.17938521503E+04 0.  0.
        3    1    3    3  502    0  0.66261845703E+03  0.26633589462E+03 -0.35378439785E+03  0.79697016175E+03  0.10100000352E+00 0. -1.
       -3    1    3    3    0  502 -0.66261845703E+03 -0.26633589462E+03  0.75885976590E+03  0.10420490309E+04  0.10100000352E+00 0.  1.
</event>
<event>
 5   0  0.3470962E-04  0.1794828E+04  0.7818609E-02  0.8709055E-01
       -1   -1    0    0    0  501  0.00000000000E+00  0.00000000000E+00  0.56179713721E+03  0.56179713724E+03  0.50400001928E-02 0.  1.
        1   -1    0    0  501    0  0.00000000000E+00  0.00000000000E+00 -0.14335276635E+04  0.14335276635E+04  0.50400001928E-02 0. -1.
    10030    2    1    2    0    0  0.00000000000E+00  0.00000000000E+00 -0.87173052626E+03  0.19953248007E+04  0.17948278330E+04 0.  0.
        4    1    3    3  502    0  0.12438084232E+03  0.52672149295E+03  0.35995320069E+03  0.64998003405E+03  0.12699999809E+01 0.  1.
       -4    1    3    3    0  502 -0.12438084232E+03 -0.52672149295E+03 -0.12316837270E+04  0.13453447667E+04  0.12699999809E+01 0. -1.
</event>
<event>
 5   0  0.3404261E-04  0.1774310E+04  0.7818609E-02  0.8720082E-01
       -1   -1    0    0    0  501  0.00000000000E+00  0.00000000000E+00  0.95794911838E+03  0.95794911839E+03  0.50400001928E-02 0. -1.
        1   -1    0    0  501    0  0.00000000000E+00  0.00000000000E+00 -0.82159261030E+03  0.82159261032E+03  0.50400001928E-02 0.  1.
    10030    2    1    2    0    0  0.00000000000E+00  0.00000000000E+00  0.13635650808E+03  0.17795417287E+04  0.17743099129E+04 0.  0.
        1    1    3    3  502    0  0.80425057590E+03 -0.29596453271E+02 -0.30621722087E+03  0.86108299558E+03  0.50400001928E-02 0.  1.
       -1    1    3    3    0  502 -0.80425057590E+03  0.29596453271E+02  0.44257372894E+03  0.91845873313E+03  0.50400001928E-02 0. -1.
</event>
<event>
 5   0  0.3308275E-04  0.1692539E+04  0.7818609E-02  0.8765631E-01
        1   -1    0    0  501    0  0.00000000000E+00  0.00000000000E+00  0.63062032559E+03  0.63062032561E+03  0.50400001928E-02 0.  1.
       -1   -1    0    0    0  501  0.00000000000E+00  0.00000000000E+00 -0.11356632761E+04  0.11356632761E+04  0.50400001928E-02 0. -1.
    10030    2    1    2    0    0  0.00000000000E+00  0.00000000000E+00 -0.50504295050E+03  0.17662836017E+04  0.16925393289E+04 0.  0.
        3    1    3    3  502    0  0.99609297937E+02 -0.23011224801E+03  0.59096389982E+03  0.64195950028E+03  0.10100000352E+00 0.  1.
       -3    1    3    3    0  502 -0.99609297937E+02  0.23011224801E+03 -0.10960068503E+04  0.11243241014E+04  0.10100000352E+00 0. -1.
</event>
<event>
 5   0  0.3377273E-04  0.1870937E+04  0.7818609E-02  0.8669459E-01
       -1   -1    0    0    0  501  0.00000000000E+00  0.00000000000E+00  0.11772447345E+04  0.11772447345E+04  0.50400001928E-02 0. -1.
        1   -1    0    0  501    0  0.00000000000E+00  0.00000000000E+00 -0.74334722530E+03  0.74334722532E+03  0.50400001928E-02 0.  1.
    10030    2    1    2    0    0  0.00000000000E+00  0.00000000000E+00  0.43389750917E+03  0.19205919598E+04  0.18709373126E+04 0.  0.
        2    1    3    3  502    0  0.22507259605E+03  0.55572752481E+03 -0.52016903842E+03  0.79376733610E+03  0.25500000920E-02 0.  1.
       -2    1    3    3    0  502 -0.22507259605E+03 -0.55572752481E+03  0.95406654759E+03  0.11268246237E+04  0.25500000920E-02 0. -1.
</event>
<event>
 5   0  0.3404261E-04  0.1814109E+04  0.7818609E-02  0.8698832E-01
        1   -1    0    0  501    0  0.00000000000E+00  0.00000000000E+00  0.92924252159E+03  0.92924252161E+03  0.50400001928E-02 0. -1.
       -1   -1    0    0    0  501  0.00000000000E+00  0.00000000000E+00 -0.88539592662E+03  0.88539592663E+03  0.50400001928E-02 0.  1.
    10030    2    1    2    0    0  0.00000000000E+00  0.00000000000E+00  0.43846594978E+02  0.18146384482E+04  0.18141086445E+04 0.  0.
        1    1    3    3  502    0 -0.55508039000E+03  0.45252495855E+03 -0.53488499638E+03  0.89386522298E+03  0.50400001928E-02 0. -1.
       -1    1    3    3    0  502  0.55508039000E+03 -0.45252495855E+03  0.57873159136E+03  0.92077322525E+03  0.50400001928E-02 0.  1.
</event>
<event>
 5   0  0.6774451E-04  0.1823100E+04  0.7818609E-02  0.8694111E-01
       -2   -1    0    0    0  501  0.00000000000E+00  0.00000000000E+00  0.35711195631E+03  0.35711195632E+03  0.25500000920E-02 0.  1.
        2   -1    0    0  501    0  0.00000000000E+00  0.00000000000E+00 -0.23267861078E+04  0.23267861078E+04  0.25500000920E-02 0. -1.
    10030    2    1    2    0    0  0.00000000000E+00  0.00000000000E+00 -0.19696741515E+04  0.26838980641E+04  0.18230997108E+04 0.  0.
        4    1    3    3  502    0 -0.14910388553E+03  0.86147120275E+03 -0.13646346762E+04  0.16206770234E+04  0.12699999809E+01 0. -1.
       -4    1    3    3    0  502  0.14910388553E+03 -0.86147120275E+03 -0.60503947530E+03  0.10632210407E+04  0.12699999809E+01 0.  1.
</event>
<event>
 5   0  0.6774451E-04  0.1777429E+04  0.7818609E-02  0.8718395E-01
       -2   -1    0    0    0  501  0.00000000000E+00  0.00000000000E+00  0.47475388151E+03  0.47475388152E+03  0.25500000920E-02 0.  1.
        2   -1    0    0  501    0  0.00000000000E+00  0.00000000000E+00 -0.16636275357E+04  0.16636275357E+04  0.25500000920E-02 0. -1.
    10030    2    1    2    0    0  0.00000000000E+00  0.00000000000E+00 -0.11888736541E+04  0.21383814172E+04  0.17774291884E+04 0.  0.
        4    1    3    3  502    0  0.74378128567E+02 -0.60363745221E+03 -0.13740276170E+04  0.15026189753E+04  0.12699999809E+01 0. -1.
       -4    1    3    3    0  502 -0.74378128567E+02  0.60363745221E+03  0.18515396281E+03  0.63576244192E+03  0.12699999809E+01 0.  1.
</event>
<event>
 5   0  0.6853162E-04  0.1777268E+04  0.7818609E-02  0.8718482E-01
        2   -1    0    0  501    0  0.00000000000E+00  0.00000000000E+00  0.21353155093E+04  0.21353155093E+04  0.25500000920E-02 0. -1.
       -2   -1    0    0    0  501  0.00000000000E+00  0.00000000000E+00 -0.36981427009E+03  0.36981427010E+03  0.25500000920E-02 0.  1.
    10030    2    1    2    0    0  0.00000000000E+00  0.00000000000E+00  0.17655012392E+04  0.25051297794E+04  0.17772677305E+04 0.  0.
        2    1    3    3  502    0 -0.55084162409E+03 -0.36550410234E+03  0.45704155464E+02  0.66265270956E+03  0.25500000920E-02 0.  1.
       -2    1    3    3    0  502  0.55084162409E+03  0.36550410234E+03  0.17197970838E+04  0.18424770699E+04  0.25500000920E-02 0. -1.
</event>
<event>
 5   0  0.2467375E-04  0.9681087E+03  0.7818609E-02  0.9344231E-01
       -3   -1    0    0    0  501  0.00000000000E+00  0.00000000000E+00  0.12870932032E+04  0.12870932072E+04  0.10100000352E+00 0. -1.
        3   -1    0    0  501    0  0.00000000000E+00  0.00000000000E+00 -0.18204477548E+03  0.18204480350E+03  0.10100000352E+00 0.  1.
    10030    2    1    2    0    0  0.00000000000E+00  0.00000000000E+00  0.11050484278E+04  0.14691380107E+04  0.96810870609E+03 0.  0.
        2    1    3    3  502    0  0.19315682402E+03 -0.36005852812E+03  0.94637304552E+03  0.10308121282E+04  0.25500000920E-02 0. -1.
       -2    1    3    3    0  502 -0.19315682402E+03  0.36005852812E+03  0.15867538223E+03  0.43832588250E+03  0.25500000920E-02 0.  1.
</event>
<event>
 5   0  0.3470962E-04  0.1806095E+04  0.7818609E-02  0.8703065E-01
       -1   -1    0    0    0  501  0.00000000000E+00  0.00000000000E+00  0.14504630881E+04  0.14504630881E+04  0.50400001928E-02 0. -1.
        1   -1    0    0  501    0  0.00000000000E+00  0.00000000000E+00 -0.56223087127E+03  0.56223087129E+03  0.50400001928E-02 0.  1.
    10030    2    1    2    0    0  0.00000000000E+00  0.00000000000E+00  0.88823221687E+03  0.20126939594E+04  0.18060953749E+04 0.  0.
        4    1    3    3  502    0  0.89865239219E+03  0.77907817980E+02  0.49201882850E+03  0.10274871730E+04  0.12699999809E+01 0.  1.
       -4    1    3    3    0  502 -0.89865239219E+03 -0.77907817980E+02  0.39621338837E+03  0.98520678647E+03  0.12699999809E+01 0. -1.
</event>
<event>
 5   0  0.3308275E-04  0.1802432E+04  0.7818609E-02  0.8705007E-01
        1   -1    0    0  501    0  0.00000000000E+00  0.00000000000E+00  0.85473360053E+03  0.85473360055E+03  0.50400001928E-02 0.  1.
       -1   -1    0    0    0  501  0.00000000000E+00  0.00000000000E+00 -0.95022633806E+03  0.95022633807E+03  0.50400001928E-02 0. -1.
    10030    2    1    2    0    0  0.00000000000E+00  0.00000000000E+00 -0.95492737525E+02  0.18049599386E+04  0.18024321116E+04 0.  0.
        3    1    3    3  502    0  0.10125989216E+03  0.85940198527E+03 -0.29982351699E+03  0.91581629685E+03  0.10100000352E+00 0.  1.
       -3    1    3    3    0  502 -0.10125989216E+03 -0.85940198527E+03  0.20433077946E+03  0.88914364176E+03  0.10100000352E+00 0. -1.
</event>
<event>
 5   0  0.3470962E-04  0.1205356E+04  0.7818609E-02  0.9108181E-01
       -1   -1    0    0    0  501  0.00000000000E+00  0.00000000000E+00  0.58024083117E+03  0.58024083120E+03  0.50400001928E-02 0. -1.
        1   -1    0    0  501    0  0.00000000000E+00  0.00000000000E+00 -0.62598272783E+03  0.62598272785E+03  0.50400001928E-02 0.  1.
    10030    2    1    2    0    0  0.00000000000E+00  0.00000000000E+00 -0.45741896656E+02  0.12062235590E+04  0.12053559446E+04 0.  0.
        4    1    3    3  502    0 -0.24967764834E+03 -0.11352892505E+02 -0.57167366897E+03  0.62392324283E+03  0.12699999809E+01 0.  1.
       -4    1    3    3    0  502  0.24967764834E+03  0.11352892505E+02  0.52593177231E+03  0.58230031622E+03  0.12699999809E+01 0. -1.
</event>
<event>
 5   0  0.3470962E-04  0.1790895E+04  0.7818609E-02  0.8711156E-01
       -1   -1    0    0    0  501  0.00000000000E+00  0.00000000000E+00  0.54843987012E+03  0.54843987015E+03  0.50400001928E-02 0.  1.
        1   -1    0    0  501    0  0.00000000000E+00  0.00000000000E+00 -0.14620131339E+04  0.14620131339E+04  0.50400001928E-02 0. -1.
    10030    2    1    2    0    0  0.00000000000E+00  0.00000000000E+00 -0.91357326381E+03  0.20104530041E+04  0.17908950760E+04 0.  0.
        4    1    3    3  502    0  0.35602195393E+03  0.44847983479E+03  0.31604511700E+03  0.65404275301E+03  0.12699999809E+01 0.  1.
       -4    1    3    3    0  502 -0.35602195393E+03 -0.44847983479E+03 -0.12296183808E+04  0.13564102511E+04  0.12699999809E+01 0. -1.
</event>
<event>
 5   0  0.6771967E-04  0.1762398E+04  0.7818609E-02  0.8726556E-01
       -2   -1    0    0    0  501  0.00000000000E+00  0.00000000000E+00  0.13888744847E+04  0.13888744847E+04  0.25500000920E-02 0.  1.
        2   -1    0    0  501    0  0.00000000000E+00  0.00000000000E+00 -0.55909392271E+03  0.55909392272E+03  0.25500000920E-02 0. -1.
    10030    2    1    2    0    0  0.00000000000E+00  0.00000000000E+00  0.82978056195E+03  0.19479684074E+04  0.17623975531E+04 0.  0.
        1    1    3    3  502    0  0.21223507199E+03 -0.63319175638E+03 -0.22056830538E+03  0.70329645491E+03  0.50400001928E-02 0. -1.
       -1    1    3    3    0  502 -0.21223507199E+03  0.63319175638E+03  0.10503488673E+04  0.12446719525E+04  0.50400001928E-02 0.  1.
</event>
<event>
 5   0  0.6853162E-04  0.1676888E+04  0.7818609E-02  0.8774657E-01
        2   -1    0    0  501    0  0.00000000000E+00  0.00000000000E+00  0.10620214962E+04  0.10620214962E+04  0.25500000920E-02 0.  1.
       -2   -1    0    0    0  501  0.00000000000E+00  0.00000000000E+00 -0.66193385093E+03  0.66193385093E+03  0.25500000920E-02 0. -1.
    10030    2    1    2    0    0  0.00000000000E+00  0.00000000000E+00  0.40008764524E+03  0.17239553471E+04  0.16768875678E+04 0.  0.
        2    1    3    3  502    0  0.47805142542E+03  0.35504497247E+03 -0.40677608532E+03  0.72114969418E+03  0.25500000920E-02 0. -1.
       -2    1    3    3    0  502 -0.47805142542E+03 -0.35504497247E+03  0.80686373057E+03  0.10028056529E+04  0.25500000920E-02 0.  1.
</event>
<event>
 5   0  0.6929121E-04  0.1813819E+04  0.7818609E-02  0.8698985E-01
        2   -1    0    0  501    0  0.00000000000E+00  0.00000000000E+00  0.10621705409E+04  0.10621705409E+04  0.25500000920E-02 0. -1.
       -2   -1    0    0    0  501  0.00000000000E+00  0.00000000000E+00 -0.77434366822E+03  0.77434366823E+03  0.25500000920E-02 0.  1.
    10030    2    1    2    0    0  0.00000000000E+00  0.00000000000E+00  0.28782687271E+03  0.18365142092E+04  0.18138192114E+04 0.  0.
        3    1    3    3  502    0 -0.34594300030E+03 -0.57520981396E+03 -0.47358801705E+03  0.82147946391E+03  0.10100000352E+00 0.  1.
       -3    1    3    3    0  502  0.34594300030E+03  0.57520981396E+03  0.76141488976E+03  0.10150347453E+04  0.10100000352E+00 0. -1.
</event>
<event>
 5   0  0.6547153E-04  0.1875697E+04  0.7818609E-02  0.8667049E-01
       -2   -1    0    0    0  501  0.00000000000E+00  0.00000000000E+00  0.75789461993E+03  0.75789461993E+03  0.25500000920E-02 0. -1.
        2   -1    0    0  501    0  0.00000000000E+00  0.00000000000E+00 -0.11605300091E+04  0.11605300091E+04  0.25500000920E-02 0.  1.
    10030    2    1    2    0    0  0.00000000000E+00  0.00000000000E+00 -0.40263538917E+03  0.19184246290E+04  0.18756966174E+04 0.  0.
        5    1    3    3  502    0 -0.47564878098E+03 -0.18127891880E+03  0.60430146004E+03  0.79013046635E+03  0.46999998093E+01 0. -1.
       -5    1    3    3    0  502  0.47564878098E+03  0.18127891880E+03 -0.10069368492E+04  0.11282941627E+04  0.46999998093E+01 0.  1.
</event>
<event>
 5   0  0.3413839E-04  0.1812811E+04  0.7818609E-02  0.8699516E-01
       -1   -1    0    0    0  501  0.00000000000E+00  0.00000000000E+00  0.66723493984E+03  0.66723493986E+03  0.50400001928E-02 0. -1.
        1   -1    0    0  501    0  0.00000000000E+00  0.00000000000E+00 -0.12313069120E+04  0.12313069120E+04  0.50400001928E-02 0.  1.
    10030    2    1    2    0    0  0.00000000000E+00  0.00000000000E+00 -0.56407197216E+03  0.18985418519E+04  0.18128110695E+04 0.  0.
        5    1    3    3  502    0  0.42789359559E+03 -0.64095211382E+03  0.21763996640E+03  0.80081320314E+03  0.46999998093E+01 0. -1.
       -5    1    3    3    0  502 -0.42789359559E+03  0.64095211382E+03 -0.78171193856E+03  0.10977286487E+04  0.46999998093E+01 0.  1.
</event>
<event>
 5   0  0.3377273E-04  0.1800237E+04  0.7818609E-02  0.8706174E-01
       -1   -1    0    0    0  501  0.00000000000E+00  0.00000000000E+00  0.11594108014E+04  0.11594108014E+04  0.50400001928E-02 0. -1.
        1   -1    0    0  501    0  0.00000000000E+00  0.00000000000E+00 -0.69881434348E+03  0.69881434349E+03  0.50400001928E-02 0.  1.
    10030    2    1    2    0    0  0.00000000000E+00  0.00000000000E+00  0.46059645792E+03  0.18582251449E+04  0.18002365378E+04 0.  0.
        2    1    3    3  502    0  0.49516813764E+02 -0.70182397197E+03  0.80981323544E+03  0.10727563930E+04  0.25500000920E-02 0. -1.
       -2    1    3    3    0  502 -0.49516813764E+02  0.70182397197E+03 -0.34921677752E+03  0.78546875188E+03  0.25500000920E-02 0.  1.
</event>
<event>
 5   0  0.3413839E-04  0.1843086E+04  0.7818609E-02  0.8683716E-01
        1   -1    0    0  501    0  0.00000000000E+00  0.00000000000E+00  0.10384313053E+04  0.10384313053E+04  0.50400001928E-02 0.  1.
       -1   -1    0    0    0  501  0.00000000000E+00  0.00000000000E+00 -0.81781222091E+03  0.81781222092E+03  0.50400001928E-02 0. -1.
    10030    2    1    2    0    0  0.00000000000E+00  0.00000000000E+00  0.22061908439E+03  0.18562435262E+04  0.18430863377E+04 0.  0.
        5    1    3    3  502    0  0.65761906177E+03 -0.39162010692E+03 -0.40657006076E+03  0.86668935776E+03  0.46999998093E+01 0. -1.
       -5    1    3    3    0  502 -0.65761906177E+03  0.39162010692E+03  0.62718914515E+03  0.98955416847E+03  0.46999998093E+01 0.  1.
</event>
<event>
 5   0  0.6853162E-04  0.1849681E+04  0.7818609E-02  0.8680317E-01
        2   -1    0    0  501    0  0.00000000000E+00  0.00000000000E+00  0.17780366786E+04  0.17780366786E+04  0.25500000920E-02 0. -1.
       -2   -1    0    0    0  501  0.00000000000E+00  0.00000000000E+00 -0.48105298647E+03  0.48105298648E+03  0.25500000920E-02 0.  1.
    10030    2    1    2    0    0  0.00000000000E+00  0.00000000000E+00  0.12969836921E+04  0.22590896651E+04  0.18496808961E+04 0.  0.
        2    1    3    3  502    0  0.16170142790E+03  0.21469512274E+03  0.17292837497E+04  0.17500467521E+04  0.25500000920E-02 0. -1.
       -2    1    3    3    0  502 -0.16170142790E+03 -0.21469512274E+03 -0.43230005755E+03  0.50904291301E+03  0.25500000920E-02 0.  1.
</event>
<event>
 5   0  0.6771967E-04  0.1775010E+04  0.7818609E-02  0.8719703E-01
        2   -1    0    0  501    0  0.00000000000E+00  0.00000000000E+00  0.77056848451E+03  0.77056848452E+03  0.25500000920E-02 0. -1.
       -2   -1    0    0    0  501  0.00000000000E+00  0.00000000000E+00 -0.10221876174E+04  0.10221876174E+04  0.25500000920E-02 0.  1.
    10030    2    1    2    0    0  0.00000000000E+00  0.00000000000E+00 -0.25161913291E+03  0.17927561019E+04  0.17750104938E+04 0.  0.
        1    1    3    3  502    0  0.16728636971E+03  0.33194206973E+03 -0.93977936184E+03  0.10106213515E+04  0.50400001928E-02 0.  1.
       -1    1    3    3    0  502 -0.16728636971E+03 -0.33194206973E+03  0.68816022893E+03  0.78213475044E+03  0.50400001928E-02 0. -1.
</event>
<event>
 5   0  0.6771967E-04  0.1854745E+04  0.7818609E-02  0.8677716E-01
       -2   -1    0    0    0  501  0.00000000000E+00  0.00000000000E+00  0.55997457536E+03  0.55997457536E+03  0.25500000920E-02 0. -1.
        2   -1    0    0  501    0  0.00000000000E+00  0.00000000000E+00 -0.15358195889E+04  0.15358195889E+04  0.25500000920E-02 0.  1.
    10030    2    1    2    0    0  0.00000000000E+00  0.00000000000E+00 -0.97584501358E+03  0.20957941643E+04  0.18547451816E+04 0.  0.
        1    1    3    3  502    0 -0.53216900360E+03 -0.50710366273E+03  0.15094359742E+03  0.75042783982E+03  0.50400001928E-02 0. -1.
       -1    1    3    3    0  502  0.53216900360E+03  0.50710366273E+03 -0.11267886110E+04  0.13453663245E+04  0.50400001928E-02 0.  1.
</event>
<event>
 5   0  0.6929121E-04  0.1836477E+04  0.7818609E-02  0.8687139E-01
       -2   -1    0    0    0  501  0.00000000000E+00  0.00000000000E+00  0.78641721662E+03  0.78641721662E+03  0.25500000920E-02 0. -1.
        2   -1    0    0  501    0  0.00000000000E+00  0.00000000000E+00 -0.10721556743E+04  0.10721556743E+04  0.25500000920E-02 0.  1.
    10030    2    1    2    0    0  0.00000000000E+00  0.00000000000E+00 -0.28573845768E+03  0.18585728909E+04  0.18364767150E+04 0.  0.
        3    1    3    3  502    0  0.34223718650E+03  0.57187756797E+03 -0.78212690813E+03  0.10275664237E+04  0.10100000352E+00 0.  1.
       -3    1    3    3    0  502 -0.34223718650E+03 -0.57187756797E+03  0.49638845045E+03  0.83100646719E+03  0.10100000352E+00 0. -1.
</event>
<event>
 5   0  0.3470962E-04  0.1664828E+04  0.7818609E-02  0.8781682E-01
        1   -1    0    0  501    0  0.00000000000E+00  0.00000000000E+00  0.10539108337E+04  0.10539108337E+04  0.50400001928E-02 0.  1.
       -1   -1    0    0    0  501  0.00000000000E+00  0.00000000000E+00 -0.65746854469E+03  0.65746854471E+03  0.50400001928E-02 0. -1.
    10030    2    1    2    0    0  0.00000000000E+00  0.00000000000E+00  0.39644228898E+03  0.17113793784E+04  0.16648281858E+04 0.  0.
        4    1    3    3  502    0  0.48497510373E+03 -0.28213747486E+03 -0.43387843113E+03  0.70926335860E+03  0.12699999809E+01 0. -1.
       -4    1    3    3    0  502 -0.48497510373E+03  0.28213747486E+03  0.83032072011E+03  0.10021160198E+04  0.12699999809E+01 0.  1.
</event>
<event>
 5   0  0.6929121E-04  0.1668600E+04  0.7818609E-02  0.8779478E-01
        2   -1    0    0  501    0  0.00000000000E+00  0.00000000000E+00  0.17916099526E+04  0.17916099526E+04  0.25500000920E-02 0.  1.
       -2   -1    0    0    0  501  0.00000000000E+00  0.00000000000E+00 -0.38850885213E+03  0.38850885214E+03  0.25500000920E-02 0. -1.
    10030    2    1    2    0    0  0.00000000000E+00  0.00000000000E+00  0.14031011005E+04  0.21801188047E+04  0.16685998036E+04 0.  0.
        3    1    3    3  502    0 -0.63972082655E+03  0.37100997998E+03  0.12061673366E+04  0.14148253586E+04  0.10100000352E+00 0.  1.
       -3    1    3    3    0  502  0.63972082655E+03 -0.37100997998E+03  0.19693376383E+03  0.76529344614E+03  0.10100000352E+00 0. -1.
</event>
<event>
 5   0  0.3377273E-04  0.1843633E+04  0.7818609E-02  0.8683434E-01
       -1   -1    0    0    0  501  0.00000000000E+00  0.00000000000E+00  0.12155951618E+04  0.12155951618E+04  0.50400001928E-02 0.  1.
        1   -1    0    0  501    0  0.00000000000E+00  0.00000000000E+00 -0.69903681437E+03  0.69903681439E+03  0.50400001928E-02 0. -1.
    10030    2    1    2    0    0  0.00000000000E+00  0.00000000000E+00  0.51655834746E+03  0.19146319762E+04  0.18436331192E+04 0.  0.
        2    1    3    3  502    0  0.45027071020E+03 -0.32687703093E+03 -0.50497535391E+03  0.75139364775E+03  0.25500000920E-02 0. -1.
       -2    1    3    3    0  502 -0.45027071020E+03  0.32687703093E+03  0.10215337014E+04  0.11632383285E+04  0.25500000920E-02 0.  1.
</event>
<event>
 5   0  0.6547153E-04  0.1813211E+04  0.7818609E-02  0.8699305E-01
        2   -1    0    0  501    0  0.00000000000E+00  0.00000000000E+00  0.11449962803E+04  0.11449962803E+04  0.25500000920E-02 0. -1.
       -2   -1    0    0    0  501  0.00000000000E+00  0.00000000000E+00 -0.71784852375E+03  0.71784852376E+03  0.25500000920E-02 0.  1.
    10030    2    1    2    0    0  0.00000000000E+00  0.00000000000E+00  0.42714775651E+03  0.18628448040E+04  0.18132113936E+04 0.  0.
        5    1    3    3  502    0 -0.12416478314E+03  0.25545674469E+03 -0.67094419103E+03  0.72860362287E+03  0.46999998093E+01 0.  1.
       -5    1    3    3    0  502  0.12416478314E+03 -0.25545674469E+03  0.10980919475E+04  0.11342411812E+04  0.46999998093E+01 0. -1.
</event>
<event>
 5   0  0.6929121E-04  0.1684373E+04  0.7818609E-02  0.8770328E-01
        2   -1    0    0  501    0  0.00000000000E+00  0.00000000000E+00  0.11504883495E+04  0.11504883495E+04  0.25500000920E-02 0.  1.
       -2   -1    0    0    0  501  0.00000000000E+00  0.00000000000E+00 -0.61650154574E+03  0.61650154575E+03  0.25500000920E-02 0. -1.
    10030    2    1    2    0    0  0.00000000000E+00  0.00000000000E+00  0.53398680375E+03  0.17669898952E+04  0.16843726973E+04 0.  0.
        3    1    3    3  502    0 -0.41563140121E+02 -0.39464073480E+03  0.10462675606E+04  0.11189926821E+04  0.10100000352E+00 0.  1.
       -3    1    3    3    0  502  0.41563140121E+02  0.39464073480E+03 -0.51228075682E+03  0.64799721310E+03  0.10100000352E+00 0. -1.
</event>
<event>
 5   0  0.3377273E-04  0.1733880E+04  0.7818609E-02  0.8742274E-01
        1   -1    0    0  501    0  0.00000000000E+00  0.00000000000E+00  0.13529770270E+04  0.13529770270E+04  0.50400001928E-02 0.  1.
       -1   -1    0    0    0  501  0.00000000000E+00  0.00000000000E+00 -0.55550479188E+03  0.55550479191E+03  0.50400001928E-02 0. -1.
    10030    2    1    2    0    0  0.00000000000E+00  0.00000000000E+00  0.79747223508E+03  0.19084818189E+04  0.17338802978E+04 0.  0.
        2    1    3    3  502    0  0.70761684496E+03  0.46500818863E+03  0.60356984852E+03  0.10398320907E+04  0.25500000920E-02 0.  1.
       -2    1    3    3    0  502 -0.70761684496E+03 -0.46500818863E+03  0.19390238656E+03  0.86864972819E+03  0.25500000920E-02 0. -1.
</event>
<event>
 5   0  0.3377273E-04  0.1833993E+04  0.7818609E-02  0.8688428E-01
        1   -1    0    0  501    0  0.00000000000E+00  0.00000000000E+00  0.10134076085E+04  0.10134076085E+04  0.50400001928E-02 0.  1.
       -1   -1    0    0    0  501  0.00000000000E+00  0.00000000000E+00 -0.82975785535E+03  0.82975785537E+03  0.50400001928E-02 0. -1.
    10030    2    1    2    0    0  0.00000000000E+00  0.00000000000E+00  0.18364975315E+03  0.18431654639E+04  0.18339933739E+04 0.  0.
        2    1    3    3  502    0  0.87318108689E+03  0.24216662901E+03 -0.49566454130E+02  0.90749474934E+03  0.25500000920E-02 0.  1.
       -2    1    3    3    0  502 -0.87318108689E+03 -0.24216662901E+03  0.23321620728E+03  0.93567071454E+03  0.25500000920E-02 0. -1.
</event>
<event>
 5   0  0.3413839E-04  0.1832510E+04  0.7818609E-02  0.8689199E-01
       -1   -1    0    0    0  501  0.00000000000E+00  0.00000000000E+00  0.92468393320E+03  0.92468393321E+03  0.50400001928E-02 0.  1.
        1   -1    0    0  501    0  0.00000000000E+00  0.00000000000E+00 -0.90790338403E+03  0.90790338404E+03  0.50400001928E-02 0. -1.
    10030    2    1    2    0    0  0.00000000000E+00  0.00000000000E+00  0.16780549169E+02  0.18325873173E+04  0.18325104880E+04 0.  0.
        5    1    3    3  502    0  0.38442044742E+03 -0.19750706024E+03 -0.79955043796E+03  0.90889554519E+03  0.46999998093E+01 0. -1.
       -5    1    3    3    0  502 -0.38442044742E+03  0.19750706024E+03  0.81633098712E+03  0.92369177206E+03  0.46999998093E+01 0.  1.
</event>
<event>
 5   0  0.6853162E-04  0.1861471E+04  0.7818609E-02  0.8674276E-01
        2   -1    0    0  501    0  0.00000000000E+00  0.00000000000E+00  0.95788957746E+03  0.95788957746E+03  0.25500000920E-02 0. -1.
       -2   -1    0    0    0  501  0.00000000000E+00  0.00000000000E+00 -0.90435099183E+03  0.90435099183E+03  0.25500000920E-02 0.  1.
    10030    2    1    2    0    0  0.00000000000E+00  0.00000000000E+00  0.53538585631E+02  0.18622405693E+04  0.18614708050E+04 0.  0.
        2    1    3    3  502    0  0.32859510521E+03 -0.37006643839E+03  0.81534932451E+03  0.95379160878E+03  0.25500000920E-02 0. -1.
       -2    1    3    3    0  502 -0.32859510521E+03  0.37006643839E+03 -0.76181073888E+03  0.90844896052E+03  0.25500000920E-02 0.  1.
</event>
<event>
 5   0  0.6853162E-04  0.1973769E+04  0.7818609E-02  0.8618984E-01
        2   -1    0    0  501    0  0.00000000000E+00  0.00000000000E+00  0.24190942790E+04  0.24190942790E+04  0.25500000920E-02 0.  1.
       -2   -1    0    0    0  501  0.00000000000E+00  0.00000000000E+00 -0.40260562247E+03  0.40260562248E+03  0.25500000920E-02 0. -1.
    10030    2    1    2    0    0  0.00000000000E+00  0.00000000000E+00  0.20164886566E+04  0.28216999015E+04  0.19737689409E+04 0.  0.
        2    1    3    3  502    0  0.48647927227E+03 -0.39758150696E+03 -0.79762750763E+02  0.63332079821E+03  0.25500000920E-02 0. -1.
       -2    1    3    3    0  502 -0.48647927227E+03  0.39758150696E+03  0.20962514073E+04  0.21883791033E+04  0.25500000920E-02 0.  1.
</event>
<event>
 5   0  0.3308275E-04  0.1789719E+04  0.7818609E-02  0.8711786E-01
       -1   -1    0    0    0  501  0.00000000000E+00  0.00000000000E+00  0.99080497704E+03  0.99080497706E+03  0.50400001928E-02 0.  1.
        1   -1    0    0  501    0  0.00000000000E+00  0.00000000000E+00 -0.80820455297E+03  0.80820455298E+03  0.50400001928E-02 0. -1.
    10030    2    1    2    0    0  0.00000000000E+00  0.00000000000E+00  0.18260042407E+03  0.17990095300E+04  0.17897185182E+04 0.  0.
        3    1    3    3  502    0  0.60958625161E+03 -0.27834667022E+03 -0.50482215939E+03  0.83899802728E+03  0.10100000352E+00 0. -1.
       -3    1    3    3    0  502 -0.60958625161E+03  0.27834667022E+03  0.68742258346E+03  0.96001150276E+03  0.10100000352E+00 0.  1.
</event>
<event>
 5   0  0.6774451E-04  0.1547441E+04  0.7818609E-02  0.8853504E-01
       -2   -1    0    0    0  501  0.00000000000E+00  0.00000000000E+00  0.36003827689E+03  0.36003827690E+03  0.25500000920E-02 0. -1.
        2   -1    0    0  501    0  0.00000000000E+00  0.00000000000E+00 -0.16627211008E+04  0.16627211008E+04  0.25500000920E-02 0.  1.
    10030    2    1    2    0    0  0.00000000000E+00  0.00000000000E+00 -0.13026828239E+04  0.20227593777E+04  0.15474407777E+04 0.  0.
        4    1    3    3  502    0 -0.50932797399E+03 -0.21797257223E+03  0.54666013751E+02  0.55670190703E+03  0.12699999809E+01 0. -1.
       -4    1    3    3    0  502  0.50932797399E+03  0.21797257223E+03 -0.13573488377E+04  0.14660574707E+04  0.12699999809E+01 0.  1.
</event>
<event>
 5   0  0.3404261E-04  0.1652496E+04  0.7818609E-02  0.8788931E-01
        1   -1    0    0  501    0  0.00000000000E+00  0.00000000000E+00  0.17217798940E+04  0.17217798941E+04  0.50400001928E-02 0.  1.
       -1   -1    0    0    0  501  0.00000000000E+00  0.00000000000E+00 -0.39650006028E+03  0.39650006031E+03  0.50400001928E-02 0. -1.
    10030    2    1    2    0    0  0.00000000000E+00  0.00000000000E+00  0.13252798338E+04  0.21182799544E+04  0.16524960899E+04 0.  0.
        1    1    3    3  502    0  0.52910223634E+03 -0.18110590879E+03  0.14423030165E+04  0.15469280908E+04  0.50400001928E-02 0.  1.
       -1    1    3    3    0  502 -0.52910223634E+03  0.18110590879E+03 -0.11702318271E+03  0.57135186358E+03  0.50400001928E-02 0. -1.
</event>
<event>
 5   0  0.6853162E-04  0.1779267E+04  0.7818609E-02  0.8717403E-01
       -2   -1    0    0    0  501  0.00000000000E+00  0.00000000000E+00  0.37098224953E+03  0.37098224954E+03  0.25500000920E-02 0. -1.
        2   -1    0    0  501    0  0.00000000000E+00  0.00000000000E+00 -0.21333852968E+04  0.21333852968E+04  0.25500000920E-02 0.  1.
    10030    2    1    2    0    0  0.00000000000E+00  0.00000000000E+00 -0.17624030472E+04  0.25043675463E+04  0.17792673509E+04 0.  0.
        2    1    3    3  502    0  0.18879919347E+03  0.83527934622E+03 -0.12205042568E+04  0.14909618917E+04  0.25500000920E-02 0. -1.
       -2    1    3    3    0  502 -0.18879919347E+03 -0.83527934622E+03 -0.54189879045E+03  0.10134056546E+04  0.25500000920E-02 0.  1.
</event>
<event>
 5   0  0.3308275E-04  0.1802894E+04  0.7818609E-02  0.8704762E-01
        1   -1    0    0  501    0  0.00000000000E+00  0.00000000000E+00  0.71622612857E+03  0.71622612859E+03  0.50400001928E-02 0.  1.
       -1   -1    0    0    0  501  0.00000000000E+00  0.00000000000E+00 -0.11345666849E+04  0.11345666849E+04  0.50400001928E-02 0. -1.
    10030    2    1    2    0    0  0.00000000000E+00  0.00000000000E+00 -0.41834055631E+03  0.18507928135E+04  0.18028935680E+04 0.  0.
        3    1    3    3  502    0  0.60988982249E+03  0.63981715812E+03 -0.27625270631E+02  0.88436121420E+03  0.10100000352E+00 0.  1.
       -3    1    3    3    0  502 -0.60988982249E+03 -0.63981715812E+03 -0.39071528568E+03  0.96643159927E+03  0.10100000352E+00 0. -1.
</event>
<event>
 5   0  0.6771967E-04  0.1832340E+04  0.7818609E-02  0.8689288E-01
        2   -1    0    0  501    0  0.00000000000E+00  0.00000000000E+00  0.79744761427E+03  0.79744761428E+03  0.25500000920E-02 0. -1.
       -2   -1    0    0    0  501  0.00000000000E+00  0.00000000000E+00 -0.10525671426E+04  0.10525671426E+04  0.25500000920E-02 0.  1.
    10030    2    1    2    0    0  0.00000000000E+00  0.00000000000E+00 -0.25511952833E+03  0.18500147569E+04  0.18323396593E+04 0.  0.
        1    1    3    3  502    0 -0.72689363347E+03 -0.21670388449E+03 -0.64635703395E+03  0.99655022116E+03  0.50400001928E-02 0.  1.
       -1    1    3    3    0  502  0.72689363347E+03  0.21670388449E+03  0.39123750561E+03  0.85346453573E+03  0.50400001928E-02 0. -1.
</event>
<event>
 5   0  0.6547153E-04  0.1880981E+04  0.7818609E-02  0.8664382E-01
        2   -1    0    0  501    0  0.00000000000E+00  0.00000000000E+00  0.18840575624E+04  0.18840575624E+04  0.25500000920E-02 0. -1.
       -2   -1    0    0    0  501  0.00000000000E+00  0.00000000000E+00 -0.46947751622E+03  0.46947751622E+03  0.25500000920E-02 0.  1.
    10030    2    1    2    0    0  0.00000000000E+00  0.00000000000E+00  0.14145800462E+04  0.23535350786E+04  0.18809813022E+04 0.  0.
        5    1    3    3  502    0 -0.71960958426E+03 -0.60435883454E+03  0.75432385679E+03  0.12050369810E+04  0.46999998093E+01 0. -1.
       -5    1    3    3    0  502  0.71960958426E+03  0.60435883454E+03  0.66025618939E+03  0.11484980976E+04  0.46999998093E+01 0.  1.
</event>
<event>
 5   0  0.3404261E-04  0.1739950E+04  0.7818609E-02  0.8738902E-01
        1   -1    0    0  501    0  0.00000000000E+00  0.00000000000E+00  0.93096482841E+03  0.93096482843E+03  0.50400001928E-02 0. -1.
       -1   -1    0    0    0  501  0.00000000000E+00  0.00000000000E+00 -0.81298113883E+03  0.81298113885E+03  0.50400001928E-02 0.  1.
    10030    2    1    2    0    0  0.00000000000E+00  0.00000000000E+00  0.11798368958E+03  0.17439459673E+04  0.17399503975E+04 0.  0.
        1    1    3    3  502    0  0.38886781476E+03  0.73437867094E+03 -0.19913914421E+03  0.85450957190E+03  0.50400001928E-02 0.  1.
       -1    1    3    3    0  502 -0.38886781476E+03 -0.73437867094E+03  0.31712283379E+03  0.88943639538E+03  0.50400001928E-02 0. -1.
</event>
<event>
 5   0  0.3470962E-04  0.1794681E+04  0.7818609E-02  0.8709133E-01
        1   -1    0    0  501    0  0.00000000000E+00  0.00000000000E+00  0.12525000060E+04  0.12525000060E+04  0.50400001928E-02 0.  1.
       -1   -1    0    0    0  501  0.00000000000E+00  0.00000000000E+00 -0.64289026759E+03  0.64289026761E+03  0.50400001928E-02 0. -1.
    10030    2    1    2    0    0  0.00000000000E+00  0.00000000000E+00  0.60960973844E+03  0.18953902737E+04  0.17946811016E+04 0.  0.
        4    1    3    3  502    0  0.93972912606E+02  0.56782231397E+03 -0.42227925230E+03  0.71384484895E+03  0.12699999809E+01 0. -1.
       -4    1    3    3    0  502 -0.93972912606E+02 -0.56782231397E+03  0.10318889907E+04  0.11815454247E+04  0.12699999809E+01 0.  1.
</event>
<event>
 5   0  0.3470962E-04  0.1810178E+04  0.7818609E-02  0.8700906E-01
       -1   -1    0    0    0  501  0.00000000000E+00  0.00000000000E+00  0.40246509774E+03  0.40246509777E+03  0.50400001928E-02 0. -1.
        1   -1    0    0  501    0  0.00000000000E+00  0.00000000000E+00 -0.20354211696E+04  0.20354211696E+04  0.50400001928E-02 0.  1.
    10030    2    1    2    0    0  0.00000000000E+00  0.00000000000E+00 -0.16329560718E+04  0.24378862673E+04  0.18101778697E+04 0.  0.
        4    1    3    3  502    0 -0.36034592964E+03  0.71764424518E+03 -0.25417790514E+03  0.84230070165E+03  0.12699999809E+01 0. -1.
       -4    1    3    3    0  502  0.36034592964E+03 -0.71764424518E+03 -0.13787781667E+04  0.15955855657E+04  0.12699999809E+01 0.  1.
</event>
<event>
 5   0  0.6853162E-04  0.1681453E+04  0.7818609E-02  0.8772014E-01
       -2   -1    0    0    0  501  0.00000000000E+00  0.00000000000E+00  0.37737197506E+03  0.37737197507E+03  0.25500000920E-02 0.  1.
        2   -1    0    0  501    0  0.00000000000E+00  0.00000000000E+00 -0.18730078282E+04  0.18730078282E+04  0.25500000920E-02 0. -1.
    10030    2    1    2    0    0  0.00000000000E+00  0.00000000000E+00 -0.14956358531E+04  0.22503798032E+04  0.16814525428E+04 0.  0.
        2    1    3    3  502    0  0.49592610886E+03 -0.73666572561E+02  0.15539912860E+03  0.52489842688E+03  0.25500000920E-02 0.  1.
       -2    1    3    3    0  502 -0.49592610886E+03  0.73666572561E+02 -0.16510349817E+04  0.17254813764E+04  0.25500000920E-02 0. -1.
</event>
<event>
 5   0  0.6853162E-04  0.1678361E+04  0.7818609E-02  0.8773803E-01
        2   -1    0    0  501    0  0.00000000000E+00  0.00000000000E+00  0.10311599653E+04  0.10311599653E+04  0.25500000920E-02 0. -1.
       -2   -1    0    0    0  501  0.00000000000E+00  0.00000000000E+00 -0.68294309788E+03  0.68294309788E+03  0.25500000920E-02 0.  1.
    10030    2    1    2    0    0  0.00000000000E+00  0.00000000000E+00  0.34821686740E+03  0.17141030632E+04  0.16783606062E+04 0.  0.
        2    1    3    3  502    0  0.67577387699E+03 -0.29758462742E+03 -0.23312706082E+03  0.77432239397E+03  0.25500000920E-02 0.  1.
       -2    1    3    3    0  502 -0.67577387699E+03  0.29758462742E+03  0.58134392822E+03  0.93978066919E+03  0.25500000920E-02 0. -1.
</event>
<event>
 5   0  0.6774451E-04  0.1801870E+04  0.7818609E-02  0.8705305E-01
        2   -1    0    0  501    0  0.00000000000E+00  0.00000000000E+00  0.10587571569E+04  0.10587571570E+04  0.25500000920E-02 0.  1.
       -2   -1    0    0    0  501  0.00000000000E+00  0.00000000000E+00 -0.76663879734E+03  0.76663879734E+03  0.25500000920E-02 0. -1.
    10030    2    1    2    0    0  0.00000000000E+00  0.00000000000E+00  0.29211835961E+03  0.18253959543E+04  0.18018704876E+04 0.  0.
        4    1    3    3  502    0  0.20846075766E+02 -0.88325157056E+03 -0.32637733990E+02  0.88410108604E+03  0.12699999809E+01 0. -1.
       -4    1    3    3    0  502 -0.20846075766E+02  0.88325157056E+03  0.32475609360E+03  0.94129486825E+03  0.12699999809E+01 0.  1.
</event>
<event>
 5   0  0.6547153E-04  0.1465567E+04  0.7818609E-02  0.8907679E-01
       -2   -1    0    0    0  501  0.00000000000E+00  0.00000000000E+00  0.53243018032E+03  0.53243018033E+03  0.25500000920E-02 0.  1.
        2   -1    0    0  501    0  0.00000000000E+00  0.00000000000E+00 -0.10085295834E+04  0.10085295834E+04  0.25500000920E-02 0. -1.
    10030    2    1    2    0    0  0.00000000000E+00  0.00000000000E+00 -0.47609940303E+03  0.15409597637E+04  0.14655669046E+04 0.  0.
        5    1    3    3  502    0  0.43139741241E+03  0.22394627694E+03  0.33851481636E+03  0.59234283425E+03  0.46999998093E+01 0.  1.
       -5    1    3    3    0  502 -0.43139741241E+03 -0.22394627694E+03 -0.81461421940E+03  0.94861692944E+03  0.46999998093E+01 0. -1.
</event>
<event>
 5   0  0.6853162E-04  0.1895470E+04  0.7818609E-02  0.8657115E-01
       -2   -1    0    0    0  501  0.00000000000E+00  0.00000000000E+00  0.58707982543E+03  0.58707982543E+03  0.25500000920E-02 0.  1.
        2   -1    0    0  501    0  0.00000000000E+00  0.00000000000E+00 -0.15299481514E+04  0.15299481514E+04  0.25500000920E-02 0. -1.
    10030    2    1    2    0    0  0.00000000000E+00  0.00000000000E+00 -0.94286832593E+03  0.21170279768E+04  0.18954700669E+04 0.  0.
        2    1    3    3  502    0 -0.51048519392E+03 -0.49125600948E+03  0.23165031073E+03  0.74537874032E+03  0.25500000920E-02 0.  1.
       -2    1    3    3    0  502  0.51048519392E+03  0.49125600948E+03 -0.11745186367E+04  0.13716492365E+04  0.25500000920E-02 0. -1.
</event>
<event>
 5   0  0.6771967E-04  0.1660519E+04  0.7818609E-02  0.8784208E-01
        2   -1    0    0  501    0  0.00000000000E+00  0.00000000000E+00  0.66107552485E+03  0.66107552485E+03  0.25500000920E-02 0. -1.
       -2   -1    0    0    0  501  0.00000000000E+00  0.00000000000E+00 -0.10427412527E+04  0.10427412527E+04  0.25500000920E-02 0.  1.
    10030    2    1    2    0    0  0.00000000000E+00  0.00000000000E+00 -0.38166572784E+03  0.17038167775E+04  0.16605188598E+04 0.  0.
        1    1    3    3  502    0 -0.81220037003E+03  0.12372057279E+03 -0.67898553964E+02  0.82437032629E+03  0.50400001928E-02 0. -1.
       -1    1    3    3    0  502  0.81220037003E+03 -0.12372057279E+03 -0.31376717388E+03  0.87944645126E+03  0.50400001928E-02 0.  1.
</event>
<event>
 5   0  0.6774451E-04  0.1790270E+04  0.7818609E-02  0.8711491E-01
       -2   -1    0    0    0  501  0.00000000000E+00  0.00000000000E+00  0.64236308926E+03  0.64236308927E+03  0.25500000920E-02 0. -1.
        2   -1    0    0  501    0  0.00000000000E+00  0.00000000000E+00 -0.12473734026E+04  0.12473734026E+04  0.25500000920E-02 0.  1.
    10030    2    1    2    0    0  0.00000000000E+00  0.00000000000E+00 -0.60501031337E+03  0.18897364919E+04  0.17902699600E+04 0.  0.
        4    1    3    3  502    0  0.34297644290E+03  0.76859622512E+03  0.19210304502E+02  0.84186913850E+03  0.12699999809E+01 0.  1.
       -4    1    3    3    0  502 -0.34297644290E+03 -0.76859622512E+03 -0.62422061787E+03  0.10478673534E+04  0.12699999809E+01 0. -1.
</event>
<event>
 5   0  0.6774451E-04  0.1737539E+04  0.7818609E-02  0.8740239E-01
        2   -1    0    0  501    0  0.00000000000E+00  0.00000000000E+00  0.13495624815E+04  0.13495624815E+04  0.25500000920E-02 0.  1.
       -2   -1    0    0    0  501  0.00000000000E+00  0.00000000000E+00 -0.55926305450E+03  0.55926305451E+03  0.25500000920E-02 0. -1.
    10030    2    1    2    0    0  0.00000000000E+00  0.00000000000E+00  0.79029942703E+03  0.19088255360E+04  0.17375389903E+04 0.  0.
        4    1    3    3  502    0  0.29453901937E+02 -0.29941744370E+03  0.12905028274E+04  0.13251103721E+04  0.12699999809E+01 0.  1.
       -4    1    3    3    0  502 -0.29453901937E+02  0.29941744370E+03 -0.50020340037E+03  0.58371516390E+03  0.12699999809E+01 0. -1.
</event>
<event>
 5   0  0.6547153E-04  0.1797851E+04  0.7818609E-02  0.8707443E-01
       -2   -1    0    0    0  501  0.00000000000E+00  0.00000000000E+00  0.10984770754E+04  0.10984770754E+04  0.25500000920E-02 0.  1.
        2   -1    0    0  501    0  0.00000000000E+00  0.00000000000E+00 -0.73562527073E+03  0.73562527073E+03  0.25500000920E-02 0. -1.
    10030    2    1    2    0    0  0.00000000000E+00  0.00000000000E+00  0.36285180467E+03  0.18341023461E+04  0.17978514911E+04 0.  0.
        5    1    3    3  502    0 -0.51769363090E+03  0.63576397718E+03  0.55742619709E+03  0.99143763563E+03  0.46999998093E+01 0.  1.
       -5    1    3    3    0  502  0.51769363090E+03 -0.63576397718E+03 -0.19457439242E+03  0.84266471051E+03  0.46999998093E+01 0. -1.
</event>
<event>
 5   0  0.3470962E-04  0.1804918E+04  0.7818609E-02  0.8703688E-01
       -1   -1    0    0    0  501  0.00000000000E+00  0.00000000000E+00  0.80632628476E+03  0.80632628477E+03  0.50400001928E-02 0. -1.
        1   -1    0    0  501    0  0.00000000000E+00  0.00000000000E+00 -0.10100533591E+04  0.10100533591E+04  0.50400001928E-02 0.  1.
    10030    2    1    2    0    0  0.00000000000E+00  0.00000000000E+00 -0.20372707433E+03  0.18163796439E+04  0.18049183610E+04 0.  0.
        4    1    3    3  502    0  0.88962647773E+01  0.20279317635E+02  0.80605191989E+03  0.80635705783E+03  0.12699999809E+01 0. -1.
       -4    1    3    3    0  502 -0.88962647773E+01 -0.20279317635E+02 -0.10097789942E+04  0.10100225860E+04  0.12699999809E+01 0.  1.
</event>
<event>
 5   0  0.6547153E-04  0.1793150E+04  0.7818609E-02  0.8709951E-01
       -2   -1    0    0    0  501  0.00000000000E+00  0.00000000000E+00  0.29096065143E+03  0.29096065145E+03  0.25500000920E-02 0.  1.
        2   -1    0    0  501    0  0.00000000000E+00  0.00000000000E+00 -0.27627336704E+04  0.27627336704E+04  0.25500000920E-02 0. -1.
    10030    2    1    2    0    0  0.00000000000E+00  0.00000000000E+00 -0.24717730190E+04  0.30536943219E+04  0.17931500646E+04 0.  0.
        5    1    3    3  502    0 -0.46579578535E+03  0.30302889192E+03 -0.24340767305E+04  0.24967065993E+04  0.46999998093E+01 0. -1.
       -5    1    3    3    0  502  0.46579578535E+03 -0.30302889192E+03 -0.37696288540E+02  0.55698772263E+03  0.46999998093E+01 0.  1.
</event>
<event>
 5   0  0.6929121E-04  0.1819826E+04  0.7818609E-02  0.8695827E-01
       -2   -1    0    0    0  501  0.00000000000E+00  0.00000000000E+00  0.15067430248E+04  0.15067430248E+04  0.25500000920E-02 0. -1.
        2   -1    0    0  501    0  0.00000000000E+00  0.00000000000E+00 -0.54949075630E+03  0.54949075631E+03  0.25500000920E-02 0.  1.
    10030    2    1    2    0    0  0.00000000000E+00  0.00000000000E+00  0.95725226854E+03  0.20562337812E+04  0.18198256667E+04 0.  0.
        3    1    3    3  502    0  0.56515976316E+03  0.46326366260E+03  0.10912010031E+04  0.13132929674E+04  0.10100000352E+00 0. -1.
       -3    1    3    3    0  502 -0.56515976316E+03 -0.46326366260E+03 -0.13394873455E+03  0.74294081371E+03  0.10100000352E+00 0.  1.
</event>
<event>
 5   0  0.2467375E-04  0.1839958E+04  0.7818609E-02  0.8685334E-01
       -4   -1    0    0    0  501  0.00000000000E+00  0.00000000000E+00  0.46480499266E+03  0.46480672768E+03  0.12699999809E+01 0.  1.
        4   -1    0    0  501    0  0.00000000000E+00  0.00000000000E+00 -0.18208903634E+04  0.18208908063E+04  0.12699999809E+01 0. -1.
    10030    2    1    2    0    0  0.00000000000E+00  0.00000000000E+00 -0.13560853707E+04  0.22856975340E+04  0.18399580658E+04 0.  0.
        4    1    3    3  502    0 -0.33168990349E+03 -0.38552337438E+03  0.27430078886E+03  0.57783129020E+03  0.12699999809E+01 0.  1.
       -4    1    3    3    0  502  0.33168990349E+03  0.38552337438E+03 -0.16303861596E+04  0.17078662437E+04  0.12699999809E+01 0. -1.
</event>
<event>
 5   0  0.3404261E-04  0.1593079E+04  0.7818609E-02  0.8824811E-01
       -1   -1    0    0    0  501  0.00000000000E+00  0.00000000000E+00  0.64550716401E+03  0.64550716403E+03  0.50400001928E-02 0. -1.
        1   -1    0    0  501    0  0.00000000000E+00  0.00000000000E+00 -0.98290900426E+03  0.98290900427E+03  0.50400001928E-02 0.  1.
    10030    2    1    2    0    0  0.00000000000E+00  0.00000000000E+00 -0.33740184025E+03  0.16284161683E+04  0.15930785340E+04 0.  0.
        1    1    3    3  502    0 -0.32128089108E+03  0.37094217048E+03 -0.81003788324E+03  0.94709074387E+03  0.50400001928E-02 0.  1.
       -1    1    3    3    0  502  0.32128089108E+03 -0.37094217048E+03  0.47263604299E+03  0.68132542443E+03  0.50400001928E-02 0. -1.
</event>
<event>
 5   0  0.3413839E-04  0.1801575E+04  0.7818609E-02  0.8705462E-01
        1   -1    0    0  501    0  0.00000000000E+00  0.00000000000E+00  0.10096880876E+04  0.10096880876E+04  0.50400001928E-02 0.  1.
       -1   -1    0    0    0  501  0.00000000000E+00  0.00000000000E+00 -0.80363257580E+03  0.80363257582E+03  0.50400001928E-02 0. -1.
    10030    2    1    2    0    0  0.00000000000E+00  0.00000000000E+00  0.20605551180E+03  0.18133206634E+04  0.18015751315E+04 0.  0.
        5    1    3    3  502    0  0.37256675074E+03  0.10153315029E+03  0.92214004285E+03  0.99973962260E+03  0.46999998093E+01 0.  1.
       -5    1    3    3    0  502 -0.37256675074E+03 -0.10153315029E+03 -0.71608453106E+03  0.81358104082E+03  0.46999998093E+01 0. -1.
</event>
<event>
 5   0  0.3413839E-04  0.1805167E+04  0.7818609E-02  0.8703556E-01
        1   -1    0    0  501    0  0.00000000000E+00  0.00000000000E+00  0.16734823746E+04  0.16734823746E+04  0.50400001928E-02 0. -1.
       -1   -1    0    0    0  501  0.00000000000E+00  0.00000000000E+00 -0.48680363870E+03  0.48680363873E+03  0.50400001928E-02 0.  1.
    10030    2    1    2    0    0  0.00000000000E+00  0.00000000000E+00  0.11866787359E+04  0.21602860133E+04  0.18051673709E+04 0.  0.
        5    1    3    3  502    0  0.77087659667E+03 -0.79358861635E+02  0.11470572963E+04  0.13843088843E+04  0.46999998093E+01 0. -1.
       -5    1    3    3    0  502 -0.77087659667E+03  0.79358861635E+02  0.39621439550E+02  0.77597712897E+03  0.46999998093E+01 0.  1.
</event>
<event>
 5   0  0.6771967E-04  0.1674139E+04  0.7818609E-02  0.8776253E-01
       -2   -1    0    0    0  501  0.00000000000E+00  0.00000000000E+00  0.55981912832E+03  0.55981912832E+03  0.25500000920E-02 0.  1.
        2   -1    0    0  501    0  0.00000000000E+00  0.00000000000E+00 -0.12516275356E+04  0.12516275356E+04  0.25500000920E-02 0. -1.
    10030    2    1    2    0    0  0.00000000000E+00  0.00000000000E+00 -0.69180840723E+03  0.18114466639E+04  0.16741386274E+04 0.  0.
        1    1    3    3  502    0  0.13183790841E+03  0.80477980455E+03 -0.55015415480E+03  0.98372829682E+03  0.50400001928E-02 0.  1.
       -1    1    3    3    0  502 -0.13183790841E+03 -0.80477980455E+03 -0.14165425243E+03  0.82771836705E+03  0.50400001928E-02 0. -1.
</event>
<event>
 5   0  0.6771967E-04  0.1800705E+04  0.7818609E-02  0.8705925E-01
        2   -1    0    0  501    0  0.00000000000E+00  0.00000000000E+00  0.22604527598E+04  0.22604527598E+04  0.25500000920E-02 0.  1.
       -2   -1    0    0    0  501  0.00000000000E+00  0.00000000000E+00 -0.35861614148E+03  0.35861614149E+03  0.25500000920E-02 0. -1.
    10030    2    1    2    0    0  0.00000000000E+00  0.00000000000E+00  0.19018366183E+04  0.26190689013E+04  0.18007052471E+04 0.  0.
        1    1    3    3  502    0 -0.47367004327E+03  0.36769351261E+03 -0.25931325252E+02  0.60019518722E+03  0.50400001928E-02 0. -1.
       -1    1    3    3    0  502  0.47367004327E+03 -0.36769351261E+03  0.19277679436E+04  0.20188737141E+04  0.50400001928E-02 0.  1.
</event>
<event>
 5   0  0.3470962E-04  0.1001683E+04  0.7818609E-02  0.9306701E-01
       -1   -1    0    0    0  501  0.00000000000E+00  0.00000000000E+00  0.15776302055E+03  0.15776302063E+03  0.50400001928E-02 0. -1.
        1   -1    0    0  501    0  0.00000000000E+00  0.00000000000E+00 -0.15899922078E+04  0.15899922078E+04  0.50400001928E-02 0.  1.
    10030    2    1    2    0    0  0.00000000000E+00  0.00000000000E+00 -0.14322291872E+04  0.17477552284E+04  0.10016825314E+04 0.  0.
        4    1    3    3  502    0  0.29072129168E+02 -0.61994080470E+01  0.15621967818E+03  0.15902774005E+03  0.12699999809E+01 0. -1.
       -4    1    3    3    0  502 -0.29072129168E+02  0.61994080470E+01 -0.15884488654E+04  0.15887274884E+04  0.12699999809E+01 0.  1.
</event>
<event>
 5   0  0.6853162E-04  0.1839251E+04  0.7818609E-02  0.8685700E-01
       -2   -1    0    0    0  501  0.00000000000E+00  0.00000000000E+00  0.11654929120E+04  0.11654929120E+04  0.25500000920E-02 0.  1.
        2   -1    0    0  501    0  0.00000000000E+00  0.00000000000E+00 -0.72562498390E+03  0.72562498391E+03  0.25500000920E-02 0. -1.
    10030    2    1    2    0    0  0.00000000000E+00  0.00000000000E+00  0.43986792811E+03  0.18911178959E+04  0.18392506904E+04 0.  0.
        2    1    3    3  502    0  0.18373009233E+03  0.61852180282E+03 -0.45381950468E+03  0.78884606243E+03  0.25500000920E-02 0. -1.
       -2    1    3    3    0  502 -0.18373009233E+03 -0.61852180282E+03  0.89368743279E+03  0.11022718335E+04  0.25500000920E-02 0.  1.
</event>
<event>
 5   0  0.2467375E-04  0.1787326E+04  0.7818609E-02  0.8713069E-01
       -3   -1    0    0    0  501  0.00000000000E+00  0.00000000000E+00  0.12111627621E+04  0.12111627663E+04  0.10100000352E+00 0. -1.
        3   -1    0    0  501    0  0.00000000000E+00  0.00000000000E+00 -0.65939405098E+03  0.65939405872E+03  0.10100000352E+00 0.  1.
    10030    2    1    2    0    0  0.00000000000E+00  0.00000000000E+00  0.55176871114E+03  0.18705568250E+04  0.17873259706E+04 0.  0.
        1    1    3    3  502    0 -0.18580791326E+03 -0.20152010306E+03 -0.61431235936E+03  0.67269205990E+03  0.50400001928E-02 0.  1.
       -1    1    3    3    0  502  0.18580791326E+03  0.20152010306E+03  0.11660810705E+04  0.11978647651E+04  0.50400001928E-02 0. -1.
</event>
<event>
 5   0  0.6547153E-04  0.1756897E+04  0.7818609E-02  0.8729563E-01
        2   -1    0    0  501    0  0.00000000000E+00  0.00000000000E+00  0.15287746218E+04  0.15287746218E+04  0.25500000920E-02 0. -1.
       -2   -1    0    0    0  501  0.00000000000E+00  0.00000000000E+00 -0.50476476812E+03  0.50476476813E+03  0.25500000920E-02 0.  1.
    10030    2    1    2    0    0  0.00000000000E+00  0.00000000000E+00  0.10240098536E+04  0.20335393899E+04  0.17568967727E+04 0.  0.
        5    1    3    3  502    0 -0.19361387379E+02  0.86757323655E+03  0.66982460235E+03  0.10962414296E+04  0.46999998093E+01 0. -1.
       -5    1    3    3    0  502  0.19361387379E+02 -0.86757323655E+03  0.35418525129E+03  0.93729796027E+03  0.46999998093E+01 0.  1.
</event>
<event>
 5   0  0.6547153E-04  0.1730094E+04  0.7818609E-02  0.8744384E-01
        2   -1    0    0  501    0  0.00000000000E+00  0.00000000000E+00  0.66184996488E+03  0.66184996488E+03  0.25500000920E-02 0. -1.
       -2   -1    0    0    0  501  0.00000000000E+00  0.00000000000E+00 -0.11306284433E+04  0.11306284433E+04  0.25500000920E-02 0.  1.
    10030    2    1    2    0    0  0.00000000000E+00  0.00000000000E+00 -0.46877847844E+03  0.17924784082E+04  0.17300940963E+04 0.  0.
        5    1    3    3  502    0  0.33493576756E+03  0.53883982393E+03  0.37482185501E+03  0.73691508143E+03  0.46999998093E+01 0. -1.
       -5    1    3    3    0  502 -0.33493576756E+03 -0.53883982393E+03 -0.84360033345E+03  0.10555633268E+04  0.46999998093E+01 0.  1.
</event>
<event>
 5   0  0.3404261E-04  0.2212419E+04  0.7818609E-02  0.8513277E-01
       -1   -1    0    0    0  501  0.00000000000E+00  0.00000000000E+00  0.14290662055E+04  0.14290662055E+04  0.50400001928E-02 0. -1.
        1   -1    0    0  501    0  0.00000000000E+00  0.00000000000E+00 -0.85629340410E+03  0.85629340411E+03  0.50400001928E-02 0.  1.
    10030    2    1    2    0    0  0.00000000000E+00  0.00000000000E+00  0.57277280144E+03  0.22853596097E+04  0.22124194592E+04 0.  0.
        1    1    3    3  502    0  0.13197236844E+03 -0.99728100100E+03  0.76167973993E+03  0.12618011441E+04  0.50400001928E-02 0. -1.
       -1    1    3    3    0  502 -0.13197236844E+03  0.99728100100E+03 -0.18890693849E+03  0.10235584656E+04  0.50400001928E-02 0.  1.
</event>
<event>
 5   0  0.3470962E-04  0.1932921E+04  0.7818609E-02  0.8638641E-01
        1   -1    0    0  501    0  0.00000000000E+00  0.00000000000E+00  0.15470516770E+04  0.15470516770E+04  0.50400001928E-02 0. -1.
       -1   -1    0    0    0  501  0.00000000000E+00  0.00000000000E+00 -0.60375882880E+03  0.60375882882E+03  0.50400001928E-02 0.  1.
    10030    2    1    2    0    0  0.00000000000E+00  0.00000000000E+00  0.94329284817E+03  0.21508105058E+04  0.19329212179E+04 0.  0.
        4    1    3    3  502    0 -0.44237144539E+03  0.31240919203E+03 -0.41905705636E+03  0.68476450576E+03  0.12699999809E+01 0.  1.
       -4    1    3    3    0  502  0.44237144539E+03 -0.31240919203E+03  0.13623499045E+04  0.14660460000E+04  0.12699999809E+01 0. -1.
</event>
<event>
 5   0  0.6929121E-04  0.1958087E+04  0.7818609E-02  0.8626471E-01
       -2   -1    0    0    0  501  0.00000000000E+00  0.00000000000E+00  0.86117247947E+03  0.86117247947E+03  0.25500000920E-02 0. -1.
        2   -1    0    0  501    0  0.00000000000E+00  0.00000000000E+00 -0.11130476516E+04  0.11130476516E+04  0.25500000920E-02 0.  1.
    10030    2    1    2    0    0  0.00000000000E+00  0.00000000000E+00 -0.25187517214E+03  0.19742201311E+04  0.19580868274E+04 0.  0.
        3    1    3    3  502    0 -0.63019834582E+03  0.70208661729E+03 -0.38972355833E+03  0.10207644368E+04  0.10100000352E+00 0.  1.
       -3    1    3    3    0  502  0.63019834582E+03 -0.70208661729E+03  0.13784838618E+03  0.95345569432E+03  0.10100000352E+00 0. -1.
</event>
<event>
 5   0  0.6771967E-04  0.1804723E+04  0.7818609E-02  0.8703792E-01
       -2   -1    0    0    0  501  0.00000000000E+00  0.00000000000E+00  0.58603429113E+03  0.58603429114E+03  0.25500000920E-02 0. -1.
        2   -1    0    0  501    0  0.00000000000E+00  0.00000000000E+00 -0.13894351854E+04  0.13894351854E+04  0.25500000920E-02 0.  1.
    10030    2    1    2    0    0  0.00000000000E+00  0.00000000000E+00 -0.80340089423E+03  0.19754694765E+04  0.18047234292E+04 0.  0.
        1    1    3    3  502    0 -0.27163828654E+02 -0.54259431761E+03  0.38695888585E+03  0.66699598684E+03  0.50400001928E-02 0. -1.
       -1    1    3    3    0  502  0.27163828654E+02  0.54259431761E+03 -0.11903597801E+04  0.13084734897E+04  0.50400001928E-02 0.  1.
</event>
<event>
 5   0  0.6547153E-04  0.1032226E+04  0.7818609E-02  0.9273889E-01
        2   -1    0    0  501    0  0.00000000000E+00  0.00000000000E+00  0.79368054609E+03  0.79368054609E+03  0.25500000920E-02 0. -1.
       -2   -1    0    0    0  501  0.00000000000E+00  0.00000000000E+00 -0.33561685366E+03  0.33561685367E+03  0.25500000920E-02 0.  1.
    10030    2    1    2    0    0  0.00000000000E+00  0.00000000000E+00  0.45806369243E+03  0.11292973998E+04  0.10322258817E+04 0.  0.
        5    1    3    3  502    0  0.33872588301E+03  0.20908185921E+03  0.58840395389E+03  0.71041660356E+03  0.46999998093E+01 0. -1.
       -5    1    3    3    0  502 -0.33872588301E+03 -0.20908185921E+03 -0.13034026146E+03  0.41888079620E+03  0.46999998093E+01 0.  1.
</event>
<event>
 5   0  0.2467375E-04  0.1747736E+04  0.7818609E-02  0.8734597E-01
       -4   -1    0    0    0  501  0.00000000000E+00  0.00000000000E+00  0.10576832157E+04  0.10576839781E+04  0.12699999809E+01 0.  1.
        4   -1    0    0  501    0  0.00000000000E+00  0.00000000000E+00 -0.72199693130E+03  0.72199804827E+03  0.12699999809E+01 0. -1.
    10030    2    1    2    0    0  0.00000000000E+00  0.00000000000E+00  0.33568628436E+03  0.17796820264E+04  0.17477364886E+04 0.  0.
        1    1    3    3  502    0 -0.40055083281E+03 -0.69917510484E+03 -0.17650795211E+03  0.82488899501E+03  0.50400001928E-02 0. -1.
       -1    1    3    3    0  502  0.40055083281E+03  0.69917510484E+03  0.51219423647E+03  0.95479303139E+03  0.50400001928E-02 0.  1.
</event>
<event>
 5   0  0.6929121E-04  0.1820738E+04  0.7818609E-02  0.8695348E-01
        2   -1    0    0  501    0  0.00000000000E+00  0.00000000000E+00  0.10782253282E+04  0.10782253282E+04  0.25500000920E-02 0. -1.
       -2   -1    0    0    0  501  0.00000000000E+00  0.00000000000E+00 -0.76864451637E+03  0.76864451638E+03  0.25500000920E-02 0.  1.
    10030    2    1    2    0    0  0.00000000000E+00  0.00000000000E+00  0.30958081187E+03  0.18468698446E+04  0.18207382964E+04 0.  0.
        3    1    3    3  502    0 -0.12978094069E+03  0.58007199906E+03  0.85421205293E+03  0.10406751934E+04  0.10100000352E+00 0. -1.
       -3    1    3    3    0  502  0.12978094069E+03 -0.58007199906E+03 -0.54463124106E+03  0.80619465119E+03  0.10100000352E+00 0.  1.
</event>
<event>
 5   0  0.6774451E-04  0.1848865E+04  0.7818609E-02  0.8680737E-01
       -2   -1    0    0    0  501  0.00000000000E+00  0.00000000000E+00  0.47256999096E+03  0.47256999097E+03  0.25500000920E-02 0.  1.
        2   -1    0    0  501    0  0.00000000000E+00  0.00000000000E+00 -0.18083567501E+04  0.18083567501E+04  0.25500000920E-02 0. -1.
    10030    2    1    2    0    0  0.00000000000E+00  0.00000000000E+00 -0.13357867592E+04  0.22809267411E+04  0.18488646603E+04 0.  0.
        4    1    3    3  502    0 -0.50938539822E+03  0.48201337269E+03 -0.14109429622E+04  0.15756179838E+04  0.12699999809E+01 0. -1.
       -4    1    3    3    0  502  0.50938539822E+03 -0.48201337269E+03  0.75156203032E+02  0.70530875730E+03  0.12699999809E+01 0.  1.
</event>
<event>
 5   0  0.3413839E-04  0.1791043E+04  0.7818609E-02  0.8711077E-01
       -1   -1    0    0    0  501  0.00000000000E+00  0.00000000000E+00  0.84015946836E+03  0.84015946837E+03  0.50400001928E-02 0.  1.
        1   -1    0    0  501    0  0.00000000000E+00  0.00000000000E+00 -0.95453169485E+03  0.95453169486E+03  0.50400001928E-02 0. -1.
    10030    2    1    2    0    0  0.00000000000E+00  0.00000000000E+00 -0.11437222649E+03  0.17946911632E+04  0.17910430942E+04 0.  0.
        5    1    3    3  502    0 -0.10128930721E+02 -0.83979604350E+03 -0.36858711672E+03  0.91719057045E+03  0.46999998093E+01 0.  1.
       -5    1    3    3    0  502  0.10128930721E+02  0.83979604350E+03  0.25421489023E+03  0.87750059278E+03  0.46999998093E+01 0. -1.
</event>
<event>
 5   0  0.6929121E-04  0.1881803E+04  0.7818609E-02  0.8663968E-01
        2   -1    0    0  501    0  0.00000000000E+00  0.00000000000E+00  0.11471504424E+04  0.11471504424E+04  0.25500000920E-02 0.  1.
       -2   -1    0    0    0  501  0.00000000000E+00  0.00000000000E+00 -0.77173456223E+03  0.77173456223E+03  0.25500000920E-02 0. -1.
    10030    2    1    2    0    0  0.00000000000E+00  0.00000000000E+00  0.37541588017E+03  0.19188850046E+04  0.18818030125E+04 0.  0.
        3    1    3    3  502    0 -0.21831557533E+03 -0.88782734213E+03 -0.38925044292E+02  0.91510340899E+03  0.10100000352E+00 0. -1.
       -3    1    3    3    0  502  0.21831557533E+03  0.88782734213E+03  0.41434092446E+03  0.10037815956E+04  0.10100000352E+00 0.  1.
</event>
<event>
 5   0  0.6774451E-04  0.1758417E+04  0.7818609E-02  0.8728731E-01
       -2   -1    0    0    0  501  0.00000000000E+00  0.00000000000E+00  0.64543800273E+03  0.64543800274E+03  0.25500000920E-02 0.  1.
        2   -1    0    0  501    0  0.00000000000E+00  0.00000000000E+00 -0.11976482737E+04  0.11976482737E+04  0.25500000920E-02 0. -1.
    10030    2    1    2    0    0  0.00000000000E+00  0.00000000000E+00 -0.55221027099E+03  0.18430862765E+04  0.17584171402E+04 0.  0.
        4    1    3    3  502    0 -0.55340821841E+03 -0.63633915449E+03 -0.53670906208E+03  0.99962313196E+03  0.12699999809E+01 0.  1.
       -4    1    3    3    0  502  0.55340821841E+03  0.63633915449E+03 -0.15501208904E+02  0.84346314449E+03  0.12699999809E+01 0. -1.
</event>
<event>
 5   0  0.6771967E-04  0.1776550E+04  0.7818609E-02  0.8718870E-01
        2   -1    0    0  501    0  0.00000000000E+00  0.00000000000E+00  0.89216868374E+03  0.89216868375E+03  0.25500000920E-02 0.  1.
       -2   -1    0    0    0  501  0.00000000000E+00  0.00000000000E+00 -0.88439835908E+03  0.88439835908E+03  0.25500000920E-02 0. -1.
    10030    2    1    2    0    0  0.00000000000E+00  0.00000000000E+00  0.77703246632E+01  0.17765670428E+04  0.17765500499E+04 0.  0.
        1    1    3    3  502    0  0.18549038823E+03 -0.86653660763E+03  0.65042459235E+02  0.88855101036E+03  0.50400001928E-02 0. -1.
       -1    1    3    3    0  502 -0.18549038823E+03  0.86653660763E+03 -0.57272134572E+02  0.88801603247E+03  0.50400001928E-02 0.  1.
</event>
<event>
 5   0  0.3470962E-04  0.1822944E+04  0.7818609E-02  0.8694192E-01
       -1   -1    0    0    0  501  0.00000000000E+00  0.00000000000E+00  0.10092808437E+04  0.10092808437E+04  0.50400001928E-02 0. -1.
        1   -1    0    0  501    0  0.00000000000E+00  0.00000000000E+00 -0.82314176653E+03  0.82314176654E+03  0.50400001928E-02 0.  1.
    10030    2    1    2    0    0  0.00000000000E+00  0.00000000000E+00  0.18613907720E+03  0.18324226103E+04  0.18229440108E+04 0.  0.
        4    1    3    3  502    0 -0.51942262032E+03  0.54614900446E+03  0.60827823282E+03  0.96854665092E+03  0.12699999809E+01 0. -1.
       -4    1    3    3    0  502  0.51942262032E+03 -0.54614900446E+03 -0.42213915562E+03  0.86387595937E+03  0.12699999809E+01 0.  1.
</event>
<event>
 5   0  0.6929121E-04  0.1812409E+04  0.7818609E-02  0.8699728E-01
       -2   -1    0    0    0  501  0.00000000000E+00  0.00000000000E+00  0.75662748351E+03  0.75662748352E+03  0.25500000920E-02 0. -1.
        2   -1    0    0  501    0  0.00000000000E+00  0.00000000000E+00 -0.10853517506E+04  0.10853517506E+04  0.25500000920E-02 0.  1.
    10030    2    1    2    0    0  0.00000000000E+00  0.00000000000E+00 -0.32872426713E+03  0.18419792342E+04  0.18124094061E+04 0.  0.
        3    1    3    3  502    0 -0.61493528157E+03  0.61915079552E+03 -0.41271315040E+03  0.96531096690E+03  0.10100000352E+00 0.  1.
       -3    1    3    3    0  502  0.61493528157E+03 -0.61915079552E+03  0.83988883265E+02  0.87666826726E+03  0.10100000352E+00 0. -1.
</event>
<event>
 5   0  0.6547153E-04  0.1890335E+04  0.7818609E-02  0.8659682E-01
       -2   -1    0    0    0  501  0.00000000000E+00  0.00000000000E+00  0.36050468081E+03  0.36050468082E+03  0.25500000920E-02 0.  1.
        2   -1    0    0  501    0  0.00000000000E+00  0.00000000000E+00 -0.24780304824E+04  0.24780304824E+04  0.25500000920E-02 0. -1.
    10030    2    1    2    0    0  0.00000000000E+00  0.00000000000E+00 -0.21175258016E+04  0.28385351632E+04  0.18903349842E+04 0.  0.
        5    1    3    3  502    0  0.87334316919E+03  0.47616925281E+02 -0.52085345283E+03  0.10179911945E+04  0.46999998093E+01 0.  1.
       -5    1    3    3    0  502 -0.87334316919E+03 -0.47616925281E+02 -0.15966723488E+04  0.18205439687E+04  0.46999998093E+01 0. -1.
</event>
<event>
 5   0  0.3308275E-04  0.1819080E+04  0.7818609E-02  0.8696218E-01
       -1   -1    0    0    0  501  0.00000000000E+00  0.00000000000E+00  0.11454264248E+04  0.11454264248E+04  0.50400001928E-02 0. -1.
        1   -1    0    0  501    0  0.00000000000E+00  0.00000000000E+00 -0.72223161467E+03  0.72223161469E+03  0.50400001928E-02 0.  1.
    10030    2    1    2    0    0  0.00000000000E+00  0.00000000000E+00  0.42319481014E+03  0.18676580395E+04  0.18190801811E+04 0.  0.
        3    1    3    3  502    0  0.13487089994E+03 -0.71318891967E+03  0.77435384342E+03  0.10613446565E+04  0.10100000352E+00 0. -1.
       -3    1    3    3    0  502 -0.13487089994E+03  0.71318891967E+03 -0.35115903329E+03  0.80631338303E+03  0.10100000352E+00 0.  1.
</event>
<event>
 5   0  0.3470962E-04  0.1760661E+04  0.7818609E-02  0.8727504E-01
       -1   -1    0    0    0  501  0.00000000000E+00  0.00000000000E+00  0.61894479000E+03  0.61894479002E+03  0.50400001928E-02 0.  1.
        1   -1    0    0  501    0  0.00000000000E+00  0.00000000000E+00 -0.12521009992E+04  0.12521009992E+04  0.50400001928E-02 0. -1.
    10030    2    1    2    0    0  0.00000000000E+00  0.00000000000E+00 -0.63315620922E+03  0.18710457893E+04  0.17606605466E+04 0.  0.
        4    1    3    3  502    0 -0.21512276920E+03  0.81296655754E+03 -0.39894704450E+02  0.84189407282E+03  0.12699999809E+01 0.  1.
       -4    1    3    3    0  502  0.21512276920E+03 -0.81296655754E+03 -0.59326150477E+03  0.10291517164E+04  0.12699999809E+01 0. -1.
</event>
<event>
 5   0  0.6774451E-04  0.1822801E+04  0.7818609E-02  0.8694267E-01
       -2   -1    0    0    0  501  0.00000000000E+00  0.00000000000E+00  0.39122449809E+03  0.39122449810E+03  0.25500000920E-02 0.  1.
        2   -1    0    0  501    0  0.00000000000E+00  0.00000000000E+00 -0.21232073661E+04  0.21232073661E+04  0.25500000920E-02 0. -1.
    10030    2    1    2    0    0  0.00000000000E+00  0.00000000000E+00 -0.17319828680E+04  0.25144318642E+04  0.18228008516E+04 0.  0.
        4    1    3    3  502    0  0.61946554501E+03  0.25551909649E+03 -0.13839377950E+02  0.67023929414E+03  0.12699999809E+01 0.  1.
       -4    1    3    3    0  502 -0.61946554501E+03 -0.25551909649E+03 -0.17181434900E+04  0.18441925700E+04  0.12699999809E+01 0. -1.
</event>
<event>
 5   0  0.3308275E-04  0.1806493E+04  0.7818609E-02  0.8702854E-01
        1   -1    0    0  501    0  0.00000000000E+00  0.00000000000E+00  0.13987436405E+04  0.13987436405E+04  0.50400001928E-02 0. -1.
       -1   -1    0    0    0  501  0.00000000000E+00  0.00000000000E+00 -0.58327647620E+03  0.58327647622E+03  0.50400001928E-02 0.  1.
    10030    2    1    2    0    0  0.00000000000E+00  0.00000000000E+00  0.81546716434E+03  0.19820201168E+04  0.18064930244E+04 0.  0.
        3    1    3    3  502    0 -0.25810059747E+03 -0.28407211467E+03 -0.48935620321E+03  0.62191831342E+03  0.10100000352E+00 0.  1.
       -3    1    3    3    0  502  0.25810059747E+03  0.28407211467E+03  0.13048233676E+04  0.13601018033E+04  0.10100000352E+00 0. -1.
</event>
<event>
 5   0  0.6547153E-04  0.1800708E+04  0.7818609E-02  0.8705923E-01
        2   -1    0    0  501    0  0.00000000000E+00  0.00000000000E+00  0.11740523294E+04  0.11740523294E+04  0.25500000920E-02 0. -1.
       -2   -1    0    0    0  501  0.00000000000E+00  0.00000000000E+00 -0.69046070729E+03  0.69046070729E+03  0.25500000920E-02 0.  1.
    10030    2    1    2    0    0  0.00000000000E+00  0.00000000000E+00  0.48359162211E+03  0.18645130367E+04  0.18007076406E+04 0.  0.
        5    1    3    3  502    0  0.38261380245E+03  0.15690386714E+03  0.10698855128E+04  0.11470349802E+04  0.46999998093E+01 0. -1.
       -5    1    3    3    0  502 -0.38261380245E+03 -0.15690386714E+03 -0.58629389065E+03  0.71747805651E+03  0.46999998093E+01 0.  1.
</event>
<event>
 5   0  0.6853162E-04  0.1765807E+04  0.7818609E-02  0.8724697E-01
       -2   -1    0    0    0  501  0.00000000000E+00  0.00000000000E+00  0.57557253381E+03  0.57557253381E+03  0.25500000920E-02 0. -1.
        2   -1    0    0  501    0  0.00000000000E+00  0.00000000000E+00 -0.13543353013E+04  0.13543353013E+04  0.25500000920E-02 0.  1.
    10030    2    1    2    0    0  0.00000000000E+00  0.00000000000E+00 -0.77876276751E+03  0.19299078351E+04  0.17658065591E+04 0.  0.
        2    1    3    3  502    0  0.81669955963E+03  0.55266561606E+02 -0.75098465352E+03  0.11108692602E+04  0.25500000920E-02 0.  1.
       -2    1    3    3    0  502 -0.81669955963E+03 -0.55266561606E+02 -0.27778113988E+02  0.81903857489E+03  0.25500000920E-02 0. -1.
</event>
<event>
 5   0  0.6547153E-04  0.1777601E+04  0.7818609E-02  0.8718303E-01
       -2   -1    0    0    0  501  0.00000000000E+00  0.00000000000E+00  0.84106953695E+03  0.84106953696E+03  0.25500000920E-02 0. -1.
        2   -1    0    0  501    0  0.00000000000E+00  0.00000000000E+00 -0.93923988630E+03  0.93923988630E+03  0.25500000920E-02 0.  1.
    10030    2    1    2    0    0  0.00000000000E+00  0.00000000000E+00 -0.98170349343E+02  0.17803094233E+04  0.17776006934E+04 0.  0.
        5    1    3    3  502    0  0.96203434863E+01 -0.51791024519E+03  0.67424829447E+03  0.85026844330E+03  0.46999998093E+01 0. -1.
       -5    1    3    3    0  502 -0.96203434863E+01  0.51791024519E+03 -0.77241864381E+03  0.93004097995E+03  0.46999998093E+01 0.  1.
</event>
<event>
 5   0  0.3413839E-04  0.1800211E+04  0.7818609E-02  0.8706187E-01
        1   -1    0    0  501    0  0.00000000000E+00  0.00000000000E+00  0.11280997315E+04  0.11280997315E+04  0.50400001928E-02 0.  1.
       -1   -1    0    0    0  501  0.00000000000E+00  0.00000000000E+00 -0.71818974055E+03  0.71818974056E+03  0.50400001928E-02 0. -1.
    10030    2    1    2    0    0  0.00000000000E+00  0.00000000000E+00  0.40990999095E+03  0.18462894721E+04  0.18002107138E+04 0.  0.
        5    1    3    3  502    0 -0.69738482379E+03 -0.52756544115E+03  0.42371417559E+03  0.97171327033E+03  0.46999998093E+01 0.  1.
       -5    1    3    3    0  502  0.69738482379E+03  0.52756544115E+03 -0.13804184635E+02  0.87457620174E+03  0.46999998093E+01 0. -1.
</event>
<event>
 5   0  0.3470962E-04  0.1666920E+04  0.7818609E-02  0.8780459E-01
       -1   -1    0    0    0  501  0.00000000000E+00  0.00000000000E+00  0.66738037698E+03  0.66738037700E+03  0.50400001928E-02 0. -1.
        1   -1    0    0  501    0  0.00000000000E+00  0.00000000000E+00 -0.10408688343E+04  0.10408688343E+04  0.50400001928E-02 0.  1.
    10030    2    1    2    0    0  0.00000000000E+00  0.00000000000E+00 -0.37348845732E+03  0.17082492113E+04  0.16669198362E+04 0.  0.
        4    1    3    3  502    0 -0.11735682154E+03 -0.22214829900E+03  0.62764864579E+03  0.67606724944E+03  0.12699999809E+01 0. -1.
       -4    1    3    3    0  502  0.11735682154E+03  0.22214829900E+03 -0.10011371031E+04  0.10321819619E+04  0.12699999809E+01 0.  1.
</event>
<event>
 5   0  0.6929121E-04  0.1787688E+04  0.7818609E-02  0.8712874E-01
        2   -1    0    0  501    0  0.00000000000E+00  0.00000000000E+00  0.15237156306E+04  0.15237156306E+04  0.25500000920E-02 0. -1.
       -2   -1    0    0    0  501  0.00000000000E+00  0.00000000000E+00 -0.52434782978E+03  0.52434782979E+03  0.25500000920E-02 0.  1.
    10030    2    1    2    0    0  0.00000000000E+00  0.00000000000E+00  0.99936780083E+03  0.20480634604E+04  0.17876878745E+04 0.  0.
        3    1    3    3  502    0  0.71220496244E+03 -0.15300504490E+03  0.10931153612E+04  0.13136010260E+04  0.10100000352E+00 0. -1.
       -3    1    3    3    0  502 -0.71220496244E+03  0.15300504490E+03 -0.93747560411E+02  0.73446243442E+03  0.10100000352E+00 0.  1.
</event>
<event>
 5   0  0.3377273E-04  0.9213478E+03  0.7818609E-02  0.9399282E-01
       -1   -1    0    0    0  501  0.00000000000E+00  0.00000000000E+00  0.62400652820E+03  0.62400652822E+03  0.50400001928E-02 0.  1.
        1   -1    0    0  501    0  0.00000000000E+00  0.00000000000E+00 -0.34009333048E+03  0.34009333052E+03  0.50400001928E-02 0. -1.
    10030    2    1    2    0    0  0.00000000000E+00  0.00000000000E+00  0.28391319772E+03  0.96409985874E+03  0.92134783539E+03 0.  0.
        2    1    3    3  502    0 -0.44370910584E+03 -0.76350972179E+02  0.24401813446E+03  0.51210554723E+03  0.25500000920E-02 0.  1.
       -2    1    3    3    0  502  0.44370910584E+03  0.76350972179E+02  0.39895063268E+02  0.45199431151E+03  0.25500000920E-02 0. -1.
</event>
<event>
 5   0  0.6774451E-04  0.1807847E+04  0.7818609E-02  0.8702138E-01
       -2   -1    0    0    0  501  0.00000000000E+00  0.00000000000E+00  0.64510365737E+03  0.64510365737E+03  0.25500000920E-02 0.  1.
        2   -1    0    0  501    0  0.00000000000E+00  0.00000000000E+00 -0.12665832542E+04  0.12665832542E+04  0.25500000920E-02 0. -1.
    10030    2    1    2    0    0  0.00000000000E+00  0.00000000000E+00 -0.62147959679E+03  0.19116869115E+04  0.18078467741E+04 0.  0.
        4    1    3    3  502    0  0.31611829319E+03 -0.45979360931E+03 -0.10627376968E+04  0.12003141104E+04  0.12699999809E+01 0. -1.
       -4    1    3    3    0  502 -0.31611829319E+03  0.45979360931E+03  0.44125810004E+03  0.71137280114E+03  0.12699999809E+01 0.  1.
</event>
<event>
 5   0  0.3470962E-04  0.1798051E+04  0.7818609E-02  0.8707337E-01
        1   -1    0    0  501    0  0.00000000000E+00  0.00000000000E+00  0.95123693810E+03  0.95123693812E+03  0.50400001928E-02 0. -1.
       -1   -1    0    0    0  501  0.00000000000E+00  0.00000000000E+00 -0.84967989914E+03  0.84967989915E+03  0.50400001928E-02 0.  1.
    10030    2    1    2    0    0  0.00000000000E+00  0.00000000000E+00  0.10155703897E+03  0.18009168373E+04  0.17980510623E+04 0.  0.
        4    1    3    3  502    0 -0.85071856452E+03 -0.22046829494E+03 -0.13904120919E+03  0.88975413225E+03  0.12699999809E+01 0. -1.
       -4    1    3    3    0  502  0.85071856452E+03  0.22046829494E+03  0.24059824815E+03  0.91116270502E+03  0.12699999809E+01 0.  1.
</event>
<event>
 5   0  0.3404261E-04  0.1792547E+04  0.7818609E-02  0.8710273E-01
       -1   -1    0    0    0  501  0.00000000000E+00  0.00000000000E+00  0.49660450045E+03  0.49660450047E+03  0.50400001928E-02 0.  1.
        1   -1    0    0  501    0  0.00000000000E+00  0.00000000000E+00 -0.16175972857E+04  0.16175972857E+04  0.50400001928E-02 0. -1.
    10030    2    1    2    0    0  0.00000000000E+00  0.00000000000E+00 -0.11209927852E+04  0.21142017862E+04  0.17925468942E+04 0.  0.
        1    1    3    3  502    0 -0.51246026742E+03 -0.31785826117E+03  0.22155042573E+03  0.64244376488E+03  0.50400001928E-02 0.  1.
       -1    1    3    3    0  502  0.51246026742E+03  0.31785826117E+03 -0.13425432110E+04  0.14717580213E+04  0.50400001928E-02 0. -1.
</event>
<event>
 5   0  0.3413839E-04  0.1807670E+04  0.7818609E-02  0.8702231E-01
        1   -1    0    0  501    0  0.00000000000E+00  0.00000000000E+00  0.12085643602E+04  0.12085643603E+04  0.50400001928E-02 0.  1.
       -1   -1    0    0    0  501  0.00000000000E+00  0.00000000000E+00 -0.67594028197E+03  0.67594028199E+03  0.50400001928E-02 0. -1.
    10030    2    1    2    0    0  0.00000000000E+00  0.00000000000E+00  0.53262407828E+03  0.18845046422E+04  0.18076695876E+04 0.  0.
        5    1    3    3  502    0 -0.27459512796E+03 -0.43491314579E+02  0.11628671343E+04  0.11956487949E+04  0.46999998093E+01 0.  1.
       -5    1    3    3    0  502  0.27459512796E+03  0.43491314579E+02 -0.63024305602E+03  0.68885584733E+03  0.46999998093E+01 0. -1.
</event>
<event>
 5   0  0.3308275E-04  0.1943130E+04  0.7818609E-02  0.8633681E-01
        1   -1    0    0  501    0  0.00000000000E+00  0.00000000000E+00  0.13517898624E+04  0.13517898624E+04  0.50400001928E-02 0. -1.
       -1   -1    0    0    0  501  0.00000000000E+00  0.00000000000E+00 -0.69828765541E+03  0.69828765542E+03  0.50400001928E-02 0.  1.
    10030    2    1    2    0    0  0.00000000000E+00  0.00000000000E+00  0.65350220696E+03  0.20500775178E+04  0.19431296134E+04 0.  0.
        3    1    3    3  502    0 -0.30826318142E+03 -0.85153447620E+03 -0.44468247241E+02  0.90670534816E+03  0.10100000352E+00 0. -1.
       -3    1    3    3    0  502  0.30826318142E+03  0.85153447620E+03  0.69797045420E+03  0.11433721696E+04  0.10100000352E+00 0.  1.
</event>
<event>
 5   0  0.6853162E-04  0.1755903E+04  0.7818609E-02  0.8730108E-01
       -2   -1    0    0    0  501  0.00000000000E+00  0.00000000000E+00  0.55055936469E+03  0.55055936470E+03  0.25500000920E-02 0.  1.
        2   -1    0    0  501    0  0.00000000000E+00  0.00000000000E+00 -0.14000280994E+04  0.14000280994E+04  0.25500000920E-02 0. -1.
    10030    2    1    2    0    0  0.00000000000E+00  0.00000000000E+00 -0.84946873470E+03  0.19505874641E+04  0.17559027091E+04 0.  0.
        2    1    3    3  502    0 -0.59822783367E+02  0.75616009525E+03  0.66369805699E+02  0.76142091262E+03  0.25500000920E-02 0.  1.
       -2    1    3    3    0  502  0.59822783367E+02 -0.75616009525E+03 -0.91583854040E+03  0.11891665515E+04  0.25500000920E-02 0. -1.
</event>
<event>
 5   0  0.3470962E-04  0.1822906E+04  0.7818609E-02  0.8694212E-01
        1   -1    0    0  501    0  0.00000000000E+00  0.00000000000E+00  0.72139554946E+03  0.72139554948E+03  0.50400001928E-02 0.  1.
       -1   -1    0    0    0  501  0.00000000000E+00  0.00000000000E+00 -0.11515829696E+04  0.11515829696E+04  0.50400001928E-02 0. -1.
    10030    2    1    2    0    0  0.00000000000E+00  0.00000000000E+00 -0.43018742015E+03  0.18729785191E+04  0.18229062830E+04 0.  0.
        4    1    3    3  502    0  0.64206382061E+03 -0.95877793462E+02  0.44225057217E+03  0.78550982330E+03  0.12699999809E+01 0.  1.
       -4    1    3    3    0  502 -0.64206382061E+03  0.95877793462E+02 -0.87243799232E+03  0.10874686958E+04  0.12699999809E+01 0. -1.
</event>
<event>
 5   0  0.6547153E-04  0.1676451E+04  0.7818609E-02  0.8774911E-01
       -2   -1    0    0    0  501  0.00000000000E+00  0.00000000000E+00  0.47877669245E+03  0.47877669245E+03  0.25500000920E-02 0. -1.
        2   -1    0    0  501    0  0.00000000000E+00  0.00000000000E+00 -0.14675353196E+04  0.14675353196E+04  0.25500000920E-02 0.  1.
    10030    2    1    2    0    0  0.00000000000E+00  0.00000000000E+00 -0.98875862718E+03  0.19463120121E+04  0.16764506630E+04 0.  0.
        5    1    3    3  502    0 -0.35207799883E+03  0.15385627747E+03  0.37050102994E+03  0.53378251616E+03  0.46999998093E+01 0. -1.
       -5    1    3    3    0  502  0.35207799883E+03 -0.15385627747E+03 -0.13592596571E+04  0.14125294959E+04  0.46999998093E+01 0.  1.
</event>
<event>
 5   0  0.6774451E-04  0.1803782E+04  0.7818609E-02  0.8704291E-01
        2   -1    0    0  501    0  0.00000000000E+00  0.00000000000E+00  0.54061890444E+03  0.54061890445E+03  0.25500000920E-02 0.  1.
       -2   -1    0    0    0  501  0.00000000000E+00  0.00000000000E+00 -0.15045859097E+04  0.15045859097E+04  0.25500000920E-02 0. -1.
    10030    2    1    2    0    0  0.00000000000E+00  0.00000000000E+00 -0.96396700526E+03  0.20452048142E+04  0.18037822332E+04 0.  0.
        4    1    3    3  502    0 -0.59254475795E+03  0.49481634298E+02 -0.12508659930E+04  0.13850000244E+04  0.12699999809E+01 0. -1.
       -4    1    3    3    0  502  0.59254475795E+03 -0.49481634298E+02  0.28689898775E+03  0.66020478973E+03  0.12699999809E+01 0.  1.
</event>
<event>
 5   0  0.3404261E-04  0.1792667E+04  0.7818609E-02  0.8710209E-01
        1   -1    0    0  501    0  0.00000000000E+00  0.00000000000E+00  0.54274610622E+03  0.54274610624E+03  0.50400001928E-02 0. -1.
       -1   -1    0    0    0  501  0.00000000000E+00  0.00000000000E+00 -0.14802754552E+04  0.14802754552E+04  0.50400001928E-02 0.  1.
    10030    2    1    2    0    0  0.00000000000E+00  0.00000000000E+00 -0.93752934902E+03  0.20230215615E+04  0.17926669958E+04 0.  0.
        1    1    3    3  502    0  0.62297550706E+03  0.64033772612E+03 -0.55078758489E+03  0.10495226770E+04  0.50400001928E-02 0.  1.
       -1    1    3    3    0  502 -0.62297550706E+03 -0.64033772612E+03 -0.38674176413E+03  0.97349888446E+03  0.50400001928E-02 0. -1.
</event>
<event>
 5   0  0.6547153E-04  0.1859440E+04  0.7818609E-02  0.8675313E-01
       -2   -1    0    0    0  501  0.00000000000E+00  0.00000000000E+00  0.51869366997E+03  0.51869366997E+03  0.25500000920E-02 0.  1.
        2   -1    0    0  501    0  0.00000000000E+00  0.00000000000E+00 -0.16664542134E+04  0.16664542134E+04  0.25500000920E-02 0. -1.
    10030    2    1    2    0    0  0.00000000000E+00  0.00000000000E+00 -0.11477605434E+04  0.21851478834E+04  0.18594399714E+04 0.  0.
        5    1    3    3  502    0 -0.13018037239E+03  0.77202839027E+03 -0.11630848366E+04  0.14020567720E+04  0.46999998093E+01 0. -1.
       -5    1    3    3    0  502  0.13018037239E+03 -0.77202839027E+03  0.15324293205E+02  0.78309111136E+03  0.46999998093E+01 0.  1.
</event>
<event>
 5   0  0.2467375E-04  0.1847844E+04  0.7818609E-02  0.8681262E-01
       -3   -1    0    0    0  501  0.00000000000E+00  0.00000000000E+00  0.14338295833E+04  0.14338295869E+04  0.10100000352E+00 0.  1.
        3   -1    0    0  501    0  0.00000000000E+00  0.00000000000E+00 -0.59535112099E+03  0.59535112956E+03  0.10100000352E+00 0. -1.
    10030    2    1    2    0    0  0.00000000000E+00  0.00000000000E+00  0.83847846235E+03  0.20291807165E+04  0.18478442164E+04 0.  0.
        5    1    3    3  502    0  0.62223713765E+02  0.74038193388E+03  0.10222866134E+04  0.12637757746E+04  0.46999998093E+01 0.  1.
       -5    1    3    3    0  502 -0.62223713765E+02 -0.74038193388E+03 -0.18380815106E+03  0.76540494183E+03  0.46999998093E+01 0. -1.
</event>
<event>
 5   0  0.6771967E-04  0.1811803E+04  0.7818609E-02  0.8700048E-01
        2   -1    0    0  501    0  0.00000000000E+00  0.00000000000E+00  0.25294109679E+04  0.25294109679E+04  0.25500000920E-02 0. -1.
       -2   -1    0    0    0  501  0.00000000000E+00  0.00000000000E+00 -0.32444602966E+03  0.32444602967E+03  0.25500000920E-02 0.  1.
    10030    2    1    2    0    0  0.00000000000E+00  0.00000000000E+00  0.22049649382E+04  0.28538569976E+04  0.18118027993E+04 0.  0.
        1    1    3    3  502    0  0.80488994674E+02  0.40173436292E+03 -0.17016314502E+03  0.44364904211E+03  0.50400001928E-02 0.  1.
       -1    1    3    3    0  502 -0.80488994674E+02 -0.40173436292E+03  0.23751280833E+04  0.24102079555E+04  0.50400001928E-02 0. -1.
</event>
<event>
 5   0  0.6929121E-04  0.1788256E+04  0.7818609E-02  0.8712570E-01
       -2   -1    0    0    0  501  0.00000000000E+00  0.00000000000E+00  0.55709787295E+03  0.55709787296E+03  0.25500000920E-02 0.  1.
        2   -1    0    0  501    0  0.00000000000E+00  0.00000000000E+00 -0.14350525062E+04  0.14350525062E+04  0.25500000920E-02 0. -1.
    10030    2    1    2    0    0  0.00000000000E+00  0.00000000000E+00 -0.87795463321E+03  0.19921503791E+04  0.17882557969E+04 0.  0.
        3    1    3    3  502    0  0.36374490154E+03 -0.76699435722E+03 -0.75184404841E+03  0.11339577509E+04  0.10100000352E+00 0. -1.
       -3    1    3    3    0  502 -0.36374490154E+03  0.76699435722E+03 -0.12611058480E+03  0.85819262826E+03  0.10100000352E+00 0.  1.
</event>
<event>
 5   0  0.3404261E-04  0.1829322E+04  0.7818609E-02  0.8690860E-01
       -1   -1    0    0    0  501  0.00000000000E+00  0.00000000000E+00  0.78373994136E+03  0.78373994137E+03  0.50400001928E-02 0.  1.
        1   -1    0    0  501    0  0.00000000000E+00  0.00000000000E+00 -0.10674515337E+04  0.10674515337E+04  0.50400001928E-02 0. -1.
    10030    2    1    2    0    0  0.00000000000E+00  0.00000000000E+00 -0.28371159232E+03  0.18511914751E+04  0.18293216256E+04 0.  0.
        1    1    3    3  502    0 -0.86713653788E+03 -0.58833981748E+02 -0.43024915289E+03  0.96979458976E+03  0.50400001928E-02 0. -1.
       -1    1    3    3    0  502  0.86713653788E+03  0.58833981748E+02  0.14653756057E+03  0.88139688530E+03  0.50400001928E-02 0.  1.
</event>
<event>
 5   0  0.3377273E-04  0.1729844E+04  0.7818609E-02  0.8744524E-01
       -1   -1    0    0    0  501  0.00000000000E+00  0.00000000000E+00  0.71999469754E+03  0.71999469756E+03  0.50400001928E-02 0.  1.
        1   -1    0    0  501    0  0.00000000000E+00  0.00000000000E+00 -0.10390220035E+04  0.10390220035E+04  0.50400001928E-02 0. -1.
    10030    2    1    2    0    0  0.00000000000E+00  0.00000000000E+00 -0.31902730593E+03  0.17590167011E+04  0.17298443088E+04 0.  0.
        2    1    3    3  502    0 -0.15433194469E+03 -0.59181414935E+03  0.46237839182E+03  0.76671775365E+03  0.25500000920E-02 0.  1.
       -2    1    3    3    0  502  0.15433194469E+03  0.59181414935E+03 -0.78140569776E+03  0.99229894740E+03  0.25500000920E-02 0. -1.
</event>
<event>
 5   0  0.6771967E-04  0.1839811E+04  0.7818609E-02  0.8685410E-01
       -2   -1    0    0    0  501  0.00000000000E+00  0.00000000000E+00  0.49440056210E+03  0.49440056211E+03  0.25500000920E-02 0.  1.
        2   -1    0    0  501    0  0.00000000000E+00  0.00000000000E+00 -0.17116204120E+04  0.17116204120E+04  0.25500000920E-02 0. -1.
    10030    2    1    2    0    0  0.00000000000E+00  0.00000000000E+00 -0.12172198499E+04  0.22060209742E+04  0.18398109618E+04 0.  0.
        1    1    3    3  502    0  0.75749237781E+03  0.29557327358E+03 -0.11244343503E+04  0.13876277854E+04  0.50400001928E-02 0. -1.
       -1    1    3    3    0  502 -0.75749237781E+03 -0.29557327358E+03 -0.92785499603E+02  0.81839318879E+03  0.50400001928E-02 0.  1.
</event>
<event>
 5   0  0.6929121E-04  0.1304289E+04  0.7818609E-02  0.9026171E-01
        2   -1    0    0  501    0  0.00000000000E+00  0.00000000000E+00  0.17426080947E+04  0.17426080947E+04  0.25500000920E-02 0.  1.
       -2   -1    0    0    0  501  0.00000000000E+00  0.00000000000E+00 -0.24405497772E+03  0.24405497773E+03  0.25500000920E-02 0. -1.
    10030    2    1    2    0    0  0.00000000000E+00  0.00000000000E+00  0.14985531169E+04  0.19866630724E+04  0.13042885873E+04 0.  0.
        3    1    3    3  502    0  0.61299397654E+03  0.16753735033E+03  0.52613343866E+03  0.82501320263E+03  0.10100000352E+00 0. -1.
       -3    1    3    3    0  502 -0.61299397654E+03 -0.16753735033E+03  0.97241967827E+03  0.11616498698E+04  0.10100000352E+00 0.  1.
</event>
<event>
 5   0  0.3413839E-04  0.1797645E+04  0.7818609E-02  0.8707553E-01
        1   -1    0    0  501    0  0.00000000000E+00  0.00000000000E+00  0.64024690177E+03  0.64024690179E+03  0.50400001928E-02 0.  1.
       -1   -1    0    0    0  501  0.00000000000E+00  0.00000000000E+00 -0.12618285547E+04  0.12618285547E+04  0.50400001928E-02 0. -1.
    10030    2    1    2    0    0  0.00000000000E+00  0.00000000000E+00 -0.62158165295E+03  0.19020754565E+04  0.17976449291E+04 0.  0.
        5    1    3    3  502    0 -0.42640541939E+03  0.28287980885E+03 -0.10926471904E+04  0.12065415619E+04  0.46999998093E+01 0. -1.
       -5    1    3    3    0  502  0.42640541939E+03 -0.28287980885E+03  0.47106553746E+03  0.69553389459E+03  0.46999998093E+01 0.  1.
</event>
<event>
 5   0  0.6929121E-04  0.1903334E+04  0.7818609E-02  0.8653198E-01
        2   -1    0    0  501    0  0.00000000000E+00  0.00000000000E+00  0.18047654013E+04  0.18047654013E+04  0.25500000920E-02 0.  1.
       -2   -1    0    0    0  501  0.00000000000E+00  0.00000000000E+00 -0.50182169269E+03  0.50182169269E+03  0.25500000920E-02 0. -1.
    10030    2    1    2    0    0  0.00000000000E+00  0.00000000000E+00  0.13029437087E+04  0.23065870940E+04  0.19033343675E+04 0.  0.
        3    1    3    3  502    0  0.38256762745E+03 -0.53534009536E+03 -0.18174553210E+03  0.68262614652E+03  0.10100000352E+00 0. -1.
       -3    1    3    3    0  502 -0.38256762745E+03  0.53534009536E+03  0.14846892408E+04  0.16239609475E+04  0.10100000352E+00 0.  1.
</event>
<event>
 5   0  0.3470962E-04  0.1505720E+04  0.7818609E-02  0.8880658E-01
       -1   -1    0    0    0  501  0.00000000000E+00  0.00000000000E+00  0.73499714038E+03  0.73499714040E+03  0.50400001928E-02 0. -1.
        1   -1    0    0  501    0  0.00000000000E+00  0.00000000000E+00 -0.77115743940E+03  0.77115743942E+03  0.50400001928E-02 0.  1.
    10030    2    1    2    0    0  0.00000000000E+00  0.00000000000E+00 -0.36160299021E+02  0.15061545798E+04  0.15057204425E+04 0.  0.
        4    1    3    3  502    0  0.57512176871E+03  0.92509453022E+02 -0.49515985351E+03  0.76453119045E+03  0.12699999809E+01 0.  1.
       -4    1    3    3    0  502 -0.57512176871E+03 -0.92509453022E+02  0.45899955448E+03  0.74162338937E+03  0.12699999809E+01 0. -1.
</event>
<event>
 5   0  0.3470962E-04  0.1791229E+04  0.7818609E-02  0.8710978E-01
        1   -1    0    0  501    0  0.00000000000E+00  0.00000000000E+00  0.10089758169E+04  0.10089758169E+04  0.50400001928E-02 0.  1.
       -1   -1    0    0    0  501  0.00000000000E+00  0.00000000000E+00 -0.79498953912E+03  0.79498953913E+03  0.50400001928E-02 0. -1.
    10030    2    1    2    0    0  0.00000000000E+00  0.00000000000E+00  0.21398627776E+03  0.18039653560E+04  0.17912288739E+04 0.  0.
        4    1    3    3  502    0 -0.65106695171E+02 -0.10693466827E+03 -0.78613256353E+03  0.79604015312E+03  0.12699999809E+01 0. -1.
       -4    1    3    3    0  502  0.65106695171E+02  0.10693466827E+03  0.10001188413E+04  0.10079252029E+04  0.12699999809E+01 0.  1.
</event>
<event>
 5   0  0.6929121E-04  0.1800547E+04  0.7818609E-02  0.8706008E-01
       -2   -1    0    0    0  501  0.00000000000E+00  0.00000000000E+00  0.11564028114E+04  0.11564028114E+04  0.25500000920E-02 0. -1.
        2   -1    0    0  501    0  0.00000000000E+00  0.00000000000E+00 -0.70087398634E+03  0.70087398635E+03  0.25500000920E-02 0.  1.
    10030    2    1    2    0    0  0.00000000000E+00  0.00000000000E+00  0.45552882502E+03  0.18572767977E+04  0.18005473037E+04 0.  0.
        3    1    3    3  502    0 -0.63870376017E+03 -0.63421444365E+03  0.24627943516E+03  0.93317952408E+03  0.10100000352E+00 0. -1.
       -3    1    3    3    0  502  0.63870376017E+03  0.63421444365E+03  0.20924938987E+03  0.92409727364E+03  0.10100000352E+00 0.  1.
</event>
<event>
 5   0  0.3308275E-04  0.1836761E+04  0.7818609E-02  0.8686991E-01
       -1   -1    0    0    0  501  0.00000000000E+00  0.00000000000E+00  0.11409974173E+04  0.11409974173E+04  0.50400001928E-02 0. -1.
        1   -1    0    0  501    0  0.00000000000E+00  0.00000000000E+00 -0.73919800371E+03  0.73919800373E+03  0.50400001928E-02 0.  1.
    10030    2    1    2    0    0  0.00000000000E+00  0.00000000000E+00  0.40179941362E+03  0.18801954211E+04  0.18367612944E+04 0.  0.
        3    1    3    3  502    0 -0.38967316629E+03 -0.30342569379E+03 -0.59169055470E+03  0.77072047520E+03  0.10100000352E+00 0.  1.
       -3    1    3    3    0  502  0.38967316629E+03  0.30342569379E+03  0.99348996832E+03  0.11094749459E+04  0.10100000352E+00 0. -1.
</event>
<event>
 5   0  0.3404261E-04  0.1824278E+04  0.7818609E-02  0.8693494E-01
        1   -1    0    0  501    0  0.00000000000E+00  0.00000000000E+00  0.92792943488E+03  0.92792943489E+03  0.50400001928E-02 0.  1.
       -1   -1    0    0    0  501  0.00000000000E+00  0.00000000000E+00 -0.89661750425E+03  0.89661750426E+03  0.50400001928E-02 0. -1.
    10030    2    1    2    0    0  0.00000000000E+00  0.00000000000E+00  0.31311930630E+02  0.18245469392E+04  0.18242782398E+04 0.  0.
        1    1    3    3  502    0 -0.10830819572E+03 -0.87011830937E+03  0.26701197570E+03  0.91658711139E+03  0.50400001928E-02 0.  1.
       -1    1    3    3    0  502  0.10830819572E+03  0.87011830937E+03 -0.23570004507E+03  0.90795982777E+03  0.50400001928E-02 0. -1.
</event>
<event>
 5   0  0.3470962E-04  0.1773080E+04  0.7818609E-02  0.8720748E-01
       -1   -1    0    0    0  501  0.00000000000E+00  0.00000000000E+00  0.99593045202E+03  0.99593045203E+03  0.50400001928E-02 0.  1.
        1   -1    0    0  501    0  0.00000000000E+00  0.00000000000E+00 -0.78916469504E+03  0.78916469506E+03  0.50400001928E-02 0. -1.
    10030    2    1    2    0    0  0.00000000000E+00  0.00000000000E+00  0.20676575698E+03  0.17850951471E+04  0.17730799773E+04 0.  0.
        4    1    3    3  502    0 -0.22074928577E+03 -0.42747738764E+03 -0.64630018552E+03  0.80571254602E+03  0.12699999809E+01 0. -1.
       -4    1    3    3    0  502  0.22074928577E+03  0.42747738764E+03  0.85306594250E+03  0.97938260106E+03  0.12699999809E+01 0.  1.
</event>
<event>
 5   0  0.6853162E-04  0.1874022E+04  0.7818609E-02  0.8667897E-01
       -2   -1    0    0    0  501  0.00000000000E+00  0.00000000000E+00  0.13138136500E+04  0.13138136500E+04  0.25500000920E-02 0.  1.
        2   -1    0    0  501    0  0.00000000000E+00  0.00000000000E+00 -0.66827527355E+03  0.66827527356E+03  0.25500000920E-02 0. -1.
    10030    2    1    2    0    0  0.00000000000E+00  0.00000000000E+00  0.64553837644E+03  0.19820889236E+04  0.18740215328E+04 0.  0.
        2    1    3    3  502    0 -0.76602521290E+03  0.19877018591E+03  0.85338134069E+03  0.11638573479E+04  0.25500000920E-02 0.  1.
       -2    1    3    3    0  502  0.76602521290E+03 -0.19877018591E+03 -0.20784296425E+03  0.81823157566E+03  0.25500000920E-02 0. -1.
</event>
<event>
 5   0  0.6853162E-04  0.1365895E+04  0.7818609E-02  0.8978882E-01
       -2   -1    0    0    0  501  0.00000000000E+00  0.00000000000E+00  0.12864834890E+04  0.12864834890E+04  0.25500000920E-02 0.  1.
        2   -1    0    0  501    0  0.00000000000E+00  0.00000000000E+00 -0.36255220977E+03  0.36255220978E+03  0.25500000920E-02 0. -1.
    10030    2    1    2    0    0  0.00000000000E+00  0.00000000000E+00  0.92393127920E+03  0.16490356987E+04  0.13658952109E+04 0.  0.
        2    1    3    3  502    0  0.42568428211E+03  0.35028059505E+03  0.94866170567E+03  0.10972067422E+04  0.25500000920E-02 0.  1.
       -2    1    3    3    0  502 -0.42568428211E+03 -0.35028059505E+03 -0.24730426468E+02  0.55182895656E+03  0.25500000920E-02 0. -1.
</event>
<event>
 5   0  0.6853162E-04  0.1784921E+04  0.7818609E-02  0.8714359E-01
       -2   -1    0    0    0  501  0.00000000000E+00  0.00000000000E+00  0.32099396007E+03  0.32099396008E+03  0.25500000920E-02 0. -1.
        2   -1    0    0  501    0  0.00000000000E+00  0.00000000000E+00 -0.24813119681E+04  0.24813119681E+04  0.25500000920E-02 0.  1.
    10030    2    1    2    0    0  0.00000000000E+00  0.00000000000E+00 -0.21603180080E+04  0.28023059281E+04  0.17849214603E+04 0.  0.
        2    1    3    3  502    0  0.83808424830E+03 -0.24608869371E+03 -0.13676911432E+04  0.16228135800E+04  0.25500000920E-02 0. -1.
       -2    1    3    3    0  502 -0.83808424830E+03  0.24608869371E+03 -0.79262686482E+03  0.11794923481E+04  0.25500000920E-02 0.  1.
</event>
<event>
 5   0  0.3377273E-04  0.1785122E+04  0.7818609E-02  0.8714252E-01
       -1   -1    0    0    0  501  0.00000000000E+00  0.00000000000E+00  0.52891741282E+03  0.52891741284E+03  0.50400001928E-02 0. -1.
        1   -1    0    0  501    0  0.00000000000E+00  0.00000000000E+00 -0.15062179119E+04  0.15062179119E+04  0.50400001928E-02 0.  1.
    10030    2    1    2    0    0  0.00000000000E+00  0.00000000000E+00 -0.97730049906E+03  0.20351353247E+04  0.17851217114E+04 0.  0.
        2    1    3    3  502    0 -0.16478715515E+03  0.55686797473E+03 -0.12613749597E+04  0.13886408955E+04  0.25500000920E-02 0. -1.
       -2    1    3    3    0  502  0.16478715515E+03 -0.55686797473E+03  0.28407446064E+03  0.64649442919E+03  0.25500000920E-02 0.  1.
</event>
<event>
 5   0  0.3470962E-04  0.1839707E+04  0.7818609E-02  0.8685464E-01
        1   -1    0    0  501    0  0.00000000000E+00  0.00000000000E+00  0.15194017204E+04  0.15194017204E+04  0.50400001928E-02 0.  1.
       -1   -1    0    0    0  501  0.00000000000E+00  0.00000000000E+00 -0.55688372367E+03  0.55688372369E+03  0.50400001928E-02 0. -1.
    10030    2    1    2    0    0  0.00000000000E+00  0.00000000000E+00  0.96251799675E+03  0.20762854441E+04  0.18397065938E+04 0.  0.
        4    1    3    3  502    0 -0.61504014169E+03  0.12744236995E+03  0.12396994555E+04  0.13897382079E+04  0.12699999809E+01 0.  1.
       -4    1    3    3    0  502  0.61504014169E+03 -0.12744236995E+03 -0.27718145879E+03  0.68654723621E+03  0.12699999809E+01 0. -1.
</event>
<event>
 5   0  0.3308275E-04  0.1779131E+04  0.7818609E-02  0.8717477E-01
       -1   -1    0    0    0  501  0.00000000000E+00  0.00000000000E+00  0.70472993589E+03  0.70472993590E+03  0.50400001928E-02 0. -1.
        1   -1    0    0  501    0  0.00000000000E+00  0.00000000000E+00 -0.11228793557E+04  0.11228793558E+04  0.50400001928E-02 0.  1.
    10030    2    1    2    0    0  0.00000000000E+00  0.00000000000E+00 -0.41814941986E+03  0.18276092917E+04  0.17791309074E+04 0.  0.
        3    1    3    3  502    0 -0.13690502297E+03 -0.21968922392E+03  0.66518566579E+03  0.71377750076E+03  0.10100000352E+00 0. -1.
       -3    1    3    3    0  502  0.13690502297E+03  0.21968922392E+03 -0.10833350856E+04  0.11138317909E+04  0.10100000352E+00 0.  1.
</event>
<event>
 5   0  0.6547153E-04  0.1838966E+04  0.7818609E-02  0.8685848E-01
       -2   -1    0    0    0  501  0.00000000000E+00  0.00000000000E+00  0.85320431242E+03  0.85320431243E+03  0.25500000920E-02 0. -1.
        2   -1    0    0  501    0  0.00000000000E+00  0.00000000000E+00 -0.99091073899E+03  0.99091073899E+03  0.25500000920E-02 0.  1.
    10030    2    1    2    0    0  0.00000000000E+00  0.00000000000E+00 -0.13770642656E+03  0.18441150514E+04  0.18389663572E+04 0.  0.
        5    1    3    3  502    0  0.59044995445E+03  0.33345707702E+03 -0.69156075185E+03  0.96855724375E+03  0.46999998093E+01 0.  1.
       -5    1    3    3    0  502 -0.59044995445E+03 -0.33345707702E+03  0.55385432528E+03  0.87555780767E+03  0.46999998093E+01 0. -1.
</event>
<event>
 5   0  0.3470962E-04  0.9676832E+03  0.7818609E-02  0.9344717E-01
        1   -1    0    0  501    0  0.00000000000E+00  0.00000000000E+00  0.10846538383E+04  0.10846538383E+04  0.50400001928E-02 0.  1.
       -1   -1    0    0    0  501  0.00000000000E+00  0.00000000000E+00 -0.21583169032E+03  0.21583169038E+03  0.50400001928E-02 0. -1.
    10030    2    1    2    0    0  0.00000000000E+00  0.00000000000E+00  0.86882214795E+03  0.13004855287E+04  0.96768315346E+03 0.  0.
        4    1    3    3  502    0  0.26616266094E+03 -0.39256846629E+03  0.56295370560E+03  0.73611891047E+03  0.12699999809E+01 0.  1.
       -4    1    3    3    0  502 -0.26616266094E+03  0.39256846629E+03  0.30586844235E+03  0.56436661819E+03  0.12699999809E+01 0. -1.
</event>
<event>
 5   0  0.6547153E-04  0.1779166E+04  0.7818609E-02  0.8717458E-01
       -2   -1    0    0    0  501  0.00000000000E+00  0.00000000000E+00  0.10246734910E+04  0.10246734910E+04  0.25500000920E-02 0. -1.
        2   -1    0    0  501    0  0.00000000000E+00  0.00000000000E+00 -0.77230235086E+03  0.77230235087E+03  0.25500000920E-02 0.  1.
    10030    2    1    2    0    0  0.00000000000E+00  0.00000000000E+00  0.25237114011E+03  0.17969758418E+04  0.17791658112E+04 0.  0.
        5    1    3    3  502    0 -0.36378652373E+02  0.16406046467E+03  0.10084840282E+04  0.10223998081E+04  0.46999998093E+01 0. -1.
       -5    1    3    3    0  502  0.36378652373E+02 -0.16406046467E+03 -0.75611288814E+03  0.77457603372E+03  0.46999998093E+01 0.  1.
</event>
<event>
 5   0  0.3470962E-04  0.1801561E+04  0.7818609E-02  0.8705470E-01
       -1   -1    0    0    0  501  0.00000000000E+00  0.00000000000E+00  0.10163287919E+04  0.10163287919E+04  0.50400001928E-02 0. -1.
        1   -1    0    0  501    0  0.00000000000E+00  0.00000000000E+00 -0.79836904728E+03  0.79836904730E+03  0.50400001928E-02 0.  1.
    10030    2    1    2    0    0  0.00000000000E+00  0.00000000000E+00  0.21795974462E+03  0.18146978392E+04  0.18015609336E+04 0.  0.
        4    1    3    3  502    0 -0.56967727564E+03 -0.33503247361E+03  0.72550910668E+03  0.98139901851E+03  0.12699999809E+01 0. -1.
       -4    1    3    3    0  502  0.56967727564E+03  0.33503247361E+03 -0.50754936206E+03  0.83329882070E+03  0.12699999809E+01 0.  1.
</event>
<event>
 5   0  0.3413839E-04  0.1970941E+04  0.7818609E-02  0.8620329E-01
       -1   -1    0    0    0  501  0.00000000000E+00  0.00000000000E+00  0.75385314999E+03  0.75385315001E+03  0.50400001928E-02 0. -1.
        1   -1    0    0  501    0  0.00000000000E+00  0.00000000000E+00 -0.12882509001E+04  0.12882509001E+04  0.50400001928E-02 0.  1.
    10030    2    1    2    0    0  0.00000000000E+00  0.00000000000E+00 -0.53439775008E+03  0.20421040501E+04  0.19709408911E+04 0.  0.
        5    1    3    3  502    0  0.95321066974E+03  0.23347623417E+03 -0.17447937590E+03  0.99678828015E+03  0.46999998093E+01 0.  1.
       -5    1    3    3    0  502 -0.95321066974E+03 -0.23347623417E+03 -0.35991837418E+03  0.10453157699E+04  0.46999998093E+01 0. -1.
</event>
<event>
 5   0  0.3308275E-04  0.1792144E+04  0.7818609E-02  0.8710488E-01
        1   -1    0    0  501    0  0.00000000000E+00  0.00000000000E+00  0.10186245097E+04  0.10186245097E+04  0.50400001928E-02 0.  1.
       -1   -1    0    0    0  501  0.00000000000E+00  0.00000000000E+00 -0.78826405713E+03  0.78826405714E+03  0.50400001928E-02 0. -1.
    10030    2    1    2    0    0  0.00000000000E+00  0.00000000000E+00  0.23036045257E+03  0.18068885669E+04  0.17921440665E+04 0.  0.
        3    1    3    3  502    0 -0.59316334158E+03  0.61273294180E+03 -0.16214766203E+03  0.86808771577E+03  0.10100000352E+00 0. -1.
       -3    1    3    3    0  502  0.59316334158E+03 -0.61273294180E+03  0.39250811460E+03  0.93880085108E+03  0.10100000352E+00 0.  1.
</event>
<event>
 5   0  0.3404261E-04  0.1474132E+04  0.7818609E-02  0.8901840E-01
        1   -1    0    0  501    0  0.00000000000E+00  0.00000000000E+00  0.14814953253E+04  0.14814953253E+04  0.50400001928E-02 0.  1.
       -1   -1    0    0    0  501  0.00000000000E+00  0.00000000000E+00 -0.36670110827E+03  0.36670110830E+03  0.50400001928E-02 0. -1.
    10030    2    1    2    0    0  0.00000000000E+00  0.00000000000E+00  0.11147942170E+04  0.18481964336E+04  0.14741315786E+04 0.  0.
        1    1    3    3  502    0  0.68959683976E+03  0.18346719764E+03  0.32600597210E+03  0.78452782480E+03  0.50400001928E-02 0. -1.
       -1    1    3    3    0  502 -0.68959683976E+03 -0.18346719764E+03  0.78878824495E+03  0.10636686088E+04  0.50400001928E-02 0.  1.
</event>
<event>
 5   0  0.6774451E-04  0.1709018E+04  0.7818609E-02  0.8756238E-01
       -2   -1    0    0    0  501  0.00000000000E+00  0.00000000000E+00  0.49029358341E+03  0.49029358341E+03  0.25500000920E-02 0.  1.
        2   -1    0    0  501    0  0.00000000000E+00  0.00000000000E+00 -0.14892829258E+04  0.14892829258E+04  0.25500000920E-02 0. -1.
    10030    2    1    2    0    0  0.00000000000E+00  0.00000000000E+00 -0.99898934237E+03  0.19795765092E+04  0.17090182707E+04 0.  0.
        4    1    3    3  502    0 -0.31033991394E+03  0.12739243632E+03 -0.14098163687E+04  0.14491802861E+04  0.12699999809E+01 0. -1.
       -4    1    3    3    0  502  0.31033991394E+03 -0.12739243632E+03  0.41082702637E+03  0.53039622314E+03  0.12699999809E+01 0.  1.
</event>
<event>
 5   0  0.6853162E-04  0.1826602E+04  0.7818609E-02  0.8692279E-01
       -2   -1    0    0    0  501  0.00000000000E+00  0.00000000000E+00  0.14849020546E+04  0.14849020546E+04  0.25500000920E-02 0.  1.
        2   -1    0    0  501    0  0.00000000000E+00  0.00000000000E+00 -0.56173332037E+03  0.56173332037E+03  0.25500000920E-02 0. -1.
    10030    2    1    2    0    0  0.00000000000E+00  0.00000000000E+00  0.92316873419E+03  0.20466353749E+04  0.18266022682E+04 0.  0.
        2    1    3    3  502    0  0.72212448661E+03 -0.44510550668E+03  0.84078409033E+03  0.11943619940E+04  0.25500000920E-02 0.  1.
       -2    1    3    3    0  502 -0.72212448661E+03  0.44510550668E+03  0.82384643869E+02  0.85227338090E+03  0.25500000920E-02 0. -1.
</event>
<event>
 5   0  0.3308275E-04  0.1810440E+04  0.7818609E-02  0.8700767E-01
       -1   -1    0    0    0  501  0.00000000000E+00  0.00000000000E+00  0.51825068810E+03  0.51825068813E+03  0.50400001928E-02 0.  1.
        1   -1    0    0  501    0  0.00000000000E+00  0.00000000000E+00 -0.15811328349E+04  0.15811328349E+04  0.50400001928E-02 0. -1.
    10030    2    1    2    0    0  0.00000000000E+00  0.00000000000E+00 -0.10628821467E+04  0.20993835230E+04  0.18104399241E+04 0.  0.
        3    1    3    3  502    0  0.32269326602E+03 -0.38547367082E+03  0.34150043373E+03  0.60773633367E+03  0.10100000352E+00 0.  1.
       -3    1    3    3    0  502 -0.32269326602E+03  0.38547367082E+03 -0.14043825805E+04  0.14916471893E+04  0.10100000352E+00 0. -1.
</event>
<event>
 5   0  0.6929121E-04  0.1795928E+04  0.7818609E-02  0.8708468E-01
       -2   -1    0    0    0  501  0.00000000000E+00  0.00000000000E+00  0.62727786791E+03  0.62727786791E+03  0.25500000920E-02 0. -1.
        2   -1    0    0  501    0  0.00000000000E+00  0.00000000000E+00 -0.12854578535E+04  0.12854578535E+04  0.25500000920E-02 0.  1.
    10030    2    1    2    0    0  0.00000000000E+00  0.00000000000E+00 -0.65817998556E+03  0.19127357214E+04  0.17959279068E+04 0.  0.
        3    1    3    3  502    0 -0.50291219894E+03 -0.36198593351E+03  0.36309182552E+03  0.71818533810E+03  0.10100000352E+00 0. -1.
       -3    1    3    3    0  502  0.50291219894E+03  0.36198593351E+03 -0.10212718111E+04  0.11945503833E+04  0.10100000352E+00 0.  1.
</event>
<event>
 5   0  0.3404261E-04  0.1802371E+04  0.7818609E-02  0.8705039E-01
        1   -1    0    0  501    0  0.00000000000E+00  0.00000000000E+00  0.10094478890E+04  0.10094478890E+04  0.50400001928E-02 0.  1.
       -1   -1    0    0    0  501  0.00000000000E+00  0.00000000000E+00 -0.80453456460E+03  0.80453456461E+03  0.50400001928E-02 0. -1.
    10030    2    1    2    0    0  0.00000000000E+00  0.00000000000E+00  0.20491332443E+03  0.18139824537E+04  0.18023714577E+04 0.  0.
        1    1    3    3  502    0 -0.59233094387E+03  0.73832738727E+02  0.78195674980E+03  0.98374975424E+03  0.50400001928E-02 0.  1.
       -1    1    3    3    0  502  0.59233094387E+03 -0.73832738727E+02 -0.57704342538E+03  0.83023269941E+03  0.50400001928E-02 0. -1.
</event>
<event>
 5   0  0.3470962E-04  0.1856740E+04  0.7818609E-02  0.8676695E-01
        1   -1    0    0  501    0  0.00000000000E+00  0.00000000000E+00  0.13655232013E+04  0.13655232013E+04  0.50400001928E-02 0. -1.
       -1   -1    0    0    0  501  0.00000000000E+00  0.00000000000E+00 -0.63116511112E+03  0.63116511114E+03  0.50400001928E-02 0.  1.
    10030    2    1    2    0    0  0.00000000000E+00  0.00000000000E+00  0.73435809014E+03  0.19966883124E+04  0.18567397266E+04 0.  0.
        4    1    3    3  502    0 -0.88438702529E+03 -0.14083895554E+03  0.10400251001E+03  0.90155097298E+03  0.12699999809E+01 0.  1.
       -4    1    3    3    0  502  0.88438702529E+03  0.14083895554E+03  0.63035558012E+03  0.10951373394E+04  0.12699999809E+01 0. -1.
</event>
<event>
 5   0  0.3413839E-04  0.1802539E+04  0.7818609E-02  0.8704950E-01
        1   -1    0    0  501    0  0.00000000000E+00  0.00000000000E+00  0.14031527999E+04  0.14031527999E+04  0.50400001928E-02 0.  1.
       -1   -1    0    0    0  501  0.00000000000E+00  0.00000000000E+00 -0.57890140017E+03  0.57890140019E+03  0.50400001928E-02 0. -1.
    10030    2    1    2    0    0  0.00000000000E+00  0.00000000000E+00  0.82425139970E+03  0.19820542001E+04  0.18025394537E+04 0.  0.
        5    1    3    3  502    0  0.32511657779E+03 -0.14755916319E+01 -0.51215930013E+03  0.60665657932E+03  0.46999998093E+01 0. -1.
       -5    1    3    3    0  502 -0.32511657779E+03  0.14755916319E+01  0.13364106998E+04  0.13753976207E+04  0.46999998093E+01 0.  1.
</event>
<event>
 5   0  0.6929121E-04  0.1520815E+04  0.7818609E-02  0.8870728E-01
        2   -1    0    0  501    0  0.00000000000E+00  0.00000000000E+00  0.95986920549E+03  0.95986920549E+03  0.25500000920E-02 0.  1.
       -2   -1    0    0    0  501  0.00000000000E+00  0.00000000000E+00 -0.60239387625E+03  0.60239387626E+03  0.25500000920E-02 0. -1.
    10030    2    1    2    0    0  0.00000000000E+00  0.00000000000E+00  0.35747532924E+03  0.15622630817E+04  0.15208146914E+04 0.  0.
        3    1    3    3  502    0  0.55576499457E+03 -0.14788669868E+03 -0.33228805894E+03  0.66419919388E+03  0.10100000352E+00 0. -1.
       -3    1    3    3    0  502 -0.55576499457E+03  0.14788669868E+03  0.68976338818E+03  0.89806388787E+03  0.10100000352E+00 0.  1.
</event>
<event>
 5   0  0.3404261E-04  0.1812222E+04  0.7818609E-02  0.8699827E-01
        1   -1    0    0  501    0  0.00000000000E+00  0.00000000000E+00  0.98131085146E+03  0.98131085148E+03  0.50400001928E-02 0. -1.
       -1   -1    0    0    0  501  0.00000000000E+00  0.00000000000E+00 -0.83667429628E+03  0.83667429630E+03  0.50400001928E-02 0.  1.
    10030    2    1    2    0    0  0.00000000000E+00  0.00000000000E+00  0.14463655518E+03  0.18179851478E+04  0.18122224655E+04 0.  0.
        1    1    3    3  502    0  0.46076279055E+03 -0.22541232051E+03  0.82163692150E+03  0.96860739941E+03  0.50400001928E-02 0. -1.
       -1    1    3    3    0  502 -0.46076279055E+03  0.22541232051E+03 -0.67700036632E+03  0.84937774837E+03  0.50400001928E-02 0.  1.
</event>
<event>
 5   0  0.6771967E-04  0.1767021E+04  0.7818609E-02  0.8724036E-01
        2   -1    0    0  501    0  0.00000000000E+00  0.00000000000E+00  0.94752105447E+03  0.94752105447E+03  0.25500000920E-02 0.  1.
       -2   -1    0    0    0  501  0.00000000000E+00  0.00000000000E+00 -0.82382468581E+03  0.82382468581E+03  0.25500000920E-02 0. -1.
    10030    2    1    2    0    0  0.00000000000E+00  0.00000000000E+00  0.12369636866E+03  0.17713457403E+04  0.17670214883E+04 0.  0.
        1    1    3    3  502    0 -0.12005147980E+03  0.48994167218E+03  0.78897561772E+03  0.93644953165E+03  0.50400001928E-02 0.  1.
       -1    1    3    3    0  502  0.12005147980E+03 -0.48994167218E+03 -0.66527924906E+03  0.83489620864E+03  0.50400001928E-02 0. -1.
</event>
<event>
 5   0  0.3470962E-04  0.1792075E+04  0.7818609E-02  0.8710525E-01
        1   -1    0    0  501    0  0.00000000000E+00  0.00000000000E+00  0.20927768380E+04  0.20927768380E+04  0.50400001928E-02 0. -1.
       -1   -1    0    0    0  501  0.00000000000E+00  0.00000000000E+00 -0.38364476104E+03  0.38364476108E+03  0.50400001928E-02 0.  1.
    10030    2    1    2    0    0  0.00000000000E+00  0.00000000000E+00  0.17091320770E+04  0.24764215991E+04  0.17920746301E+04 0.  0.
        4    1    3    3  502    0  0.68686277081E+03  0.45653206576E+03  0.37055633044E+03  0.90416569273E+03  0.12699999809E+01 0.  1.
       -4    1    3    3    0  502 -0.68686277081E+03 -0.45653206576E+03  0.13385757465E+04  0.15722559064E+04  0.12699999809E+01 0. -1.
</event>
<event>
 5   0  0.3413839E-04  0.1743769E+04  0.7818609E-02  0.8736788E-01
       -1   -1    0    0    0  501  0.00000000000E+00  0.00000000000E+00  0.68289369959E+03  0.68289369961E+03  0.50400001928E-02 0.  1.
        1   -1    0    0  501    0  0.00000000000E+00  0.00000000000E+00 -0.11131780379E+04  0.11131780380E+04  0.50400001928E-02 0. -1.
    10030    2    1    2    0    0  0.00000000000E+00  0.00000000000E+00 -0.43028433835E+03  0.17960717376E+04  0.17437686414E+04 0.  0.
        5    1    3    3  502    0 -0.58434692145E+03  0.94788804800E+02  0.44414585059E+03  0.74009044631E+03  0.46999998093E+01 0.  1.
       -5    1    3    3    0  502  0.58434692145E+03 -0.94788804800E+02 -0.87443018894E+03  0.10559812912E+04  0.46999998093E+01 0. -1.
</event>
<event>
 5   0  0.3377273E-04  0.1719041E+04  0.7818609E-02  0.8750579E-01
        1   -1    0    0  501    0  0.00000000000E+00  0.00000000000E+00  0.71393444496E+03  0.71393444497E+03  0.50400001928E-02 0.  1.
       -1   -1    0    0    0  501  0.00000000000E+00  0.00000000000E+00 -0.10347943531E+04  0.10347943531E+04  0.50400001928E-02 0. -1.
    10030    2    1    2    0    0  0.00000000000E+00  0.00000000000E+00 -0.32085990811E+03  0.17487287981E+04  0.17190408164E+04 0.  0.
        2    1    3    3  502    0 -0.73038959124E+03 -0.41705236557E+03 -0.34061516958E+03  0.90742510676E+03  0.25500000920E-02 0. -1.
       -2    1    3    3    0  502  0.73038959124E+03  0.41705236557E+03  0.19755261470E+02  0.84130369129E+03  0.25500000920E-02 0.  1.
</event>
<event>
 5   0  0.3377273E-04  0.1823369E+04  0.7818609E-02  0.8693970E-01
       -1   -1    0    0    0  501  0.00000000000E+00  0.00000000000E+00  0.11730723328E+04  0.11730723328E+04  0.50400001928E-02 0.  1.
        1   -1    0    0  501    0  0.00000000000E+00  0.00000000000E+00 -0.70854009993E+03  0.70854009994E+03  0.50400001928E-02 0. -1.
    10030    2    1    2    0    0  0.00000000000E+00  0.00000000000E+00  0.46453223289E+03  0.18816124328E+04  0.18233691759E+04 0.  0.
        2    1    3    3  502    0 -0.60393057028E+03 -0.30705542638E+03 -0.39726425708E+03  0.78538783958E+03  0.25500000920E-02 0. -1.
       -2    1    3    3    0  502  0.60393057028E+03  0.30705542638E+03  0.86179648997E+03  0.10962245932E+04  0.25500000920E-02 0.  1.
</event>
<event>
 5   0  0.3413839E-04  0.1805959E+04  0.7818609E-02  0.8703137E-01
        1   -1    0    0  501    0  0.00000000000E+00  0.00000000000E+00  0.16357503963E+04  0.16357503963E+04  0.50400001928E-02 0.  1.
       -1   -1    0    0    0  501  0.00000000000E+00  0.00000000000E+00 -0.49846987397E+03  0.49846987400E+03  0.50400001928E-02 0. -1.
    10030    2    1    2    0    0  0.00000000000E+00  0.00000000000E+00  0.11372805223E+04  0.21342202703E+04  0.18059593505E+04 0.  0.
        5    1    3    3  502    0  0.52571723634E+03 -0.73277648453E+03  0.51565531094E+03  0.10388755838E+04  0.46999998093E+01 0.  1.
       -5    1    3    3    0  502 -0.52571723634E+03  0.73277648453E+03  0.62162521137E+03  0.10953446865E+04  0.46999998093E+01 0. -1.
</event>
<event>
 5   0  0.6853162E-04  0.1204212E+04  0.7818609E-02  0.9109178E-01
        2   -1    0    0  501    0  0.00000000000E+00  0.00000000000E+00  0.31086877768E+03  0.31086877769E+03  0.25500000920E-02 0.  1.
       -2   -1    0    0    0  501  0.00000000000E+00  0.00000000000E+00 -0.11661880110E+04  0.11661880110E+04  0.25500000920E-02 0. -1.
    10030    2    1    2    0    0  0.00000000000E+00  0.00000000000E+00 -0.85531923329E+03  0.14770567887E+04  0.12042116783E+04 0.  0.
        2    1    3    3  502    0 -0.15164463366E+03 -0.13264675332E+03 -0.11236158891E+04  0.11415357735E+04  0.25500000920E-02 0. -1.
       -2    1    3    3    0  502  0.15164463366E+03  0.13264675332E+03  0.26829665578E+03  0.33552101513E+03  0.25500000920E-02 0.  1.
</event>
<event>
 5   0  0.3404261E-04  0.1792359E+04  0.7818609E-02  0.8710373E-01
        1   -1    0    0  501    0  0.00000000000E+00  0.00000000000E+00  0.72934648149E+03  0.72934648151E+03  0.50400001928E-02 0.  1.
       -1   -1    0    0    0  501  0.00000000000E+00  0.00000000000E+00 -0.11011748300E+04  0.11011748300E+04  0.50400001928E-02 0. -1.
    10030    2    1    2    0    0  0.00000000000E+00  0.00000000000E+00 -0.37182834848E+03  0.18305213115E+04  0.17923593253E+04 0.  0.
        1    1    3    3  502    0 -0.34368815352E+03  0.42320447459E+03 -0.91233491563E+03  0.10628163400E+04  0.50400001928E-02 0. -1.
       -1    1    3    3    0  502  0.34368815352E+03 -0.42320447459E+03  0.54050656714E+03  0.76770497154E+03  0.50400001928E-02 0.  1.
</event>
<event>
 5   0  0.3404261E-04  0.1848315E+04  0.7818609E-02  0.8681020E-01
       -1   -1    0    0    0  501  0.00000000000E+00  0.00000000000E+00  0.33562633485E+03  0.33562633489E+03  0.50400001928E-02 0.  1.
        1   -1    0    0  501    0  0.00000000000E+00  0.00000000000E+00 -0.25446965630E+04  0.25446965630E+04  0.50400001928E-02 0. -1.
    10030    2    1    2    0    0  0.00000000000E+00  0.00000000000E+00 -0.22090702282E+04  0.28803228979E+04  0.18483151039E+04 0.  0.
        1    1    3    3  502    0 -0.63508783891E+03  0.18361103218E+02 -0.58704824960E+02  0.63805951896E+03  0.50400001928E-02 0.  1.
       -1    1    3    3    0  502  0.63508783891E+03 -0.18361103218E+02 -0.21503654032E+04  0.22422633790E+04  0.50400001928E-02 0. -1.
</event>
<event>
 5   0  0.3404261E-04  0.1797857E+04  0.7818609E-02  0.8707440E-01
       -1   -1    0    0    0  501  0.00000000000E+00  0.00000000000E+00  0.13431035062E+04  0.13431035062E+04  0.50400001928E-02 0. -1.
        1   -1    0    0  501    0  0.00000000000E+00  0.00000000000E+00 -0.60164574060E+03  0.60164574062E+03  0.50400001928E-02 0.  1.
    10030    2    1    2    0    0  0.00000000000E+00  0.00000000000E+00  0.74145776556E+03  0.19447492468E+04  0.17978570618E+04 0.  0.
        1    1    3    3  502    0  0.24879095911E+03  0.86169484894E+03  0.43614783239E+03  0.99731634186E+03  0.50400001928E-02 0.  1.
       -1    1    3    3    0  502 -0.24879095911E+03 -0.86169484894E+03  0.30530993317E+03  0.94743290493E+03  0.50400001928E-02 0. -1.
</event>
<event>
 5   0  0.6774451E-04  0.1962370E+04  0.7818609E-02  0.8624419E-01
       -2   -1    0    0    0  501  0.00000000000E+00  0.00000000000E+00  0.30413304573E+03  0.30413304574E+03  0.25500000920E-02 0. -1.
        2   -1    0    0  501    0  0.00000000000E+00  0.00000000000E+00 -0.31654699190E+04  0.31654699190E+04  0.25500000920E-02 0.  1.
    10030    2    1    2    0    0  0.00000000000E+00  0.00000000000E+00 -0.28613368733E+04  0.34696029647E+04  0.19623700035E+04 0.  0.
        4    1    3    3  502    0 -0.22695376304E+03 -0.23103481989E+03  0.20690711413E+03  0.38431401917E+03  0.12699999809E+01 0. -1.
       -4    1    3    3    0  502  0.22695376304E+03  0.23103481989E+03 -0.30682439874E+04  0.30852889456E+04  0.12699999809E+01 0.  1.
</event>
<event>
 5   0  0.3308275E-04  0.1825933E+04  0.7818609E-02  0.8692629E-01
       -1   -1    0    0    0  501  0.00000000000E+00  0.00000000000E+00  0.61269976956E+03  0.61269976958E+03  0.50400001928E-02 0.  1.
        1   -1    0    0  501    0  0.00000000000E+00  0.00000000000E+00 -0.13603860636E+04  0.13603860636E+04  0.50400001928E-02 0. -1.
    10030    2    1    2    0    0  0.00000000000E+00  0.00000000000E+00 -0.74768629402E+03  0.19730858332E+04  0.18259334355E+04 0.  0.
        3    1    3    3  502    0  0.72010821100E+03 -0.47695087280E+03 -0.69343169844E+03  0.11076486362E+04  0.10100000352E+00 0. -1.
       -3    1    3    3    0  502 -0.72010821100E+03  0.47695087280E+03 -0.54254595574E+02  0.86543719700E+03  0.10100000352E+00 0.  1.
</event>
<event>
 5   0  0.6774451E-04  0.1932711E+04  0.7818609E-02  0.8638743E-01
       -2   -1    0    0    0  501  0.00000000000E+00  0.00000000000E+00  0.73185143921E+03  0.73185143921E+03  0.25500000920E-02 0.  1.
        2   -1    0    0  501    0  0.00000000000E+00  0.00000000000E+00 -0.12760008212E+04  0.12760008212E+04  0.25500000920E-02 0. -1.
    10030    2    1    2    0    0  0.00000000000E+00  0.00000000000E+00 -0.54414938198E+03  0.20078522604E+04  0.19327110880E+04 0.  0.
        4    1    3    3  502    0  0.24611380711E+02 -0.63709965201E+03  0.48233987519E+03  0.79947173480E+03  0.12699999809E+01 0.  1.
       -4    1    3    3    0  502 -0.24611380711E+02  0.63709965201E+03 -0.10264892572E+04  0.12083805256E+04  0.12699999809E+01 0. -1.
</event>
<event>
 5   0  0.6929121E-04  0.1807779E+04  0.7818609E-02  0.8702174E-01
        2   -1    0    0  501    0  0.00000000000E+00  0.00000000000E+00  0.86415965924E+03  0.86415965924E+03  0.25500000920E-02 0.  1.
       -2   -1    0    0    0  501  0.00000000000E+00  0.00000000000E+00 -0.94544587758E+03  0.94544587758E+03  0.25500000920E-02 0. -1.
    10030    2    1    2    0    0  0.00000000000E+00  0.00000000000E+00 -0.81286218344E+02  0.18096055368E+04  0.18077789549E+04 0.  0.
        3    1    3    3  502    0  0.77109196381E+03 -0.45893492223E+03 -0.14943639790E+03  0.90968968705E+03  0.10100000352E+00 0. -1.
       -3    1    3    3    0  502 -0.77109196381E+03  0.45893492223E+03  0.68150179553E+02  0.89991584977E+03  0.10100000352E+00 0.  1.
</event>
<event>
 5   0  0.6771967E-04  0.1822596E+04  0.7818609E-02  0.8694375E-01
        2   -1    0    0  501    0  0.00000000000E+00  0.00000000000E+00  0.15367971161E+04  0.15367971161E+04  0.25500000920E-02 0.  1.
       -2   -1    0    0    0  501  0.00000000000E+00  0.00000000000E+00 -0.54038621894E+03  0.54038621895E+03  0.25500000920E-02 0. -1.
    10030    2    1    2    0    0  0.00000000000E+00  0.00000000000E+00  0.99641089715E+03  0.20771833350E+04  0.18225959320E+04 0.  0.
        1    1    3    3  502    0  0.96983725424E+02  0.63466029574E+03 -0.23886654434E+03  0.68502318210E+03  0.50400001928E-02 0. -1.
       -1    1    3    3    0  502 -0.96983725424E+02 -0.63466029574E+03  0.12352774415E+04  0.13921601529E+04  0.50400001928E-02 0.  1.
</event>
<event>
 5   0  0.6774451E-04  0.1856239E+04  0.7818609E-02  0.8676951E-01
       -2   -1    0    0    0  501  0.00000000000E+00  0.00000000000E+00  0.70877521059E+03  0.70877521059E+03  0.25500000920E-02 0. -1.
        2   -1    0    0  501    0  0.00000000000E+00  0.00000000000E+00 -0.12153443834E+04  0.12153443834E+04  0.25500000920E-02 0.  1.
    10030    2    1    2    0    0  0.00000000000E+00  0.00000000000E+00 -0.50656917278E+03  0.19241195940E+04  0.18562391778E+04 0.  0.
        4    1    3    3  502    0  0.14277590707E+03 -0.37373042233E+03 -0.11213730223E+04  0.11906042400E+04  0.12699999809E+01 0.  1.
       -4    1    3    3    0  502 -0.14277590707E+03  0.37373042233E+03  0.61480384953E+03  0.73351535397E+03  0.12699999809E+01 0. -1.
</event>
<event>
 5   0  0.3308275E-04  0.1782567E+04  0.7818609E-02  0.8715625E-01
       -1   -1    0    0    0  501  0.00000000000E+00  0.00000000000E+00  0.63465844219E+03  0.63465844221E+03  0.50400001928E-02 0.  1.
        1   -1    0    0  501    0  0.00000000000E+00  0.00000000000E+00 -0.12516756737E+04  0.12516756738E+04  0.50400001928E-02 0. -1.
    10030    2    1    2    0    0  0.00000000000E+00  0.00000000000E+00 -0.61701723155E+03  0.18863341160E+04  0.17825672871E+04 0.  0.
        3    1    3    3  502    0 -0.40579271796E+03  0.44581528154E+03 -0.10032048768E+04  0.11704012261E+04  0.10100000352E+00 0. -1.
       -3    1    3    3    0  502  0.40579271796E+03 -0.44581528154E+03  0.38618764522E+03  0.71593288982E+03  0.10100000352E+00 0.  1.
</event>
<event>
 5   0  0.6929121E-04  0.1839440E+04  0.7818609E-02  0.8685602E-01
       -2   -1    0    0    0  501  0.00000000000E+00  0.00000000000E+00  0.25311732675E+04  0.25311732675E+04  0.25500000920E-02 0.  1.
        2   -1    0    0  501    0  0.00000000000E+00  0.00000000000E+00 -0.33418690882E+03  0.33418690883E+03  0.25500000920E-02 0. -1.
    10030    2    1    2    0    0  0.00000000000E+00  0.00000000000E+00  0.21969863587E+04  0.28653601763E+04  0.18394400996E+04 0.  0.
        3    1    3    3  502    0  0.16219075875E+03 -0.37010887653E+03  0.23854863650E+04  0.24194692869E+04  0.10100000352E+00 0.  1.
       -3    1    3    3    0  502 -0.16219075875E+03  0.37010887653E+03 -0.18850000627E+03  0.44589088943E+03  0.10100000352E+00 0. -1.
</event>
<event>
 5   0  0.3308275E-04  0.1784328E+04  0.7818609E-02  0.8714678E-01
       -1   -1    0    0    0  501  0.00000000000E+00  0.00000000000E+00  0.63219993856E+03  0.63219993858E+03  0.50400001928E-02 0.  1.
        1   -1    0    0  501    0  0.00000000000E+00  0.00000000000E+00 -0.12590271802E+04  0.12590271802E+04  0.50400001928E-02 0. -1.
    10030    2    1    2    0    0  0.00000000000E+00  0.00000000000E+00 -0.62682724167E+03  0.18912271188E+04  0.17843283398E+04 0.  0.
        3    1    3    3  502    0 -0.64058586743E+02  0.72264028555E+03  0.23696888972E+03  0.76319509284E+03  0.10100000352E+00 0.  1.
       -3    1    3    3    0  502  0.64058586743E+02 -0.72264028555E+03 -0.86379613139E+03  0.11280320260E+04  0.10100000352E+00 0. -1.
</event>
<event>
 5   0  0.6774451E-04  0.1808926E+04  0.7818609E-02  0.8701567E-01
        2   -1    0    0  501    0  0.00000000000E+00  0.00000000000E+00  0.19211123762E+04  0.19211123762E+04  0.25500000920E-02 0.  1.
       -2   -1    0    0    0  501  0.00000000000E+00  0.00000000000E+00 -0.42582257396E+03  0.42582257397E+03  0.25500000920E-02 0. -1.
    10030    2    1    2    0    0  0.00000000000E+00  0.00000000000E+00  0.14952898023E+04  0.23469349502E+04  0.18089256667E+04 0.  0.
        4    1    3    3  502    0 -0.52406370401E+03 -0.44791802953E+03  0.15072482146E+04  0.16574293711E+04  0.12699999809E+01 0.  1.
       -4    1    3    3    0  502  0.52406370401E+03  0.44791802953E+03 -0.11958412308E+02  0.68950557907E+03  0.12699999809E+01 0. -1.
</event>
<event>
 5   0  0.6853162E-04  0.1755067E+04  0.7818609E-02  0.8730566E-01
       -2   -1    0    0    0  501  0.00000000000E+00  0.00000000000E+00  0.74613821559E+03  0.74613821559E+03  0.25500000920E-02 0. -1.
        2   -1    0    0  501    0  0.00000000000E+00  0.00000000000E+00 -0.10320677148E+04  0.10320677149E+04  0.25500000920E-02 0.  1.
    10030    2    1    2    0    0  0.00000000000E+00  0.00000000000E+00 -0.28592949926E+03  0.17782059304E+04  0.17550671362E+04 0.  0.
        2    1    3    3  502    0  0.18658635365E+02  0.20902179753E+03 -0.10062705885E+04  0.10279196242E+04  0.25500000920E-02 0.  1.
       -2    1    3    3    0  502 -0.18658635365E+02 -0.20902179753E+03  0.72034108923E+03  0.75028630626E+03  0.25500000920E-02 0. -1.
</event>
<event>
 5   0  0.6771967E-04  0.1674201E+04  0.7818609E-02  0.8776217E-01
        2   -1    0    0  501    0  0.00000000000E+00  0.00000000000E+00  0.66414239134E+03  0.66414239135E+03  0.25500000920E-02 0. -1.
       -2   -1    0    0    0  501  0.00000000000E+00  0.00000000000E+00 -0.10551011563E+04  0.10551011563E+04  0.25500000920E-02 0.  1.
    10030    2    1    2    0    0  0.00000000000E+00  0.00000000000E+00 -0.39095876495E+03  0.17192435477E+04  0.16742011887E+04 0.  0.
        1    1    3    3  502    0  0.26975913740E+03 -0.67600675992E+03 -0.62010412909E+03  0.95618212837E+03  0.50400001928E-02 0.  1.
       -1    1    3    3    0  502 -0.26975913740E+03  0.67600675992E+03  0.22914536414E+03  0.76306141928E+03  0.50400001928E-02 0. -1.
</event>
<event>
 5   0  0.6929121E-04  0.1775374E+04  0.7818609E-02  0.8719506E-01
        2   -1    0    0  501    0  0.00000000000E+00  0.00000000000E+00  0.54974506498E+03  0.54974506499E+03  0.25500000920E-02 0. -1.
       -2   -1    0    0    0  501  0.00000000000E+00  0.00000000000E+00 -0.14333705851E+04  0.14333705851E+04  0.25500000920E-02 0.  1.
    10030    2    1    2    0    0  0.00000000000E+00  0.00000000000E+00 -0.88362552012E+03  0.19831156501E+04  0.17753742202E+04 0.  0.
        3    1    3    3  502    0 -0.22370265179E+03 -0.18871022943E+02 -0.14011371075E+04  0.14190081734E+04  0.10100000352E+00 0.  1.
       -3    1    3    3    0  502  0.22370265179E+03  0.18871022943E+02  0.51751158741E+03  0.56410747667E+03  0.10100000352E+00 0. -1.
</event>
<event>
 5   0  0.6853162E-04  0.1710909E+04  0.7818609E-02  0.8755167E-01
        2   -1    0    0  501    0  0.00000000000E+00  0.00000000000E+00  0.86638355855E+03  0.86638355855E+03  0.25500000920E-02 0.  1.
       -2   -1    0    0    0  501  0.00000000000E+00  0.00000000000E+00 -0.84466297563E+03  0.84466297563E+03  0.25500000920E-02 0. -1.
    10030    2    1    2    0    0  0.00000000000E+00  0.00000000000E+00  0.21720582918E+02  0.17110465342E+04  0.17109086645E+04 0.  0.
        2    1    3    3  502    0 -0.28072595886E+03 -0.67316638258E+03  0.45793330664E+03  0.86119855780E+03  0.25500000920E-02 0.  1.
       -2    1    3    3    0  502  0.28072595886E+03  0.67316638258E+03 -0.43621272372E+03  0.84984797638E+03  0.25500000920E-02 0. -1.
</event>
<event>
 5   0  0.3377273E-04  0.1465103E+04  0.7818609E-02  0.8907996E-01
       -1   -1    0    0    0  501  0.00000000000E+00  0.00000000000E+00  0.55627778299E+03  0.55627778301E+03  0.50400001928E-02 0. -1.
        1   -1    0    0  501    0  0.00000000000E+00  0.00000000000E+00 -0.96468358801E+03  0.96468358802E+03  0.50400001928E-02 0.  1.
    10030    2    1    2    0    0  0.00000000000E+00  0.00000000000E+00 -0.40840580502E+03  0.15209613710E+04  0.14651034744E+04 0.  0.
        2    1    3    3  502    0 -0.64160038546E+03 -0.32111961765E+03 -0.35770227084E+03  0.80169805914E+03  0.25500000920E-02 0.  1.
       -2    1    3    3    0  502  0.64160038546E+03  0.32111961765E+03 -0.50703534183E+02  0.71926331190E+03  0.25500000920E-02 0. -1.
</event>
<event>
 5   0  0.3377273E-04  0.1755455E+04  0.7818609E-02  0.8730353E-01
        1   -1    0    0  501    0  0.00000000000E+00  0.00000000000E+00  0.10342871802E+04  0.10342871802E+04  0.50400001928E-02 0.  1.
       -1   -1    0    0    0  501  0.00000000000E+00  0.00000000000E+00 -0.74486632218E+03  0.74486632220E+03  0.50400001928E-02 0. -1.
    10030    2    1    2    0    0  0.00000000000E+00  0.00000000000E+00  0.28942085801E+03  0.17791535024E+04  0.17554551410E+04 0.  0.
        2    1    3    3  502    0  0.57774858755E+03  0.34139077527E+02  0.81350267025E+03  0.99837142464E+03  0.25500000920E-02 0.  1.
       -2    1    3    3    0  502 -0.57774858755E+03 -0.34139077527E+02 -0.52408181224E+03  0.78078207776E+03  0.25500000920E-02 0. -1.
</event>
<event>
 5   0  0.3470962E-04  0.1797826E+04  0.7818609E-02  0.8707457E-01
       -1   -1    0    0    0  501  0.00000000000E+00  0.00000000000E+00  0.66605167315E+03  0.66605167317E+03  0.50400001928E-02 0. -1.
        1   -1    0    0  501    0  0.00000000000E+00  0.00000000000E+00 -0.12131853697E+04  0.12131853697E+04  0.50400001928E-02 0.  1.
    10030    2    1    2    0    0  0.00000000000E+00  0.00000000000E+00 -0.54713369658E+03  0.18792370429E+04  0.17978255148E+04 0.  0.
        4    1    3    3  502    0 -0.11671826718E+03 -0.15980232449E+02  0.65794659308E+03  0.66841144063E+03  0.12699999809E+01 0. -1.
       -4    1    3    3    0  502  0.11671826718E+03  0.15980232449E+02 -0.12050802897E+04  0.12108256023E+04  0.12699999809E+01 0.  1.
</event>
<event>
 5   0  0.3413839E-04  0.1991720E+04  0.7818609E-02  0.8610502E-01
        1   -1    0    0  501    0  0.00000000000E+00  0.00000000000E+00  0.96602370302E+03  0.96602370303E+03  0.50400001928E-02 0. -1.
       -1   -1    0    0    0  501  0.00000000000E+00  0.00000000000E+00 -0.10266174969E+04  0.10266174969E+04  0.50400001928E-02 0.  1.
    10030    2    1    2    0    0  0.00000000000E+00  0.00000000000E+00 -0.60593793836E+02  0.19926411999E+04  0.19917196951E+04 0.  0.
        5    1    3    3  502    0  0.19891446916E+03  0.89137161736E+03  0.36688101084E+03  0.98424290314E+03  0.46999998093E+01 0. -1.
       -5    1    3    3    0  502 -0.19891446916E+03 -0.89137161736E+03 -0.42747480467E+03  0.10083982968E+04  0.46999998093E+01 0.  1.
</event>
<event>
 5   0  0.3413839E-04  0.1842343E+04  0.7818609E-02  0.8684100E-01
        1   -1    0    0  501    0  0.00000000000E+00  0.00000000000E+00  0.22416560188E+04  0.22416560188E+04  0.50400001928E-02 0. -1.
       -1   -1    0    0    0  501  0.00000000000E+00  0.00000000000E+00 -0.37854031113E+03  0.37854031116E+03  0.50400001928E-02 0.  1.
    10030    2    1    2    0    0  0.00000000000E+00  0.00000000000E+00  0.18631157077E+04  0.26201963300E+04  0.18423432545E+04 0.  0.
        5    1    3    3  502    0  0.13665273173E+03 -0.70100251627E+03  0.10415928329E+03  0.72176848310E+03  0.46999998093E+01 0.  1.
       -5    1    3    3    0  502 -0.13665273173E+03  0.70100251627E+03  0.17589564244E+04  0.18984278469E+04  0.46999998093E+01 0. -1.
</event>
<event>
 5   0  0.6929121E-04  0.1778481E+04  0.7818609E-02  0.8717827E-01
        2   -1    0    0  501    0  0.00000000000E+00  0.00000000000E+00  0.60222885855E+03  0.60222885856E+03  0.25500000920E-02 0. -1.
       -2   -1    0    0    0  501  0.00000000000E+00  0.00000000000E+00 -0.13130373410E+04  0.13130373410E+04  0.25500000920E-02 0.  1.
    10030    2    1    2    0    0  0.00000000000E+00  0.00000000000E+00 -0.71080848241E+03  0.19152661995E+04  0.17784813511E+04 0.  0.
        3    1    3    3  502    0  0.29270823927E+03 -0.65470421401E+02  0.54610890910E+03  0.62305653051E+03  0.10100000352E+00 0. -1.
       -3    1    3    3    0  502 -0.29270823927E+03  0.65470421401E+02 -0.12569173915E+04  0.12922096690E+04  0.10100000352E+00 0.  1.
</event>
<event>
 5   0  0.6929121E-04  0.1782102E+04  0.7818609E-02  0.8715876E-01
        2   -1    0    0  501    0  0.00000000000E+00  0.00000000000E+00  0.15493783015E+04  0.15493783015E+04  0.25500000920E-02 0. -1.
       -2   -1    0    0    0  501  0.00000000000E+00  0.00000000000E+00 -0.51244532751E+03  0.51244532752E+03  0.25500000920E-02 0.  1.
    10030    2    1    2    0    0  0.00000000000E+00  0.00000000000E+00  0.10369329740E+04  0.20618236290E+04  0.17821017605E+04 0.  0.
        3    1    3    3  502    0 -0.46892762433E+03  0.75709722247E+03  0.55283311745E+03  0.10481954909E+04  0.10100000352E+00 0. -1.
       -3    1    3    3    0  502  0.46892762433E+03 -0.75709722247E+03  0.48409985651E+03  0.10136281381E+04  0.10100000352E+00 0.  1.
</event>
<event>
 5   0  0.3413839E-04  0.1606286E+04  0.7818609E-02  0.8816696E-01
        1   -1    0    0  501    0  0.00000000000E+00  0.00000000000E+00  0.11624774434E+04  0.11624774434E+04  0.50400001928E-02 0.  1.
       -1   -1    0    0    0  501  0.00000000000E+00  0.00000000000E+00 -0.55488269465E+03  0.55488269467E+03  0.50400001928E-02 0. -1.
    10030    2    1    2    0    0  0.00000000000E+00  0.00000000000E+00  0.60759474871E+03  0.17173601380E+04  0.16062859226E+04 0.  0.
        5    1    3    3  502    0 -0.19298214070E+03 -0.99357796988E+02 -0.52291357690E+03  0.56619323323E+03  0.46999998093E+01 0. -1.
       -5    1    3    3    0  502  0.19298214070E+03  0.99357796988E+02  0.11305083256E+04  0.11511669048E+04  0.46999998093E+01 0.  1.
</event>
<event>
 5   0  0.6771967E-04  0.1836070E+04  0.7818609E-02  0.8687350E-01
       -2   -1    0    0    0  501  0.00000000000E+00  0.00000000000E+00  0.95842994889E+03  0.95842994889E+03  0.25500000920E-02 0. -1.
        2   -1    0    0  501    0  0.00000000000E+00  0.00000000000E+00 -0.87934267646E+03  0.87934267647E+03  0.25500000920E-02 0.  1.
    10030    2    1    2    0    0  0.00000000000E+00  0.00000000000E+00  0.79087272424E+02  0.18377726254E+04  0.18360701037E+04 0.  0.
        1    1    3    3  502    0 -0.48184522287E+03 -0.46826111820E+03 -0.58661222269E+03  0.89194012885E+03  0.50400001928E-02 0.  1.
       -1    1    3    3    0  502  0.48184522287E+03  0.46826111820E+03  0.66569949511E+03  0.94583249650E+03  0.50400001928E-02 0. -1.
</event>
<event>
 5   0  0.3377273E-04  0.1840712E+04  0.7818609E-02  0.8684944E-01
       -1   -1    0    0    0  501  0.00000000000E+00  0.00000000000E+00  0.12977398598E+04  0.12977398598E+04  0.50400001928E-02 0. -1.
        1   -1    0    0  501    0  0.00000000000E+00  0.00000000000E+00 -0.65271592309E+03  0.65271592311E+03  0.50400001928E-02 0.  1.
    10030    2    1    2    0    0  0.00000000000E+00  0.00000000000E+00  0.64502393672E+03  0.19504557829E+04  0.18407123301E+04 0.  0.
        2    1    3    3  502    0  0.46979066856E+03 -0.68971003961E+03 -0.88768431099E+02  0.83921573232E+03  0.25500000920E-02 0.  1.
       -2    1    3    3    0  502 -0.46979066856E+03  0.68971003961E+03  0.73379236782E+03  0.11112400506E+04  0.25500000920E-02 0. -1.
</event>
<event>
 5   0  0.6929121E-04  0.1811834E+04  0.7818609E-02  0.8700031E-01
        2   -1    0    0  501    0  0.00000000000E+00  0.00000000000E+00  0.16163490548E+04  0.16163490548E+04  0.25500000920E-02 0.  1.
       -2   -1    0    0    0  501  0.00000000000E+00  0.00000000000E+00 -0.50774040834E+03  0.50774040834E+03  0.25500000920E-02 0. -1.
    10030    2    1    2    0    0  0.00000000000E+00  0.00000000000E+00  0.11086086464E+04  0.21240894631E+04  0.18118341305E+04 0.  0.
        3    1    3    3  502    0  0.41818491449E+03 -0.39491177419E+02 -0.38667645848E+03  0.57092632585E+03  0.10100000352E+00 0. -1.
       -3    1    3    3    0  502 -0.41818491449E+03  0.39491177419E+02  0.14952851049E+04  0.15531631373E+04  0.10100000352E+00 0.  1.
</event>
<event>
 5   0  0.6774451E-04  0.1800241E+04  0.7818609E-02  0.8706171E-01
       -2   -1    0    0    0  501  0.00000000000E+00  0.00000000000E+00  0.99785487654E+03  0.99785487654E+03  0.25500000920E-02 0. -1.
        2   -1    0    0  501    0  0.00000000000E+00  0.00000000000E+00 -0.81195909891E+03  0.81195909891E+03  0.25500000920E-02 0.  1.
    10030    2    1    2    0    0  0.00000000000E+00  0.00000000000E+00  0.18589577763E+03  0.18098139755E+04  0.18002414798E+04 0.  0.
        4    1    3    3  502    0 -0.10143592556E+03  0.18570765692E+02  0.99189589336E+03  0.99724279717E+03  0.12699999809E+01 0. -1.
       -4    1    3    3    0  502  0.10143592556E+03 -0.18570765692E+02 -0.80600011573E+03  0.81257117829E+03  0.12699999809E+01 0.  1.
</event>
<event>
 5   0  0.6547153E-04  0.1869541E+04  0.7818609E-02  0.8670168E-01
       -2   -1    0    0    0  501  0.00000000000E+00  0.00000000000E+00  0.70723294568E+03  0.70723294568E+03  0.25500000920E-02 0. -1.
        2   -1    0    0  501    0  0.00000000000E+00  0.00000000000E+00 -0.12355132827E+04  0.12355132827E+04  0.25500000920E-02 0.  1.
    10030    2    1    2    0    0  0.00000000000E+00  0.00000000000E+00 -0.52828033705E+03  0.19427462284E+04  0.18695407975E+04 0.  0.
        5    1    3    3  502    0 -0.42384210210E+03  0.40248292548E+02  0.60061793426E+03  0.73622418156E+03  0.46999998093E+01 0. -1.
       -5    1    3    3    0  502  0.42384210210E+03 -0.40248292548E+02 -0.11288982713E+04  0.12065220468E+04  0.46999998093E+01 0.  1.
</event>
<event>
 5   0  0.3404261E-04  0.1575554E+04  0.7818609E-02  0.8835709E-01
       -1   -1    0    0    0  501  0.00000000000E+00  0.00000000000E+00  0.31857541697E+03  0.31857541701E+03  0.50400001928E-02 0.  1.
        1   -1    0    0  501    0  0.00000000000E+00  0.00000000000E+00 -0.19480236678E+04  0.19480236678E+04  0.50400001928E-02 0. -1.
    10030    2    1    2    0    0  0.00000000000E+00  0.00000000000E+00 -0.16294482509E+04  0.22665990849E+04  0.15755538103E+04 0.  0.
        1    1    3    3  502    0  0.51184843515E+03 -0.40309028375E+03 -0.14518195186E+04  0.15913046572E+04  0.50400001928E-02 0. -1.
       -1    1    3    3    0  502 -0.51184843515E+03  0.40309028375E+03 -0.17762873223E+03  0.67529442761E+03  0.50400001928E-02 0.  1.
</event>
<event>
 5   0  0.3308275E-04  0.1690297E+04  0.7818609E-02  0.8766918E-01
        1   -1    0    0  501    0  0.00000000000E+00  0.00000000000E+00  0.52692401376E+03  0.52692401378E+03  0.50400001928E-02 0. -1.
       -1   -1    0    0    0  501  0.00000000000E+00  0.00000000000E+00 -0.13555571492E+04  0.13555571492E+04  0.50400001928E-02 0.  1.
    10030    2    1    2    0    0  0.00000000000E+00  0.00000000000E+00 -0.82863313544E+03  0.18824811630E+04  0.16902965586E+04 0.  0.
        3    1    3    3  502    0  0.43808127411E+03 -0.65394190970E+03 -0.71557109868E+02  0.79036425410E+03  0.10100000352E+00 0. -1.
       -3    1    3    3    0  502 -0.43808127411E+03  0.65394190970E+03 -0.75707602557E+03  0.10921169089E+04  0.10100000352E+00 0.  1.
</event>
<event>
 5   0  0.3470962E-04  0.1812076E+04  0.7818609E-02  0.8699904E-01
       -1   -1    0    0    0  501  0.00000000000E+00  0.00000000000E+00  0.57907364926E+03  0.57907364928E+03  0.50400001928E-02 0.  1.
        1   -1    0    0  501    0  0.00000000000E+00  0.00000000000E+00 -0.14176173428E+04  0.14176173428E+04  0.50400001928E-02 0. -1.
    10030    2    1    2    0    0  0.00000000000E+00  0.00000000000E+00 -0.83854369349E+03  0.19966909920E+04  0.18120759895E+04 0.  0.
        4    1    3    3  502    0 -0.82455365629E+03  0.12971791301E+03 -0.30966062326E+02  0.83527000364E+03  0.12699999809E+01 0.  1.
       -4    1    3    3    0  502  0.82455365629E+03 -0.12971791301E+03 -0.80757763117E+03  0.11614209884E+04  0.12699999809E+01 0. -1.
</event>
<event>
 5   0  0.3413839E-04  0.1774538E+04  0.7818609E-02  0.8719958E-01
       -1   -1    0    0    0  501  0.00000000000E+00  0.00000000000E+00  0.51900808018E+03  0.51900808021E+03  0.50400001928E-02 0. -1.
        1   -1    0    0  501    0  0.00000000000E+00  0.00000000000E+00 -0.15168292706E+04  0.15168292706E+04  0.50400001928E-02 0.  1.
    10030    2    1    2    0    0  0.00000000000E+00  0.00000000000E+00 -0.99782119040E+03  0.20358373508E+04  0.17745384163E+04 0.  0.
        5    1    3    3  502    0  0.75793041049E+03 -0.37920613206E+03 -0.80020001505E+03  0.11655891008E+04  0.46999998093E+01 0.  1.
       -5    1    3    3    0  502 -0.75793041049E+03  0.37920613206E+03 -0.19762117535E+03  0.87024825003E+03  0.46999998093E+01 0. -1.
</event>
<event>
 5   0  0.6929121E-04  0.1870809E+04  0.7818609E-02  0.8669524E-01
       -2   -1    0    0    0  501  0.00000000000E+00  0.00000000000E+00  0.78281676785E+03  0.78281676785E+03  0.25500000920E-02 0.  1.
        2   -1    0    0  501    0  0.00000000000E+00  0.00000000000E+00 -0.11177350639E+04  0.11177350639E+04  0.25500000920E-02 0. -1.
    10030    2    1    2    0    0  0.00000000000E+00  0.00000000000E+00 -0.33491829600E+03  0.19005518317E+04  0.18708091832E+04 0.  0.
        3    1    3    3  502    0 -0.42264864110E+02 -0.81488550008E+02 -0.11131480679E+04  0.11169267361E+04  0.10100000352E+00 0. -1.
       -3    1    3    3    0  502  0.42264864110E+02  0.81488550008E+02  0.77822977186E+03  0.78362509565E+03  0.10100000352E+00 0.  1.
</event>
<event>
 5   0  0.3377273E-04  0.1512246E+04  0.7818609E-02  0.8876350E-01
       -1   -1    0    0    0  501  0.00000000000E+00  0.00000000000E+00  0.62458224862E+03  0.62458224864E+03  0.50400001928E-02 0. -1.
        1   -1    0    0  501    0  0.00000000000E+00  0.00000000000E+00 -0.91536652540E+03  0.91536652542E+03  0.50400001928E-02 0.  1.
    10030    2    1    2    0    0  0.00000000000E+00  0.00000000000E+00 -0.29078427678E+03  0.15399487741E+04  0.15122455922E+04 0.  0.
        2    1    3    3  502    0 -0.14166640087E+03 -0.49132007647E+03 -0.71260316995E+03  0.87707928063E+03  0.25500000920E-02 0.  1.
       -2    1    3    3    0  502  0.14166640087E+03  0.49132007647E+03  0.42181889317E+03  0.66286949343E+03  0.25500000920E-02 0. -1.
</event>
<event>
 5   0  0.3470962E-04  0.1788360E+04  0.7818609E-02  0.8712514E-01
        1   -1    0    0  501    0  0.00000000000E+00  0.00000000000E+00  0.73773145092E+03  0.73773145094E+03  0.50400001928E-02 0. -1.
       -1   -1    0    0    0  501  0.00000000000E+00  0.00000000000E+00 -0.10838055579E+04  0.10838055579E+04  0.50400001928E-02 0.  1.
    10030    2    1    2    0    0  0.00000000000E+00  0.00000000000E+00 -0.34607410698E+03  0.18215370089E+04  0.17883595240E+04 0.  0.
        4    1    3    3  502    0  0.68081188719E+03  0.56315148346E+03 -0.31310706938E+03  0.93738042910E+03  0.12699999809E+01 0. -1.
       -4    1    3    3    0  502 -0.68081188719E+03 -0.56315148346E+03 -0.32967037604E+02  0.88415657976E+03  0.12699999809E+01 0.  1.
</event>
<event>
 5   0  0.3308275E-04  0.1765349E+04  0.7818609E-02  0.8724947E-01
        1   -1    0    0  501    0  0.00000000000E+00  0.00000000000E+00  0.20845070571E+04  0.20845070571E+04  0.50400001928E-02 0.  1.
       -1   -1    0    0    0  501  0.00000000000E+00  0.00000000000E+00 -0.37376420345E+03  0.37376420349E+03  0.50400001928E-02 0. -1.
    10030    2    1    2    0    0  0.00000000000E+00  0.00000000000E+00  0.17107428537E+04  0.24582712606E+04  0.17653488265E+04 0.  0.
        3    1    3    3  502    0  0.22802191188E+03  0.27479280439E+02 -0.33142635886E+03  0.40322765865E+03  0.10100000352E+00 0. -1.
       -3    1    3    3    0  502 -0.22802191188E+03 -0.27479280439E+02  0.20421692125E+04  0.20550436020E+04  0.10100000352E+00 0.  1.
</event>
<event>
 5   0  0.3470962E-04  0.1831224E+04  0.7818609E-02  0.8689869E-01
       -1   -1    0    0    0  501  0.00000000000E+00  0.00000000000E+00  0.80079859397E+03  0.80079859398E+03  0.50400001928E-02 0. -1.
        1   -1    0    0  501    0  0.00000000000E+00  0.00000000000E+00 -0.10468862371E+04  0.10468862371E+04  0.50400001928E-02 0.  1.
    10030    2    1    2    0    0  0.00000000000E+00  0.00000000000E+00 -0.24608764316E+03  0.18476848311E+04  0.18312236638E+04 0.  0.
        4    1    3    3  502    0 -0.49882322919E+03  0.73800572641E+03  0.90677012427E+02  0.89537757380E+03  0.12699999809E+01 0. -1.
       -4    1    3    3    0  502  0.49882322919E+03 -0.73800572641E+03 -0.33676465559E+03  0.95230725732E+03  0.12699999809E+01 0.  1.
</event>
<event>
 5   0  0.6853162E-04  0.1845561E+04  0.7818609E-02  0.8682439E-01
       -2   -1    0    0    0  501  0.00000000000E+00  0.00000000000E+00  0.46734329505E+03  0.46734329505E+03  0.25500000920E-02 0.  1.
        2   -1    0    0  501    0  0.00000000000E+00  0.00000000000E+00 -0.18220521341E+04  0.18220521341E+04  0.25500000920E-02 0. -1.
    10030    2    1    2    0    0  0.00000000000E+00  0.00000000000E+00 -0.13547088390E+04  0.22893954291E+04  0.18455609967E+04 0.  0.
        2    1    3    3  502    0  0.30940859225E+03 -0.25490829588E+03  0.35367800412E+03  0.53460270002E+03  0.25500000920E-02 0.  1.
       -2    1    3    3    0  502 -0.30940859225E+03  0.25490829588E+03 -0.17083868431E+04  0.17547927291E+04  0.25500000920E-02 0. -1.
</event>
<event>
 5   0  0.6547153E-04  0.1764014E+04  0.7818609E-02  0.8725674E-01
       -2   -1    0    0    0  501  0.00000000000E+00  0.00000000000E+00  0.83663107395E+03  0.83663107395E+03  0.25500000920E-02 0.  1.
        2   -1    0    0  501    0  0.00000000000E+00  0.00000000000E+00 -0.92984437619E+03  0.92984437620E+03  0.25500000920E-02 0. -1.
    10030    2    1    2    0    0  0.00000000000E+00  0.00000000000E+00 -0.93213302246E+02  0.17664754501E+04  0.17640143980E+04 0.  0.
        5    1    3    3  502    0 -0.37153852015E+03  0.76741038452E+03  0.17944050578E+03  0.87130967821E+03  0.46999998093E+01 0.  1.
       -5    1    3    3    0  502  0.37153852015E+03 -0.76741038452E+03 -0.27265380802E+03  0.89516577194E+03  0.46999998093E+01 0. -1.
</event>
<event>
 5   0  0.6929121E-04  0.1805608E+04  0.7818609E-02  0.8703323E-01
        2   -1    0    0  501    0  0.00000000000E+00  0.00000000000E+00  0.76390775437E+03  0.76390775437E+03  0.25500000920E-02 0.  1.
       -2   -1    0    0    0  501  0.00000000000E+00  0.00000000000E+00 -0.10669544679E+04  0.10669544679E+04  0.25500000920E-02 0. -1.
    10030    2    1    2    0    0  0.00000000000E+00  0.00000000000E+00 -0.30304671351E+03  0.18308622222E+04  0.18056077000E+04 0.  0.
        3    1    3    3  502    0 -0.68570855174E+03 -0.28564676186E+02 -0.74627875197E+03  0.10138758033E+04  0.10100000352E+00 0. -1.
       -3    1    3    3    0  502  0.68570855174E+03  0.28564676186E+02  0.44323203846E+03  0.81698641896E+03  0.10100000352E+00 0.  1.
</event>
<event>
 5   0  0.6547153E-04  0.1823442E+04  0.7818609E-02  0.8693932E-01
        2   -1    0    0  501    0  0.00000000000E+00  0.00000000000E+00  0.20026407695E+04  0.20026407695E+04  0.25500000920E-02 0. -1.
       -2   -1    0    0    0  501  0.00000000000E+00  0.00000000000E+00 -0.41506950812E+03  0.41506950813E+03  0.25500000920E-02 0.  1.
    10030    2    1    2    0    0  0.00000000000E+00  0.00000000000E+00  0.15875712614E+04  0.24177102776E+04  0.18234419312E+04 0.  0.
        5    1    3    3  502    0  0.20949972772E+03  0.41317475460E+03 -0.24737426304E+03  0.52518532897E+03  0.46999998093E+01 0.  1.
       -5    1    3    3    0  502 -0.20949972772E+03 -0.41317475460E+03  0.18349455244E+04  0.18925249487E+04  0.46999998093E+01 0. -1.
</event>
<event>
 5   0  0.3470962E-04  0.1792437E+04  0.7818609E-02  0.8710332E-01
        1   -1    0    0  501    0  0.00000000000E+00  0.00000000000E+00  0.11916070305E+04  0.11916070305E+04  0.50400001928E-02 0. -1.
       -1   -1    0    0    0  501  0.00000000000E+00  0.00000000000E+00 -0.67405440881E+03  0.67405440882E+03  0.50400001928E-02 0.  1.
    10030    2    1    2    0    0  0.00000000000E+00  0.00000000000E+00  0.51755262165E+03  0.18656614393E+04  0.17924374159E+04 0.  0.
        4    1    3    3  502    0 -0.14667972067E+02 -0.54170737831E+03  0.10017609235E+04  0.11389418747E+04  0.12699999809E+01 0. -1.
       -4    1    3    3    0  502  0.14667972067E+02  0.54170737831E+03 -0.48420830185E+03  0.72671956462E+03  0.12699999809E+01 0.  1.
</event>
<event>
 5   0  0.3308275E-04  0.1796405E+04  0.7818609E-02  0.8708214E-01
        1   -1    0    0  501    0  0.00000000000E+00  0.00000000000E+00  0.19063299382E+04  0.19063299382E+04  0.50400001928E-02 0. -1.
       -1   -1    0    0    0  501  0.00000000000E+00  0.00000000000E+00 -0.42320464319E+03  0.42320464322E+03  0.50400001928E-02 0.  1.
    10030    2    1    2    0    0  0.00000000000E+00  0.00000000000E+00  0.14831252950E+04  0.23295345814E+04  0.17964049447E+04 0.  0.
        3    1    3    3  502    0  0.38589408564E+03 -0.43734812793E+03 -0.14422169328E+03  0.60082238419E+03  0.10100000352E+00 0.  1.
       -3    1    3    3    0  502 -0.38589408564E+03  0.43734812793E+03  0.16273469882E+04  0.17287121972E+04  0.10100000352E+00 0. -1.
</event>
<event>
 5   0  0.3308275E-04  0.1801518E+04  0.7818609E-02  0.8705493E-01
       -1   -1    0    0    0  501  0.00000000000E+00  0.00000000000E+00  0.56989071706E+03  0.56989071708E+03  0.50400001928E-02 0. -1.
        1   -1    0    0  501    0  0.00000000000E+00  0.00000000000E+00 -0.14237228315E+04  0.14237228315E+04  0.50400001928E-02 0.  1.
    10030    2    1    2    0    0  0.00000000000E+00  0.00000000000E+00 -0.85383211440E+03  0.19936135485E+04  0.18015176106E+04 0.  0.
        3    1    3    3  502    0  0.36988261829E+03  0.48973890296E+03 -0.11565446011E+04  0.13092947601E+04  0.10100000352E+00 0.  1.
       -3    1    3    3    0  502 -0.36988261829E+03 -0.48973890296E+03  0.30271248669E+03  0.68431878842E+03  0.10100000352E+00 0. -1.
</event>
<event>
 5   0  0.3413839E-04  0.1781903E+04  0.7818609E-02  0.8715983E-01
        1   -1    0    0  501    0  0.00000000000E+00  0.00000000000E+00  0.13842950828E+04  0.13842950828E+04  0.50400001928E-02 0.  1.
       -1   -1    0    0    0  501  0.00000000000E+00  0.00000000000E+00 -0.57342895278E+03  0.57342895280E+03  0.50400001928E-02 0. -1.
    10030    2    1    2    0    0  0.00000000000E+00  0.00000000000E+00  0.81086612999E+03  0.19577240356E+04  0.17819033416E+04 0.  0.
        5    1    3    3  502    0  0.68944750687E+02 -0.30008301005E+03  0.13239696817E+04  0.13593090155E+04  0.46999998093E+01 0.  1.
       -5    1    3    3    0  502 -0.68944750687E+02  0.30008301005E+03 -0.51310355167E+03  0.59841502011E+03  0.46999998093E+01 0. -1.
</event>
<event>
 5   0  0.6853162E-04  0.1699074E+04  0.7818609E-02  0.8761893E-01
        2   -1    0    0  501    0  0.00000000000E+00  0.00000000000E+00  0.12311004151E+04  0.12311004151E+04  0.25500000920E-02 0.  1.
       -2   -1    0    0    0  501  0.00000000000E+00  0.00000000000E+00 -0.58623388086E+03  0.58623388087E+03  0.25500000920E-02 0. -1.
    10030    2    1    2    0    0  0.00000000000E+00  0.00000000000E+00  0.64486653427E+03  0.18173342960E+04  0.16990735995E+04 0.  0.
        2    1    3    3  502    0  0.64138617137E+03  0.25324573694E+03  0.85315812971E+03  0.10969906191E+04  0.25500000920E-02 0.  1.
       -2    1    3    3    0  502 -0.64138617137E+03 -0.25324573694E+03 -0.20829159544E+03  0.72034367690E+03  0.25500000920E-02 0. -1.
</event>
<event>
 5   0  0.6929121E-04  0.1765637E+04  0.7818609E-02  0.8724790E-01
        2   -1    0    0  501    0  0.00000000000E+00  0.00000000000E+00  0.96917683952E+03  0.96917683953E+03  0.25500000920E-02 0.  1.
       -2   -1    0    0    0  501  0.00000000000E+00  0.00000000000E+00 -0.80415489022E+03  0.80415489023E+03  0.25500000920E-02 0. -1.
    10030    2    1    2    0    0  0.00000000000E+00  0.00000000000E+00  0.16502194930E+03  0.17733317298E+04  0.17656367633E+04 0.  0.
        3    1    3    3  502    0 -0.46870707058E+03  0.50065156518E+02  0.83220596182E+03  0.95643066189E+03  0.10100000352E+00 0.  1.
       -3    1    3    3    0  502  0.46870707058E+03 -0.50065156518E+02 -0.66718401252E+03  0.81690106786E+03  0.10100000352E+00 0. -1.
</event>
<event>
 5   0  0.6929121E-04  0.1823702E+04  0.7818609E-02  0.8693796E-01
        2   -1    0    0  501    0  0.00000000000E+00  0.00000000000E+00  0.12718118941E+04  0.12718118941E+04  0.25500000920E-02 0. -1.
       -2   -1    0    0    0  501  0.00000000000E+00  0.00000000000E+00 -0.65376978405E+03  0.65376978405E+03  0.25500000920E-02 0.  1.
    10030    2    1    2    0    0  0.00000000000E+00  0.00000000000E+00  0.61804211003E+03  0.19255816781E+04  0.18237019355E+04 0.  0.
        3    1    3    3  502    0 -0.65894344827E+03 -0.47385231482E+03  0.74784628223E+03  0.11036378737E+04  0.10100000352E+00 0. -1.
       -3    1    3    3    0  502  0.65894344827E+03  0.47385231482E+03 -0.12980417220E+03  0.82194380440E+03  0.10100000352E+00 0.  1.
</event>
<event>
 5   0  0.3377273E-04  0.1783553E+04  0.7818609E-02  0.8715095E-01
        1   -1    0    0  501    0  0.00000000000E+00  0.00000000000E+00  0.88001690665E+03  0.88001690667E+03  0.50400001928E-02 0. -1.
       -1   -1    0    0    0  501  0.00000000000E+00  0.00000000000E+00 -0.90369335073E+03  0.90369335074E+03  0.50400001928E-02 0.  1.
    10030    2    1    2    0    0  0.00000000000E+00  0.00000000000E+00 -0.23676444074E+02  0.17837102574E+04  0.17835531134E+04 0.  0.
        2    1    3    3  502    0 -0.38939730265E+03  0.85107126204E+02  0.78597384311E+03  0.88126520657E+03  0.25500000920E-02 0. -1.
       -2    1    3    3    0  502  0.38939730265E+03 -0.85107126204E+02 -0.80965028719E+03  0.90244505084E+03  0.25500000920E-02 0.  1.
</event>
<event>
 5   0  0.6774451E-04  0.1832699E+04  0.7818609E-02  0.8689101E-01
       -2   -1    0    0    0  501  0.00000000000E+00  0.00000000000E+00  0.88772834319E+03  0.88772834319E+03  0.25500000920E-02 0.  1.
        2   -1    0    0  501    0  0.00000000000E+00  0.00000000000E+00 -0.94589391537E+03  0.94589391538E+03  0.25500000920E-02 0. -1.
    10030    2    1    2    0    0  0.00000000000E+00  0.00000000000E+00 -0.58165572188E+02  0.18336222586E+04  0.18326994716E+04 0.  0.
        4    1    3    3  502    0  0.73048094603E+03  0.40157904164E+03  0.35167037204E+03  0.90473300076E+03  0.12699999809E+01 0.  1.
       -4    1    3    3    0  502 -0.73048094603E+03 -0.40157904164E+03 -0.40983594423E+03  0.92888925781E+03  0.12699999809E+01 0. -1.
</event>
<event>
 5   0  0.6929121E-04  0.1770147E+04  0.7818609E-02  0.8722338E-01
       -2   -1    0    0    0  501  0.00000000000E+00  0.00000000000E+00  0.32595275256E+03  0.32595275257E+03  0.25500000920E-02 0. -1.
        2   -1    0    0  501    0  0.00000000000E+00  0.00000000000E+00 -0.24032767890E+04  0.24032767890E+04  0.25500000920E-02 0.  1.
    10030    2    1    2    0    0  0.00000000000E+00  0.00000000000E+00 -0.20773240365E+04  0.27292295416E+04  0.17701465302E+04 0.  0.
        3    1    3    3  502    0  0.65176516060E+03  0.58835726850E+03 -0.86702474243E+03  0.12339748839E+04  0.10100000352E+00 0. -1.
       -3    1    3    3    0  502 -0.65176516060E+03 -0.58835726850E+03 -0.12102992940E+04  0.14952546577E+04  0.10100000352E+00 0.  1.
</event>
<event>
 5   0  0.6929121E-04  0.1859723E+04  0.7818609E-02  0.8675169E-01
        2   -1    0    0  501    0  0.00000000000E+00  0.00000000000E+00  0.14981337308E+04  0.14981337308E+04  0.25500000920E-02 0.  1.
       -2   -1    0    0    0  501  0.00000000000E+00  0.00000000000E+00 -0.57714651612E+03  0.57714651613E+03  0.25500000920E-02 0. -1.
    10030    2    1    2    0    0  0.00000000000E+00  0.00000000000E+00  0.92098721473E+03  0.20752802470E+04  0.18597232734E+04 0.  0.
        3    1    3    3  502    0 -0.15741228583E+03 -0.79555577149E+03 -0.47158776503E+02  0.81234941601E+03  0.10100000352E+00 0. -1.
       -3    1    3    3    0  502  0.15741228583E+03  0.79555577149E+03  0.96814599123E+03  0.12629308310E+04  0.10100000352E+00 0.  1.
</event>
<event>
 5   0  0.6929121E-04  0.1777837E+04  0.7818609E-02  0.8718175E-01
        2   -1    0    0  501    0  0.00000000000E+00  0.00000000000E+00  0.16902021935E+04  0.16902021935E+04  0.25500000920E-02 0.  1.
       -2   -1    0    0    0  501  0.00000000000E+00  0.00000000000E+00 -0.46750373316E+03  0.46750373316E+03  0.25500000920E-02 0. -1.
    10030    2    1    2    0    0  0.00000000000E+00  0.00000000000E+00  0.12226984604E+04  0.21577059267E+04  0.17778367026E+04 0.  0.
        3    1    3    3  502    0 -0.78075013573E+03  0.10928138140E+03  0.11291274923E+03  0.79640598560E+03  0.10100000352E+00 0.  1.
       -3    1    3    3    0  502  0.78075013573E+03 -0.10928138140E+03  0.11097857111E+04  0.13612999411E+04  0.10100000352E+00 0. -1.
</event>
<event>
 5   0  0.6547153E-04  0.1767145E+04  0.7818609E-02  0.8723969E-01
       -2   -1    0    0    0  501  0.00000000000E+00  0.00000000000E+00  0.63712183597E+03  0.63712183598E+03  0.25500000920E-02 0. -1.
        2   -1    0    0  501    0  0.00000000000E+00  0.00000000000E+00 -0.12253550230E+04  0.12253550230E+04  0.25500000920E-02 0.  1.
    10030    2    1    2    0    0  0.00000000000E+00  0.00000000000E+00 -0.58823318702E+03  0.18624768590E+04  0.17671450897E+04 0.  0.
        5    1    3    3  502    0 -0.15619496325E+02  0.87894633230E+03 -0.38772064505E+03  0.96080175495E+03  0.46999998093E+01 0.  1.
       -5    1    3    3    0  502  0.15619496325E+02 -0.87894633230E+03 -0.20051254197E+03  0.90167510402E+03  0.46999998093E+01 0. -1.
</event>
<event>
 5   0  0.3308275E-04  0.1819361E+04  0.7818609E-02  0.8696071E-01
        1   -1    0    0  501    0  0.00000000000E+00  0.00000000000E+00  0.10613625873E+04  0.10613625873E+04  0.50400001928E-02 0.  1.
       -1   -1    0    0    0  501  0.00000000000E+00  0.00000000000E+00 -0.77967594489E+03  0.77967594491E+03  0.50400001928E-02 0. -1.
    10030    2    1    2    0    0  0.00000000000E+00  0.00000000000E+00  0.28168664240E+03  0.18410385322E+04  0.18193612925E+04 0.  0.
        3    1    3    3  502    0  0.71323329480E+03 -0.68869492206E+02  0.70794379346E+03  0.10072880247E+04  0.10100000352E+00 0.  1.
       -3    1    3    3    0  502 -0.71323329480E+03  0.68869492206E+02 -0.42625715106E+03  0.83375050753E+03  0.10100000352E+00 0. -1.
</event>
<event>
 5   0  0.3377273E-04  0.1737143E+04  0.7818609E-02  0.8740459E-01
       -1   -1    0    0    0  501  0.00000000000E+00  0.00000000000E+00  0.79527097865E+03  0.79527097866E+03  0.50400001928E-02 0.  1.
        1   -1    0    0  501    0  0.00000000000E+00  0.00000000000E+00 -0.94862870550E+03  0.94862870551E+03  0.50400001928E-02 0. -1.
    10030    2    1    2    0    0  0.00000000000E+00  0.00000000000E+00 -0.15335772685E+03  0.17438996842E+04  0.17371434932E+04 0.  0.
        2    1    3    3  502    0  0.52285811670E+03  0.57245806182E+03 -0.46977302347E+03  0.90651835963E+03  0.25500000920E-02 0. -1.
       -2    1    3    3    0  502 -0.52285811670E+03 -0.57245806182E+03  0.31641529662E+03  0.83738132454E+03  0.25500000920E-02 0.  1.
</event>
<event>
 5   0  0.3470962E-04  0.1817213E+04  0.7818609E-02  0.8697199E-01
        1   -1    0    0  501    0  0.00000000000E+00  0.00000000000E+00  0.66251624330E+03  0.66251624332E+03  0.50400001928E-02 0.  1.
       -1   -1    0    0    0  501  0.00000000000E+00  0.00000000000E+00 -0.12461065591E+04  0.12461065591E+04  0.50400001928E-02 0. -1.
    10030    2    1    2    0    0  0.00000000000E+00  0.00000000000E+00 -0.58359031583E+03  0.19086228025E+04  0.18172130710E+04 0.  0.
        4    1    3    3  502    0 -0.54376107224E+03  0.19446502849E+03 -0.10285590780E+04  0.11795881234E+04  0.12699999809E+01 0. -1.
       -4    1    3    3    0  502  0.54376107224E+03 -0.19446502849E+03  0.44496876221E+03  0.72903467904E+03  0.12699999809E+01 0.  1.
</event>
<event>
 5   0  0.6929121E-04  0.1978615E+04  0.7818609E-02  0.8616685E-01
       -2   -1    0    0    0  501  0.00000000000E+00  0.00000000000E+00  0.70802135844E+03  0.70802135844E+03  0.25500000920E-02 0.  1.
        2   -1    0    0  501    0  0.00000000000E+00  0.00000000000E+00 -0.13823438257E+04  0.13823438257E+04  0.25500000920E-02 0. -1.
    10030    2    1    2    0    0  0.00000000000E+00  0.00000000000E+00 -0.67432246730E+03  0.20903651842E+04  0.19786146197E+04 0.  0.
        3    1    3    3  502    0  0.23775949953E+03 -0.87110988122E+03 -0.76417613905E+03  0.11829316068E+04  0.10100000352E+00 0. -1.
       -3    1    3    3    0  502 -0.23775949953E+03  0.87110988122E+03  0.89853671752E+02  0.90743357735E+03  0.10100000352E+00 0.  1.
</event>
<event>
 5   0  0.6929121E-04  0.1750273E+04  0.7818609E-02  0.8733200E-01
        2   -1    0    0  501    0  0.00000000000E+00  0.00000000000E+00  0.60888566584E+03  0.60888566584E+03  0.25500000920E-02 0.  1.
       -2   -1    0    0    0  501  0.00000000000E+00  0.00000000000E+00 -0.12578127255E+04  0.12578127255E+04  0.25500000920E-02 0. -1.
    10030    2    1    2    0    0  0.00000000000E+00  0.00000000000E+00 -0.64892705965E+03  0.18666983913E+04  0.17502732802E+04 0.  0.
        3    1    3    3  502    0 -0.55952025520E+03  0.18278730084E+03 -0.10151442509E+04  0.11734530129E+04  0.10100000352E+00 0. -1.
       -3    1    3    3    0  502  0.55952025520E+03 -0.18278730084E+03  0.36621719121E+03  0.69324537839E+03  0.10100000352E+00 0.  1.
</event>
<event>
 5   0  0.6771967E-04  0.1794303E+04  0.7818609E-02  0.8709335E-01
        2   -1    0    0  501    0  0.00000000000E+00  0.00000000000E+00  0.82810985974E+03  0.82810985974E+03  0.25500000920E-02 0.  1.
       -2   -1    0    0    0  501  0.00000000000E+00  0.00000000000E+00 -0.97194953323E+03  0.97194953323E+03  0.25500000920E-02 0. -1.
    10030    2    1    2    0    0  0.00000000000E+00  0.00000000000E+00 -0.14383967349E+03  0.18000593930E+04  0.17943031981E+04 0.  0.
        1    1    3    3  502    0 -0.47503277322E+03 -0.19054826087E+03  0.66727242285E+03  0.84096210478E+03  0.50400001928E-02 0.  1.
       -1    1    3    3    0  502  0.47503277322E+03  0.19054826087E+03 -0.81111209635E+03  0.95909728819E+03  0.50400001928E-02 0. -1.
</event>
<event>
 5   0  0.3404261E-04  0.1731249E+04  0.7818609E-02  0.8743740E-01
        1   -1    0    0  501    0  0.00000000000E+00  0.00000000000E+00  0.12005843277E+04  0.12005843277E+04  0.50400001928E-02 0.  1.
       -1   -1    0    0    0  501  0.00000000000E+00  0.00000000000E+00 -0.62411765386E+03  0.62411765388E+03  0.50400001928E-02 0. -1.
    10030    2    1    2    0    0  0.00000000000E+00  0.00000000000E+00  0.57646667384E+03  0.18247019816E+04  0.17312491142E+04 0.  0.
        1    1    3    3  502    0 -0.30776153144E+03 -0.35246279729E+03  0.10558019794E+04  0.11548441468E+04  0.50400001928E-02 0.  1.
       -1    1    3    3    0  502  0.30776153144E+03  0.35246279729E+03 -0.47933530553E+03  0.66985783481E+03  0.50400001928E-02 0. -1.
</event>
<event>
 5   0  0.6853162E-04  0.1792220E+04  0.7818609E-02  0.8710448E-01
       -2   -1    0    0    0  501  0.00000000000E+00  0.00000000000E+00  0.54473754526E+03  0.54473754527E+03  0.25500000920E-02 0. -1.
        2   -1    0    0  501    0  0.00000000000E+00  0.00000000000E+00 -0.14741285685E+04  0.14741285685E+04  0.25500000920E-02 0.  1.
    10030    2    1    2    0    0  0.00000000000E+00  0.00000000000E+00 -0.92939102325E+03  0.20188661138E+04  0.17922200510E+04 0.  0.
        2    1    3    3  502    0  0.74862175621E+03  0.30291486874E+03 -0.27226373545E+02  0.80804283735E+03  0.25500000920E-02 0. -1.
       -2    1    3    3    0  502 -0.74862175621E+03 -0.30291486874E+03 -0.90216464970E+03  0.12108232764E+04  0.25500000920E-02 0.  1.
</event>
<event>
 5   0  0.6929121E-04  0.1762569E+04  0.7818609E-02  0.8726462E-01
        2   -1    0    0  501    0  0.00000000000E+00  0.00000000000E+00  0.97652723492E+03  0.97652723492E+03  0.25500000920E-02 0.  1.
       -2   -1    0    0    0  501  0.00000000000E+00  0.00000000000E+00 -0.79533105841E+03  0.79533105841E+03  0.25500000920E-02 0. -1.
    10030    2    1    2    0    0  0.00000000000E+00  0.00000000000E+00  0.18119617651E+03  0.17718582933E+04  0.17625690787E+04 0.  0.
        3    1    3    3  502    0  0.47143940966E+03  0.73594803807E+03 -0.23081034131E+02  0.87430393803E+03  0.10100000352E+00 0. -1.
       -3    1    3    3    0  502 -0.47143940966E+03 -0.73594803807E+03  0.20427721064E+03  0.89755435530E+03  0.10100000352E+00 0.  1.
</event>
<event>
 5   0  0.3404261E-04  0.1553059E+04  0.7818609E-02  0.8849916E-01
        1   -1    0    0  501    0  0.00000000000E+00  0.00000000000E+00  0.14531730738E+04  0.14531730738E+04  0.50400001928E-02 0.  1.
       -1   -1    0    0    0  501  0.00000000000E+00  0.00000000000E+00 -0.41495289409E+03  0.41495289412E+03  0.50400001928E-02 0. -1.
    10030    2    1    2    0    0  0.00000000000E+00  0.00000000000E+00  0.10382201797E+04  0.18681259679E+04  0.15530593970E+04 0.  0.
        1    1    3    3  502    0 -0.73836135198E+03 -0.64287500770E+02  0.24039741473E+03  0.77916704621E+03  0.50400001928E-02 0. -1.
       -1    1    3    3    0  502  0.73836135198E+03  0.64287500770E+02  0.79782276500E+03  0.10889589217E+04  0.50400001928E-02 0.  1.
</event>
<event>
 5   0  0.6774451E-04  0.1798131E+04  0.7818609E-02  0.8707294E-01
       -2   -1    0    0    0  501  0.00000000000E+00  0.00000000000E+00  0.70671013102E+03  0.70671013103E+03  0.25500000920E-02 0. -1.
        2   -1    0    0  501    0  0.00000000000E+00  0.00000000000E+00 -0.11437774462E+04  0.11437774462E+04  0.25500000920E-02 0.  1.
    10030    2    1    2    0    0  0.00000000000E+00  0.00000000000E+00 -0.43706731515E+03  0.18504875772E+04  0.17981313732E+04 0.  0.
        4    1    3    3  502    0  0.11236153419E+03 -0.23861314374E+03  0.66600192840E+03  0.71632501580E+03  0.12699999809E+01 0. -1.
       -4    1    3    3    0  502 -0.11236153419E+03  0.23861314374E+03 -0.11030692435E+04  0.11341625614E+04  0.12699999809E+01 0.  1.
</event>
<event>
 5   0  0.3413839E-04  0.1797061E+04  0.7818609E-02  0.8707864E-01
        1   -1    0    0  501    0  0.00000000000E+00  0.00000000000E+00  0.66922740203E+03  0.66922740205E+03  0.50400001928E-02 0. -1.
       -1   -1    0    0    0  501  0.00000000000E+00  0.00000000000E+00 -0.12064023147E+04  0.12064023147E+04  0.50400001928E-02 0.  1.
    10030    2    1    2    0    0  0.00000000000E+00  0.00000000000E+00 -0.53717491267E+03  0.18756297168E+04  0.17970614757E+04 0.  0.
        5    1    3    3  502    0  0.88565930503E+03  0.77704738227E+02 -0.40429104147E+03  0.97667997171E+03  0.46999998093E+01 0. -1.
       -5    1    3    3    0  502 -0.88565930503E+03 -0.77704738227E+02 -0.13288387120E+03  0.89894974506E+03  0.46999998093E+01 0.  1.
</event>
<event>
 5   0  0.6547153E-04  0.1676979E+04  0.7818609E-02  0.8774604E-01
       -2   -1    0    0    0  501  0.00000000000E+00  0.00000000000E+00  0.56530658157E+03  0.56530658157E+03  0.25500000920E-02 0.  1.
        2   -1    0    0  501    0  0.00000000000E+00  0.00000000000E+00 -0.12436874186E+04  0.12436874186E+04  0.25500000920E-02 0. -1.
    10030    2    1    2    0    0  0.00000000000E+00  0.00000000000E+00 -0.67838083699E+03  0.18089940001E+04  0.16769790495E+04 0.  0.
        5    1    3    3  502    0 -0.37882031985E+03  0.51331341355E+03  0.24774442666E+03  0.68439380929E+03  0.46999998093E+01 0.  1.
       -5    1    3    3    0  502  0.37882031985E+03 -0.51331341355E+03 -0.92612526366E+03  0.11246001908E+04  0.46999998093E+01 0. -1.
</event>
<event>
 5   0  0.6774451E-04  0.1798465E+04  0.7818609E-02  0.8707116E-01
       -2   -1    0    0    0  501  0.00000000000E+00  0.00000000000E+00  0.55311071297E+03  0.55311071298E+03  0.25500000920E-02 0. -1.
        2   -1    0    0  501    0  0.00000000000E+00  0.00000000000E+00 -0.14619479366E+04  0.14619479366E+04  0.25500000920E-02 0.  1.
    10030    2    1    2    0    0  0.00000000000E+00  0.00000000000E+00 -0.90883722366E+03  0.20150586496E+04  0.17984649739E+04 0.  0.
        4    1    3    3  502    0  0.42667969008E+02  0.58862559100E+03  0.30575733683E+03  0.66467270433E+03  0.12699999809E+01 0. -1.
       -4    1    3    3    0  502 -0.42667969008E+02 -0.58862559100E+03 -0.12145945605E+04  0.13503859453E+04  0.12699999809E+01 0.  1.
</event>
<event>
 5   0  0.6929121E-04  0.1829307E+04  0.7818609E-02  0.8690868E-01
       -2   -1    0    0    0  501  0.00000000000E+00  0.00000000000E+00  0.58295913586E+03  0.58295913587E+03  0.25500000920E-02 0. -1.
        2   -1    0    0  501    0  0.00000000000E+00  0.00000000000E+00 -0.14350764013E+04  0.14350764013E+04  0.25500000920E-02 0.  1.
    10030    2    1    2    0    0  0.00000000000E+00  0.00000000000E+00 -0.85211726540E+03  0.20180355371E+04  0.18293068619E+04 0.  0.
        3    1    3    3  502    0 -0.14472286185E+03  0.45243969163E+03 -0.12883283392E+04  0.13731119041E+04  0.10100000352E+00 0.  1.
       -3    1    3    3    0  502  0.14472286185E+03 -0.45243969163E+03  0.43621107384E+03  0.64492363303E+03  0.10100000352E+00 0. -1.
</event>
<event>
 5   0  0.6929121E-04  0.1787495E+04  0.7818609E-02  0.8712978E-01
        2   -1    0    0  501    0  0.00000000000E+00  0.00000000000E+00  0.14826231309E+04  0.14826231309E+04  0.25500000920E-02 0.  1.
       -2   -1    0    0    0  501  0.00000000000E+00  0.00000000000E+00 -0.53876415606E+03  0.53876415606E+03  0.25500000920E-02 0. -1.
    10030    2    1    2    0    0  0.00000000000E+00  0.00000000000E+00  0.94385897484E+03  0.20213872870E+04  0.17874945593E+04 0.  0.
        3    1    3    3  502    0  0.34847702619E+03 -0.63337749772E+03 -0.12236488735E+03  0.73319606400E+03  0.10100000352E+00 0. -1.
       -3    1    3    3    0  502 -0.34847702619E+03  0.63337749772E+03  0.10662238622E+04  0.12881912230E+04  0.10100000352E+00 0.  1.
</event>
<event>
 5   0  0.6774451E-04  0.1840190E+04  0.7818609E-02  0.8685214E-01
        2   -1    0    0  501    0  0.00000000000E+00  0.00000000000E+00  0.13369755187E+04  0.13369755187E+04  0.25500000920E-02 0. -1.
       -2   -1    0    0    0  501  0.00000000000E+00  0.00000000000E+00 -0.63320118047E+03  0.63320118048E+03  0.25500000920E-02 0.  1.
    10030    2    1    2    0    0  0.00000000000E+00  0.00000000000E+00  0.70377433824E+03  0.19701766992E+04  0.18401896388E+04 0.  0.
        4    1    3    3  502    0  0.91019024315E+03 -0.13315289963E+03  0.37321653287E+03  0.99270749303E+03  0.12699999809E+01 0. -1.
       -4    1    3    3    0  502 -0.91019024315E+03  0.13315289963E+03  0.33055780536E+03  0.97746920616E+03  0.12699999809E+01 0.  1.
</event>
<event>
 5   0  0.6929121E-04  0.1735693E+04  0.7818609E-02  0.8741265E-01
       -2   -1    0    0    0  501  0.00000000000E+00  0.00000000000E+00  0.54774219134E+03  0.54774219135E+03  0.25500000920E-02 0.  1.
        2   -1    0    0  501    0  0.00000000000E+00  0.00000000000E+00 -0.13750219784E+04  0.13750219784E+04  0.25500000920E-02 0. -1.
    10030    2    1    2    0    0  0.00000000000E+00  0.00000000000E+00 -0.82727978701E+03  0.19227641697E+04  0.17356930046E+04 0.  0.
        3    1    3    3  502    0 -0.41631454806E+03 -0.66969535516E+03 -0.12159238328E+02  0.78864283990E+03  0.10100000352E+00 0.  1.
       -3    1    3    3    0  502  0.41631454806E+03  0.66969535516E+03 -0.81512054868E+03  0.11341213298E+04  0.10100000352E+00 0. -1.
</event>
<event>
 5   0  0.3413839E-04  0.1647130E+04  0.7818609E-02  0.8792106E-01
        1   -1    0    0  501    0  0.00000000000E+00  0.00000000000E+00  0.44250450063E+03  0.44250450066E+03  0.50400001928E-02 0. -1.
       -1   -1    0    0    0  501  0.00000000000E+00  0.00000000000E+00 -0.15327733111E+04  0.15327733111E+04  0.50400001928E-02 0.  1.
    10030    2    1    2    0    0  0.00000000000E+00  0.00000000000E+00 -0.10902688105E+04  0.19752778118E+04  0.16471297322E+04 0.  0.
        5    1    3    3  502    0 -0.36758322748E+03  0.23952913240E+03 -0.13809389166E+04  0.14489672238E+04  0.46999998093E+01 0.  1.
       -5    1    3    3    0  502  0.36758322748E+03 -0.23952913240E+03  0.29067010611E+03  0.52631058794E+03  0.46999998093E+01 0. -1.
</event>
<event>
 5   0  0.6771967E-04  0.1813368E+04  0.7818609E-02  0.8699223E-01
        2   -1    0    0  501    0  0.00000000000E+00  0.00000000000E+00  0.15384305311E+04  0.15384305311E+04  0.25500000920E-02 0. -1.
       -2   -1    0    0    0  501  0.00000000000E+00  0.00000000000E+00 -0.53435979684E+03  0.53435979685E+03  0.25500000920E-02 0.  1.
    10030    2    1    2    0    0  0.00000000000E+00  0.00000000000E+00  0.10040707343E+04  0.20727903280E+04  0.18133675039E+04 0.  0.
        1    1    3    3  502    0  0.74001355741E+03  0.24502287630E+03 -0.27263946369E+02  0.77999974222E+03  0.50400001928E-02 0.  1.
       -1    1    3    3    0  502 -0.74001355741E+03 -0.24502287630E+03  0.10313346806E+04  0.12927905857E+04  0.50400001928E-02 0. -1.
</event>
<event>
 5   0  0.3308275E-04  0.1741884E+04  0.7818609E-02  0.8737831E-01
       -1   -1    0    0    0  501  0.00000000000E+00  0.00000000000E+00  0.11467705802E+04  0.11467705802E+04  0.50400001928E-02 0.  1.
        1   -1    0    0  501    0  0.00000000000E+00  0.00000000000E+00 -0.66145716512E+03  0.66145716514E+03  0.50400001928E-02 0. -1.
    10030    2    1    2    0    0  0.00000000000E+00  0.00000000000E+00  0.48531341510E+03  0.18082277454E+04  0.17418835978E+04 0.  0.
        3    1    3    3  502    0 -0.13412640281E+03 -0.10948963331E+03  0.11287249637E+04  0.11419272856E+04  0.10100000352E+00 0.  1.
       -3    1    3    3    0  502  0.13412640281E+03  0.10948963331E+03 -0.64341154855E+03  0.66630045981E+03  0.10100000352E+00 0. -1.
</event>
<event>
 5   0  0.6774451E-04  0.1732155E+04  0.7818609E-02  0.8743235E-01
       -2   -1    0    0    0  501  0.00000000000E+00  0.00000000000E+00  0.10979269165E+04  0.10979269165E+04  0.25500000920E-02 0.  1.
        2   -1    0    0  501    0  0.00000000000E+00  0.00000000000E+00 -0.68318793160E+03  0.68318793160E+03  0.25500000920E-02 0. -1.
    10030    2    1    2    0    0  0.00000000000E+00  0.00000000000E+00  0.41473898490E+03  0.17811148481E+04  0.17321552115E+04 0.  0.
        4    1    3    3  502    0 -0.26208078998E+03 -0.18075891185E+03  0.10355722439E+04  0.10834074072E+04  0.12699999809E+01 0.  1.
       -4    1    3    3    0  502  0.26208078998E+03  0.18075891185E+03 -0.62083325902E+03  0.69770744091E+03  0.12699999809E+01 0. -1.
</event>
<event>
 5   0  0.6774451E-04  0.1832119E+04  0.7818609E-02  0.8689403E-01
        2   -1    0    0  501    0  0.00000000000E+00  0.00000000000E+00  0.15589364468E+04  0.15589364468E+04  0.25500000920E-02 0. -1.
       -2   -1    0    0    0  501  0.00000000000E+00  0.00000000000E+00 -0.53829347216E+03  0.53829347216E+03  0.25500000920E-02 0.  1.
    10030    2    1    2    0    0  0.00000000000E+00  0.00000000000E+00  0.10206429746E+04  0.20972299190E+04  0.18321193333E+04 0.  0.
        4    1    3    3  502    0 -0.62245926659E+03  0.57687222563E+02 -0.25618453407E+03  0.67558528892E+03  0.12699999809E+01 0.  1.
       -4    1    3    3    0  502  0.62245926659E+03 -0.57687222563E+02  0.12768275087E+04  0.14216446300E+04  0.12699999809E+01 0. -1.
</event>
<event>
 5   0  0.2467375E-04  0.1407014E+04  0.7818609E-02  0.8948757E-01
        3   -1    0    0  501    0  0.00000000000E+00  0.00000000000E+00  0.33382605028E+03  0.33382606556E+03  0.10100000352E+00 0. -1.
       -3   -1    0    0    0  501  0.00000000000E+00  0.00000000000E+00 -0.14825747277E+04  0.14825747312E+04  0.10100000352E+00 0.  1.
    10030    2    1    2    0    0  0.00000000000E+00  0.00000000000E+00 -0.11487486774E+04  0.18164007967E+04  0.14070139766E+04 0.  0.
        1    1    3    3  502    0 -0.14269744117E+03  0.66694065310E+03 -0.35170804485E+03  0.76737926953E+03  0.50400001928E-02 0. -1.
       -1    1    3    3    0  502  0.14269744117E+03 -0.66694065310E+03 -0.79704063259E+03  0.10490215272E+04  0.50400001928E-02 0.  1.
</event>
<event>
 5   0  0.6774451E-04  0.1850981E+04  0.7818609E-02  0.8679648E-01
       -2   -1    0    0    0  501  0.00000000000E+00  0.00000000000E+00  0.58102351043E+03  0.58102351044E+03  0.25500000920E-02 0.  1.
        2   -1    0    0  501    0  0.00000000000E+00  0.00000000000E+00 -0.14741793716E+04  0.14741793716E+04  0.25500000920E-02 0. -1.
    10030    2    1    2    0    0  0.00000000000E+00  0.00000000000E+00 -0.89315586114E+03  0.20552028820E+04  0.18509812246E+04 0.  0.
        4    1    3    3  502    0 -0.66682792264E+03 -0.29856718962E+03 -0.10773492853E+04  0.13017238342E+04  0.12699999809E+01 0. -1.
       -4    1    3    3    0  502  0.66682792264E+03  0.29856718962E+03  0.18419342412E+03  0.75347904783E+03  0.12699999809E+01 0.  1.
</event>
<event>
 5   0  0.6771967E-04  0.1780078E+04  0.7818609E-02  0.8716966E-01
        2   -1    0    0  501    0  0.00000000000E+00  0.00000000000E+00  0.12409344415E+04  0.12409344415E+04  0.25500000920E-02 0.  1.
       -2   -1    0    0    0  501  0.00000000000E+00  0.00000000000E+00 -0.63836526746E+03  0.63836526747E+03  0.25500000920E-02 0. -1.
    10030    2    1    2    0    0  0.00000000000E+00  0.00000000000E+00  0.60256917401E+03  0.18792997089E+04  0.17800780282E+04 0.  0.
        1    1    3    3  502    0  0.25839545834E+03  0.73995390418E+02 -0.59449448250E+03  0.65243177455E+03  0.50400001928E-02 0. -1.
       -1    1    3    3    0  502 -0.25839545834E+03 -0.73995390418E+02  0.11970636565E+04  0.12268679344E+04  0.50400001928E-02 0.  1.
</event>
<event>
 5   0  0.3470962E-04  0.1823300E+04  0.7818609E-02  0.8694006E-01
       -1   -1    0    0    0  501  0.00000000000E+00  0.00000000000E+00  0.69363405550E+03  0.69363405552E+03  0.50400001928E-02 0.  1.
        1   -1    0    0  501    0  0.00000000000E+00  0.00000000000E+00 -0.11981899927E+04  0.11981899927E+04  0.50400001928E-02 0. -1.
    10030    2    1    2    0    0  0.00000000000E+00  0.00000000000E+00 -0.50455593722E+03  0.18918240483E+04  0.18232996286E+04 0.  0.
        4    1    3    3  502    0 -0.30188445548E+03  0.35097289510E+03  0.56259611553E+03  0.72858232181E+03  0.12699999809E+01 0.  1.
       -4    1    3    3    0  502  0.30188445548E+03 -0.35097289510E+03 -0.10671520527E+04  0.11632417264E+04  0.12699999809E+01 0. -1.
</event>
<event>
 5   0  0.2467375E-04  0.1834776E+04  0.7818609E-02  0.8688022E-01
       -3   -1    0    0    0  501  0.00000000000E+00  0.00000000000E+00  0.27634846969E+04  0.27634846988E+04  0.10100000352E+00 0. -1.
        3   -1    0    0  501    0  0.00000000000E+00  0.00000000000E+00 -0.30454327174E+03  0.30454328849E+03  0.10100000352E+00 0.  1.
    10030    2    1    2    0    0  0.00000000000E+00  0.00000000000E+00  0.24589414252E+04  0.30680279873E+04  0.18347759531E+04 0.  0.
        3    1    3    3  502    0 -0.50425756220E+03 -0.25594069257E+03  0.21555718510E+02  0.56590280645E+03  0.10100000352E+00 0.  1.
       -3    1    3    3    0  502  0.50425756220E+03  0.25594069257E+03  0.24373857067E+04  0.25021251808E+04  0.10100000352E+00 0. -1.
</event>
<event>
 5   0  0.3413839E-04  0.1742582E+04  0.7818609E-02  0.8737444E-01
        1   -1    0    0  501    0  0.00000000000E+00  0.00000000000E+00  0.15745134583E+04  0.15745134584E+04  0.50400001928E-02 0. -1.
       -1   -1    0    0    0  501  0.00000000000E+00  0.00000000000E+00 -0.48214780949E+03  0.48214780952E+03  0.50400001928E-02 0.  1.
    10030    2    1    2    0    0  0.00000000000E+00  0.00000000000E+00  0.10923656489E+04  0.20566612679E+04  0.17425822391E+04 0.  0.
        5    1    3    3  502    0  0.38379697477E+03 -0.34427730555E+03  0.13751258215E+04  0.14686116219E+04  0.46999998093E+01 0. -1.
       -5    1    3    3    0  502 -0.38379697477E+03  0.34427730555E+03 -0.28276017262E+03  0.58804964602E+03  0.46999998093E+01 0.  1.
</event>
<event>
 5   0  0.6774451E-04  0.1808761E+04  0.7818609E-02  0.8701655E-01
       -2   -1    0    0    0  501  0.00000000000E+00  0.00000000000E+00  0.40863200814E+03  0.40863200815E+03  0.25500000920E-02 0.  1.
        2   -1    0    0  501    0  0.00000000000E+00  0.00000000000E+00 -0.20015654850E+04  0.20015654850E+04  0.25500000920E-02 0. -1.
    10030    2    1    2    0    0  0.00000000000E+00  0.00000000000E+00 -0.15929334769E+04  0.24101974932E+04  0.18087605962E+04 0.  0.
        4    1    3    3  502    0 -0.12195300380E+03 -0.30617089767E+03  0.32576653532E+03  0.46339896650E+03  0.12699999809E+01 0.  1.
       -4    1    3    3    0  502  0.12195300380E+03  0.30617089767E+03 -0.19187000122E+04  0.19467985267E+04  0.12699999809E+01 0. -1.
</event>
<event>
 5   0  0.6771967E-04  0.1766153E+04  0.7818609E-02  0.8724509E-01
       -2   -1    0    0    0  501  0.00000000000E+00  0.00000000000E+00  0.38238908866E+03  0.38238908867E+03  0.25500000920E-02 0.  1.
        2   -1    0    0  501    0  0.00000000000E+00  0.00000000000E+00 -0.20393473207E+04  0.20393473207E+04  0.25500000920E-02 0. -1.
    10030    2    1    2    0    0  0.00000000000E+00  0.00000000000E+00 -0.16569582321E+04  0.24217364094E+04  0.17661530664E+04 0.  0.
        1    1    3    3  502    0 -0.72681168987E+03  0.28827898439E+03 -0.13912767843E+04  0.15959358057E+04  0.50400001928E-02 0. -1.
       -1    1    3    3    0  502  0.72681168987E+03 -0.28827898439E+03 -0.26568144779E+03  0.82580060372E+03  0.50400001928E-02 0.  1.
</event>
<event>
 5   0  0.6853162E-04  0.1955517E+04  0.7818609E-02  0.8627705E-01
       -2   -1    0    0    0  501  0.00000000000E+00  0.00000000000E+00  0.29708805338E+03  0.29708805339E+03  0.25500000920E-02 0. -1.
        2   -1    0    0  501    0  0.00000000000E+00  0.00000000000E+00 -0.32179417972E+04  0.32179417972E+04  0.25500000920E-02 0.  1.
    10030    2    1    2    0    0  0.00000000000E+00  0.00000000000E+00 -0.29208537438E+04  0.35150298506E+04  0.19555173888E+04 0.  0.
        2    1    3    3  502    0  0.93924527033E+03 -0.11462408195E+02 -0.19484025006E+04  0.21630037839E+04  0.25500000920E-02 0.  1.
       -2    1    3    3    0  502 -0.93924527033E+03  0.11462408195E+02 -0.97245124319E+03  0.13520260667E+04  0.25500000920E-02 0. -1.
</event>
<event>
 5   0  0.6547153E-04  0.1803642E+04  0.7818609E-02  0.8704365E-01
        2   -1    0    0  501    0  0.00000000000E+00  0.00000000000E+00  0.13587476769E+04  0.13587476769E+04  0.25500000920E-02 0. -1.
       -2   -1    0    0    0  501  0.00000000000E+00  0.00000000000E+00 -0.59855193550E+03  0.59855193551E+03  0.25500000920E-02 0.  1.
    10030    2    1    2    0    0  0.00000000000E+00  0.00000000000E+00  0.76019574139E+03  0.19572996124E+04  0.18036419289E+04 0.  0.
        5    1    3    3  502    0 -0.70055757548E+03  0.49711389898E+03  0.67799435520E+03  0.10943498439E+04  0.46999998093E+01 0. -1.
       -5    1    3    3    0  502  0.70055757548E+03 -0.49711389898E+03  0.82201386190E+02  0.86294976853E+03  0.46999998093E+01 0.  1.
</event>
<event>
 5   0  0.6853162E-04  0.1700672E+04  0.7818609E-02  0.8760981E-01
        2   -1    0    0  501    0  0.00000000000E+00  0.00000000000E+00  0.10842164218E+04  0.10842164218E+04  0.25500000920E-02 0.  1.
       -2   -1    0    0    0  501  0.00000000000E+00  0.00000000000E+00 -0.66690678129E+03  0.66690678130E+03  0.25500000920E-02 0. -1.
    10030    2    1    2    0    0  0.00000000000E+00  0.00000000000E+00  0.41730964051E+03  0.17511232031E+04  0.17006719661E+04 0.  0.
        2    1    3    3  502    0  0.25126922274E+03 -0.80669203226E+03  0.10998392298E+03  0.85204736989E+03  0.25500000920E-02 0. -1.
       -2    1    3    3    0  502 -0.25126922274E+03  0.80669203226E+03  0.30732571753E+03  0.89907583321E+03  0.25500000920E-02 0.  1.
</event>
<event>
 5   0  0.3308275E-04  0.1819194E+04  0.7818609E-02  0.8696158E-01
        1   -1    0    0  501    0  0.00000000000E+00  0.00000000000E+00  0.68540852475E+03  0.68540852477E+03  0.50400001928E-02 0.  1.
       -1   -1    0    0    0  501  0.00000000000E+00  0.00000000000E+00 -0.12071152597E+04  0.12071152597E+04  0.50400001928E-02 0. -1.
    10030    2    1    2    0    0  0.00000000000E+00  0.00000000000E+00 -0.52170673496E+03  0.18925237845E+04  0.18191944254E+04 0.  0.
        3    1    3    3  502    0 -0.49955328953E+03  0.67856284773E+03  0.95543170976E+02  0.84801505596E+03  0.10100000352E+00 0.  1.
       -3    1    3    3    0  502  0.49955328953E+03 -0.67856284773E+03 -0.61724990594E+03  0.10445087285E+04  0.10100000352E+00 0. -1.
</event>
<event>
 5   0  0.6771967E-04  0.1786510E+04  0.7818609E-02  0.8713506E-01
       -2   -1    0    0    0  501  0.00000000000E+00  0.00000000000E+00  0.56090908123E+03  0.56090908123E+03  0.25500000920E-02 0. -1.
        2   -1    0    0  501    0  0.00000000000E+00  0.00000000000E+00 -0.14225203944E+04  0.14225203944E+04  0.25500000920E-02 0.  1.
    10030    2    1    2    0    0  0.00000000000E+00  0.00000000000E+00 -0.86161131313E+03  0.19834294756E+04  0.17865101258E+04 0.  0.
        1    1    3    3  502    0  0.78593428798E+03  0.10419470333E+03 -0.88769471949E+03  0.11901895464E+04  0.50400001928E-02 0.  1.
       -1    1    3    3    0  502 -0.78593428798E+03 -0.10419470333E+03  0.26083406368E+02  0.79323992923E+03  0.50400001928E-02 0. -1.
</event>
<event>
 5   0  0.3377273E-04  0.1416944E+04  0.7818609E-02  0.8941644E-01
       -1   -1    0    0    0  501  0.00000000000E+00  0.00000000000E+00  0.42050578448E+03  0.42050578451E+03  0.50400001928E-02 0.  1.
        1   -1    0    0  501    0  0.00000000000E+00  0.00000000000E+00 -0.11936401779E+04  0.11936401779E+04  0.50400001928E-02 0. -1.
    10030    2    1    2    0    0  0.00000000000E+00  0.00000000000E+00 -0.77313439339E+03  0.16141459624E+04  0.14169440348E+04 0.  0.
        2    1    3    3  502    0  0.19320655130E+03 -0.11199458177E+03 -0.11524964335E+04  0.11739333827E+04  0.25500000920E-02 0. -1.
       -2    1    3    3    0  502 -0.19320655130E+03  0.11199458177E+03  0.37936204011E+03  0.44021257967E+03  0.25500000920E-02 0.  1.
</event>
<event>
 5   0  0.3470962E-04  0.1750016E+04  0.7818609E-02  0.8733342E-01
       -1   -1    0    0    0  501  0.00000000000E+00  0.00000000000E+00  0.44914562823E+03  0.44914562825E+03  0.50400001928E-02 0.  1.
        1   -1    0    0  501    0  0.00000000000E+00  0.00000000000E+00 -0.17046556781E+04  0.17046556782E+04  0.50400001928E-02 0. -1.
    10030    2    1    2    0    0  0.00000000000E+00  0.00000000000E+00 -0.12555100499E+04  0.21538013064E+04  0.17500155948E+04 0.  0.
        4    1    3    3  502    0 -0.18328567960E+03 -0.36140098642E+03  0.32670389875E+03  0.52052028172E+03  0.12699999809E+01 0.  1.
       -4    1    3    3    0  502  0.18328567960E+03  0.36140098642E+03 -0.15822139487E+04  0.16332810247E+04  0.12699999809E+01 0. -1.
</event>
<event>
 5   0  0.6929121E-04  0.1277555E+04  0.7818609E-02  0.9047556E-01
        2   -1    0    0  501    0  0.00000000000E+00  0.00000000000E+00  0.10798346615E+04  0.10798346615E+04  0.25500000920E-02 0.  1.
       -2   -1    0    0    0  501  0.00000000000E+00  0.00000000000E+00 -0.37786988058E+03  0.37786988059E+03  0.25500000920E-02 0. -1.
    10030    2    1    2    0    0  0.00000000000E+00  0.00000000000E+00  0.70196478096E+03  0.14577045421E+04  0.12775554698E+04 0.  0.
        3    1    3    3  502    0 -0.45500088095E+03 -0.19927592754E+03  0.80923749572E+03  0.94952726746E+03  0.10100000352E+00 0.  1.
       -3    1    3    3    0  502  0.45500088095E+03  0.19927592754E+03 -0.10727271476E+03  0.50817727468E+03  0.10100000352E+00 0. -1.
</event>
<event>
 5   0  0.6547153E-04  0.1809133E+04  0.7818609E-02  0.8701458E-01
        2   -1    0    0  501    0  0.00000000000E+00  0.00000000000E+00  0.11812721582E+04  0.11812721582E+04  0.25500000920E-02 0. -1.
       -2   -1    0    0    0  501  0.00000000000E+00  0.00000000000E+00 -0.69267745044E+03  0.69267745045E+03  0.25500000920E-02 0.  1.
    10030    2    1    2    0    0  0.00000000000E+00  0.00000000000E+00  0.48859470776E+03  0.18739496087E+04  0.18091330375E+04 0.  0.
        5    1    3    3  502    0  0.33407698532E+03 -0.79246920060E+03 -0.46110734019E+02  0.86125673049E+03  0.46999998093E+01 0. -1.
       -5    1    3    3    0  502 -0.33407698532E+03  0.79246920060E+03  0.53470544178E+03  0.10126928782E+04  0.46999998093E+01 0.  1.
</event>
<event>
 5   0  0.2467375E-04  0.2678016E+04  0.7818609E-02  0.8342174E-01
       -3   -1    0    0    0  501  0.00000000000E+00  0.00000000000E+00  0.21501347764E+04  0.21501347788E+04  0.10100000352E+00 0.  1.
        3   -1    0    0  501    0  0.00000000000E+00  0.00000000000E+00 -0.83387419969E+03  0.83387420580E+03  0.10100000352E+00 0. -1.
    10030    2    1    2    0    0  0.00000000000E+00  0.00000000000E+00  0.13162605768E+04  0.29840089846E+04  0.26780156300E+04 0.  0.
        1    1    3    3  502    0 -0.96688200787E+03 -0.64984313209E+03  0.13936988605E+04  0.18164672932E+04  0.50400001928E-02 0.  1.
       -1    1    3    3    0  502  0.96688200787E+03  0.64984313209E+03 -0.77438283713E+02  0.11675416914E+04  0.50400001928E-02 0. -1.
</event>
<event>
 5   0  0.6547153E-04  0.1711743E+04  0.7818609E-02  0.8754695E-01
       -2   -1    0    0    0  501  0.00000000000E+00  0.00000000000E+00  0.45755252197E+03  0.45755252198E+03  0.25500000920E-02 0. -1.
        2   -1    0    0  501    0  0.00000000000E+00  0.00000000000E+00 -0.16009436140E+04  0.16009436140E+04  0.25500000920E-02 0.  1.
    10030    2    1    2    0    0  0.00000000000E+00  0.00000000000E+00 -0.11433910921E+04  0.20584961360E+04  0.17117427238E+04 0.  0.
        5    1    3    3  502    0 -0.24004371108E+03 -0.79870061376E+03 -0.80285893272E+03  0.11576477053E+04  0.46999998093E+01 0.  1.
       -5    1    3    3    0  502  0.24004371108E+03  0.79870061376E+03 -0.34053215933E+03  0.90084843075E+03  0.46999998093E+01 0. -1.
</event>
<event>
 5   0  0.6771967E-04  0.1757852E+04  0.7818609E-02  0.8729040E-01
        2   -1    0    0  501    0  0.00000000000E+00  0.00000000000E+00  0.29639295473E+04  0.29639295473E+04  0.25500000920E-02 0.  1.
       -2   -1    0    0    0  501  0.00000000000E+00  0.00000000000E+00 -0.26063728868E+03  0.26063728869E+03  0.25500000920E-02 0. -1.
    10030    2    1    2    0    0  0.00000000000E+00  0.00000000000E+00  0.27032922586E+04  0.32245668360E+04  0.17578515990E+04 0.  0.
        1    1    3    3  502    0  0.84883916051E+03  0.18682447717E+03  0.11119154366E+04  0.14113069276E+04  0.50400001928E-02 0.  1.
       -1    1    3    3    0  502 -0.84883916051E+03 -0.18682447717E+03  0.15913768221E+04  0.18132599084E+04  0.50400001928E-02 0. -1.
</event>
<event>
 5   0  0.3470962E-04  0.1781685E+04  0.7818609E-02  0.8716100E-01
       -1   -1    0    0    0  501  0.00000000000E+00  0.00000000000E+00  0.86945784805E+03  0.86945784807E+03  0.50400001928E-02 0.  1.
        1   -1    0    0  501    0  0.00000000000E+00  0.00000000000E+00 -0.91275281553E+03  0.91275281554E+03  0.50400001928E-02 0. -1.
    10030    2    1    2    0    0  0.00000000000E+00  0.00000000000E+00 -0.43294967474E+02  0.17822106636E+04  0.17816847070E+04 0.  0.
        4    1    3    3  502    0  0.40898254430E+03 -0.42736344644E+03 -0.68794639955E+03  0.90729162811E+03  0.12699999809E+01 0. -1.
       -4    1    3    3    0  502 -0.40898254430E+03  0.42736344644E+03  0.64465143208E+03  0.87491903549E+03  0.12699999809E+01 0.  1.
</event>
<event>
 5   0  0.3413839E-04  0.1846421E+04  0.7818609E-02  0.8681995E-01
        1   -1    0    0  501    0  0.00000000000E+00  0.00000000000E+00  0.73453941853E+03  0.73453941855E+03  0.50400001928E-02 0.  1.
       -1   -1    0    0    0  501  0.00000000000E+00  0.00000000000E+00 -0.11603434217E+04  0.11603434217E+04  0.50400001928E-02 0. -1.
    10030    2    1    2    0    0  0.00000000000E+00  0.00000000000E+00 -0.42580400316E+03  0.18948828403E+04  0.18464213845E+04 0.  0.
        5    1    3    3  502    0  0.21597982251E+03  0.35155573194E+03  0.63464137214E+03  0.75698776584E+03  0.46999998093E+01 0.  1.
       -5    1    3    3    0  502 -0.21597982251E+03 -0.35155573194E+03 -0.10604453753E+04  0.11378950744E+04  0.46999998093E+01 0. -1.
</event>
<event>
 5   0  0.6547153E-04  0.1912875E+04  0.7818609E-02  0.8648474E-01
       -2   -1    0    0    0  501  0.00000000000E+00  0.00000000000E+00  0.74060657785E+03  0.74060657786E+03  0.25500000920E-02 0. -1.
        2   -1    0    0  501    0  0.00000000000E+00  0.00000000000E+00 -0.12351668082E+04  0.12351668082E+04  0.25500000920E-02 0.  1.
    10030    2    1    2    0    0  0.00000000000E+00  0.00000000000E+00 -0.49456023036E+03  0.19757733861E+04  0.19128749702E+04 0.  0.
        5    1    3    3  502    0  0.50324082262E+03 -0.79770351879E+03 -0.41114196858E+03  0.10289033180E+04  0.46999998093E+01 0.  1.
       -5    1    3    3    0  502 -0.50324082262E+03  0.79770351879E+03 -0.83418261773E+02  0.94687006808E+03  0.46999998093E+01 0. -1.
</event>
<event>
 5   0  0.6853162E-04  0.1788636E+04  0.7818609E-02  0.8712366E-01
       -2   -1    0    0    0  501  0.00000000000E+00  0.00000000000E+00  0.60796790741E+03  0.60796790741E+03  0.25500000920E-02 0.  1.
        2   -1    0    0  501    0  0.00000000000E+00  0.00000000000E+00 -0.13155375980E+04  0.13155375980E+04  0.25500000920E-02 0. -1.
    10030    2    1    2    0    0  0.00000000000E+00  0.00000000000E+00 -0.70756969058E+03  0.19235055054E+04  0.17886359502E+04 0.  0.
        2    1    3    3  502    0 -0.36855309959E+03 -0.75026733091E+03 -0.11894130237E+02  0.83598679737E+03  0.25500000920E-02 0. -1.
       -2    1    3    3    0  502  0.36855309959E+03  0.75026733091E+03 -0.69567556034E+03  0.10875187080E+04  0.25500000920E-02 0.  1.
</event>
<event>
 5   0  0.6929121E-04  0.1806452E+04  0.7818609E-02  0.8702876E-01
        2   -1    0    0  501    0  0.00000000000E+00  0.00000000000E+00  0.61687588151E+03  0.61687588151E+03  0.25500000920E-02 0. -1.
       -2   -1    0    0    0  501  0.00000000000E+00  0.00000000000E+00 -0.13224980626E+04  0.13224980626E+04  0.25500000920E-02 0.  1.
    10030    2    1    2    0    0  0.00000000000E+00  0.00000000000E+00 -0.70562218110E+03  0.19393739441E+04  0.18064519459E+04 0.  0.
        3    1    3    3  502    0 -0.15243757534E+03  0.65348856213E+03 -0.10018910801E+04  0.12058483577E+04  0.10100000352E+00 0.  1.
       -3    1    3    3    0  502  0.15243757534E+03 -0.65348856213E+03  0.29626889899E+03  0.73352558641E+03  0.10100000352E+00 0. -1.
</event>
<event>
 5   0  0.3404261E-04  0.1812553E+04  0.7818609E-02  0.8699652E-01
        1   -1    0    0  501    0  0.00000000000E+00  0.00000000000E+00  0.10704240237E+04  0.10704240238E+04  0.50400001928E-02 0. -1.
       -1   -1    0    0    0  501  0.00000000000E+00  0.00000000000E+00 -0.76730103877E+03  0.76730103878E+03  0.50400001928E-02 0.  1.
    10030    2    1    2    0    0  0.00000000000E+00  0.00000000000E+00  0.30312298498E+03  0.18377250625E+04  0.18125534093E+04 0.  0.
        1    1    3    3  502    0 -0.26328514016E+03 -0.16893358518E+02  0.10306276033E+04  0.10638598157E+04  0.50400001928E-02 0. -1.
       -1    1    3    3    0  502  0.26328514016E+03  0.16893358518E+02 -0.72750461835E+03  0.77386524689E+03  0.50400001928E-02 0.  1.
</event>
<event>
 5   0  0.6929121E-04  0.1618914E+04  0.7818609E-02  0.8809012E-01
        2   -1    0    0  501    0  0.00000000000E+00  0.00000000000E+00  0.13419970977E+04  0.13419970977E+04  0.25500000920E-02 0.  1.
       -2   -1    0    0    0  501  0.00000000000E+00  0.00000000000E+00 -0.48824324680E+03  0.48824324681E+03  0.25500000920E-02 0. -1.
    10030    2    1    2    0    0  0.00000000000E+00  0.00000000000E+00  0.85375385089E+03  0.18302403445E+04  0.16189144760E+04 0.  0.
        3    1    3    3  502    0  0.80776643914E+03  0.46984158642E+02  0.40092679720E+03  0.90301519272E+03  0.10100000352E+00 0.  1.
       -3    1    3    3    0  502 -0.80776643914E+03 -0.46984158642E+02  0.45282705369E+03  0.92722515179E+03  0.10100000352E+00 0. -1.
</event>
<event>
 5   0  0.6547153E-04  0.1797158E+04  0.7818609E-02  0.8707813E-01
        2   -1    0    0  501    0  0.00000000000E+00  0.00000000000E+00  0.95749598545E+03  0.95749598545E+03  0.25500000920E-02 0.  1.
       -2   -1    0    0    0  501  0.00000000000E+00  0.00000000000E+00 -0.84328690632E+03  0.84328690632E+03  0.25500000920E-02 0. -1.
    10030    2    1    2    0    0  0.00000000000E+00  0.00000000000E+00  0.11420907913E+03  0.18007828918E+04  0.17971575639E+04 0.  0.
        5    1    3    3  502    0  0.80061840067E+03  0.25239389149E+03  0.37826511923E+03  0.92076006124E+03  0.46999998093E+01 0.  1.
       -5    1    3    3    0  502 -0.80061840067E+03 -0.25239389149E+03 -0.26405604010E+03  0.88002283053E+03  0.46999998093E+01 0. -1.
</event>
<event>
 5   0  0.3404261E-04  0.1773175E+04  0.7818609E-02  0.8720696E-01
       -1   -1    0    0    0  501  0.00000000000E+00  0.00000000000E+00  0.10231823929E+04  0.10231823929E+04  0.50400001928E-02 0.  1.
        1   -1    0    0  501    0  0.00000000000E+00  0.00000000000E+00 -0.76822843930E+03  0.76822843931E+03  0.50400001928E-02 0. -1.
    10030    2    1    2    0    0  0.00000000000E+00  0.00000000000E+00  0.25495395361E+03  0.17914108322E+04  0.17731754711E+04 0.  0.
        1    1    3    3  502    0  0.45449224393E+01 -0.65880078050E+03  0.72687320186E+03  0.98101160865E+03  0.50400001928E-02 0.  1.
       -1    1    3    3    0  502 -0.45449224393E+01  0.65880078050E+03 -0.47191924824E+03  0.81039922359E+03  0.50400001928E-02 0. -1.
</event>
<event>
 5   0  0.3377273E-04  0.1790407E+04  0.7818609E-02  0.8711418E-01
       -1   -1    0    0    0  501  0.00000000000E+00  0.00000000000E+00  0.86538500214E+03  0.86538500215E+03  0.50400001928E-02 0. -1.
        1   -1    0    0  501    0  0.00000000000E+00  0.00000000000E+00 -0.92604904236E+03  0.92604904237E+03  0.50400001928E-02 0.  1.
    10030    2    1    2    0    0  0.00000000000E+00  0.00000000000E+00 -0.60664040220E+02  0.17914340445E+04  0.17904066047E+04 0.  0.
        2    1    3    3  502    0 -0.30304817334E+03  0.74478349258E+03  0.36340149298E+03  0.88238386844E+03  0.25500000920E-02 0. -1.
       -2    1    3    3    0  502  0.30304817334E+03 -0.74478349258E+03 -0.42406553320E+03  0.90905017608E+03  0.25500000920E-02 0.  1.
</event>
<event>
 5   0  0.6774451E-04  0.1815876E+04  0.7818609E-02  0.8697902E-01
       -2   -1    0    0    0  501  0.00000000000E+00  0.00000000000E+00  0.67716083670E+03  0.67716083671E+03  0.25500000920E-02 0.  1.
        2   -1    0    0  501    0  0.00000000000E+00  0.00000000000E+00 -0.12173643874E+04  0.12173643874E+04  0.25500000920E-02 0. -1.
    10030    2    1    2    0    0  0.00000000000E+00  0.00000000000E+00 -0.54020355067E+03  0.18945252241E+04  0.18158760829E+04 0.  0.
        4    1    3    3  502    0  0.65200103431E+03 -0.34193682229E+03 -0.82445666030E+03  0.11053309626E+04  0.12699999809E+01 0. -1.
       -4    1    3    3    0  502 -0.65200103431E+03  0.34193682229E+03  0.28425310963E+03  0.78919426152E+03  0.12699999809E+01 0.  1.
</event>
<event>
 5   0  0.6774451E-04  0.1859609E+04  0.7818609E-02  0.8675227E-01
       -2   -1    0    0    0  501  0.00000000000E+00  0.00000000000E+00  0.77202598024E+03  0.77202598025E+03  0.25500000920E-02 0. -1.
        2   -1    0    0  501    0  0.00000000000E+00  0.00000000000E+00 -0.11198279247E+04  0.11198279247E+04  0.25500000920E-02 0.  1.
    10030    2    1    2    0    0  0.00000000000E+00  0.00000000000E+00 -0.34780194444E+03  0.18918539049E+04  0.18596088312E+04 0.  0.
        4    1    3    3  502    0 -0.28390180255E+03 -0.31110030803E+03  0.66941842220E+03  0.79088954477E+03  0.12699999809E+01 0. -1.
       -4    1    3    3    0  502  0.28390180255E+03  0.31110030803E+03 -0.10172203666E+04  0.11009643602E+04  0.12699999809E+01 0.  1.
</event>
<event>
 5   0  0.6853162E-04  0.1784087E+04  0.7818609E-02  0.8714808E-01
       -2   -1    0    0    0  501  0.00000000000E+00  0.00000000000E+00  0.67406851277E+03  0.67406851277E+03  0.25500000920E-02 0. -1.
        2   -1    0    0  501    0  0.00000000000E+00  0.00000000000E+00 -0.11805060615E+04  0.11805060615E+04  0.25500000920E-02 0.  1.
    10030    2    1    2    0    0  0.00000000000E+00  0.00000000000E+00 -0.50643754870E+03  0.18545745742E+04  0.17840874028E+04 0.  0.
        2    1    3    3  502    0  0.75889604046E+03  0.46231416970E+03 -0.17213459871E+03  0.90514524348E+03  0.25500000920E-02 0. -1.
       -2    1    3    3    0  502 -0.75889604046E+03 -0.46231416970E+03 -0.33430294999E+03  0.94942933076E+03  0.25500000920E-02 0.  1.
</event>
<event>
 5   0  0.6771967E-04  0.1747156E+04  0.7818609E-02  0.8734917E-01
       -2   -1    0    0    0  501  0.00000000000E+00  0.00000000000E+00  0.91484857851E+03  0.91484857851E+03  0.25500000920E-02 0. -1.
        2   -1    0    0  501    0  0.00000000000E+00  0.00000000000E+00 -0.83416892644E+03  0.83416892645E+03  0.25500000920E-02 0.  1.
    10030    2    1    2    0    0  0.00000000000E+00  0.00000000000E+00  0.80679652068E+02  0.17490175050E+04  0.17471556961E+04 0.  0.
        1    1    3    3  502    0 -0.71671444097E+02  0.81493521721E+03 -0.26638846535E+03  0.86035981929E+03  0.50400001928E-02 0.  1.
       -1    1    3    3    0  502  0.71671444097E+02 -0.81493521721E+03  0.34706811742E+03  0.88865768567E+03  0.50400001928E-02 0. -1.
</event>
<event>
 5   0  0.6774451E-04  0.1586320E+04  0.7818609E-02  0.8828997E-01
        2   -1    0    0  501    0  0.00000000000E+00  0.00000000000E+00  0.12069396095E+04  0.12069396095E+04  0.25500000920E-02 0. -1.
       -2   -1    0    0    0  501  0.00000000000E+00  0.00000000000E+00 -0.52123769796E+03  0.52123769796E+03  0.25500000920E-02 0.  1.
    10030    2    1    2    0    0  0.00000000000E+00  0.00000000000E+00  0.68570191153E+03  0.17281773075E+04  0.15863195436E+04 0.  0.
        4    1    3    3  502    0 -0.21289840696E+02 -0.19398378633E+03  0.11803762266E+04  0.11963998562E+04  0.12699999809E+01 0. -1.
       -4    1    3    3    0  502  0.21289840696E+02  0.19398378633E+03 -0.49467431512E+03  0.53177745121E+03  0.12699999809E+01 0.  1.
</event>
<event>
 5   0  0.6547153E-04  0.1806390E+04  0.7818609E-02  0.8702909E-01
       -2   -1    0    0    0  501  0.00000000000E+00  0.00000000000E+00  0.62687075257E+03  0.62687075258E+03  0.25500000920E-02 0. -1.
        2   -1    0    0  501    0  0.00000000000E+00  0.00000000000E+00 -0.13013232564E+04  0.13013232564E+04  0.25500000920E-02 0.  1.
    10030    2    1    2    0    0  0.00000000000E+00  0.00000000000E+00 -0.67445250386E+03  0.19281940090E+04  0.18063903112E+04 0.  0.
        5    1    3    3  502    0 -0.12852167057E+03  0.28010788433E+03 -0.12434487074E+04  0.12810796324E+04  0.46999998093E+01 0.  1.
       -5    1    3    3    0  502  0.12852167057E+03 -0.28010788433E+03  0.56899620357E+03  0.64711437656E+03  0.46999998093E+01 0. -1.
</event>
<event>
 5   0  0.3308275E-04  0.2012724E+04  0.7818609E-02  0.8600695E-01
       -1   -1    0    0    0  501  0.00000000000E+00  0.00000000000E+00  0.19778440845E+04  0.19778440845E+04  0.50400001928E-02 0. -1.
        1   -1    0    0  501    0  0.00000000000E+00  0.00000000000E+00 -0.51205477903E+03  0.51205477906E+03  0.50400001928E-02 0.  1.
    10030    2    1    2    0    0  0.00000000000E+00  0.00000000000E+00  0.14657893055E+04  0.24898988636E+04  0.20127240404E+04 0.  0.
        3    1    3    3  502    0  0.78770057058E+03  0.58921657407E+03  0.99565720235E+03  0.13996362509E+04  0.10100000352E+00 0.  1.
       -3    1    3    3    0  502 -0.78770057058E+03 -0.58921657407E+03  0.47013210316E+03  0.10902626127E+04  0.10100000352E+00 0. -1.
</event>
<event>
 5   0  0.3308275E-04  0.1787009E+04  0.7818609E-02  0.8713239E-01
        1   -1    0    0  501    0  0.00000000000E+00  0.00000000000E+00  0.14760795937E+04  0.14760795937E+04  0.50400001928E-02 0.  1.
       -1   -1    0    0    0  501  0.00000000000E+00  0.00000000000E+00 -0.54085842185E+03  0.54085842187E+03  0.50400001928E-02 0. -1.
    10030    2    1    2    0    0  0.00000000000E+00  0.00000000000E+00  0.93522117183E+03  0.20169380156E+04  0.17870087628E+04 0.  0.
        3    1    3    3  502    0 -0.48815023950E+03 -0.12400635535E+02 -0.37693537580E+03  0.61686685745E+03  0.10100000352E+00 0. -1.
       -3    1    3    3    0  502  0.48815023950E+03  0.12400635535E+02  0.13121565476E+04  0.14000711581E+04  0.10100000352E+00 0.  1.
</event>
<event>
 5   0  0.3470962E-04  0.1920871E+04  0.7818609E-02  0.8644537E-01
       -1   -1    0    0    0  501  0.00000000000E+00  0.00000000000E+00  0.85401355103E+03  0.85401355105E+03  0.50400001928E-02 0.  1.
        1   -1    0    0  501    0  0.00000000000E+00  0.00000000000E+00 -0.10801186391E+04  0.10801186391E+04  0.50400001928E-02 0. -1.
    10030    2    1    2    0    0  0.00000000000E+00  0.00000000000E+00 -0.22610508809E+03  0.19341321902E+04  0.19208705886E+04 0.  0.
        4    1    3    3  502    0 -0.30117706760E+03 -0.15579431329E+03 -0.10178412466E+04  0.10728382498E+04  0.12699999809E+01 0. -1.
       -4    1    3    3    0  502  0.30117706760E+03  0.15579431329E+03  0.79173615851E+03  0.86129394036E+03  0.12699999809E+01 0.  1.
</event>
<event>
 5   0  0.3404261E-04  0.1913131E+04  0.7818609E-02  0.8648348E-01
       -1   -1    0    0    0  501  0.00000000000E+00  0.00000000000E+00  0.13160418298E+04  0.13160418298E+04  0.50400001928E-02 0. -1.
        1   -1    0    0  501    0  0.00000000000E+00  0.00000000000E+00 -0.69528004844E+03  0.69528004845E+03  0.50400001928E-02 0.  1.
    10030    2    1    2    0    0  0.00000000000E+00  0.00000000000E+00  0.62076178133E+03  0.20113218782E+04  0.19131310746E+04 0.  0.
        1    1    3    3  502    0  0.22971660086E+03 -0.50912323147E+03  0.11267948698E+04  0.12576338339E+04  0.50400001928E-02 0. -1.
       -1    1    3    3    0  502 -0.22971660086E+03  0.50912323147E+03 -0.50603308846E+03  0.75368804434E+03  0.50400001928E-02 0.  1.
</event>
<event>
 5   0  0.6771967E-04  0.1447962E+04  0.7818609E-02  0.8919815E-01
       -2   -1    0    0    0  501  0.00000000000E+00  0.00000000000E+00  0.53230398471E+03  0.53230398472E+03  0.25500000920E-02 0. -1.
        2   -1    0    0  501    0  0.00000000000E+00  0.00000000000E+00 -0.98467892690E+03  0.98467892690E+03  0.25500000920E-02 0.  1.
    10030    2    1    2    0    0  0.00000000000E+00  0.00000000000E+00 -0.45237494219E+03  0.15169829116E+04  0.14479620388E+04 0.  0.
        1    1    3    3  502    0 -0.22844678649E+03 -0.59128458873E+02  0.49088295690E+03  0.54465602568E+03  0.50400001928E-02 0. -1.
       -1    1    3    3    0  502  0.22844678649E+03  0.59128458873E+02 -0.94325789909E+03  0.97232688594E+03  0.50400001928E-02 0.  1.
</event>
<event>
 5   0  0.6774451E-04  0.1783437E+04  0.7818609E-02  0.8715157E-01
        2   -1    0    0  501    0  0.00000000000E+00  0.00000000000E+00  0.11614529187E+04  0.11614529187E+04  0.25500000920E-02 0. -1.
       -2   -1    0    0    0  501  0.00000000000E+00  0.00000000000E+00 -0.68462696794E+03  0.68462696795E+03  0.25500000920E-02 0.  1.
    10030    2    1    2    0    0  0.00000000000E+00  0.00000000000E+00  0.47682595072E+03  0.18460798866E+04  0.17834371199E+04 0.  0.
        4    1    3    3  502    0 -0.57662947468E+03  0.62178799149E+03 -0.47023530243E+02  0.84931424263E+03  0.12699999809E+01 0.  1.
       -4    1    3    3    0  502  0.57662947468E+03 -0.62178799149E+03  0.52384948096E+03  0.99676564399E+03  0.12699999809E+01 0. -1.
</event>
<event>
 5   0  0.6853162E-04  0.1699586E+04  0.7818609E-02  0.8761600E-01
        2   -1    0    0  501    0  0.00000000000E+00  0.00000000000E+00  0.19650650468E+04  0.19650650468E+04  0.25500000920E-02 0.  1.
       -2   -1    0    0    0  501  0.00000000000E+00  0.00000000000E+00 -0.36749331785E+03  0.36749331786E+03  0.25500000920E-02 0. -1.
    10030    2    1    2    0    0  0.00000000000E+00  0.00000000000E+00  0.15975717289E+04  0.23325583646E+04  0.16995861541E+04 0.  0.
        2    1    3    3  502    0 -0.47588614878E+03  0.40514366982E+03  0.15890218688E+04  0.17075126704E+04  0.25500000920E-02 0.  1.
       -2    1    3    3    0  502  0.47588614878E+03 -0.40514366982E+03  0.85498600736E+01  0.62504569426E+03  0.25500000920E-02 0. -1.
</event>
<event>
 5   0  0.3413839E-04  0.1900803E+04  0.7818609E-02  0.8654457E-01
        1   -1    0    0  501    0  0.00000000000E+00  0.00000000000E+00  0.13342882496E+04  0.13342882496E+04  0.50400001928E-02 0. -1.
       -1   -1    0    0    0  501  0.00000000000E+00  0.00000000000E+00 -0.67696247467E+03  0.67696247469E+03  0.50400001928E-02 0.  1.
    10030    2    1    2    0    0  0.00000000000E+00  0.00000000000E+00  0.65732577495E+03  0.20112507243E+04  0.19008030676E+04 0.  0.
        5    1    3    3  502    0  0.75192966837E+03  0.16486484406E+03  0.91842028300E+03  0.11983724585E+04  0.46999998093E+01 0. -1.
       -5    1    3    3    0  502 -0.75192966837E+03 -0.16486484406E+03 -0.26109450805E+03  0.81287826586E+03  0.46999998093E+01 0.  1.
</event>
<event>
 5   0  0.3308275E-04  0.1814930E+04  0.7818609E-02  0.8698400E-01
       -1   -1    0    0    0  501  0.00000000000E+00  0.00000000000E+00  0.55991324208E+03  0.55991324211E+03  0.50400001928E-02 0.  1.
        1   -1    0    0  501    0  0.00000000000E+00  0.00000000000E+00 -0.14707501944E+04  0.14707501944E+04  0.50400001928E-02 0. -1.
    10030    2    1    2    0    0  0.00000000000E+00  0.00000000000E+00 -0.91083695230E+03  0.20306634365E+04  0.18149297614E+04 0.  0.
        3    1    3    3  502    0  0.72465664907E+02 -0.76248562301E+03  0.89110692834E+02  0.77108775354E+03  0.10100000352E+00 0.  1.
       -3    1    3    3    0  502 -0.72465664907E+02  0.76248562301E+03 -0.99994764514E+03  0.12595756830E+04  0.10100000352E+00 0. -1.
</event>
<event>
 5   0  0.6771967E-04  0.1792633E+04  0.7818609E-02  0.8710227E-01
        2   -1    0    0  501    0  0.00000000000E+00  0.00000000000E+00  0.10957663804E+04  0.10957663805E+04  0.25500000920E-02 0. -1.
       -2   -1    0    0    0  501  0.00000000000E+00  0.00000000000E+00 -0.73317026361E+03  0.73317026361E+03  0.25500000920E-02 0.  1.
    10030    2    1    2    0    0  0.00000000000E+00  0.00000000000E+00  0.36259611684E+03  0.18289366441E+04  0.17926330645E+04 0.  0.
        1    1    3    3  502    0 -0.56367150197E+03 -0.30586752032E+03  0.82016033367E+03  0.10411260611E+04  0.50400001928E-02 0. -1.
       -1    1    3    3    0  502  0.56367150197E+03  0.30586752032E+03 -0.45756421682E+03  0.78781058298E+03  0.50400001928E-02 0.  1.
</event>
<event>
 5   0  0.3470962E-04  0.1810081E+04  0.7818609E-02  0.8700957E-01
        1   -1    0    0  501    0  0.00000000000E+00  0.00000000000E+00  0.11345843139E+04  0.11345843139E+04  0.50400001928E-02 0. -1.
       -1   -1    0    0    0  501  0.00000000000E+00  0.00000000000E+00 -0.72193664976E+03  0.72193664978E+03  0.50400001928E-02 0.  1.
    10030    2    1    2    0    0  0.00000000000E+00  0.00000000000E+00  0.41264766409E+03  0.18565209636E+04  0.18100806595E+04 0.  0.
        4    1    3    3  502    0  0.77002387956E+03 -0.52811030347E+02  0.69107062037E+03  0.10360048240E+04  0.12699999809E+01 0. -1.
       -4    1    3    3    0  502 -0.77002387956E+03  0.52811030347E+02 -0.27842295628E+03  0.82051613969E+03  0.12699999809E+01 0.  1.
</event>
<event>
 5   0  0.3308275E-04  0.1617509E+04  0.7818609E-02  0.8809863E-01
       -1   -1    0    0    0  501  0.00000000000E+00  0.00000000000E+00  0.62166374574E+03  0.62166374576E+03  0.50400001928E-02 0.  1.
        1   -1    0    0  501    0  0.00000000000E+00  0.00000000000E+00 -0.10521511319E+04  0.10521511320E+04  0.50400001928E-02 0. -1.
    10030    2    1    2    0    0  0.00000000000E+00  0.00000000000E+00 -0.43048738620E+03  0.16738148777E+04  0.16175094606E+04 0.  0.
        3    1    3    3  502    0  0.75228229261E+03  0.18698894405E+03  0.23415632410E+02  0.77552679838E+03  0.10100000352E+00 0.  1.
       -3    1    3    3    0  502 -0.75228229261E+03 -0.18698894405E+03 -0.45390301861E+03  0.89828807933E+03  0.10100000352E+00 0. -1.
</event>
<event>
 5   0  0.3404261E-04  0.1731701E+04  0.7818609E-02  0.8743488E-01
        1   -1    0    0  501    0  0.00000000000E+00  0.00000000000E+00  0.63887547440E+03  0.63887547442E+03  0.50400001928E-02 0.  1.
       -1   -1    0    0    0  501  0.00000000000E+00  0.00000000000E+00 -0.11734633792E+04  0.11734633792E+04  0.50400001928E-02 0. -1.
    10030    2    1    2    0    0  0.00000000000E+00  0.00000000000E+00 -0.53458790476E+03  0.18123388536E+04  0.17317008669E+04 0.  0.
        1    1    3    3  502    0  0.13914865638E+03 -0.35754314236E+03  0.54505787298E+03  0.66654897205E+03  0.50400001928E-02 0.  1.
       -1    1    3    3    0  502 -0.13914865638E+03  0.35754314236E+03 -0.10796457777E+04  0.11457898815E+04  0.50400001928E-02 0. -1.
</event>
<event>
 5   0  0.3413839E-04  0.1837385E+04  0.7818609E-02  0.8686668E-01
       -1   -1    0    0    0  501  0.00000000000E+00  0.00000000000E+00  0.91659810619E+03  0.91659810620E+03  0.50400001928E-02 0. -1.
        1   -1    0    0  501    0  0.00000000000E+00  0.00000000000E+00 -0.92079143517E+03  0.92079143518E+03  0.50400001928E-02 0.  1.
    10030    2    1    2    0    0  0.00000000000E+00  0.00000000000E+00 -0.41933289779E+01  0.18373895414E+04  0.18373847563E+04 0.  0.
        5    1    3    3  502    0  0.91491888922E+03 -0.38908534443E+02  0.71273464578E+02  0.91852732385E+03  0.46999998093E+01 0. -1.
       -5    1    3    3    0  502 -0.91491888922E+03  0.38908534443E+02 -0.75466793556E+02  0.91886221754E+03  0.46999998093E+01 0.  1.
</event>
<event>
 5   0  0.3308275E-04  0.1581275E+04  0.7818609E-02  0.8832135E-01
       -1   -1    0    0    0  501  0.00000000000E+00  0.00000000000E+00  0.28144344798E+03  0.28144344802E+03  0.50400001928E-02 0.  1.
        1   -1    0    0  501    0  0.00000000000E+00  0.00000000000E+00 -0.22210760674E+04  0.22210760674E+04  0.50400001928E-02 0. -1.
    10030    2    1    2    0    0  0.00000000000E+00  0.00000000000E+00 -0.19396326194E+04  0.25025195154E+04  0.15812745577E+04 0.  0.
        3    1    3    3  502    0  0.68883092402E+03  0.38808922163E+03 -0.96593631868E+03  0.12482524856E+04  0.10100000352E+00 0. -1.
       -3    1    3    3    0  502 -0.68883092402E+03 -0.38808922163E+03 -0.97369630071E+03  0.12542670298E+04  0.10100000352E+00 0.  1.
</event>
<event>
 5   0  0.6774451E-04  0.1805329E+04  0.7818609E-02  0.8703471E-01
       -2   -1    0    0    0  501  0.00000000000E+00  0.00000000000E+00  0.79281184870E+03  0.79281184870E+03  0.25500000920E-02 0.  1.
        2   -1    0    0  501    0  0.00000000000E+00  0.00000000000E+00 -0.10277378998E+04  0.10277378998E+04  0.25500000920E-02 0. -1.
    10030    2    1    2    0    0  0.00000000000E+00  0.00000000000E+00 -0.23492605112E+03  0.18205497485E+04  0.18053285400E+04 0.  0.
        4    1    3    3  502    0  0.25966159158E+03  0.75052236564E+03  0.31521534548E+03  0.85444150788E+03  0.12699999809E+01 0.  1.
       -4    1    3    3    0  502 -0.25966159158E+03 -0.75052236564E+03 -0.55014139660E+03  0.96610824063E+03  0.12699999809E+01 0. -1.
</event>
<event>
 5   0  0.6771967E-04  0.1865372E+04  0.7818609E-02  0.8672287E-01
        2   -1    0    0  501    0  0.00000000000E+00  0.00000000000E+00  0.20401008483E+04  0.20401008483E+04  0.25500000920E-02 0. -1.
       -2   -1    0    0    0  501  0.00000000000E+00  0.00000000000E+00 -0.42640216101E+03  0.42640216101E+03  0.25500000920E-02 0.  1.
    10030    2    1    2    0    0  0.00000000000E+00  0.00000000000E+00  0.16136986873E+04  0.24665030093E+04  0.18653722528E+04 0.  0.
        1    1    3    3  502    0 -0.66428847888E+02  0.85878677720E+03  0.12798701197E+04  0.15427232558E+04  0.50400001928E-02 0. -1.
       -1    1    3    3    0  502  0.66428847888E+02 -0.85878677720E+03  0.33382856759E+03  0.92377975356E+03  0.50400001928E-02 0.  1.
</event>
<event>
 5   0  0.3470962E-04  0.1827632E+04  0.7818609E-02  0.8691742E-01
       -1   -1    0    0    0  501  0.00000000000E+00  0.00000000000E+00  0.12604382621E+04  0.12604382622E+04  0.50400001928E-02 0.  1.
        1   -1    0    0  501    0  0.00000000000E+00  0.00000000000E+00 -0.66251533261E+03  0.66251533263E+03  0.50400001928E-02 0. -1.
    10030    2    1    2    0    0  0.00000000000E+00  0.00000000000E+00  0.59792292954E+03  0.19229535948E+04  0.18276319920E+04 0.  0.
        4    1    3    3  502    0 -0.47999909075E+03  0.26098087043E+03 -0.47173667364E+03  0.72183602294E+03  0.12699999809E+01 0. -1.
       -4    1    3    3    0  502  0.47999909075E+03 -0.26098087043E+03  0.10696596032E+04  0.12011175719E+04  0.12699999809E+01 0.  1.
</event>
<event>
 5   0  0.6547153E-04  0.1762342E+04  0.7818609E-02  0.8726586E-01
        2   -1    0    0  501    0  0.00000000000E+00  0.00000000000E+00  0.19649254303E+04  0.19649254303E+04  0.25500000920E-02 0.  1.
       -2   -1    0    0    0  501  0.00000000000E+00  0.00000000000E+00 -0.39516108007E+03  0.39516108008E+03  0.25500000920E-02 0. -1.
    10030    2    1    2    0    0  0.00000000000E+00  0.00000000000E+00  0.15697643503E+04  0.23600865104E+04  0.17623416869E+04 0.  0.
        5    1    3    3  502    0  0.21764152478E+01  0.26108952886E+03 -0.34215038008E+03  0.43042008718E+03  0.46999998093E+01 0. -1.
       -5    1    3    3    0  502 -0.21764152478E+01 -0.26108952886E+03  0.19119147303E+04  0.19296664232E+04  0.46999998093E+01 0.  1.
</event>
<event>
 5   0  0.3470962E-04  0.1239089E+04  0.7818609E-02  0.9079313E-01
        1   -1    0    0  501    0  0.00000000000E+00  0.00000000000E+00  0.46955788899E+03  0.46955788902E+03  0.50400001928E-02 0. -1.
       -1   -1    0    0    0  501  0.00000000000E+00  0.00000000000E+00 -0.81744053740E+03  0.81744053742E+03  0.50400001928E-02 0.  1.
    10030    2    1    2    0    0  0.00000000000E+00  0.00000000000E+00 -0.34788264841E+03  0.12869984264E+04  0.12390894288E+04 0.  0.
        4    1    3    3  502    0 -0.14757868298E+03 -0.54816919841E+03 -0.43165808698E+03  0.71316145066E+03  0.12699999809E+01 0.  1.
       -4    1    3    3    0  502  0.14757868298E+03  0.54816919841E+03  0.83775438572E+02  0.57383697577E+03  0.12699999809E+01 0. -1.
</event>
<event>
 5   0  0.3404261E-04  0.1736137E+04  0.7818609E-02  0.8741018E-01
       -1   -1    0    0    0  501  0.00000000000E+00  0.00000000000E+00  0.10290884767E+04  0.10290884767E+04  0.50400001928E-02 0.  1.
        1   -1    0    0  501    0  0.00000000000E+00  0.00000000000E+00 -0.73224322244E+03  0.73224322246E+03  0.50400001928E-02 0. -1.
    10030    2    1    2    0    0  0.00000000000E+00  0.00000000000E+00  0.29684525425E+03  0.17613316992E+04  0.17361371632E+04 0.  0.
        1    1    3    3  502    0  0.79392893974E+03  0.33741650901E+03  0.50219136806E+02  0.86411516804E+03  0.50400001928E-02 0.  1.
       -1    1    3    3    0  502 -0.79392893974E+03 -0.33741650901E+03  0.24662611745E+03  0.89721653113E+03  0.50400001928E-02 0. -1.
</event>
<event>
 5   0  0.3404261E-04  0.1798516E+04  0.7818609E-02  0.8707089E-01
       -1   -1    0    0    0  501  0.00000000000E+00  0.00000000000E+00  0.70626297397E+03  0.70626297399E+03  0.50400001928E-02 0. -1.
        1   -1    0    0  501    0  0.00000000000E+00  0.00000000000E+00 -0.11449918225E+04  0.11449918225E+04  0.50400001928E-02 0.  1.
    10030    2    1    2    0    0  0.00000000000E+00  0.00000000000E+00 -0.43872884850E+03  0.18512547965E+04  0.17985164217E+04 0.  0.
        1    1    3    3  502    0  0.20992633493E+03  0.51409846436E+03 -0.94742350119E+03  0.10981701088E+04  0.50400001928E-02 0.  1.
       -1    1    3    3    0  502 -0.20992633493E+03 -0.51409846436E+03  0.50869465269E+03  0.75308468771E+03  0.50400001928E-02 0. -1.
</event>
<event>
 5   0  0.3308275E-04  0.1799361E+04  0.7818609E-02  0.8706639E-01
        1   -1    0    0  501    0  0.00000000000E+00  0.00000000000E+00  0.55215918614E+03  0.55215918616E+03  0.50400001928E-02 0. -1.
       -1   -1    0    0    0  501  0.00000000000E+00  0.00000000000E+00 -0.14659268120E+04  0.14659268120E+04  0.50400001928E-02 0.  1.
    10030    2    1    2    0    0  0.00000000000E+00  0.00000000000E+00 -0.91376762582E+03  0.20180859981E+04  0.17993609482E+04 0.  0.
        3    1    3    3  502    0  0.42299708996E+03 -0.28608333261E+03  0.37386732323E+03  0.63288782331E+03  0.10100000352E+00 0. -1.
       -3    1    3    3    0  502 -0.42299708996E+03  0.28608333261E+03 -0.12876349491E+04  0.13851981748E+04  0.10100000352E+00 0.  1.
</event>
<event>
 5   0  0.6547153E-04  0.1332627E+04  0.7818609E-02  0.9004085E-01
       -2   -1    0    0    0  501  0.00000000000E+00  0.00000000000E+00  0.65792630694E+03  0.65792630695E+03  0.25500000920E-02 0.  1.
        2   -1    0    0  501    0  0.00000000000E+00  0.00000000000E+00 -0.67480735786E+03  0.67480735786E+03  0.25500000920E-02 0. -1.
    10030    2    1    2    0    0  0.00000000000E+00  0.00000000000E+00 -0.16881050916E+02  0.13327336648E+04  0.13326267487E+04 0.  0.
        5    1    3    3  502    0 -0.25899365435E+03  0.13392188147E+03  0.59072242135E+03  0.65877754395E+03  0.46999998093E+01 0.  1.
       -5    1    3    3    0  502  0.25899365435E+03 -0.13392188147E+03 -0.60760347227E+03  0.67395612086E+03  0.46999998093E+01 0. -1.
</event>
<event>
 5   0  0.6771967E-04  0.1882680E+04  0.7818609E-02  0.8663526E-01
        2   -1    0    0  501    0  0.00000000000E+00  0.00000000000E+00  0.11484053268E+04  0.11484053268E+04  0.25500000920E-02 0. -1.
       -2   -1    0    0    0  501  0.00000000000E+00  0.00000000000E+00 -0.77160989941E+03  0.77160989942E+03  0.25500000920E-02 0.  1.
    10030    2    1    2    0    0  0.00000000000E+00  0.00000000000E+00  0.37679542740E+03  0.19200152262E+04  0.18826799183E+04 0.  0.
        1    1    3    3  502    0 -0.38168921333E+03 -0.23764045316E+03  0.10318178010E+04  0.11255254840E+04  0.50400001928E-02 0. -1.
       -1    1    3    3    0  502  0.38168921333E+03  0.23764045316E+03 -0.65502237364E+03  0.79448974225E+03  0.50400001928E-02 0.  1.
</event>
<event>
 5   0  0.3470962E-04  0.1813291E+04  0.7818609E-02  0.8699263E-01
        1   -1    0    0  501    0  0.00000000000E+00  0.00000000000E+00  0.72043393281E+03  0.72043393283E+03  0.50400001928E-02 0. -1.
       -1   -1    0    0    0  501  0.00000000000E+00  0.00000000000E+00 -0.11409880336E+04  0.11409880336E+04  0.50400001928E-02 0.  1.
    10030    2    1    2    0    0  0.00000000000E+00  0.00000000000E+00 -0.42055410074E+03  0.18614219664E+04  0.18132914783E+04 0.  0.
        4    1    3    3  502    0  0.38489413402E+03  0.66980273039E+03 -0.69745337929E+03  0.10407795258E+04  0.12699999809E+01 0.  1.
       -4    1    3    3    0  502 -0.38489413402E+03 -0.66980273039E+03  0.27689927855E+03  0.82064244065E+03  0.12699999809E+01 0. -1.
</event>
<event>
 5   0  0.3308275E-04  0.1885766E+04  0.7818609E-02  0.8661974E-01
        1   -1    0    0  501    0  0.00000000000E+00  0.00000000000E+00  0.11651787269E+04  0.11651787269E+04  0.50400001928E-02 0.  1.
       -1   -1    0    0    0  501  0.00000000000E+00  0.00000000000E+00 -0.76299717044E+03  0.76299717045E+03  0.50400001928E-02 0. -1.
    10030    2    1    2    0    0  0.00000000000E+00  0.00000000000E+00  0.40218155649E+03  0.19281758974E+04  0.18857657031E+04 0.  0.
        3    1    3    3  502    0 -0.76160872984E+03 -0.26072327674E+03 -0.30087101402E+03  0.85938807397E+03  0.10100000352E+00 0. -1.
       -3    1    3    3    0  502  0.76160872984E+03  0.26072327674E+03  0.70305257051E+03  0.10687878234E+04  0.10100000352E+00 0.  1.
</event>
<event>
 5   0  0.6547153E-04  0.1787810E+04  0.7818609E-02  0.8712809E-01
        2   -1    0    0  501    0  0.00000000000E+00  0.00000000000E+00  0.89088199418E+03  0.89088199418E+03  0.25500000920E-02 0. -1.
       -2   -1    0    0    0  501  0.00000000000E+00  0.00000000000E+00 -0.89693791368E+03  0.89693791369E+03  0.25500000920E-02 0.  1.
    10030    2    1    2    0    0  0.00000000000E+00  0.00000000000E+00 -0.60559195045E+01  0.17878199079E+04  0.17878096512E+04 0.  0.
        5    1    3    3  502    0 -0.49187965567E+03  0.56433800054E+03 -0.49151901457E+03  0.89556462983E+03  0.46999998093E+01 0.  1.
       -5    1    3    3    0  502  0.49187965567E+03 -0.56433800054E+03  0.48546309507E+03  0.89225527804E+03  0.46999998093E+01 0. -1.
</event>
<event>
 5   0  0.3308275E-04  0.1828991E+04  0.7818609E-02  0.8691033E-01
        1   -1    0    0  501    0  0.00000000000E+00  0.00000000000E+00  0.21927337692E+04  0.21927337692E+04  0.50400001928E-02 0.  1.
       -1   -1    0    0    0  501  0.00000000000E+00  0.00000000000E+00 -0.38139692061E+03  0.38139692065E+03  0.50400001928E-02 0. -1.
    10030    2    1    2    0    0  0.00000000000E+00  0.00000000000E+00  0.18113368486E+04  0.25741306899E+04  0.18289908774E+04 0.  0.
        3    1    3    3  502    0  0.25045610582E+03  0.60799504402E+02  0.21405625984E+04  0.21560225158E+04  0.10100000352E+00 0.  1.
       -3    1    3    3    0  502 -0.25045610582E+03 -0.60799504402E+02 -0.32922574982E+03  0.41810817407E+03  0.10100000352E+00 0. -1.
</event>
<event>
 5   0  0.3308275E-04  0.1827509E+04  0.7818609E-02  0.8691806E-01
       -1   -1    0    0    0  501  0.00000000000E+00  0.00000000000E+00  0.65827370721E+03  0.65827370723E+03  0.50400001928E-02 0. -1.
        1   -1    0    0  501    0  0.00000000000E+00  0.00000000000E+00 -0.12683893367E+04  0.12683893367E+04  0.50400001928E-02 0.  1.
    10030    2    1    2    0    0  0.00000000000E+00  0.00000000000E+00 -0.61011562950E+03  0.19266630439E+04  0.18275090707E+04 0.  0.
        3    1    3    3  502    0 -0.32985278715E+03 -0.74651343577E+03 -0.73828171556E+03  0.11005203645E+04  0.10100000352E+00 0.  1.
       -3    1    3    3    0  502  0.32985278715E+03  0.74651343577E+03  0.12816608606E+03  0.82614267944E+03  0.10100000352E+00 0. -1.
</event>
<event>
 5   0  0.6774451E-04  0.1892246E+04  0.7818609E-02  0.8658726E-01
        2   -1    0    0  501    0  0.00000000000E+00  0.00000000000E+00  0.64674248029E+03  0.64674248029E+03  0.25500000920E-02 0.  1.
       -2   -1    0    0    0  501  0.00000000000E+00  0.00000000000E+00 -0.13840879977E+04  0.13840879977E+04  0.25500000920E-02 0. -1.
    10030    2    1    2    0    0  0.00000000000E+00  0.00000000000E+00 -0.73734551745E+03  0.20308304780E+04  0.18922457606E+04 0.  0.
        4    1    3    3  502    0  0.71268941917E+03  0.61880851652E+03 -0.29832280464E+03  0.98987286911E+03  0.12699999809E+01 0.  1.
       -4    1    3    3    0  502 -0.71268941917E+03 -0.61880851652E+03 -0.43902271282E+03  0.10409576089E+04  0.12699999809E+01 0. -1.
</event>
<event>
 5   0  0.6853162E-04  0.1778089E+04  0.7818609E-02  0.8718039E-01
       -2   -1    0    0    0  501  0.00000000000E+00  0.00000000000E+00  0.10463804115E+04  0.10463804115E+04  0.25500000920E-02 0.  1.
        2   -1    0    0  501    0  0.00000000000E+00  0.00000000000E+00 -0.75536585333E+03  0.75536585333E+03  0.25500000920E-02 0. -1.
    10030    2    1    2    0    0  0.00000000000E+00  0.00000000000E+00  0.29101455814E+03  0.18017462648E+04  0.17780888981E+04 0.  0.
        2    1    3    3  502    0  0.70695975139E+03 -0.53752486892E+03  0.18697804649E+03  0.90757141023E+03  0.25500000920E-02 0.  1.
       -2    1    3    3    0  502 -0.70695975139E+03  0.53752486892E+03  0.10403651165E+03  0.89417485457E+03  0.25500000920E-02 0. -1.
</event>
<event>
 5   0  0.3377273E-04  0.2248668E+04  0.7818609E-02  0.8498440E-01
        1   -1    0    0  501    0  0.00000000000E+00  0.00000000000E+00  0.18739268556E+04  0.18739268556E+04  0.50400001928E-02 0. -1.
       -1   -1    0    0    0  501  0.00000000000E+00  0.00000000000E+00 -0.67458711007E+03  0.67458711009E+03  0.50400001928E-02 0.  1.
    10030    2    1    2    0    0  0.00000000000E+00  0.00000000000E+00  0.11993397456E+04  0.25485139657E+04  0.22486679631E+04 0.  0.
        2    1    3    3  502    0  0.14950831411E+03 -0.14035141326E+03  0.18525534893E+04  0.18638684733E+04  0.25500000920E-02 0. -1.
       -2    1    3    3    0  502 -0.14950831411E+03  0.14035141326E+03 -0.65321374376E+03  0.68464549238E+03  0.25500000920E-02 0.  1.
</event>
<event>
 5   0  0.6853162E-04  0.1780017E+04  0.7818609E-02  0.8716999E-01
       -2   -1    0    0    0  501  0.00000000000E+00  0.00000000000E+00  0.34007158605E+03  0.34007158606E+03  0.25500000920E-02 0.  1.
        2   -1    0    0  501    0  0.00000000000E+00  0.00000000000E+00 -0.23292591604E+04  0.23292591604E+04  0.25500000920E-02 0. -1.
    10030    2    1    2    0    0  0.00000000000E+00  0.00000000000E+00 -0.19891875743E+04  0.26693307465E+04  0.17800166932E+04 0.  0.
        2    1    3    3  502    0  0.80838809379E+03  0.14271452381E+03 -0.15102854508E+04  0.17189592457E+04  0.25500000920E-02 0. -1.
       -2    1    3    3    0  502 -0.80838809379E+03 -0.14271452381E+03 -0.47890212350E+03  0.95037150072E+03  0.25500000920E-02 0.  1.
</event>
<event>
 5   0  0.3377273E-04  0.1831593E+04  0.7818609E-02  0.8689677E-01
        1   -1    0    0  501    0  0.00000000000E+00  0.00000000000E+00  0.16621128626E+04  0.16621128626E+04  0.50400001928E-02 0. -1.
       -1   -1    0    0    0  501  0.00000000000E+00  0.00000000000E+00 -0.50458863094E+03  0.50458863096E+03  0.50400001928E-02 0.  1.
    10030    2    1    2    0    0  0.00000000000E+00  0.00000000000E+00  0.11575242317E+04  0.21667014936E+04  0.18315930267E+04 0.  0.
        2    1    3    3  502    0 -0.11011850994E+03  0.59756373876E+03 -0.23178118187E+03  0.65033147270E+03  0.25500000920E-02 0.  1.
       -2    1    3    3    0  502  0.11011850994E+03 -0.59756373876E+03  0.13893054136E+04  0.15163700209E+04  0.25500000920E-02 0. -1.
</event>
<event>
 5   0  0.2467375E-04  0.1817527E+04  0.7818609E-02  0.8697034E-01
        3   -1    0    0  501    0  0.00000000000E+00  0.00000000000E+00  0.14197202282E+04  0.14197202318E+04  0.10100000352E+00 0. -1.
       -3   -1    0    0    0  501  0.00000000000E+00  0.00000000000E+00 -0.58169968928E+03  0.58169969805E+03  0.10100000352E+00 0.  1.
    10030    2    1    2    0    0  0.00000000000E+00  0.00000000000E+00  0.83802053890E+03  0.20014199298E+04  0.18175267018E+04 0.  0.
        1    1    3    3  502    0  0.95660803357E+02 -0.89802452835E+03  0.30751481358E+03  0.95402536833E+03  0.50400001928E-02 0.  1.
       -1    1    3    3    0  502 -0.95660803357E+02  0.89802452835E+03  0.53050572532E+03  0.10473945615E+04  0.50400001928E-02 0. -1.
</event>
<event>
 5   0  0.3404261E-04  0.1414889E+04  0.7818609E-02  0.8943111E-01
       -1   -1    0    0    0  501  0.00000000000E+00  0.00000000000E+00  0.47017054352E+03  0.47017054355E+03  0.50400001928E-02 0.  1.
        1   -1    0    0  501    0  0.00000000000E+00  0.00000000000E+00 -0.10644594274E+04  0.10644594274E+04  0.50400001928E-02 0. -1.
    10030    2    1    2    0    0  0.00000000000E+00  0.00000000000E+00 -0.59428888386E+03  0.15346299709E+04  0.14148886423E+04 0.  0.
        1    1    3    3  502    0 -0.38003902312E+03 -0.21949845636E+03 -0.89896061809E+03  0.10003696439E+04  0.50400001928E-02 0. -1.
       -1    1    3    3    0  502  0.38003902312E+03  0.21949845636E+03  0.30467173423E+03  0.53426032709E+03  0.50400001928E-02 0.  1.
</event>
<event>
 5   0  0.6853162E-04  0.1791657E+04  0.7818609E-02  0.8710749E-01
        2   -1    0    0  501    0  0.00000000000E+00  0.00000000000E+00  0.11009310165E+04  0.11009310165E+04  0.25500000920E-02 0. -1.
       -2   -1    0    0    0  501  0.00000000000E+00  0.00000000000E+00 -0.72893630076E+03  0.72893630076E+03  0.25500000920E-02 0.  1.
    10030    2    1    2    0    0  0.00000000000E+00  0.00000000000E+00  0.37199471572E+03  0.18298673172E+04  0.17916568673E+04 0.  0.
        2    1    3    3  502    0 -0.17398293964E+03  0.32084229139E+03  0.10215518274E+04  0.10847939782E+04  0.25500000920E-02 0. -1.
       -2    1    3    3    0  502  0.17398293964E+03 -0.32084229139E+03 -0.64955711163E+03  0.74507333901E+03  0.25500000920E-02 0.  1.
</event>
<event>
 5   0  0.6774451E-04  0.1788650E+04  0.7818609E-02  0.8712359E-01
       -2   -1    0    0    0  501  0.00000000000E+00  0.00000000000E+00  0.11016801954E+04  0.11016801954E+04  0.25500000920E-02 0. -1.
        2   -1    0    0  501    0  0.00000000000E+00  0.00000000000E+00 -0.72599757100E+03  0.72599757101E+03  0.25500000920E-02 0.  1.
    10030    2    1    2    0    0  0.00000000000E+00  0.00000000000E+00  0.37568262441E+03  0.18276777664E+04  0.17886499332E+04 0.  0.
        4    1    3    3  502    0 -0.74677855807E+03  0.95437824778E+02 -0.30542244622E+03  0.81244758399E+03  0.12699999809E+01 0.  1.
       -4    1    3    3    0  502  0.74677855807E+03 -0.95437824778E+02  0.68110507063E+03  0.10152301824E+04  0.12699999809E+01 0. -1.
</event>
<event>
 5   0  0.6771967E-04  0.1596144E+04  0.7818609E-02  0.8822921E-01
       -2   -1    0    0    0  501  0.00000000000E+00  0.00000000000E+00  0.84808473968E+03  0.84808473968E+03  0.25500000920E-02 0.  1.
        2   -1    0    0  501    0  0.00000000000E+00  0.00000000000E+00 -0.75100837467E+03  0.75100837467E+03  0.25500000920E-02 0. -1.
    10030    2    1    2    0    0  0.00000000000E+00  0.00000000000E+00  0.97076365012E+02  0.15990931144E+04  0.15961437804E+04 0.  0.
        1    1    3    3  502    0 -0.36325278510E+03 -0.70221875298E+03 -0.60543577712E+02  0.79292451580E+03  0.50400001928E-02 0.  1.
       -1    1    3    3    0  502  0.36325278510E+03  0.70221875298E+03  0.15761994272E+03  0.80616859856E+03  0.50400001928E-02 0. -1.
</event>
<event>
 5   0  0.6771967E-04  0.1733540E+04  0.7818609E-02  0.8742463E-01
       -2   -1    0    0    0  501  0.00000000000E+00  0.00000000000E+00  0.42524952883E+03  0.42524952884E+03  0.25500000920E-02 0.  1.
        2   -1    0    0  501    0  0.00000000000E+00  0.00000000000E+00 -0.17667034864E+04  0.17667034864E+04  0.25500000920E-02 0. -1.
    10030    2    1    2    0    0  0.00000000000E+00  0.00000000000E+00 -0.13414539576E+04  0.21919530152E+04  0.17335395296E+04 0.  0.
        1    1    3    3  502    0 -0.84334603571E+03  0.19084431124E+03 -0.59448506552E+03  0.10493171971E+04  0.50400001928E-02 0. -1.
       -1    1    3    3    0  502  0.84334603571E+03 -0.19084431124E+03 -0.74696889203E+03  0.11426358181E+04  0.50400001928E-02 0.  1.
</event>
<event>
 5   0  0.3377273E-04  0.1801243E+04  0.7818609E-02  0.8705639E-01
        1   -1    0    0  501    0  0.00000000000E+00  0.00000000000E+00  0.78831478738E+03  0.78831478740E+03  0.50400001928E-02 0. -1.
       -1   -1    0    0    0  501  0.00000000000E+00  0.00000000000E+00 -0.10289274710E+04  0.10289274711E+04  0.50400001928E-02 0.  1.
    10030    2    1    2    0    0  0.00000000000E+00  0.00000000000E+00 -0.24061268366E+03  0.18172422585E+04  0.18012426162E+04 0.  0.
        2    1    3    3  502    0 -0.84140193416E+02  0.33760576272E+03 -0.95838449228E+03  0.10195871999E+04  0.25500000920E-02 0.  1.
       -2    1    3    3    0  502  0.84140193416E+02 -0.33760576272E+03  0.71777180861E+03  0.79765505854E+03  0.25500000920E-02 0. -1.
</event>
<event>
 5   0  0.2467375E-04  0.1779240E+04  0.7818609E-02  0.8717418E-01
       -4   -1    0    0    0  501  0.00000000000E+00  0.00000000000E+00  0.99929190558E+03  0.99929271261E+03  0.12699999809E+01 0. -1.
        4   -1    0    0  501    0  0.00000000000E+00  0.00000000000E+00 -0.79198265112E+03  0.79198366939E+03  0.12699999809E+01 0.  1.
    10030    2    1    2    0    0  0.00000000000E+00  0.00000000000E+00  0.20730925446E+03  0.17912763820E+04  0.17792397111E+04 0.  0.
        1    1    3    3  502    0 -0.18058767566E+03  0.13995389837E+03 -0.76194350050E+03  0.79546018144E+03  0.50400001928E-02 0.  1.
       -1    1    3    3    0  502  0.18058767566E+03 -0.13995389837E+03  0.96925275496E+03  0.99581620056E+03  0.50400001928E-02 0. -1.
</event>
<event>
 5   0  0.6771967E-04  0.1826847E+04  0.7818609E-02  0.8692151E-01
       -2   -1    0    0    0  501  0.00000000000E+00  0.00000000000E+00  0.88484252607E+03  0.88484252607E+03  0.25500000920E-02 0.  1.
        2   -1    0    0  501    0  0.00000000000E+00  0.00000000000E+00 -0.94292807093E+03  0.94292807093E+03  0.25500000920E-02 0. -1.
    10030    2    1    2    0    0  0.00000000000E+00  0.00000000000E+00 -0.58085544856E+02  0.18277705970E+04  0.18268474005E+04 0.  0.
        1    1    3    3  502    0 -0.79586373132E+03  0.26087671181E+03 -0.39376384584E+03  0.92547593373E+03  0.50400001928E-02 0. -1.
       -1    1    3    3    0  502  0.79586373132E+03 -0.26087671181E+03  0.33567830098E+03  0.90229466327E+03  0.50400001928E-02 0.  1.
</event>
<event>
 5   0  0.6547153E-04  0.1799354E+04  0.7818609E-02  0.8706643E-01
        2   -1    0    0  501    0  0.00000000000E+00  0.00000000000E+00  0.22081856865E+04  0.22081856865E+04  0.25500000920E-02 0.  1.
       -2   -1    0    0    0  501  0.00000000000E+00  0.00000000000E+00 -0.36655354424E+03  0.36655354425E+03  0.25500000920E-02 0. -1.
    10030    2    1    2    0    0  0.00000000000E+00  0.00000000000E+00  0.18416321423E+04  0.25747392308E+04  0.17993535392E+04 0.  0.
        5    1    3    3  502    0 -0.69537910409E+02  0.31054816547E+03 -0.28330549934E+03  0.42609832201E+03  0.46999998093E+01 0. -1.
       -5    1    3    3    0  502  0.69537910409E+02 -0.31054816547E+03  0.21249376416E+04  0.21486409088E+04  0.46999998093E+01 0.  1.
</event>
<event>
 5   0  0.6774451E-04  0.1797786E+04  0.7818609E-02  0.8707478E-01
        2   -1    0    0  501    0  0.00000000000E+00  0.00000000000E+00  0.20974380988E+04  0.20974380988E+04  0.25500000920E-02 0. -1.
       -2   -1    0    0    0  501  0.00000000000E+00  0.00000000000E+00 -0.38523614029E+03  0.38523614030E+03  0.25500000920E-02 0.  1.
    10030    2    1    2    0    0  0.00000000000E+00  0.00000000000E+00  0.17122019585E+04  0.24826742391E+04  0.17977863696E+04 0.  0.
        4    1    3    3  502    0  0.77155938692E+03 -0.46112663591E+03  0.86729298126E+03  0.12490557994E+04  0.12699999809E+01 0. -1.
       -4    1    3    3    0  502 -0.77155938692E+03  0.46112663591E+03  0.84490897725E+03  0.12336184396E+04  0.12699999809E+01 0.  1.
</event>
<event>
 5   0  0.3404261E-04  0.1836097E+04  0.7818609E-02  0.8687336E-01
        1   -1    0    0  501    0  0.00000000000E+00  0.00000000000E+00  0.13476903703E+04  0.13476903703E+04  0.50400001928E-02 0. -1.
       -1   -1    0    0    0  501  0.00000000000E+00  0.00000000000E+00 -0.62537578970E+03  0.62537578972E+03  0.50400001928E-02 0.  1.
    10030    2    1    2    0    0  0.00000000000E+00  0.00000000000E+00  0.72231458062E+03  0.19730661600E+04  0.18360968707E+04 0.  0.
        1    1    3    3  502    0  0.77308002127E+03  0.26326678235E+03  0.81178536594E+03  0.11515023223E+04  0.50400001928E-02 0. -1.
       -1    1    3    3    0  502 -0.77308002127E+03 -0.26326678235E+03 -0.89470785321E+02  0.82156383770E+03  0.50400001928E-02 0.  1.
</event>
<event>
 5   0  0.6929121E-04  0.1827602E+04  0.7818609E-02  0.8691757E-01
        2   -1    0    0  501    0  0.00000000000E+00  0.00000000000E+00  0.19639333619E+04  0.19639333619E+04  0.25500000920E-02 0. -1.
       -2   -1    0    0    0  501  0.00000000000E+00  0.00000000000E+00 -0.42518350843E+03  0.42518350844E+03  0.25500000920E-02 0.  1.
    10030    2    1    2    0    0  0.00000000000E+00  0.00000000000E+00  0.15387498535E+04  0.23891168703E+04  0.18276017916E+04 0.  0.
        3    1    3    3  502    0 -0.17107461344E+03 -0.88845237882E+03  0.60187492727E+03  0.10866773169E+04  0.10100000352E+00 0.  1.
       -3    1    3    3    0  502  0.17107461344E+03  0.88845237882E+03  0.93687492619E+03  0.13024395534E+04  0.10100000352E+00 0. -1.
</event>
<event>
 5   0  0.6771967E-04  0.1837387E+04  0.7818609E-02  0.8686666E-01
        2   -1    0    0  501    0  0.00000000000E+00  0.00000000000E+00  0.25968180458E+04  0.25968180458E+04  0.25500000920E-02 0. -1.
       -2   -1    0    0    0  501  0.00000000000E+00  0.00000000000E+00 -0.32501240440E+03  0.32501240441E+03  0.25500000920E-02 0.  1.
    10030    2    1    2    0    0  0.00000000000E+00  0.00000000000E+00  0.22718056414E+04  0.29218304502E+04  0.18373873591E+04 0.  0.
        1    1    3    3  502    0 -0.18534487892E+03  0.59621220856E+03  0.22075863274E+04  0.22941793990E+04  0.50400001928E-02 0. -1.
       -1    1    3    3    0  502  0.18534487892E+03 -0.59621220856E+03  0.64219313992E+02  0.62765105122E+03  0.50400001928E-02 0.  1.
</event>
<event>
 5   0  0.3470962E-04  0.1815846E+04  0.7818609E-02  0.8697918E-01
       -1   -1    0    0    0  501  0.00000000000E+00  0.00000000000E+00  0.18528419008E+04  0.18528419009E+04  0.50400001928E-02 0.  1.
        1   -1    0    0  501    0  0.00000000000E+00  0.00000000000E+00 -0.44489698483E+03  0.44489698486E+03  0.50400001928E-02 0. -1.
    10030    2    1    2    0    0  0.00000000000E+00  0.00000000000E+00  0.14079449160E+04  0.22977388857E+04  0.18158455607E+04 0.  0.
        4    1    3    3  502    0  0.12385565710E+03 -0.51145335375E+03 -0.23223723381E+03  0.57520474835E+03  0.12699999809E+01 0. -1.
       -4    1    3    3    0  502 -0.12385565710E+03  0.51145335375E+03  0.16401821498E+04  0.17225341374E+04  0.12699999809E+01 0.  1.
</event>
<event>
 5   0  0.6929121E-04  0.1933938E+04  0.7818609E-02  0.8638145E-01
        2   -1    0    0  501    0  0.00000000000E+00  0.00000000000E+00  0.15111036597E+04  0.15111036597E+04  0.25500000920E-02 0. -1.
       -2   -1    0    0    0  501  0.00000000000E+00  0.00000000000E+00 -0.61877223053E+03  0.61877223054E+03  0.25500000920E-02 0.  1.
    10030    2    1    2    0    0  0.00000000000E+00  0.00000000000E+00  0.89233142920E+03  0.21298758903E+04  0.19339379329E+04 0.  0.
        3    1    3    3  502    0  0.73073566910E+03  0.12844270728E+02 -0.25114131038E+03  0.77279464372E+03  0.10100000352E+00 0.  1.
       -3    1    3    3    0  502 -0.73073566910E+03 -0.12844270728E+02  0.11434727396E+04  0.13570812466E+04  0.10100000352E+00 0. -1.
</event>
<event>
 5   0  0.6771967E-04  0.1790968E+04  0.7818609E-02  0.8711117E-01
       -2   -1    0    0    0  501  0.00000000000E+00  0.00000000000E+00  0.62634577186E+03  0.62634577187E+03  0.25500000920E-02 0.  1.
        2   -1    0    0  501    0  0.00000000000E+00  0.00000000000E+00 -0.12802705016E+04  0.12802705016E+04  0.25500000920E-02 0. -1.
    10030    2    1    2    0    0  0.00000000000E+00  0.00000000000E+00 -0.65392472970E+03  0.19066162734E+04  0.17909684704E+04 0.  0.
        1    1    3    3  502    0  0.15005970604E+03 -0.53459051294E+03 -0.10748859842E+04  0.12098284221E+04  0.50400001928E-02 0. -1.
       -1    1    3    3    0  502 -0.15005970604E+03  0.53459051294E+03  0.42096125451E+03  0.69678785131E+03  0.50400001928E-02 0.  1.
</event>
<event>
 5   0  0.3377273E-04  0.1784012E+04  0.7818609E-02  0.8714848E-01
       -1   -1    0    0    0  501  0.00000000000E+00  0.00000000000E+00  0.10270567401E+04  0.10270567401E+04  0.50400001928E-02 0.  1.
        1   -1    0    0  501    0  0.00000000000E+00  0.00000000000E+00 -0.77471362806E+03  0.77471362808E+03  0.50400001928E-02 0. -1.
    10030    2    1    2    0    0  0.00000000000E+00  0.00000000000E+00  0.25234311202E+03  0.18017703682E+04  0.17840121674E+04 0.  0.
        2    1    3    3  502    0  0.57636772205E+03  0.67456265099E+03  0.33385781190E+02  0.88789026998E+03  0.25500000920E-02 0. -1.
       -2    1    3    3    0  502 -0.57636772205E+03 -0.67456265099E+03  0.21895733083E+03  0.91388009819E+03  0.25500000920E-02 0.  1.
</event>
<event>
 5   0  0.6547153E-04  0.1812344E+04  0.7818609E-02  0.8699762E-01
        2   -1    0    0  501    0  0.00000000000E+00  0.00000000000E+00  0.12827593077E+04  0.12827593077E+04  0.25500000920E-02 0. -1.
       -2   -1    0    0    0  501  0.00000000000E+00  0.00000000000E+00 -0.64014195142E+03  0.64014195142E+03  0.25500000920E-02 0.  1.
    10030    2    1    2    0    0  0.00000000000E+00  0.00000000000E+00  0.64261735627E+03  0.19229012591E+04  0.18123443894E+04 0.  0.
        5    1    3    3  502    0  0.53290682274E+03 -0.10334910497E+03  0.10911424892E+04  0.12187225857E+04  0.46999998093E+01 0. -1.
       -5    1    3    3    0  502 -0.53290682274E+03  0.10334910497E+03 -0.44852513292E+03  0.70417867340E+03  0.46999998093E+01 0.  1.
</event>
<event>
 5   0  0.3404261E-04  0.1907036E+04  0.7818609E-02  0.8651362E-01
        1   -1    0    0  501    0  0.00000000000E+00  0.00000000000E+00  0.18543936961E+04  0.18543936961E+04  0.50400001928E-02 0.  1.
       -1   -1    0    0    0  501  0.00000000000E+00  0.00000000000E+00 -0.49029313113E+03  0.49029313116E+03  0.50400001928E-02 0. -1.
    10030    2    1    2    0    0  0.00000000000E+00  0.00000000000E+00  0.13641005650E+04  0.23446868273E+04  0.19070359112E+04 0.  0.
        1    1    3    3  502    0 -0.48732227409E+03  0.19713125973E+03  0.16601368875E+04  0.17413782523E+04  0.50400001928E-02 0.  1.
       -1    1    3    3    0  502  0.48732227409E+03 -0.19713125973E+03 -0.29603632250E+03  0.60330857498E+03  0.50400001928E-02 0. -1.
</event>
<event>
 5   0  0.6771967E-04  0.1753375E+04  0.7818609E-02  0.8731495E-01
        2   -1    0    0  501    0  0.00000000000E+00  0.00000000000E+00  0.44397962698E+03  0.44397962699E+03  0.25500000920E-02 0.  1.
       -2   -1    0    0    0  501  0.00000000000E+00  0.00000000000E+00 -0.17311168122E+04  0.17311168122E+04  0.25500000920E-02 0. -1.
    10030    2    1    2    0    0  0.00000000000E+00  0.00000000000E+00 -0.12871371852E+04  0.21750964392E+04  0.17533745710E+04 0.  0.
        1    1    3    3  502    0  0.22529857886E+03  0.17827446387E+03 -0.16710603131E+04  0.16955777198E+04  0.50400001928E-02 0. -1.
       -1    1    3    3    0  502 -0.22529857886E+03 -0.17827446387E+03  0.38392312784E+03  0.47951871936E+03  0.50400001928E-02 0.  1.
</event>
<event>
 5   0  0.6853162E-04  0.1727657E+04  0.7818609E-02  0.8745746E-01
       -2   -1    0    0    0  501  0.00000000000E+00  0.00000000000E+00  0.42660176994E+03  0.42660176995E+03  0.25500000920E-02 0. -1.
        2   -1    0    0  501    0  0.00000000000E+00  0.00000000000E+00 -0.17491707697E+04  0.17491707697E+04  0.25500000920E-02 0.  1.
    10030    2    1    2    0    0  0.00000000000E+00  0.00000000000E+00 -0.13225689997E+04  0.21757725396E+04  0.17276566167E+04 0.  0.
        2    1    3    3  502    0  0.33001230997E+03  0.77597197594E+03 -0.89742612878E+03  0.12314277440E+04  0.25500000920E-02 0.  1.
       -2    1    3    3    0  502 -0.33001230997E+03 -0.77597197594E+03 -0.42514287094E+03  0.94434479556E+03  0.25500000920E-02 0. -1.
</event>
<event>
 5   0  0.3413839E-04  0.1703440E+04  0.7818609E-02  0.8759405E-01
        1   -1    0    0  501    0  0.00000000000E+00  0.00000000000E+00  0.91058258714E+03  0.91058258715E+03  0.50400001928E-02 0. -1.
       -1   -1    0    0    0  501  0.00000000000E+00  0.00000000000E+00 -0.79666246739E+03  0.79666246741E+03  0.50400001928E-02 0.  1.
    10030    2    1    2    0    0  0.00000000000E+00  0.00000000000E+00  0.11392011975E+03  0.17072450546E+04  0.17034400144E+04 0.  0.
        5    1    3    3  502    0 -0.22141534036E+03  0.28257941661E+03 -0.71711807409E+03  0.80197026243E+03  0.46999998093E+01 0.  1.
       -5    1    3    3    0  502  0.22141534036E+03 -0.28257941661E+03  0.83103819384E+03  0.90527479212E+03  0.46999998093E+01 0. -1.
</event>
<event>
 5   0  0.3308275E-04  0.1885434E+04  0.7818609E-02  0.8662141E-01
        1   -1    0    0  501    0  0.00000000000E+00  0.00000000000E+00  0.69797431523E+03  0.69797431525E+03  0.50400001928E-02 0. -1.
       -1   -1    0    0    0  501  0.00000000000E+00  0.00000000000E+00 -0.12732774477E+04  0.12732774477E+04  0.50400001928E-02 0.  1.
    10030    2    1    2    0    0  0.00000000000E+00  0.00000000000E+00 -0.57530313243E+03  0.19712517629E+04  0.18854335890E+04 0.  0.
        3    1    3    3  502    0  0.73679754454E+02  0.52319619823E+03  0.52862292863E+03  0.74739894229E+03  0.10100000352E+00 0. -1.
       -3    1    3    3    0  502 -0.73679754454E+02 -0.52319619823E+03 -0.11039260611E+04  0.12238528206E+04  0.10100000352E+00 0.  1.
</event>
<event>
 5   0  0.6929121E-04  0.1812746E+04  0.7818609E-02  0.8699551E-01
       -2   -1    0    0    0  501  0.00000000000E+00  0.00000000000E+00  0.51475897495E+03  0.51475897495E+03  0.25500000920E-02 0.  1.
        2   -1    0    0  501    0  0.00000000000E+00  0.00000000000E+00 -0.15959151780E+04  0.15959151780E+04  0.25500000920E-02 0. -1.
    10030    2    1    2    0    0  0.00000000000E+00  0.00000000000E+00 -0.10811562031E+04  0.21106741530E+04  0.18127456095E+04 0.  0.
        3    1    3    3  502    0 -0.48460737205E+03 -0.65148057598E+02  0.34801639058E+03  0.60016996990E+03  0.10100000352E+00 0.  1.
       -3    1    3    3    0  502  0.48460737205E+03  0.65148057598E+02 -0.14291725936E+04  0.15105041831E+04  0.10100000352E+00 0. -1.
</event>
<event>
 5   0  0.6547153E-04  0.1827049E+04  0.7818609E-02  0.8692046E-01
       -2   -1    0    0    0  501  0.00000000000E+00  0.00000000000E+00  0.49520084887E+03  0.49520084888E+03  0.25500000920E-02 0.  1.
        2   -1    0    0  501    0  0.00000000000E+00  0.00000000000E+00 -0.16852299049E+04  0.16852299049E+04  0.25500000920E-02 0. -1.
    10030    2    1    2    0    0  0.00000000000E+00  0.00000000000E+00 -0.11900290561E+04  0.21804307538E+04  0.18270492927E+04 0.  0.
        5    1    3    3  502    0 -0.64722182755E+03 -0.14411310133E+03  0.15488466485E+03  0.68093761053E+03  0.46999998093E+01 0.  1.
       -5    1    3    3    0  502  0.64722182755E+03  0.14411310133E+03 -0.13449137209E+04  0.14994931433E+04  0.46999998093E+01 0. -1.
</event>
<event>
 5   0  0.3413839E-04  0.1500499E+04  0.7818609E-02  0.8884121E-01
        1   -1    0    0  501    0  0.00000000000E+00  0.00000000000E+00  0.43765218661E+03  0.43765218664E+03  0.50400001928E-02 0. -1.
       -1   -1    0    0    0  501  0.00000000000E+00  0.00000000000E+00 -0.12861226328E+04  0.12861226328E+04  0.50400001928E-02 0.  1.
    10030    2    1    2    0    0  0.00000000000E+00  0.00000000000E+00 -0.84847044617E+03  0.17237748194E+04  0.15004990937E+04 0.  0.
        5    1    3    3  502    0  0.57093346174E+03  0.42590940510E+03 -0.69484663366E+03  0.99508681701E+03  0.46999998093E+01 0.  1.
       -5    1    3    3    0  502 -0.57093346174E+03 -0.42590940510E+03 -0.15362381251E+03  0.72868800241E+03  0.46999998093E+01 0. -1.
</event>
<event>
 5   0  0.6771967E-04  0.1781877E+04  0.7818609E-02  0.8715997E-01
        2   -1    0    0  501    0  0.00000000000E+00  0.00000000000E+00  0.80144364417E+03  0.80144364418E+03  0.25500000920E-02 0. -1.
       -2   -1    0    0    0  501  0.00000000000E+00  0.00000000000E+00 -0.99042703265E+03  0.99042703265E+03  0.25500000920E-02 0.  1.
    10030    2    1    2    0    0  0.00000000000E+00  0.00000000000E+00 -0.18898338848E+03  0.17918706768E+04  0.17818770444E+04 0.  0.
        1    1    3    3  502    0 -0.54789137764E+03  0.70253257745E+03 -0.88587971885E+02  0.89531268999E+03  0.50400001928E-02 0.  1.
       -1    1    3    3    0  502  0.54789137764E+03 -0.70253257745E+03 -0.10039541659E+03  0.89655798684E+03  0.50400001928E-02 0. -1.
</event>
<event>
 5   0  0.3404261E-04  0.1864178E+04  0.7818609E-02  0.8672896E-01
       -1   -1    0    0    0  501  0.00000000000E+00  0.00000000000E+00  0.62166682751E+03  0.62166682754E+03  0.50400001928E-02 0. -1.
        1   -1    0    0  501    0  0.00000000000E+00  0.00000000000E+00 -0.13975162047E+04  0.13975162047E+04  0.50400001928E-02 0.  1.
    10030    2    1    2    0    0  0.00000000000E+00  0.00000000000E+00 -0.77584937717E+03  0.20191830322E+04  0.18641775295E+04 0.  0.
        1    1    3    3  502    0  0.14318711442E+03  0.89142790686E+03 -0.63879297768E+03  0.11059849598E+04  0.50400001928E-02 0. -1.
       -1    1    3    3    0  502 -0.14318711442E+03 -0.89142790686E+03 -0.13705639949E+03  0.91319807246E+03  0.50400001928E-02 0.  1.
</event>
<event>
 5   0  0.6929121E-04  0.1639068E+04  0.7818609E-02  0.8796900E-01
       -2   -1    0    0    0  501  0.00000000000E+00  0.00000000000E+00  0.33754818193E+03  0.33754818194E+03  0.25500000920E-02 0. -1.
        2   -1    0    0  501    0  0.00000000000E+00  0.00000000000E+00 -0.19897472551E+04  0.19897472551E+04  0.25500000920E-02 0.  1.
    10030    2    1    2    0    0  0.00000000000E+00  0.00000000000E+00 -0.16521990731E+04  0.23272954370E+04  0.16390675013E+04 0.  0.
        3    1    3    3  502    0 -0.30740248114E+03  0.59924240637E+03 -0.14891255140E+04  0.16343446863E+04  0.10100000352E+00 0. -1.
       -3    1    3    3    0  502  0.30740248114E+03 -0.59924240637E+03 -0.16307355911E+03  0.69295075069E+03  0.10100000352E+00 0.  1.
</event>
<event>
 5   0  0.6774451E-04  0.1740210E+04  0.7818609E-02  0.8738758E-01
        2   -1    0    0  501    0  0.00000000000E+00  0.00000000000E+00  0.20505371011E+04  0.20505371011E+04  0.25500000920E-02 0. -1.
       -2   -1    0    0    0  501  0.00000000000E+00  0.00000000000E+00 -0.36921170304E+03  0.36921170305E+03  0.25500000920E-02 0.  1.
    10030    2    1    2    0    0  0.00000000000E+00  0.00000000000E+00  0.16813253981E+04  0.24197488042E+04  0.17402095222E+04 0.  0.
        4    1    3    3  502    0  0.54096726473E+03  0.23492393747E+03 -0.48867880086E+02  0.59179770235E+03  0.12699999809E+01 0.  1.
       -4    1    3    3    0  502 -0.54096726473E+03 -0.23492393747E+03  0.17301932782E+04  0.18279511018E+04  0.12699999809E+01 0. -1.
</event>
<event>
 5   0  0.6853162E-04  0.1670924E+04  0.7818609E-02  0.8778123E-01
       -2   -1    0    0    0  501  0.00000000000E+00  0.00000000000E+00  0.57266883390E+03  0.57266883391E+03  0.25500000920E-02 0. -1.
        2   -1    0    0  501    0  0.00000000000E+00  0.00000000000E+00 -0.12188489682E+04  0.12188489682E+04  0.25500000920E-02 0.  1.
    10030    2    1    2    0    0  0.00000000000E+00  0.00000000000E+00 -0.64618013428E+03  0.17915178021E+04  0.16709240765E+04 0.  0.
        2    1    3    3  502    0 -0.76676554957E+02 -0.80919249805E+03 -0.53023030040E+03  0.97047203177E+03  0.25500000920E-02 0.  1.
       -2    1    3    3    0  502  0.76676554957E+02  0.80919249805E+03 -0.11594983388E+03  0.82104577033E+03  0.25500000920E-02 0. -1.
</event>
<event>
 5   0  0.6853162E-04  0.1794481E+04  0.7818609E-02  0.8709240E-01
        2   -1    0    0  501    0  0.00000000000E+00  0.00000000000E+00  0.68413898863E+03  0.68413898863E+03  0.25500000920E-02 0.  1.
       -2   -1    0    0    0  501  0.00000000000E+00  0.00000000000E+00 -0.11767201893E+04  0.11767201893E+04  0.25500000920E-02 0. -1.
    10030    2    1    2    0    0  0.00000000000E+00  0.00000000000E+00 -0.49258120068E+03  0.18608591779E+04  0.17944806048E+04 0.  0.
        2    1    3    3  502    0  0.78899760284E+03 -0.31719503776E+03 -0.54307691316E+03  0.10089908042E+04  0.25500000920E-02 0. -1.
       -2    1    3    3    0  502 -0.78899760284E+03  0.31719503776E+03  0.50495712481E+02  0.85186837379E+03  0.25500000920E-02 0.  1.
</event>
<event>
 5   0  0.6771967E-04  0.1718015E+04  0.7818609E-02  0.8751156E-01
        2   -1    0    0  501    0  0.00000000000E+00  0.00000000000E+00  0.10976561858E+04  0.10976561858E+04  0.25500000920E-02 0. -1.
       -2   -1    0    0    0  501  0.00000000000E+00  0.00000000000E+00 -0.67224462894E+03  0.67224462894E+03  0.25500000920E-02 0.  1.
    10030    2    1    2    0    0  0.00000000000E+00  0.00000000000E+00  0.42541155690E+03  0.17699008148E+04  0.17180145231E+04 0.  0.
        1    1    3    3  502    0  0.22664294795E+03  0.66152261420E+03  0.72668670738E+03  0.10084903399E+04  0.50400001928E-02 0. -1.
       -1    1    3    3    0  502 -0.22664294795E+03 -0.66152261420E+03 -0.30127515048E+03  0.76141047489E+03  0.50400001928E-02 0.  1.
</event>
<event>
 5   0  0.3413839E-04  0.1753227E+04  0.7818609E-02  0.8731576E-01
        1   -1    0    0  501    0  0.00000000000E+00  0.00000000000E+00  0.12170272751E+04  0.12170272752E+04  0.50400001928E-02 0. -1.
       -1   -1    0    0    0  501  0.00000000000E+00  0.00000000000E+00 -0.63141632072E+03  0.63141632074E+03  0.50400001928E-02 0.  1.
    10030    2    1    2    0    0  0.00000000000E+00  0.00000000000E+00  0.58561095443E+03  0.18484435959E+04  0.17532266075E+04 0.  0.
        5    1    3    3  502    0 -0.12556328245E+03  0.64119271009E+03 -0.32334314451E+03  0.72901790682E+03  0.46999998093E+01 0.  1.
       -5    1    3    3    0  502  0.12556328245E+03 -0.64119271009E+03  0.90895409893E+03  0.11194256891E+04  0.46999998093E+01 0. -1.
</event>
<event>
 5   0  0.3404261E-04  0.1817236E+04  0.7818609E-02  0.8697187E-01
        1   -1    0    0  501    0  0.00000000000E+00  0.00000000000E+00  0.11093864643E+04  0.11093864643E+04  0.50400001928E-02 0. -1.
       -1   -1    0    0    0  501  0.00000000000E+00  0.00000000000E+00 -0.74418284209E+03  0.74418284210E+03  0.50400001928E-02 0.  1.
    10030    2    1    2    0    0  0.00000000000E+00  0.00000000000E+00  0.36520362218E+03  0.18535693064E+04  0.18172356721E+04 0.  0.
        1    1    3    3  502    0 -0.55393678939E+03  0.20316905051E+03 -0.52220050069E+03  0.78791940747E+03  0.50400001928E-02 0.  1.
       -1    1    3    3    0  502  0.55393678939E+03 -0.20316905051E+03  0.88740412287E+03  0.10656498989E+04  0.50400001928E-02 0. -1.
</event>
<event>
 5   0  0.6771967E-04  0.1869343E+04  0.7818609E-02  0.8670268E-01
        2   -1    0    0  501    0  0.00000000000E+00  0.00000000000E+00  0.77074648735E+03  0.77074648735E+03  0.25500000920E-02 0.  1.
       -2   -1    0    0    0  501  0.00000000000E+00  0.00000000000E+00 -0.11334610246E+04  0.11334610246E+04  0.25500000920E-02 0. -1.
    10030    2    1    2    0    0  0.00000000000E+00  0.00000000000E+00 -0.36271453724E+03  0.19042075119E+04  0.18693433106E+04 0.  0.
        1    1    3    3  502    0 -0.84255421651E+03  0.37160393146E+03 -0.34441777392E+03  0.98316361439E+03  0.50400001928E-02 0. -1.
       -1    1    3    3    0  502  0.84255421651E+03 -0.37160393146E+03 -0.18296763317E+02  0.92104389755E+03  0.50400001928E-02 0.  1.
</event>
<event>
 5   0  0.3377273E-04  0.1797041E+04  0.7818609E-02  0.8707875E-01
       -1   -1    0    0    0  501  0.00000000000E+00  0.00000000000E+00  0.57529799781E+03  0.57529799784E+03  0.50400001928E-02 0. -1.
        1   -1    0    0  501    0  0.00000000000E+00  0.00000000000E+00 -0.14033401607E+04  0.14033401607E+04  0.50400001928E-02 0.  1.
    10030    2    1    2    0    0  0.00000000000E+00  0.00000000000E+00 -0.82804216288E+03  0.19786381585E+04  0.17970406615E+04 0.  0.
        2    1    3    3  502    0 -0.68378346215E+03  0.46123328620E+03 -0.80647035941E+03  0.11535555505E+04  0.25500000920E-02 0.  1.
       -2    1    3    3    0  502  0.68378346215E+03 -0.46123328620E+03 -0.21571803465E+02  0.82508260806E+03  0.25500000920E-02 0. -1.
</event>
<event>
 5   0  0.3308275E-04  0.1893649E+04  0.7818609E-02  0.8658024E-01
       -1   -1    0    0    0  501  0.00000000000E+00  0.00000000000E+00  0.10050208014E+04  0.10050208014E+04  0.50400001928E-02 0.  1.
        1   -1    0    0  501    0  0.00000000000E+00  0.00000000000E+00 -0.89199836252E+03  0.89199836254E+03  0.50400001928E-02 0. -1.
    10030    2    1    2    0    0  0.00000000000E+00  0.00000000000E+00  0.11302243890E+03  0.18970191640E+04  0.18936492909E+04 0.  0.
        3    1    3    3  502    0  0.28566259851E+03  0.59202578597E+02  0.95887432325E+03  0.10022714420E+04  0.10100000352E+00 0.  1.
       -3    1    3    3    0  502 -0.28566259851E+03 -0.59202578597E+02 -0.84585188434E+03  0.89474772196E+03  0.10100000352E+00 0. -1.
</event>
<event>
 5   0  0.3470962E-04  0.1755552E+04  0.7818609E-02  0.8730300E-01
       -1   -1    0    0    0  501  0.00000000000E+00  0.00000000000E+00  0.52206573030E+03  0.52206573032E+03  0.50400001928E-02 0.  1.
        1   -1    0    0  501    0  0.00000000000E+00  0.00000000000E+00 -0.14758497445E+04  0.14758497445E+04  0.50400001928E-02 0. -1.
    10030    2    1    2    0    0  0.00000000000E+00  0.00000000000E+00 -0.95378401422E+03  0.19979154748E+04  0.17555518502E+04 0.  0.
        4    1    3    3  502    0  0.17304725559E+03  0.85190509211E+03 -0.61534862555E+03  0.10650554833E+04  0.12699999809E+01 0. -1.
       -4    1    3    3    0  502 -0.17304725559E+03 -0.85190509211E+03 -0.33843538867E+03  0.93285999155E+03  0.12699999809E+01 0.  1.
</event>
<event>
 5   0  0.6771967E-04  0.1821487E+04  0.7818609E-02  0.8694956E-01
        2   -1    0    0  501    0  0.00000000000E+00  0.00000000000E+00  0.18070278082E+04  0.18070278082E+04  0.25500000920E-02 0.  1.
       -2   -1    0    0    0  501  0.00000000000E+00  0.00000000000E+00 -0.45901559679E+03  0.45901559680E+03  0.25500000920E-02 0. -1.
    10030    2    1    2    0    0  0.00000000000E+00  0.00000000000E+00  0.13480122114E+04  0.22660434050E+04  0.18214872471E+04 0.  0.
        1    1    3    3  502    0 -0.68441346024E+03  0.37913779712E+03  0.94098699230E+02  0.78804937599E+03  0.50400001928E-02 0. -1.
       -1    1    3    3    0  502  0.68441346024E+03 -0.37913779712E+03  0.12539135122E+04  0.14779940290E+04  0.50400001928E-02 0.  1.
</event>
<event>
 5   0  0.3377273E-04  0.2173604E+04  0.7818609E-02  0.8529496E-01
       -1   -1    0    0    0  501  0.00000000000E+00  0.00000000000E+00  0.13582653517E+04  0.13582653517E+04  0.50400001928E-02 0. -1.
        1   -1    0    0  501    0  0.00000000000E+00  0.00000000000E+00 -0.86959351486E+03  0.86959351488E+03  0.50400001928E-02 0.  1.
    10030    2    1    2    0    0  0.00000000000E+00  0.00000000000E+00  0.48867183679E+03  0.22278588665E+04  0.21736041418E+04 0.  0.
        2    1    3    3  502    0 -0.41970908517E+02  0.71251769528E+03  0.10843634343E+04  0.12981860733E+04  0.25500000920E-02 0. -1.
       -2    1    3    3    0  502  0.41970908517E+02 -0.71251769528E+03 -0.59569159747E+03  0.92967279328E+03  0.25500000920E-02 0.  1.
</event>
<event>
 5   0  0.3308275E-04  0.1755093E+04  0.7818609E-02  0.8730552E-01
       -1   -1    0    0    0  501  0.00000000000E+00  0.00000000000E+00  0.84949793920E+03  0.84949793922E+03  0.50400001928E-02 0.  1.
        1   -1    0    0  501    0  0.00000000000E+00  0.00000000000E+00 -0.90652137083E+03  0.90652137084E+03  0.50400001928E-02 0. -1.
    10030    2    1    2    0    0  0.00000000000E+00  0.00000000000E+00 -0.57023431626E+02  0.17560193101E+04  0.17550932014E+04 0.  0.
        3    1    3    3  502    0  0.68281952991E+03  0.40310822538E+03 -0.40467455963E+03  0.89022483745E+03  0.10100000352E+00 0. -1.
       -3    1    3    3    0  502 -0.68281952991E+03 -0.40310822538E+03  0.34765112801E+03  0.86579447261E+03  0.10100000352E+00 0.  1.
</event>
<event>
 5   0  0.3413839E-04  0.1797109E+04  0.7818609E-02  0.8707838E-01
        1   -1    0    0  501    0  0.00000000000E+00  0.00000000000E+00  0.62937746416E+03  0.62937746418E+03  0.50400001928E-02 0. -1.
       -1   -1    0    0    0  501  0.00000000000E+00  0.00000000000E+00 -0.12828553455E+04  0.12828553455E+04  0.50400001928E-02 0.  1.
    10030    2    1    2    0    0  0.00000000000E+00  0.00000000000E+00 -0.65347788130E+03  0.19122328096E+04  0.17971090609E+04 0.  0.
        5    1    3    3  502    0  0.14324965982E+02  0.51046635191E+03  0.45994443839E+03  0.68727874803E+03  0.46999998093E+01 0. -1.
       -5    1    3    3    0  502 -0.14324965982E+02 -0.51046635191E+03 -0.11134223197E+04  0.12249540616E+04  0.46999998093E+01 0.  1.
</event>
<event>
 5   0  0.6771967E-04  0.1846112E+04  0.7818609E-02  0.8682155E-01
        2   -1    0    0  501    0  0.00000000000E+00  0.00000000000E+00  0.96958286506E+03  0.96958286506E+03  0.25500000920E-02 0. -1.
       -2   -1    0    0    0  501  0.00000000000E+00  0.00000000000E+00 -0.87876167871E+03  0.87876167872E+03  0.25500000920E-02 0.  1.
    10030    2    1    2    0    0  0.00000000000E+00  0.00000000000E+00  0.90821186343E+02  0.18483445438E+04  0.18461118776E+04 0.  0.
        1    1    3    3  502    0  0.45018821605E+02  0.71338124486E+03 -0.53932720913E+03  0.89544030139E+03  0.50400001928E-02 0.  1.
       -1    1    3    3    0  502 -0.45018821605E+02 -0.71338124486E+03  0.63014839548E+03  0.95290424239E+03  0.50400001928E-02 0. -1.
</event>
<event>
 5   0  0.2467375E-04  0.1774347E+04  0.7818609E-02  0.8720061E-01
       -3   -1    0    0    0  501  0.00000000000E+00  0.00000000000E+00  0.10546295987E+04  0.10546296035E+04  0.10100000352E+00 0. -1.
        3   -1    0    0  501    0  0.00000000000E+00  0.00000000000E+00 -0.74630664591E+03  0.74630665274E+03  0.10100000352E+00 0.  1.
    10030    2    1    2    0    0  0.00000000000E+00  0.00000000000E+00  0.30832295277E+03  0.18009362563E+04  0.17743473042E+04 0.  0.
        5    1    3    3  502    0  0.71038306155E+03 -0.39744164443E+03  0.51222409429E+03  0.96176897831E+03  0.46999998093E+01 0.  1.
       -5    1    3    3    0  502 -0.71038306155E+03  0.39744164443E+03 -0.20390114152E+03  0.83916727795E+03  0.46999998093E+01 0. -1.
</event>
<event>
 5   0  0.3413839E-04  0.1836627E+04  0.7818609E-02  0.8687061E-01
        1   -1    0    0  501    0  0.00000000000E+00  0.00000000000E+00  0.12910446616E+04  0.12910446616E+04  0.50400001928E-02 0. -1.
       -1   -1    0    0    0  501  0.00000000000E+00  0.00000000000E+00 -0.65319150408E+03  0.65319150410E+03  0.50400001928E-02 0.  1.
    10030    2    1    2    0    0  0.00000000000E+00  0.00000000000E+00  0.63785315750E+03  0.19442361657E+04  0.18366266952E+04 0.  0.
        5    1    3    3  502    0 -0.83635421596E+03  0.33323664597E+03  0.12737639716E+03  0.90927546614E+03  0.46999998093E+01 0.  1.
       -5    1    3    3    0  502  0.83635421596E+03 -0.33323664597E+03  0.51047676034E+03  0.10349606996E+04  0.46999998093E+01 0. -1.
</event>
<event>
 5   0  0.6853162E-04  0.1844332E+04  0.7818609E-02  0.8683073E-01
       -2   -1    0    0    0  501  0.00000000000E+00  0.00000000000E+00  0.39206882669E+03  0.39206882670E+03  0.25500000920E-02 0.  1.
        2   -1    0    0  501    0  0.00000000000E+00  0.00000000000E+00 -0.21689808450E+04  0.21689808450E+04  0.25500000920E-02 0. -1.
    10030    2    1    2    0    0  0.00000000000E+00  0.00000000000E+00 -0.17769120184E+04  0.25610496717E+04  0.18443316134E+04 0.  0.
        2    1    3    3  502    0 -0.77846990869E+03 -0.78274662274E+02 -0.15662428378E+04  0.17507880935E+04  0.25500000920E-02 0. -1.
       -2    1    3    3    0  502  0.77846990869E+03  0.78274662274E+02 -0.21066918056E+03  0.81026157822E+03  0.25500000920E-02 0.  1.
</event>
<event>
 5   0  0.3377273E-04  0.9276721E+03  0.7818609E-02  0.9391636E-01
       -1   -1    0    0    0  501  0.00000000000E+00  0.00000000000E+00  0.88913660704E+03  0.88913660706E+03  0.50400001928E-02 0. -1.
        1   -1    0    0  501    0  0.00000000000E+00  0.00000000000E+00 -0.24196945490E+03  0.24196945495E+03  0.50400001928E-02 0.  1.
    10030    2    1    2    0    0  0.00000000000E+00  0.00000000000E+00  0.64716715214E+03  0.11311060620E+04  0.92767214074E+03 0.  0.
        2    1    3    3  502    0  0.29412673524E+03  0.52890258693E+02 -0.10894144993E+03  0.31808199473E+03  0.25500000920E-02 0.  1.
       -2    1    3    3    0  502 -0.29412673524E+03 -0.52890258693E+02  0.75610860207E+03  0.81302406728E+03  0.25500000920E-02 0. -1.
</event>
<event>
 5   0  0.6547153E-04  0.1691828E+04  0.7818609E-02  0.8766039E-01
       -2   -1    0    0    0  501  0.00000000000E+00  0.00000000000E+00  0.46845178516E+03  0.46845178517E+03  0.25500000920E-02 0. -1.
        2   -1    0    0  501    0  0.00000000000E+00  0.00000000000E+00 -0.15275229397E+04  0.15275229397E+04  0.25500000920E-02 0.  1.
    10030    2    1    2    0    0  0.00000000000E+00  0.00000000000E+00 -0.10590711546E+04  0.19959747249E+04  0.16918284168E+04 0.  0.
        5    1    3    3  502    0  0.33517936655E+03  0.25241012257E+03 -0.13960813351E+04  0.14577795656E+04  0.46999998093E+01 0.  1.
       -5    1    3    3    0  502 -0.33517936655E+03 -0.25241012257E+03  0.33701018051E+03  0.53819515930E+03  0.46999998093E+01 0. -1.
</event>
<event>
 5   0  0.6774451E-04  0.1786930E+04  0.7818609E-02  0.8713281E-01
       -2   -1    0    0    0  501  0.00000000000E+00  0.00000000000E+00  0.38054752507E+03  0.38054752508E+03  0.25500000920E-02 0. -1.
        2   -1    0    0  501    0  0.00000000000E+00  0.00000000000E+00 -0.20977139835E+04  0.20977139835E+04  0.25500000920E-02 0.  1.
    10030    2    1    2    0    0  0.00000000000E+00  0.00000000000E+00 -0.17171664584E+04  0.24782615086E+04  0.17869301774E+04 0.  0.
        4    1    3    3  502    0 -0.61849390876E+03 -0.62994226458E+03 -0.10493300968E+04  0.13712976471E+04  0.12699999809E+01 0.  1.
       -4    1    3    3    0  502  0.61849390876E+03  0.62994226458E+03 -0.66783636158E+03  0.11069638615E+04  0.12699999809E+01 0. -1.
</event>
<event>
 5   0  0.6774451E-04  0.1782154E+04  0.7818609E-02  0.8715848E-01
        2   -1    0    0  501    0  0.00000000000E+00  0.00000000000E+00  0.14954760465E+04  0.14954760465E+04  0.25500000920E-02 0. -1.
       -2   -1    0    0    0  501  0.00000000000E+00  0.00000000000E+00 -0.53094665552E+03  0.53094665553E+03  0.25500000920E-02 0.  1.
    10030    2    1    2    0    0  0.00000000000E+00  0.00000000000E+00  0.96452939098E+03  0.20264227020E+04  0.17821537591E+04 0.  0.
        4    1    3    3  502    0  0.21915379200E+03  0.73574511811E+03 -0.32144732907E+02  0.76836460103E+03  0.12699999809E+01 0.  1.
       -4    1    3    3    0  502 -0.21915379200E+03 -0.73574511811E+03  0.99667412389E+03  0.12580581010E+04  0.12699999809E+01 0. -1.
</event>
<event>
 5   0  0.3413839E-04  0.1732418E+04  0.7818609E-02  0.8743088E-01
        1   -1    0    0  501    0  0.00000000000E+00  0.00000000000E+00  0.97747687250E+03  0.97747687251E+03  0.50400001928E-02 0. -1.
       -1   -1    0    0    0  501  0.00000000000E+00  0.00000000000E+00 -0.76760720810E+03  0.76760720812E+03  0.50400001928E-02 0.  1.
    10030    2    1    2    0    0  0.00000000000E+00  0.00000000000E+00  0.20986966440E+03  0.17450840806E+04  0.17324183018E+04 0.  0.
        5    1    3    3  502    0  0.43083545482E+03  0.12299203672E+03 -0.64180133961E+03  0.78273704380E+03  0.46999998093E+01 0.  1.
       -5    1    3    3    0  502 -0.43083545482E+03 -0.12299203672E+03  0.85167100401E+03  0.96234703683E+03  0.46999998093E+01 0. -1.
</event>
<event>
 5   0  0.3413839E-04  0.1798006E+04  0.7818609E-02  0.8707361E-01
       -1   -1    0    0    0  501  0.00000000000E+00  0.00000000000E+00  0.13080363171E+04  0.13080363172E+04  0.50400001928E-02 0.  1.
        1   -1    0    0  501    0  0.00000000000E+00  0.00000000000E+00 -0.61787771494E+03  0.61787771496E+03  0.50400001928E-02 0. -1.
    10030    2    1    2    0    0  0.00000000000E+00  0.00000000000E+00  0.69015860221E+03  0.19259140321E+04  0.17980061076E+04 0.  0.
        5    1    3    3  502    0 -0.33948931764E+03 -0.55512374918E+03  0.10095040292E+04  0.12010561388E+04  0.46999998093E+01 0. -1.
       -5    1    3    3    0  502  0.33948931764E+03  0.55512374918E+03 -0.31934542698E+03  0.72485789327E+03  0.46999998093E+01 0.  1.
</event>
<event>
 5   0  0.3413839E-04  0.1700233E+04  0.7818609E-02  0.8761232E-01
       -1   -1    0    0    0  501  0.00000000000E+00  0.00000000000E+00  0.13577326024E+04  0.13577326024E+04  0.50400001928E-02 0.  1.
        1   -1    0    0  501    0  0.00000000000E+00  0.00000000000E+00 -0.53228284179E+03  0.53228284182E+03  0.50400001928E-02 0. -1.
    10030    2    1    2    0    0  0.00000000000E+00  0.00000000000E+00  0.82544976056E+03  0.18900154442E+04  0.17002326523E+04 0.  0.
        5    1    3    3  502    0 -0.81302805637E+03  0.12381404431E+03  0.65199776954E+03  0.10495083227E+04  0.46999998093E+01 0.  1.
       -5    1    3    3    0  502  0.81302805637E+03 -0.12381404431E+03  0.17345199102E+03  0.84050712144E+03  0.46999998093E+01 0. -1.
</event>
<event>
 5   0  0.6774451E-04  0.1763286E+04  0.7818609E-02  0.8726071E-01
       -2   -1    0    0    0  501  0.00000000000E+00  0.00000000000E+00  0.82246173308E+03  0.82246173309E+03  0.25500000920E-02 0. -1.
        2   -1    0    0  501    0  0.00000000000E+00  0.00000000000E+00 -0.94508321344E+03  0.94508321344E+03  0.25500000920E-02 0.  1.
    10030    2    1    2    0    0  0.00000000000E+00  0.00000000000E+00 -0.12262148036E+03  0.17675449465E+04  0.17632864516E+04 0.  0.
        4    1    3    3  502    0 -0.37926776405E+03  0.12381014824E+03  0.72679420947E+03  0.82909856198E+03  0.12699999809E+01 0. -1.
       -4    1    3    3    0  502  0.37926776405E+03 -0.12381014824E+03 -0.84941568983E+03  0.93844638455E+03  0.12699999809E+01 0.  1.
</event>
<event>
 5   0  0.6547153E-04  0.1698033E+04  0.7818609E-02  0.8762487E-01
       -2   -1    0    0    0  501  0.00000000000E+00  0.00000000000E+00  0.48943557040E+03  0.48943557041E+03  0.25500000920E-02 0. -1.
        2   -1    0    0  501    0  0.00000000000E+00  0.00000000000E+00 -0.14727753471E+04  0.14727753471E+04  0.25500000920E-02 0.  1.
    10030    2    1    2    0    0  0.00000000000E+00  0.00000000000E+00 -0.98333977673E+03  0.19622109175E+04  0.16980325581E+04 0.  0.
        5    1    3    3  502    0 -0.41007998163E+03  0.62033909625E+03 -0.18276697241E+02  0.74386982284E+03  0.46999998093E+01 0. -1.
       -5    1    3    3    0  502  0.41007998163E+03 -0.62033909625E+03 -0.96506307949E+03  0.12183410947E+04  0.46999998093E+01 0.  1.
</event>
<event>
 5   0  0.3308275E-04  0.1815287E+04  0.7818609E-02  0.8698212E-01
       -1   -1    0    0    0  501  0.00000000000E+00  0.00000000000E+00  0.66438696631E+03  0.66438696633E+03  0.50400001928E-02 0.  1.
        1   -1    0    0  501    0  0.00000000000E+00  0.00000000000E+00 -0.12399654122E+04  0.12399654122E+04  0.50400001928E-02 0. -1.
    10030    2    1    2    0    0  0.00000000000E+00  0.00000000000E+00 -0.57557844591E+03  0.19043523786E+04  0.18152871493E+04 0.  0.
        3    1    3    3  502    0 -0.46272059535E+03 -0.73508104878E+02 -0.11032993815E+04  0.11986589700E+04  0.10100000352E+00 0. -1.
       -3    1    3    3    0  502  0.46272059535E+03  0.73508104878E+02  0.52772093560E+03  0.70569340858E+03  0.10100000352E+00 0.  1.
</event>
<event>
 5   0  0.6774451E-04  0.1845551E+04  0.7818609E-02  0.8682444E-01
       -2   -1    0    0    0  501  0.00000000000E+00  0.00000000000E+00  0.73488011430E+03  0.73488011430E+03  0.25500000920E-02 0.  1.
        2   -1    0    0  501    0  0.00000000000E+00  0.00000000000E+00 -0.11587127859E+04  0.11587127859E+04  0.25500000920E-02 0. -1.
    10030    2    1    2    0    0  0.00000000000E+00  0.00000000000E+00 -0.42383267165E+03  0.18935929002E+04  0.18455513914E+04 0.  0.
        4    1    3    3  502    0 -0.30944277009E+03  0.84345810349E+02  0.67584912153E+03  0.74809270259E+03  0.12699999809E+01 0.  1.
       -4    1    3    3    0  502  0.30944277009E+03 -0.84345810349E+02 -0.10996817932E+04  0.11455001977E+04  0.12699999809E+01 0. -1.
</event>
<event>
 5   0  0.6771967E-04  0.1796775E+04  0.7818609E-02  0.8708016E-01
        2   -1    0    0  501    0  0.00000000000E+00  0.00000000000E+00  0.14508991366E+04  0.14508991366E+04  0.25500000920E-02 0. -1.
       -2   -1    0    0    0  501  0.00000000000E+00  0.00000000000E+00 -0.55627606800E+03  0.55627606800E+03  0.25500000920E-02 0.  1.
    10030    2    1    2    0    0  0.00000000000E+00  0.00000000000E+00  0.89462306861E+03  0.20071752046E+04  0.17967754081E+04 0.  0.
        1    1    3    3  502    0  0.36357818413E+03  0.61085370563E+03  0.10609730486E+04  0.12771042070E+04  0.50400001928E-02 0. -1.
       -1    1    3    3    0  502 -0.36357818413E+03 -0.61085370563E+03 -0.16634998001E+03  0.73007099759E+03  0.50400001928E-02 0.  1.
</event>
<event>
 5   0  0.3308275E-04  0.1605871E+04  0.7818609E-02  0.8816950E-01
       -1   -1    0    0    0  501  0.00000000000E+00  0.00000000000E+00  0.59174659781E+03  0.59174659783E+03  0.50400001928E-02 0. -1.
        1   -1    0    0  501    0  0.00000000000E+00  0.00000000000E+00 -0.10894950955E+04  0.10894950955E+04  0.50400001928E-02 0.  1.
    10030    2    1    2    0    0  0.00000000000E+00  0.00000000000E+00 -0.49774849772E+03  0.16812416934E+04  0.16058705006E+04 0.  0.
        3    1    3    3  502    0  0.22309889325E+03 -0.27628766842E+03  0.50506202219E+03  0.61741043752E+03  0.10100000352E+00 0. -1.
       -3    1    3    3    0  502 -0.22309889325E+03  0.27628766842E+03 -0.10028105199E+04  0.10638312559E+04  0.10100000352E+00 0.  1.
</event>
<event>
 5   0  0.6929121E-04  0.1794531E+04  0.7818609E-02  0.8709213E-01
       -2   -1    0    0    0  501  0.00000000000E+00  0.00000000000E+00  0.67060413136E+03  0.67060413136E+03  0.25500000920E-02 0. -1.
        2   -1    0    0  501    0  0.00000000000E+00  0.00000000000E+00 -0.12005380120E+04  0.12005380120E+04  0.25500000920E-02 0.  1.
    10030    2    1    2    0    0  0.00000000000E+00  0.00000000000E+00 -0.52993388060E+03  0.18711421433E+04  0.17945314159E+04 0.  0.
        3    1    3    3  502    0  0.49461102385E+03  0.59452222676E+02 -0.10430906617E+04  0.11559466988E+04  0.10100000352E+00 0.  1.
       -3    1    3    3    0  502 -0.49461102385E+03 -0.59452222676E+02  0.51315678110E+03  0.71519544454E+03  0.10100000352E+00 0. -1.
</event>
<event>
 5   0  0.3308275E-04  0.1802928E+04  0.7818609E-02  0.8704744E-01
        1   -1    0    0  501    0  0.00000000000E+00  0.00000000000E+00  0.14795309139E+04  0.14795309139E+04  0.50400001928E-02 0.  1.
       -1   -1    0    0    0  501  0.00000000000E+00  0.00000000000E+00 -0.54925319663E+03  0.54925319666E+03  0.50400001928E-02 0. -1.
    10030    2    1    2    0    0  0.00000000000E+00  0.00000000000E+00  0.93027771731E+03  0.20287841106E+04  0.18029277124E+04 0.  0.
        3    1    3    3  502    0  0.15304881157E+02 -0.89690113402E+03  0.36467285956E+03  0.96832442306E+03  0.10100000352E+00 0. -1.
       -3    1    3    3    0  502 -0.15304881157E+02  0.89690113402E+03  0.56560485775E+03  0.10604596875E+04  0.10100000352E+00 0.  1.
</event>
<event>
 5   0  0.3413839E-04  0.1809958E+04  0.7818609E-02  0.8701022E-01
        1   -1    0    0  501    0  0.00000000000E+00  0.00000000000E+00  0.20205905329E+04  0.20205905329E+04  0.50400001928E-02 0.  1.
       -1   -1    0    0    0  501  0.00000000000E+00  0.00000000000E+00 -0.40532053283E+03  0.40532053286E+03  0.50400001928E-02 0. -1.
    10030    2    1    2    0    0  0.00000000000E+00  0.00000000000E+00  0.16152700000E+04  0.24259110657E+04  0.18099578243E+04 0.  0.
        5    1    3    3  502    0  0.79194409009E+03  0.21677204526E+03  0.13176576597E+04  0.15525493099E+04  0.46999998093E+01 0.  1.
       -5    1    3    3    0  502 -0.79194409009E+03 -0.21677204526E+03  0.29761234030E+03  0.87336175582E+03  0.46999998093E+01 0. -1.
</event>
<event>
 5   0  0.3404261E-04  0.1740503E+04  0.7818609E-02  0.8738595E-01
        1   -1    0    0  501    0  0.00000000000E+00  0.00000000000E+00  0.16444204279E+04  0.16444204279E+04  0.50400001928E-02 0.  1.
       -1   -1    0    0    0  501  0.00000000000E+00  0.00000000000E+00 -0.46055013919E+03  0.46055013921E+03  0.50400001928E-02 0. -1.
    10030    2    1    2    0    0  0.00000000000E+00  0.00000000000E+00  0.11838702887E+04  0.21049705671E+04  0.17405034409E+04 0.  0.
        1    1    3    3  502    0 -0.62295503445E+03  0.53553405385E+03  0.24462711939E+03  0.85715350163E+03  0.50400001928E-02 0. -1.
       -1    1    3    3    0  502  0.62295503445E+03 -0.53553405385E+03  0.93924316930E+03  0.12478170655E+04  0.50400001928E-02 0.  1.
</event>
<event>
 5   0  0.3404261E-04  0.1741424E+04  0.7818609E-02  0.8738085E-01
        1   -1    0    0  501    0  0.00000000000E+00  0.00000000000E+00  0.10895713413E+04  0.10895713414E+04  0.50400001928E-02 0.  1.
       -1   -1    0    0    0  501  0.00000000000E+00  0.00000000000E+00 -0.69581436524E+03  0.69581436526E+03  0.50400001928E-02 0. -1.
    10030    2    1    2    0    0  0.00000000000E+00  0.00000000000E+00  0.39375697610E+03  0.17853857066E+04  0.17414240050E+04 0.  0.
        1    1    3    3  502    0 -0.63025815760E+03 -0.60062486450E+03  0.18375622994E+03  0.88979881161E+03  0.50400001928E-02 0.  1.
       -1    1    3    3    0  502  0.63025815760E+03  0.60062486450E+03  0.21000074616E+03  0.89558689500E+03  0.50400001928E-02 0. -1.
</event>
<event>
 5   0  0.6929121E-04  0.1779924E+04  0.7818609E-02  0.8717049E-01
        2   -1    0    0  501    0  0.00000000000E+00  0.00000000000E+00  0.76537986583E+03  0.76537986583E+03  0.25500000920E-02 0.  1.
       -2   -1    0    0    0  501  0.00000000000E+00  0.00000000000E+00 -0.10348220862E+04  0.10348220862E+04  0.25500000920E-02 0. -1.
    10030    2    1    2    0    0  0.00000000000E+00  0.00000000000E+00 -0.26944222036E+03  0.18002019520E+04  0.17799235821E+04 0.  0.
        3    1    3    3  502    0 -0.23247723544E+03  0.58960100626E+03  0.49718250372E+03  0.80552185805E+03  0.10100000352E+00 0.  1.
       -3    1    3    3    0  502  0.23247723544E+03 -0.58960100626E+03 -0.76662472408E+03  0.99468009398E+03  0.10100000352E+00 0. -1.
</event>
<event>
 5   0  0.3404261E-04  0.1840470E+04  0.7818609E-02  0.8685069E-01
        1   -1    0    0  501    0  0.00000000000E+00  0.00000000000E+00  0.86754732710E+03  0.86754732711E+03  0.50400001928E-02 0.  1.
       -1   -1    0    0    0  501  0.00000000000E+00  0.00000000000E+00 -0.97612285631E+03  0.97612285632E+03  0.50400001928E-02 0. -1.
    10030    2    1    2    0    0  0.00000000000E+00  0.00000000000E+00 -0.10857552921E+03  0.18436701834E+04  0.18404703474E+04 0.  0.
        1    1    3    3  502    0  0.45077442849E+03  0.48636009426E+03 -0.69343235408E+03  0.95947493786E+03  0.50400001928E-02 0. -1.
       -1    1    3    3    0  502 -0.45077442849E+03 -0.48636009426E+03  0.58485682487E+03  0.88419524557E+03  0.50400001928E-02 0.  1.
</event>
<event>
 5   0  0.3377273E-04  0.1621498E+04  0.7818609E-02  0.8807449E-01
       -1   -1    0    0    0  501  0.00000000000E+00  0.00000000000E+00  0.89027410548E+03  0.89027410549E+03  0.50400001928E-02 0.  1.
        1   -1    0    0  501    0  0.00000000000E+00  0.00000000000E+00 -0.73832796309E+03  0.73832796310E+03  0.50400001928E-02 0. -1.
    10030    2    1    2    0    0  0.00000000000E+00  0.00000000000E+00  0.15194614239E+03  0.16286020686E+04  0.16214984020E+04 0.  0.
        2    1    3    3  502    0 -0.57897452023E+03  0.56074157548E+03  0.16394478567E+03  0.82250866397E+03  0.25500000920E-02 0.  1.
       -2    1    3    3    0  502  0.57897452023E+03 -0.56074157548E+03 -0.11998643279E+02  0.80609340463E+03  0.25500000920E-02 0. -1.
</event>
<event>
 5   0  0.3413839E-04  0.1802726E+04  0.7818609E-02  0.8704851E-01
        1   -1    0    0  501    0  0.00000000000E+00  0.00000000000E+00  0.18162111679E+04  0.18162111679E+04  0.50400001928E-02 0.  1.
       -1   -1    0    0    0  501  0.00000000000E+00  0.00000000000E+00 -0.44733523185E+03  0.44733523187E+03  0.50400001928E-02 0. -1.
    10030    2    1    2    0    0  0.00000000000E+00  0.00000000000E+00  0.13688759360E+04  0.22635463998E+04  0.18027259846E+04 0.  0.
        5    1    3    3  502    0  0.85648772614E+03 -0.11140890502E+03  0.10081114543E+04  0.13275142046E+04  0.46999998093E+01 0.  1.
       -5    1    3    3    0  502 -0.85648772614E+03  0.11140890502E+03  0.36076448179E+03  0.93603219520E+03  0.46999998093E+01 0. -1.
</event>
<event>
 5   0  0.6771967E-04  0.1773912E+04  0.7818609E-02  0.8720297E-01
       -2   -1    0    0    0  501  0.00000000000E+00  0.00000000000E+00  0.50543384027E+03  0.50543384028E+03  0.25500000920E-02 0. -1.
        2   -1    0    0  501    0  0.00000000000E+00  0.00000000000E+00 -0.15564672475E+04  0.15564672475E+04  0.25500000920E-02 0.  1.
    10030    2    1    2    0    0  0.00000000000E+00  0.00000000000E+00 -0.10510334072E+04  0.20619010878E+04  0.17739123069E+04 0.  0.
        1    1    3    3  502    0 -0.69526821779E+02  0.80033628677E+02 -0.15490762220E+04  0.15526997464E+04  0.50400001928E-02 0.  1.
       -1    1    3    3    0  502  0.69526821779E+02 -0.80033628677E+02  0.49804281482E+03  0.50920134140E+03  0.50400001928E-02 0. -1.
</event>
<event>
 5   0  0.6929121E-04  0.1796132E+04  0.7818609E-02  0.8708359E-01
        2   -1    0    0  501    0  0.00000000000E+00  0.00000000000E+00  0.93635536492E+03  0.93635536492E+03  0.25500000920E-02 0. -1.
       -2   -1    0    0    0  501  0.00000000000E+00  0.00000000000E+00 -0.86134242432E+03  0.86134242433E+03  0.25500000920E-02 0.  1.
    10030    2    1    2    0    0  0.00000000000E+00  0.00000000000E+00  0.75012940594E+02  0.17976977892E+04  0.17961320665E+04 0.  0.
        3    1    3    3  502    0 -0.56843132529E+03 -0.27811529884E+03  0.67529056268E+03  0.92546185511E+03  0.10100000352E+00 0. -1.
       -3    1    3    3    0  502  0.56843132529E+03  0.27811529884E+03 -0.60027762208E+03  0.87223593414E+03  0.10100000352E+00 0.  1.
</event>
<event>
 5   0  0.3470962E-04  0.1049685E+04  0.7818609E-02  0.9255669E-01
        1   -1    0    0  501    0  0.00000000000E+00  0.00000000000E+00  0.97426687788E+03  0.97426687789E+03  0.50400001928E-02 0.  1.
       -1   -1    0    0    0  501  0.00000000000E+00  0.00000000000E+00 -0.28273539802E+03  0.28273539806E+03  0.50400001928E-02 0. -1.
    10030    2    1    2    0    0  0.00000000000E+00  0.00000000000E+00  0.69153147986E+03  0.12570022760E+04  0.10496851595E+04 0.  0.
        4    1    3    3  502    0 -0.12932645832E+03  0.22246936495E+03  0.89353737337E+03  0.92985407547E+03  0.12699999809E+01 0.  1.
       -4    1    3    3    0  502  0.12932645832E+03 -0.22246936495E+03 -0.20200589351E+03  0.32714820048E+03  0.12699999809E+01 0. -1.
</event>
<event>
 5   0  0.3377273E-04  0.1794110E+04  0.7818609E-02  0.8709438E-01
        1   -1    0    0  501    0  0.00000000000E+00  0.00000000000E+00  0.13542863591E+04  0.13542863591E+04  0.50400001928E-02 0. -1.
       -1   -1    0    0    0  501  0.00000000000E+00  0.00000000000E+00 -0.59419337340E+03  0.59419337342E+03  0.50400001928E-02 0.  1.
    10030    2    1    2    0    0  0.00000000000E+00  0.00000000000E+00  0.76009298567E+03  0.19484797325E+04  0.17941103425E+04 0.  0.
        2    1    3    3  502    0  0.62059441639E+03  0.19474677379E+02 -0.32311141752E+03  0.69994119813E+03  0.25500000920E-02 0.  1.
       -2    1    3    3    0  502 -0.62059441639E+03 -0.19474677379E+02  0.10832044032E+04  0.12485385344E+04  0.25500000920E-02 0. -1.
</event>
<event>
 5   0  0.3470962E-04  0.1978601E+04  0.7818609E-02  0.8616691E-01
        1   -1    0    0  501    0  0.00000000000E+00  0.00000000000E+00  0.19308831970E+04  0.19308831970E+04  0.50400001928E-02 0.  1.
       -1   -1    0    0    0  501  0.00000000000E+00  0.00000000000E+00 -0.50687474857E+03  0.50687474860E+03  0.50400001928E-02 0. -1.
    10030    2    1    2    0    0  0.00000000000E+00  0.00000000000E+00  0.14240084485E+04  0.24377579456E+04  0.19786014607E+04 0.  0.
        4    1    3    3  502    0 -0.77950362229E+03  0.58198474353E+03  0.49029420556E+03  0.10893677799E+04  0.12699999809E+01 0. -1.
       -4    1    3    3    0  502  0.77950362229E+03 -0.58198474353E+03  0.93371424289E+03  0.13483901658E+04  0.12699999809E+01 0.  1.
</event>
<event>
 5   0  0.3404261E-04  0.1883183E+04  0.7818609E-02  0.8663273E-01
       -1   -1    0    0    0  501  0.00000000000E+00  0.00000000000E+00  0.57994225793E+03  0.57994225795E+03  0.50400001928E-02 0. -1.
        1   -1    0    0  501    0  0.00000000000E+00  0.00000000000E+00 -0.15287637848E+04  0.15287637848E+04  0.50400001928E-02 0.  1.
    10030    2    1    2    0    0  0.00000000000E+00  0.00000000000E+00 -0.94882152689E+03  0.21087060428E+04  0.18831831788E+04 0.  0.
        1    1    3    3  502    0  0.63891971748E+03 -0.49653046046E+03 -0.10135635694E+04  0.12969471896E+04  0.50400001928E-02 0.  1.
       -1    1    3    3    0  502 -0.63891971748E+03  0.49653046046E+03  0.64742042469E+02  0.81175885314E+03  0.50400001928E-02 0. -1.
</event>
<event>
 5   0  0.2467375E-04  0.1665249E+04  0.7818609E-02  0.8781436E-01
        3   -1    0    0  501    0  0.00000000000E+00  0.00000000000E+00  0.89944518558E+03  0.89944519125E+03  0.10100000352E+00 0.  1.
       -3   -1    0    0    0  501  0.00000000000E+00  0.00000000000E+00 -0.77076757987E+03  0.77076758648E+03  0.10100000352E+00 0. -1.
    10030    2    1    2    0    0  0.00000000000E+00  0.00000000000E+00  0.12867760571E+03  0.16702127777E+04  0.16652485690E+04 0.  0.
        1    1    3    3  502    0  0.28578300384E+03 -0.42677096070E+02 -0.71886671410E+03  0.77476616632E+03  0.50400001928E-02 0. -1.
       -1    1    3    3    0  502 -0.28578300384E+03  0.42677096070E+02  0.84754431982E+03  0.89544661141E+03  0.50400001928E-02 0.  1.
</event>
<event>
 5   0  0.3404261E-04  0.1826643E+04  0.7818609E-02  0.8692258E-01
        1   -1    0    0  501    0  0.00000000000E+00  0.00000000000E+00  0.14306999024E+04  0.14306999024E+04  0.50400001928E-02 0.  1.
       -1   -1    0    0    0  501  0.00000000000E+00  0.00000000000E+00 -0.58304045914E+03  0.58304045916E+03  0.50400001928E-02 0. -1.
    10030    2    1    2    0    0  0.00000000000E+00  0.00000000000E+00  0.84765944328E+03  0.20137403616E+04  0.18266427434E+04 0.  0.
        1    1    3    3  502    0 -0.58144387958E+03 -0.19462017785E+03 -0.32240991952E+03  0.69274970586E+03  0.50400001928E-02 0. -1.
       -1    1    3    3    0  502  0.58144387958E+03  0.19462017785E+03  0.11700693628E+04  0.13209906557E+04  0.50400001928E-02 0.  1.
</event>
<event>
 5   0  0.6774451E-04  0.1781410E+04  0.7818609E-02  0.8716248E-01
        2   -1    0    0  501    0  0.00000000000E+00  0.00000000000E+00  0.10398866523E+04  0.10398866523E+04  0.25500000920E-02 0. -1.
       -2   -1    0    0    0  501  0.00000000000E+00  0.00000000000E+00 -0.76292481901E+03  0.76292481902E+03  0.25500000920E-02 0.  1.
    10030    2    1    2    0    0  0.00000000000E+00  0.00000000000E+00  0.27696183331E+03  0.18028114713E+04  0.17814099315E+04 0.  0.
        4    1    3    3  502    0 -0.64307387086E+03  0.61361153880E+03  0.80428014247E+02  0.89248720008E+03  0.12699999809E+01 0. -1.
       -4    1    3    3    0  502  0.64307387086E+03 -0.61361153880E+03  0.19653381907E+03  0.91032427127E+03  0.12699999809E+01 0.  1.
</event>
<event>
 5   0  0.6774451E-04  0.1859434E+04  0.7818609E-02  0.8675317E-01
        2   -1    0    0  501    0  0.00000000000E+00  0.00000000000E+00  0.51989392808E+03  0.51989392808E+03  0.25500000920E-02 0.  1.
       -2   -1    0    0    0  501  0.00000000000E+00  0.00000000000E+00 -0.16625956143E+04  0.16625956143E+04  0.25500000920E-02 0. -1.
    10030    2    1    2    0    0  0.00000000000E+00  0.00000000000E+00 -0.11427016862E+04  0.21824895424E+04  0.18594336393E+04 0.  0.
        4    1    3    3  502    0  0.28289605708E+03 -0.10353264019E+03  0.46102076503E+03  0.55071857186E+03  0.12699999809E+01 0.  1.
       -4    1    3    3    0  502 -0.28289605708E+03  0.10353264019E+03 -0.16037224512E+04  0.16317709705E+04  0.12699999809E+01 0. -1.
</event>
<event>
 5   0  0.3404261E-04  0.1795560E+04  0.7818609E-02  0.8708664E-01
       -1   -1    0    0    0  501  0.00000000000E+00  0.00000000000E+00  0.35490450376E+03  0.35490450380E+03  0.50400001928E-02 0.  1.
        1   -1    0    0  501    0  0.00000000000E+00  0.00000000000E+00 -0.22710595897E+04  0.22710595897E+04  0.50400001928E-02 0. -1.
    10030    2    1    2    0    0  0.00000000000E+00  0.00000000000E+00 -0.19161550859E+04  0.26259640935E+04  0.17955603880E+04 0.  0.
        1    1    3    3  502    0  0.38028637901E+03  0.97769367865E+02  0.22266942355E+03  0.45139589228E+03  0.50400001928E-02 0.  1.
       -1    1    3    3    0  502 -0.38028637901E+03 -0.97769367865E+02 -0.21388245095E+04  0.21745682012E+04  0.50400001928E-02 0. -1.
</event>
<event>
 5   0  0.3470962E-04  0.1615196E+04  0.7818609E-02  0.8811267E-01
        1   -1    0    0  501    0  0.00000000000E+00  0.00000000000E+00  0.99558224111E+03  0.99558224113E+03  0.50400001928E-02 0. -1.
       -1   -1    0    0    0  501  0.00000000000E+00  0.00000000000E+00 -0.65510830388E+03  0.65510830390E+03  0.50400001928E-02 0.  1.
    10030    2    1    2    0    0  0.00000000000E+00  0.00000000000E+00  0.34047393724E+03  0.16506905450E+04  0.16151955837E+04 0.  0.
        4    1    3    3  502    0 -0.40225242875E+03  0.48376248157E+03 -0.34722940120E+03  0.71861187366E+03  0.12699999809E+01 0.  1.
       -4    1    3    3    0  502  0.40225242875E+03 -0.48376248157E+03  0.68770333843E+03  0.93207867136E+03  0.12699999809E+01 0. -1.
</event>
<event>
 5   0  0.6774451E-04  0.1787064E+04  0.7818609E-02  0.8713209E-01
        2   -1    0    0  501    0  0.00000000000E+00  0.00000000000E+00  0.13735110697E+04  0.13735110697E+04  0.25500000920E-02 0. -1.
       -2   -1    0    0    0  501  0.00000000000E+00  0.00000000000E+00 -0.58128347498E+03  0.58128347498E+03  0.25500000920E-02 0.  1.
    10030    2    1    2    0    0  0.00000000000E+00  0.00000000000E+00  0.79222759475E+03  0.19547945447E+04  0.17870638349E+04 0.  0.
        4    1    3    3  502    0 -0.34907582498E+02 -0.86509528098E+03  0.15449912600E+03  0.87947710449E+03  0.12699999809E+01 0.  1.
       -4    1    3    3    0  502  0.34907582498E+02  0.86509528098E+03  0.63772846875E+03  0.10753174402E+04  0.12699999809E+01 0. -1.
</event>
<event>
 5   0  0.6774451E-04  0.1808599E+04  0.7818609E-02  0.8701740E-01
       -2   -1    0    0    0  501  0.00000000000E+00  0.00000000000E+00  0.70039234406E+03  0.70039234406E+03  0.25500000920E-02 0.  1.
        2   -1    0    0  501    0  0.00000000000E+00  0.00000000000E+00 -0.11675710756E+04  0.11675710756E+04  0.25500000920E-02 0. -1.
    10030    2    1    2    0    0  0.00000000000E+00  0.00000000000E+00 -0.46717873150E+03  0.18679634196E+04  0.18085992840E+04 0.  0.
        4    1    3    3  502    0 -0.29270221409E+03 -0.83531483479E+03 -0.42222040740E+02  0.88612063116E+03  0.12699999809E+01 0.  1.
       -4    1    3    3    0  502  0.29270221409E+03  0.83531483479E+03 -0.42495669076E+03  0.98184278847E+03  0.12699999809E+01 0. -1.
</event>
<event>
 5   0  0.6547153E-04  0.1682529E+04  0.7818609E-02  0.8771392E-01
       -2   -1    0    0    0  501  0.00000000000E+00  0.00000000000E+00  0.38902094202E+03  0.38902094203E+03  0.25500000920E-02 0. -1.
        2   -1    0    0  501    0  0.00000000000E+00  0.00000000000E+00 -0.18192495657E+04  0.18192495657E+04  0.25500000920E-02 0.  1.
    10030    2    1    2    0    0  0.00000000000E+00  0.00000000000E+00 -0.14302286237E+04  0.22082705078E+04  0.16825292626E+04 0.  0.
        5    1    3    3  502    0 -0.19597109454E+03 -0.59166858197E+03  0.26434830116E+02  0.62385677124E+03  0.46999998093E+01 0. -1.
       -5    1    3    3    0  502  0.19597109454E+03  0.59166858197E+03 -0.14566634538E+04  0.15844137365E+04  0.46999998093E+01 0.  1.
</event>
<event>
 5   0  0.6771967E-04  0.1793090E+04  0.7818609E-02  0.8709983E-01
       -2   -1    0    0    0  501  0.00000000000E+00  0.00000000000E+00  0.11293849898E+04  0.11293849898E+04  0.25500000920E-02 0.  1.
        2   -1    0    0  501    0  0.00000000000E+00  0.00000000000E+00 -0.71170824079E+03  0.71170824079E+03  0.25500000920E-02 0. -1.
    10030    2    1    2    0    0  0.00000000000E+00  0.00000000000E+00  0.41767674906E+03  0.18410932306E+04  0.17930896289E+04 0.  0.
        1    1    3    3  502    0  0.14911427067E+03  0.20148827624E+03  0.10926733186E+04  0.11210564537E+04  0.50400001928E-02 0.  1.
       -1    1    3    3    0  502 -0.14911427067E+03 -0.20148827624E+03 -0.67499656956E+03  0.72003677692E+03  0.50400001928E-02 0. -1.
</event>
<event>
 5   0  0.3413839E-04  0.1783849E+04  0.7818609E-02  0.8714936E-01
        1   -1    0    0  501    0  0.00000000000E+00  0.00000000000E+00  0.12941574399E+04  0.12941574399E+04  0.50400001928E-02 0. -1.
       -1   -1    0    0    0  501  0.00000000000E+00  0.00000000000E+00 -0.61470804477E+03  0.61470804479E+03  0.50400001928E-02 0.  1.
    10030    2    1    2    0    0  0.00000000000E+00  0.00000000000E+00  0.67944939509E+03  0.19088654847E+04  0.17838486365E+04 0.  0.
        5    1    3    3  502    0 -0.63906694532E+03 -0.61745549343E+03  0.42156365455E+03  0.98356283572E+03  0.46999998093E+01 0. -1.
       -5    1    3    3    0  502  0.63906694532E+03  0.61745549343E+03  0.25788574054E+03  0.92530264894E+03  0.46999998093E+01 0.  1.
</event>
<event>
 5   0  0.6547153E-04  0.1735169E+04  0.7818609E-02  0.8741556E-01
       -2   -1    0    0    0  501  0.00000000000E+00  0.00000000000E+00  0.54071407390E+03  0.54071407391E+03  0.25500000920E-02 0. -1.
        2   -1    0    0  501    0  0.00000000000E+00  0.00000000000E+00 -0.13920536769E+04  0.13920536769E+04  0.25500000920E-02 0.  1.
    10030    2    1    2    0    0  0.00000000000E+00  0.00000000000E+00 -0.85133960299E+03  0.19327677508E+04  0.17351691730E+04 0.  0.
        5    1    3    3  502    0 -0.78561465450E+03  0.21627238897E+03 -0.75744259126E+03  0.11125221349E+04  0.46999998093E+01 0. -1.
       -5    1    3    3    0  502  0.78561465450E+03 -0.21627238897E+03 -0.93897011733E+02  0.82024561590E+03  0.46999998093E+01 0.  1.
</event>
<event>
 5   0  0.3377273E-04  0.1575462E+04  0.7818609E-02  0.8835766E-01
        1   -1    0    0  501    0  0.00000000000E+00  0.00000000000E+00  0.12796323772E+04  0.12796323772E+04  0.50400001928E-02 0. -1.
       -1   -1    0    0    0  501  0.00000000000E+00  0.00000000000E+00 -0.48492034668E+03  0.48492034671E+03  0.50400001928E-02 0.  1.
    10030    2    1    2    0    0  0.00000000000E+00  0.00000000000E+00  0.79471203053E+03  0.17645527239E+04  0.15754615527E+04 0.  0.
        2    1    3    3  502    0  0.22906146390E+03 -0.18088311406E+03 -0.42212406319E+03  0.51320227974E+03  0.25500000920E-02 0.  1.
       -2    1    3    3    0  502 -0.22906146390E+03  0.18088311406E+03  0.12168360937E+04  0.12513504442E+04  0.25500000920E-02 0. -1.
</event>
<event>
 5   0  0.6547153E-04  0.1801544E+04  0.7818609E-02  0.8705479E-01
       -2   -1    0    0    0  501  0.00000000000E+00  0.00000000000E+00  0.12874431539E+04  0.12874431539E+04  0.25500000920E-02 0.  1.
        2   -1    0    0  501    0  0.00000000000E+00  0.00000000000E+00 -0.63023411388E+03  0.63023411389E+03  0.25500000920E-02 0. -1.
    10030    2    1    2    0    0  0.00000000000E+00  0.00000000000E+00  0.65720904001E+03  0.19176772678E+04  0.18015444433E+04 0.  0.
        5    1    3    3  502    0  0.11124163053E+03 -0.24275809858E+03  0.12443287027E+04  0.12726673584E+04  0.46999998093E+01 0.  1.
       -5    1    3    3    0  502 -0.11124163053E+03  0.24275809858E+03 -0.58711966273E+03  0.64500990934E+03  0.46999998093E+01 0. -1.
</event>
<event>
 5   0  0.3308275E-04  0.1824734E+04  0.7818609E-02  0.8693256E-01
       -1   -1    0    0    0  501  0.00000000000E+00  0.00000000000E+00  0.86598398300E+03  0.86598398301E+03  0.50400001928E-02 0. -1.
        1   -1    0    0  501    0  0.00000000000E+00  0.00000000000E+00 -0.96123420041E+03  0.96123420042E+03  0.50400001928E-02 0.  1.
    10030    2    1    2    0    0  0.00000000000E+00  0.00000000000E+00 -0.95250217415E+02  0.18272181834E+04  0.18247338672E+04 0.  0.
        3    1    3    3  502    0 -0.76726440042E+03  0.27786722208E+03 -0.45623526366E+03  0.93490934280E+03  0.10100000352E+00 0.  1.
       -3    1    3    3    0  502  0.76726440042E+03 -0.27786722208E+03  0.36098504624E+03  0.89230884063E+03  0.10100000352E+00 0. -1.
</event>
<event>
 5   0  0.3470962E-04  0.1762619E+04  0.7818609E-02  0.8726435E-01
        1   -1    0    0  501    0  0.00000000000E+00  0.00000000000E+00  0.17797473423E+04  0.17797473423E+04  0.50400001928E-02 0.  1.
       -1   -1    0    0    0  501  0.00000000000E+00  0.00000000000E+00 -0.43641394736E+03  0.43641394739E+03  0.50400001928E-02 0. -1.
    10030    2    1    2    0    0  0.00000000000E+00  0.00000000000E+00  0.13433333950E+04  0.22161612897E+04  0.17626191455E+04 0.  0.
        4    1    3    3  502    0  0.26575442115E+03 -0.71123268133E+03  0.12342733513E+04  0.14491065033E+04  0.12699999809E+01 0.  1.
       -4    1    3    3    0  502 -0.26575442115E+03  0.71123268133E+03  0.10906004369E+03  0.76705478643E+03  0.12699999809E+01 0. -1.
</event>
<event>
 5   0  0.3308275E-04  0.1773560E+04  0.7818609E-02  0.8720488E-01
       -1   -1    0    0    0  501  0.00000000000E+00  0.00000000000E+00  0.40250830349E+03  0.40250830352E+03  0.50400001928E-02 0. -1.
        1   -1    0    0  501    0  0.00000000000E+00  0.00000000000E+00 -0.19536957033E+04  0.19536957033E+04  0.50400001928E-02 0.  1.
    10030    2    1    2    0    0  0.00000000000E+00  0.00000000000E+00 -0.15511873998E+04  0.23562040069E+04  0.17735599715E+04 0.  0.
        3    1    3    3  502    0 -0.22481160072E+03 -0.60393976319E+03 -0.15848940037E+04  0.17108981579E+04  0.10100000352E+00 0.  1.
       -3    1    3    3    0  502  0.22481160072E+03  0.60393976319E+03  0.33706603884E+02  0.64530584898E+03  0.10100000352E+00 0. -1.
</event>
<event>
 5   0  0.3308275E-04  0.1778129E+04  0.7818609E-02  0.8718017E-01
       -1   -1    0    0    0  501  0.00000000000E+00  0.00000000000E+00  0.93389488468E+03  0.93389488470E+03  0.50400001928E-02 0.  1.
        1   -1    0    0  501    0  0.00000000000E+00  0.00000000000E+00 -0.84638641095E+03  0.84638641097E+03  0.50400001928E-02 0. -1.
    10030    2    1    2    0    0  0.00000000000E+00  0.00000000000E+00  0.87508473730E+02  0.17802812957E+04  0.17781292863E+04 0.  0.
        3    1    3    3  502    0 -0.32849817999E+03 -0.63897924151E+03 -0.48054967241E+03  0.86436885829E+03  0.10100000352E+00 0. -1.
       -3    1    3    3    0  502  0.32849817999E+03  0.63897924151E+03  0.56805814614E+03  0.91591243737E+03  0.10100000352E+00 0.  1.
</event>
<event>
 5   0  0.6853162E-04  0.1682838E+04  0.7818609E-02  0.8771214E-01
        2   -1    0    0  501    0  0.00000000000E+00  0.00000000000E+00  0.18648429038E+04  0.18648429038E+04  0.25500000920E-02 0. -1.
       -2   -1    0    0    0  501  0.00000000000E+00  0.00000000000E+00 -0.37964901669E+03  0.37964901670E+03  0.25500000920E-02 0.  1.
    10030    2    1    2    0    0  0.00000000000E+00  0.00000000000E+00  0.14851938871E+04  0.22444919205E+04  0.16828378112E+04 0.  0.
        2    1    3    3  502    0 -0.18311078578E+03 -0.32617418790E+03  0.17478500363E+04  0.17874280154E+04  0.25500000920E-02 0. -1.
       -2    1    3    3    0  502  0.18311078578E+03  0.32617418790E+03 -0.26265614915E+03  0.45706390517E+03  0.25500000920E-02 0.  1.
</event>
<event>
 5   0  0.3413839E-04  0.1807678E+04  0.7818609E-02  0.8702227E-01
        1   -1    0    0  501    0  0.00000000000E+00  0.00000000000E+00  0.93686049471E+03  0.93686049472E+03  0.50400001928E-02 0. -1.
       -1   -1    0    0    0  501  0.00000000000E+00  0.00000000000E+00 -0.87198098066E+03  0.87198098067E+03  0.50400001928E-02 0.  1.
    10030    2    1    2    0    0  0.00000000000E+00  0.00000000000E+00  0.64879514047E+02  0.18088414754E+04  0.18076775519E+04 0.  0.
        5    1    3    3  502    0 -0.50242806779E+03 -0.53559696951E+03 -0.49478122849E+03  0.88551037888E+03  0.46999998093E+01 0.  1.
       -5    1    3    3    0  502  0.50242806779E+03  0.53559696951E+03  0.55966074254E+03  0.92333109651E+03  0.46999998093E+01 0. -1.
</event>
<event>
 5   0  0.3377273E-04  0.1832581E+04  0.7818609E-02  0.8689163E-01
       -1   -1    0    0    0  501  0.00000000000E+00  0.00000000000E+00  0.75754130735E+03  0.75754130737E+03  0.50400001928E-02 0. -1.
        1   -1    0    0  501    0  0.00000000000E+00  0.00000000000E+00 -0.11083069053E+04  0.11083069053E+04  0.50400001928E-02 0.  1.
    10030    2    1    2    0    0  0.00000000000E+00  0.00000000000E+00 -0.35076559798E+03  0.18658482127E+04  0.18325809800E+04 0.  0.
        2    1    3    3  502    0 -0.30374563890E+03 -0.74475384629E+03  0.27152564335E+03  0.84890864038E+03  0.25500000920E-02 0. -1.
       -2    1    3    3    0  502  0.30374563890E+03  0.74475384629E+03 -0.62229124133E+03  0.10169395723E+04  0.25500000920E-02 0.  1.
</event>
<event>
 5   0  0.3308275E-04  0.1820245E+04  0.7818609E-02  0.8695607E-01
       -1   -1    0    0    0  501  0.00000000000E+00  0.00000000000E+00  0.52116476055E+03  0.52116476058E+03  0.50400001928E-02 0.  1.
        1   -1    0    0  501    0  0.00000000000E+00  0.00000000000E+00 -0.15893679662E+04  0.15893679662E+04  0.50400001928E-02 0. -1.
    10030    2    1    2    0    0  0.00000000000E+00  0.00000000000E+00 -0.10682032057E+04  0.21105327268E+04  0.18202445721E+04 0.  0.
        3    1    3    3  502    0 -0.88643582295E+03  0.15774987584E+03 -0.37997796934E+03  0.97725982161E+03  0.10100000352E+00 0. -1.
       -3    1    3    3    0  502  0.88643582295E+03 -0.15774987584E+03 -0.68822523633E+03  0.11332729052E+04  0.10100000352E+00 0.  1.
</event>
<event>
 5   0  0.6771967E-04  0.1775602E+04  0.7818609E-02  0.8719383E-01
       -2   -1    0    0    0  501  0.00000000000E+00  0.00000000000E+00  0.38713271790E+03  0.38713271791E+03  0.25500000920E-02 0. -1.
        2   -1    0    0  501    0  0.00000000000E+00  0.00000000000E+00 -0.20359704838E+04  0.20359704838E+04  0.25500000920E-02 0.  1.
    10030    2    1    2    0    0  0.00000000000E+00  0.00000000000E+00 -0.16488377659E+04  0.24231032017E+04  0.17756021930E+04 0.  0.
        1    1    3    3  502    0  0.43666450254E+03 -0.18458813929E+03  0.19993706296E+03  0.51451287459E+03  0.50400001928E-02 0. -1.
       -1    1    3    3    0  502 -0.43666450254E+03  0.18458813929E+03 -0.18487748288E+04  0.19085903271E+04  0.50400001928E-02 0.  1.
</event>
<event>
 5   0  0.6853162E-04  0.1894610E+04  0.7818609E-02  0.8657544E-01
       -2   -1    0    0    0  501  0.00000000000E+00  0.00000000000E+00  0.12401778551E+04  0.12401778551E+04  0.25500000920E-02 0. -1.
        2   -1    0    0  501    0  0.00000000000E+00  0.00000000000E+00 -0.72359506558E+03  0.72359506558E+03  0.25500000920E-02 0.  1.
    10030    2    1    2    0    0  0.00000000000E+00  0.00000000000E+00  0.51658278950E+03  0.19637729207E+04  0.18946098030E+04 0.  0.
        2    1    3    3  502    0  0.28644236358E+03 -0.66367864017E+03 -0.37632410948E+03  0.81494686971E+03  0.25500000920E-02 0.  1.
       -2    1    3    3    0  502 -0.28644236358E+03  0.66367864017E+03  0.89290689898E+03  0.11488260509E+04  0.25500000920E-02 0. -1.
</event>
<event>
 5   0  0.3308275E-04  0.1800091E+04  0.7818609E-02  0.8706251E-01
       -1   -1    0    0    0  501  0.00000000000E+00  0.00000000000E+00  0.14642195484E+04  0.14642195484E+04  0.50400001928E-02 0. -1.
        1   -1    0    0  501    0  0.00000000000E+00  0.00000000000E+00 -0.55325157660E+03  0.55325157663E+03  0.50400001928E-02 0.  1.
    10030    2    1    2    0    0  0.00000000000E+00  0.00000000000E+00  0.91096797178E+03  0.20174711250E+04  0.18000908573E+04 0.  0.
        3    1    3    3  502    0  0.26531426426E+03 -0.77392709858E+03  0.87592157805E+03  0.11985797570E+04  0.10100000352E+00 0. -1.
       -3    1    3    3    0  502 -0.26531426426E+03  0.77392709858E+03  0.35046393731E+02  0.81889136804E+03  0.10100000352E+00 0.  1.
</event>
<event>
 5   0  0.6771967E-04  0.1777983E+04  0.7818609E-02  0.8718096E-01
        2   -1    0    0  501    0  0.00000000000E+00  0.00000000000E+00  0.19426014437E+04  0.19426014437E+04  0.25500000920E-02 0. -1.
       -2   -1    0    0    0  501  0.00000000000E+00  0.00000000000E+00 -0.40682867676E+03  0.40682867677E+03  0.25500000920E-02 0.  1.
    10030    2    1    2    0    0  0.00000000000E+00  0.00000000000E+00  0.15357727669E+04  0.23494301204E+04  0.17779830987E+04 0.  0.
        1    1    3    3  502    0 -0.43516134604E+03 -0.36308330292E+03  0.16729367639E+04  0.17663273473E+04  0.50400001928E-02 0. -1.
       -1    1    3    3    0  502  0.43516134604E+03  0.36308330292E+03 -0.13716399695E+03  0.58310277313E+03  0.50400001928E-02 0.  1.
</event>
<event>
 5   0  0.3404261E-04  0.9257347E+03  0.7818609E-02  0.9393971E-01
        1   -1    0    0  501    0  0.00000000000E+00  0.00000000000E+00  0.48305076862E+03  0.48305076865E+03  0.50400001928E-02 0.  1.
       -1   -1    0    0    0  501  0.00000000000E+00  0.00000000000E+00 -0.44352725575E+03  0.44352725578E+03  0.50400001928E-02 0. -1.
    10030    2    1    2    0    0  0.00000000000E+00  0.00000000000E+00  0.39523512872E+02  0.92657802442E+03  0.92573469594E+03 0.  0.
        1    1    3    3  502    0  0.24386904422E+03  0.33180684627E+03 -0.19180319156E+03  0.45426463464E+03  0.50400001928E-02 0. -1.
       -1    1    3    3    0  502 -0.24386904422E+03 -0.33180684627E+03  0.23132670443E+03  0.47231338979E+03  0.50400001928E-02 0.  1.
</event>
<event>
 5   0  0.3308275E-04  0.1798415E+04  0.7818609E-02  0.8707143E-01
        1   -1    0    0  501    0  0.00000000000E+00  0.00000000000E+00  0.11322248798E+04  0.11322248798E+04  0.50400001928E-02 0. -1.
       -1   -1    0    0    0  501  0.00000000000E+00  0.00000000000E+00 -0.71414629504E+03  0.71414629506E+03  0.50400001928E-02 0.  1.
    10030    2    1    2    0    0  0.00000000000E+00  0.00000000000E+00  0.41807858476E+03  0.18463711749E+04  0.17984150834E+04 0.  0.
        3    1    3    3  502    0  0.48340164027E+03  0.46747680238E+03 -0.40384016553E+03  0.78440971188E+03  0.10100000352E+00 0.  1.
       -3    1    3    3    0  502 -0.48340164027E+03 -0.46747680238E+03  0.82191875029E+03  0.10619614630E+04  0.10100000352E+00 0. -1.
</event>
<event>
 5   0  0.6774451E-04  0.1779615E+04  0.7818609E-02  0.8717216E-01
        2   -1    0    0  501    0  0.00000000000E+00  0.00000000000E+00  0.19890976637E+04  0.19890976637E+04  0.25500000920E-02 0.  1.
       -2   -1    0    0    0  501  0.00000000000E+00  0.00000000000E+00 -0.39804834509E+03  0.39804834510E+03  0.25500000920E-02 0. -1.
    10030    2    1    2    0    0  0.00000000000E+00  0.00000000000E+00  0.15910493186E+04  0.23871460088E+04  0.17796146024E+04 0.  0.
        4    1    3    3  502    0 -0.51122211758E+03 -0.61047998117E+03  0.13282441097E+04  0.15486342011E+04  0.12699999809E+01 0. -1.
       -4    1    3    3    0  502  0.51122211758E+03  0.61047998117E+03  0.26280520888E+03  0.83851180768E+03  0.12699999809E+01 0.  1.
</event>
<event>
 5   0  0.2467375E-04  0.1062215E+04  0.7818609E-02  0.9242823E-01
        4   -1    0    0  501    0  0.00000000000E+00  0.00000000000E+00  0.22072880935E+04  0.22072884589E+04  0.12699999809E+01 0. -1.
       -4   -1    0    0    0  501  0.00000000000E+00  0.00000000000E+00 -0.12778910934E+03  0.12779541997E+03  0.12699999809E+01 0.  1.
    10030    2    1    2    0    0  0.00000000000E+00  0.00000000000E+00  0.20794989842E+04  0.23350838788E+04  0.10622149952E+04 0.  0.
        2    1    3    3  502    0  0.44304623175E+03  0.28928844236E+03  0.11404267738E+04  0.12571996631E+04  0.25500000920E-02 0. -1.
       -2    1    3    3    0  502 -0.44304623175E+03 -0.28928844236E+03  0.93907221035E+03  0.10778842158E+04  0.25500000920E-02 0.  1.
</event>
<event>
 5   0  0.2467375E-04  0.2064654E+04  0.7818609E-02  0.8576975E-01
        3   -1    0    0  501    0  0.00000000000E+00  0.00000000000E+00  0.20661331794E+04  0.20661331818E+04  0.10100000352E+00 0.  1.
       -3   -1    0    0    0  501  0.00000000000E+00  0.00000000000E+00 -0.51579385177E+03  0.51579386166E+03  0.10100000352E+00 0. -1.
    10030    2    1    2    0    0  0.00000000000E+00  0.00000000000E+00  0.15503393276E+04  0.25819270435E+04  0.20646537790E+04 0.  0.
        5    1    3    3  502    0 -0.71510232785E+03  0.27425545702E+03 -0.90405878627E+02  0.77122156861E+03  0.46999998093E+01 0. -1.
       -5    1    3    3    0  502  0.71510232785E+03 -0.27425545702E+03  0.16407452062E+04  0.18107054749E+04  0.46999998093E+01 0.  1.
</event>
<event>
 5   0  0.6771967E-04  0.1861741E+04  0.7818609E-02  0.8674138E-01
        2   -1    0    0  501    0  0.00000000000E+00  0.00000000000E+00  0.10616550375E+04  0.10616550375E+04  0.25500000920E-02 0.  1.
       -2   -1    0    0    0  501  0.00000000000E+00  0.00000000000E+00 -0.81619755775E+03  0.81619755776E+03  0.25500000920E-02 0. -1.
    10030    2    1    2    0    0  0.00000000000E+00  0.00000000000E+00  0.24545747974E+03  0.18778525953E+04  0.18617413878E+04 0.  0.
        1    1    3    3  502    0 -0.20049895280E+03  0.58817357653E+03  0.82181554714E+03  0.10303051877E+04  0.50400001928E-02 0.  1.
       -1    1    3    3    0  502  0.20049895280E+03 -0.58817357653E+03 -0.57635806740E+03  0.84754740758E+03  0.50400001928E-02 0. -1.
</event>
<event>
 5   0  0.6547153E-04  0.1819485E+04  0.7818609E-02  0.8696006E-01
       -2   -1    0    0    0  501  0.00000000000E+00  0.00000000000E+00  0.45442347604E+03  0.45442347604E+03  0.25500000920E-02 0.  1.
        2   -1    0    0  501    0  0.00000000000E+00  0.00000000000E+00 -0.18212774295E+04  0.18212774295E+04  0.25500000920E-02 0. -1.
    10030    2    1    2    0    0  0.00000000000E+00  0.00000000000E+00 -0.13668539534E+04  0.22757009055E+04  0.18194847846E+04 0.  0.
        5    1    3    3  502    0 -0.68548458982E+03  0.46910817961E+03 -0.21937488999E+03  0.85912690530E+03  0.46999998093E+01 0.  1.
       -5    1    3    3    0  502  0.68548458982E+03 -0.46910817961E+03 -0.11474790634E+04  0.14165740002E+04  0.46999998093E+01 0. -1.
</event>
<event>
 5   0  0.6774451E-04  0.1174847E+04  0.7818609E-02  0.9135162E-01
        2   -1    0    0  501    0  0.00000000000E+00  0.00000000000E+00  0.26130773722E+03  0.26130773723E+03  0.25500000920E-02 0.  1.
       -2   -1    0    0    0  501  0.00000000000E+00  0.00000000000E+00 -0.13205368860E+04  0.13205368861E+04  0.25500000920E-02 0. -1.
    10030    2    1    2    0    0  0.00000000000E+00  0.00000000000E+00 -0.10592291488E+04  0.15818446233E+04  0.11748472337E+04 0.  0.
        4    1    3    3  502    0 -0.13923208652E+03 -0.29401224777E+03 -0.11881752533E+04  0.12319053621E+04  0.12699999809E+01 0. -1.
       -4    1    3    3    0  502  0.13923208652E+03  0.29401224777E+03  0.12894610446E+03  0.34993926118E+03  0.12699999809E+01 0.  1.
</event>
<event>
 5   0  0.3308275E-04  0.1793875E+04  0.7818609E-02  0.8709563E-01
        1   -1    0    0  501    0  0.00000000000E+00  0.00000000000E+00  0.56948938889E+03  0.56948938891E+03  0.50400001928E-02 0. -1.
       -1   -1    0    0    0  501  0.00000000000E+00  0.00000000000E+00 -0.14126641293E+04  0.14126641293E+04  0.50400001928E-02 0.  1.
    10030    2    1    2    0    0  0.00000000000E+00  0.00000000000E+00 -0.84317474037E+03  0.19821535182E+04  0.17938753933E+04 0.  0.
        3    1    3    3  502    0  0.65530588814E+03  0.60149169443E+03 -0.54891722725E+03  0.10452407369E+04  0.10100000352E+00 0. -1.
       -3    1    3    3    0  502 -0.65530588814E+03 -0.60149169443E+03 -0.29425751313E+03  0.93691278128E+03  0.10100000352E+00 0.  1.
</event>
<event>
 5   0  0.3308275E-04  0.1755634E+04  0.7818609E-02  0.8730255E-01
       -1   -1    0    0    0  501  0.00000000000E+00  0.00000000000E+00  0.48352412696E+03  0.48352412698E+03  0.50400001928E-02 0. -1.
        1   -1    0    0  501    0  0.00000000000E+00  0.00000000000E+00 -0.15936381488E+04  0.15936381488E+04  0.50400001928E-02 0.  1.
    10030    2    1    2    0    0  0.00000000000E+00  0.00000000000E+00 -0.11101140218E+04  0.20771622758E+04  0.17556337826E+04 0.  0.
        3    1    3    3  502    0 -0.40773960209E+03 -0.15956557015E+03 -0.14552163986E+04  0.15196603342E+04  0.10100000352E+00 0.  1.
       -3    1    3    3    0  502  0.40773960209E+03  0.15956557015E+03  0.34510237674E+03  0.55750194164E+03  0.10100000352E+00 0. -1.
</event>
<event>
 5   0  0.6929121E-04  0.1817162E+04  0.7818609E-02  0.8697226E-01
        2   -1    0    0  501    0  0.00000000000E+00  0.00000000000E+00  0.11161776536E+04  0.11161776536E+04  0.25500000920E-02 0.  1.
       -2   -1    0    0    0  501  0.00000000000E+00  0.00000000000E+00 -0.73959518651E+03  0.73959518651E+03  0.25500000920E-02 0. -1.
    10030    2    1    2    0    0  0.00000000000E+00  0.00000000000E+00  0.37658246714E+03  0.18557728402E+04  0.18171622051E+04 0.  0.
        3    1    3    3  502    0 -0.28790385506E+03  0.86175947580E+03  0.18700517519E+03  0.92762544685E+03  0.10100000352E+00 0. -1.
       -3    1    3    3    0  502  0.28790385506E+03 -0.86175947580E+03  0.18957729195E+03  0.92814739332E+03  0.10100000352E+00 0.  1.
</event>
<event>
 5   0  0.6774451E-04  0.1841396E+04  0.7818609E-02  0.8684590E-01
        2   -1    0    0  501    0  0.00000000000E+00  0.00000000000E+00  0.10287068217E+04  0.10287068217E+04  0.25500000920E-02 0.  1.
       -2   -1    0    0    0  501  0.00000000000E+00  0.00000000000E+00 -0.82402946193E+03  0.82402946193E+03  0.25500000920E-02 0. -1.
    10030    2    1    2    0    0  0.00000000000E+00  0.00000000000E+00  0.20467735974E+03  0.18527362836E+04  0.18413959148E+04 0.  0.
        4    1    3    3  502    0 -0.14836640873E+01  0.42054021897E+03  0.92642299130E+03  0.10174072187E+04  0.12699999809E+01 0.  1.
       -4    1    3    3    0  502  0.14836640873E+01 -0.42054021897E+03 -0.72174563156E+03  0.83532906486E+03  0.12699999809E+01 0. -1.
</event>
<event>
 5   0  0.3377273E-04  0.1864251E+04  0.7818609E-02  0.8672859E-01
        1   -1    0    0  501    0  0.00000000000E+00  0.00000000000E+00  0.10237406036E+04  0.10237406036E+04  0.50400001928E-02 0. -1.
       -1   -1    0    0    0  501  0.00000000000E+00  0.00000000000E+00 -0.84870867507E+03  0.84870867509E+03  0.50400001928E-02 0.  1.
    10030    2    1    2    0    0  0.00000000000E+00  0.00000000000E+00  0.17503192854E+03  0.18724492787E+04  0.18642505533E+04 0.  0.
        2    1    3    3  502    0 -0.29734126811E+03  0.27148547379E+02 -0.79937853228E+03  0.85331993485E+03  0.25500000920E-02 0.  1.
       -2    1    3    3    0  502  0.29734126811E+03 -0.27148547379E+02  0.97441046082E+03  0.10191293439E+04  0.25500000920E-02 0. -1.
</event>
<event>
 5   0  0.3404261E-04  0.1780422E+04  0.7818609E-02  0.8716781E-01
       -1   -1    0    0    0  501  0.00000000000E+00  0.00000000000E+00  0.58332092710E+03  0.58332092712E+03  0.50400001928E-02 0. -1.
        1   -1    0    0  501    0  0.00000000000E+00  0.00000000000E+00 -0.13585577899E+04  0.13585577899E+04  0.50400001928E-02 0.  1.
    10030    2    1    2    0    0  0.00000000000E+00  0.00000000000E+00 -0.77523686284E+03  0.19418787171E+04  0.17804215114E+04 0.  0.
        1    1    3    3  502    0 -0.69441061821E+03  0.26295046003E+03 -0.92319481029E+03  0.11847521719E+04  0.50400001928E-02 0.  1.
       -1    1    3    3    0  502  0.69441061821E+03 -0.26295046003E+03  0.14795794746E+03  0.75712654514E+03  0.50400001928E-02 0. -1.
</event>
<event>
 5   0  0.3377273E-04  0.1655941E+04  0.7818609E-02  0.8786899E-01
        1   -1    0    0  501    0  0.00000000000E+00  0.00000000000E+00  0.13192226472E+04  0.13192226472E+04  0.50400001928E-02 0.  1.
       -1   -1    0    0    0  501  0.00000000000E+00  0.00000000000E+00 -0.51965097263E+03  0.51965097265E+03  0.50400001928E-02 0. -1.
    10030    2    1    2    0    0  0.00000000000E+00  0.00000000000E+00  0.79957167453E+03  0.18388736198E+04  0.16559412209E+04 0.  0.
        2    1    3    3  502    0  0.62710778207E+03  0.25942811392E+02  0.99943790312E+03  0.11801751234E+04  0.25500000920E-02 0.  1.
       -2    1    3    3    0  502 -0.62710778207E+03 -0.25942811392E+02 -0.19986622859E+03  0.65869849638E+03  0.25500000920E-02 0. -1.
</event>
<event>
 5   0  0.6774451E-04  0.1810300E+04  0.7818609E-02  0.8700841E-01
       -2   -1    0    0    0  501  0.00000000000E+00  0.00000000000E+00  0.10380737646E+04  0.10380737646E+04  0.25500000920E-02 0. -1.
        2   -1    0    0  501    0  0.00000000000E+00  0.00000000000E+00 -0.78924704550E+03  0.78924704551E+03  0.25500000920E-02 0.  1.
    10030    2    1    2    0    0  0.00000000000E+00  0.00000000000E+00  0.24882671908E+03  0.18273208101E+04  0.18103001428E+04 0.  0.
        4    1    3    3  502    0  0.31026467042E+03  0.51129525892E+03 -0.56139202817E+03  0.82027411863E+03  0.12699999809E+01 0.  1.
       -4    1    3    3    0  502 -0.31026467042E+03 -0.51129525892E+03  0.81021874724E+03  0.10070466915E+04  0.12699999809E+01 0. -1.
</event>
<event>
 5   0  0.6774451E-04  0.1760557E+04  0.7818609E-02  0.8727561E-01
       -2   -1    0    0    0  501  0.00000000000E+00  0.00000000000E+00  0.45941543065E+03  0.45941543065E+03  0.25500000920E-02 0. -1.
        2   -1    0    0  501    0  0.00000000000E+00  0.00000000000E+00 -0.16866871577E+04  0.16866871577E+04  0.25500000920E-02 0.  1.
    10030    2    1    2    0    0  0.00000000000E+00  0.00000000000E+00 -0.12272717270E+04  0.21461025883E+04  0.17605568516E+04 0.  0.
        4    1    3    3  502    0  0.75890457935E+03  0.38080816369E+02 -0.11553702170E+04  0.13828478804E+04  0.12699999809E+01 0.  1.
       -4    1    3    3    0  502 -0.75890457935E+03 -0.38080816369E+02 -0.71901510050E+02  0.76325470793E+03  0.12699999809E+01 0. -1.
</event>
<event>
 5   0  0.6547153E-04  0.1895809E+04  0.7818609E-02  0.8656945E-01
       -2   -1    0    0    0  501  0.00000000000E+00  0.00000000000E+00  0.48143510896E+03  0.48143510897E+03  0.25500000920E-02 0.  1.
        2   -1    0    0  501    0  0.00000000000E+00  0.00000000000E+00 -0.18663428831E+04  0.18663428831E+04  0.25500000920E-02 0. -1.
    10030    2    1    2    0    0  0.00000000000E+00  0.00000000000E+00 -0.13849077742E+04  0.23477779921E+04  0.18958090508E+04 0.  0.
        5    1    3    3  502    0  0.34581120658E+03 -0.59307671658E+03 -0.15018583819E+04  0.16513406891E+04  0.46999998093E+01 0. -1.
       -5    1    3    3    0  502 -0.34581120658E+03  0.59307671658E+03  0.11695060770E+03  0.69643730298E+03  0.46999998093E+01 0.  1.
</event>
<event>
 5   0  0.3308275E-04  0.1828399E+04  0.7818609E-02  0.8691342E-01
       -1   -1    0    0    0  501  0.00000000000E+00  0.00000000000E+00  0.43364409100E+03  0.43364409103E+03  0.50400001928E-02 0. -1.
        1   -1    0    0  501    0  0.00000000000E+00  0.00000000000E+00 -0.19272955965E+04  0.19272955965E+04  0.50400001928E-02 0.  1.
    10030    2    1    2    0    0  0.00000000000E+00  0.00000000000E+00 -0.14936515055E+04  0.23609396875E+04  0.18283985857E+04 0.  0.
        3    1    3    3  502    0  0.61964442193E+03  0.85025327610E+02  0.11413822630E+03  0.63577988397E+03  0.10100000352E+00 0. -1.
       -3    1    3    3    0  502 -0.61964442193E+03 -0.85025327610E+02 -0.16077897318E+04  0.17251598035E+04  0.10100000352E+00 0.  1.
</event>
<event>
 5   0  0.3377273E-04  0.1738608E+04  0.7818609E-02  0.8739646E-01
       -1   -1    0    0    0  501  0.00000000000E+00  0.00000000000E+00  0.35098126238E+03  0.35098126242E+03  0.50400001928E-02 0. -1.
        1   -1    0    0  501    0  0.00000000000E+00  0.00000000000E+00 -0.21530758740E+04  0.21530758740E+04  0.50400001928E-02 0.  1.
    10030    2    1    2    0    0  0.00000000000E+00  0.00000000000E+00 -0.18020946116E+04  0.25040571364E+04  0.17386078204E+04 0.  0.
        2    1    3    3  502    0 -0.12934112297E+02 -0.37422913164E+03 -0.20309672035E+04  0.20651979362E+04  0.25500000920E-02 0.  1.
       -2    1    3    3    0  502  0.12934112297E+02  0.37422913164E+03  0.22887259190E+03  0.43885920015E+03  0.25500000920E-02 0. -1.
</event>
<event>
 5   0  0.6771967E-04  0.1727714E+04  0.7818609E-02  0.8745714E-01
       -2   -1    0    0    0  501  0.00000000000E+00  0.00000000000E+00  0.64844963876E+03  0.64844963876E+03  0.25500000920E-02 0. -1.
        2   -1    0    0  501    0  0.00000000000E+00  0.00000000000E+00 -0.11508198301E+04  0.11508198302E+04  0.25500000920E-02 0.  1.
    10030    2    1    2    0    0  0.00000000000E+00  0.00000000000E+00 -0.50237019139E+03  0.17992694689E+04  0.17277137531E+04 0.  0.
        1    1    3    3  502    0 -0.62342578111E+03  0.57879599404E+03 -0.94680629396E+02  0.85593745617E+03  0.50400001928E-02 0. -1.
       -1    1    3    3    0  502  0.62342578111E+03 -0.57879599404E+03 -0.40768956200E+03  0.94333201274E+03  0.50400001928E-02 0.  1.
</event>
<event>
 5   0  0.3470962E-04  0.1732945E+04  0.7818609E-02  0.8742794E-01
        1   -1    0    0  501    0  0.00000000000E+00  0.00000000000E+00  0.94298707504E+03  0.94298707505E+03  0.50400001928E-02 0.  1.
       -1   -1    0    0    0  501  0.00000000000E+00  0.00000000000E+00 -0.79616678630E+03  0.79616678632E+03  0.50400001928E-02 0. -1.
    10030    2    1    2    0    0  0.00000000000E+00  0.00000000000E+00  0.14682028874E+03  0.17391538614E+04  0.17329454568E+04 0.  0.
        4    1    3    3  502    0 -0.30983422603E+03 -0.23780673668E+03  0.84963055521E+03  0.93510586827E+03  0.12699999809E+01 0.  1.
       -4    1    3    3    0  502  0.30983422603E+03  0.23780673668E+03 -0.70281026647E+03  0.80404799309E+03  0.12699999809E+01 0. -1.
</event>
<event>
 5   0  0.6774451E-04  0.1742600E+04  0.7818609E-02  0.8737434E-01
        2   -1    0    0  501    0  0.00000000000E+00  0.00000000000E+00  0.11913901326E+04  0.11913901326E+04  0.25500000920E-02 0.  1.
       -2   -1    0    0    0  501  0.00000000000E+00  0.00000000000E+00 -0.63720854368E+03  0.63720854369E+03  0.25500000920E-02 0. -1.
    10030    2    1    2    0    0  0.00000000000E+00  0.00000000000E+00  0.55418158892E+03  0.18285986763E+04  0.17426003229E+04 0.  0.
        4    1    3    3  502    0  0.25461976316E+03  0.58003093382E+03  0.90485793338E+03  0.11045526699E+04  0.12699999809E+01 0.  1.
       -4    1    3    3    0  502 -0.25461976316E+03 -0.58003093382E+03 -0.35067634446E+03  0.72404600644E+03  0.12699999809E+01 0. -1.
</event>
<event>
 5   0  0.2467375E-04  0.1308032E+04  0.7818609E-02  0.9023220E-01
       -3   -1    0    0    0  501  0.00000000000E+00  0.00000000000E+00  0.79813345923E+03  0.79813346562E+03  0.10100000352E+00 0. -1.
        3   -1    0    0  501    0  0.00000000000E+00  0.00000000000E+00 -0.53592165621E+03  0.53592166573E+03  0.10100000352E+00 0.  1.
    10030    2    1    2    0    0  0.00000000000E+00  0.00000000000E+00  0.26221180302E+03  0.13340551314E+04  0.13080321341E+04 0.  0.
        3    1    3    3  502    0  0.87732610463E+02 -0.22903922690E+03  0.74945240301E+03  0.78856508481E+03  0.10100000352E+00 0. -1.
       -3    1    3    3    0  502 -0.87732610463E+02  0.22903922690E+03 -0.48724059999E+03  0.54549004655E+03  0.10100000352E+00 0.  1.
</event>
<event>
 5   0  0.6853162E-04  0.1807649E+04  0.7818609E-02  0.8702242E-01
       -2   -1    0    0    0  501  0.00000000000E+00  0.00000000000E+00  0.69581127882E+03  0.69581127882E+03  0.25500000920E-02 0.  1.
        2   -1    0    0  501    0  0.00000000000E+00  0.00000000000E+00 -0.11740237977E+04  0.11740237977E+04  0.25500000920E-02 0. -1.
    10030    2    1    2    0    0  0.00000000000E+00  0.00000000000E+00 -0.47821251889E+03  0.18698350765E+04  0.18076493023E+04 0.  0.
        2    1    3    3  502    0  0.45558706999E+03  0.53607507169E+03 -0.82604404117E+03  0.10850275659E+04  0.25500000920E-02 0. -1.
       -2    1    3    3    0  502 -0.45558706999E+03 -0.53607507169E+03  0.34783152228E+03  0.78480751062E+03  0.25500000920E-02 0.  1.
</event>
<event>
 5   0  0.3470962E-04  0.1793595E+04  0.7818609E-02  0.8709713E-01
        1   -1    0    0  501    0  0.00000000000E+00  0.00000000000E+00  0.77892392775E+03  0.77892392776E+03  0.50400001928E-02 0. -1.
       -1   -1    0    0    0  501  0.00000000000E+00  0.00000000000E+00 -0.10325082683E+04  0.10325082683E+04  0.50400001928E-02 0.  1.
    10030    2    1    2    0    0  0.00000000000E+00  0.00000000000E+00 -0.25358434051E+03  0.18114321960E+04  0.17935945983E+04 0.  0.
        4    1    3    3  502    0  0.43640858519E+03  0.87206584387E+01  0.66439869289E+03  0.79495643851E+03  0.12699999809E+01 0. -1.
       -4    1    3    3    0  502 -0.43640858519E+03 -0.87206584387E+01 -0.91798303340E+03  0.10164757575E+04  0.12699999809E+01 0.  1.
</event>
<event>
 5   0  0.6774451E-04  0.1811089E+04  0.7818609E-02  0.8700425E-01
        2   -1    0    0  501    0  0.00000000000E+00  0.00000000000E+00  0.71991833713E+03  0.71991833713E+03  0.25500000920E-02 0. -1.
       -2   -1    0    0    0  501  0.00000000000E+00  0.00000000000E+00 -0.11390330440E+04  0.11390330440E+04  0.25500000920E-02 0.  1.
    10030    2    1    2    0    0  0.00000000000E+00  0.00000000000E+00 -0.41911470683E+03  0.18589513811E+04  0.18110889265E+04 0.  0.
        4    1    3    3  502    0 -0.63800163335E+03 -0.43954250598E+03 -0.69073780758E+03  0.10379614783E+04  0.12699999809E+01 0.  1.
       -4    1    3    3    0  502  0.63800163335E+03  0.43954250598E+03  0.27162310075E+03  0.82098990279E+03  0.12699999809E+01 0. -1.
</event>
<event>
 5   0  0.3308275E-04  0.1822578E+04  0.7818609E-02  0.8694384E-01
       -1   -1    0    0    0  501  0.00000000000E+00  0.00000000000E+00  0.84671357210E+03  0.84671357211E+03  0.50400001928E-02 0.  1.
        1   -1    0    0  501    0  0.00000000000E+00  0.00000000000E+00 -0.98078894506E+03  0.98078894508E+03  0.50400001928E-02 0. -1.
    10030    2    1    2    0    0  0.00000000000E+00  0.00000000000E+00 -0.13407537297E+03  0.18275025172E+04  0.18225776375E+04 0.  0.
        3    1    3    3  502    0 -0.86417515816E+03  0.26257544051E+03 -0.18862017045E+03  0.92267120083E+03  0.10100000352E+00 0.  1.
       -3    1    3    3    0  502  0.86417515816E+03 -0.26257544051E+03  0.54544797488E+02  0.90483131636E+03  0.10100000352E+00 0. -1.
</event>
<event>
 5   0  0.6547153E-04  0.1489680E+04  0.7818609E-02  0.8891345E-01
       -2   -1    0    0    0  501  0.00000000000E+00  0.00000000000E+00  0.78397167763E+03  0.78397167763E+03  0.25500000920E-02 0. -1.
        2   -1    0    0  501    0  0.00000000000E+00  0.00000000000E+00 -0.70766171042E+03  0.70766171042E+03  0.25500000920E-02 0.  1.
    10030    2    1    2    0    0  0.00000000000E+00  0.00000000000E+00  0.76309967207E+02  0.14916333881E+04  0.14896801513E+04 0.  0.
        5    1    3    3  502    0 -0.24917077791E+02  0.11703062133E+03  0.77427032583E+03  0.78347536946E+03  0.46999998093E+01 0. -1.
       -5    1    3    3    0  502  0.24917077791E+02 -0.11703062133E+03 -0.69796035862E+03  0.70815801859E+03  0.46999998093E+01 0.  1.
</event>
<event>
 5   0  0.6547153E-04  0.1802048E+04  0.7818609E-02  0.8705211E-01
       -2   -1    0    0    0  501  0.00000000000E+00  0.00000000000E+00  0.10186434741E+04  0.10186434741E+04  0.25500000920E-02 0. -1.
        2   -1    0    0  501    0  0.00000000000E+00  0.00000000000E+00 -0.79698560901E+03  0.79698560901E+03  0.25500000920E-02 0.  1.
    10030    2    1    2    0    0  0.00000000000E+00  0.00000000000E+00  0.22165786505E+03  0.18156290831E+04  0.18020479345E+04 0.  0.
        5    1    3    3  502    0  0.62341236016E+03  0.18965433252E+03 -0.51612304650E+03  0.83127421816E+03  0.46999998093E+01 0.  1.
       -5    1    3    3    0  502 -0.62341236016E+03 -0.18965433252E+03  0.73778091155E+03  0.98435486492E+03  0.46999998093E+01 0. -1.
</event>
<event>
 5   0  0.6771967E-04  0.1799472E+04  0.7818609E-02  0.8706580E-01
        2   -1    0    0  501    0  0.00000000000E+00  0.00000000000E+00  0.27477489514E+04  0.27477489514E+04  0.25500000920E-02 0.  1.
       -2   -1    0    0    0  501  0.00000000000E+00  0.00000000000E+00 -0.29461390262E+03  0.29461390263E+03  0.25500000920E-02 0. -1.
    10030    2    1    2    0    0  0.00000000000E+00  0.00000000000E+00  0.24531350488E+04  0.30423628541E+04  0.17994721915E+04 0.  0.
        1    1    3    3  502    0 -0.80579547574E+03  0.13377649960E+03  0.58874079480E+03  0.10068854076E+04  0.50400001928E-02 0.  1.
       -1    1    3    3    0  502  0.80579547574E+03 -0.13377649960E+03  0.18643942540E+04  0.20354774464E+04  0.50400001928E-02 0. -1.
</event>
<event>
 5   0  0.3377273E-04  0.1740556E+04  0.7818609E-02  0.8738566E-01
        1   -1    0    0  501    0  0.00000000000E+00  0.00000000000E+00  0.12322345058E+04  0.12322345058E+04  0.50400001928E-02 0.  1.
       -1   -1    0    0    0  501  0.00000000000E+00  0.00000000000E+00 -0.61464258585E+03  0.61464258587E+03  0.50400001928E-02 0. -1.
    10030    2    1    2    0    0  0.00000000000E+00  0.00000000000E+00  0.61759191998E+03  0.18468770917E+04  0.17405560066E+04 0.  0.
        2    1    3    3  502    0 -0.41903785962E+02  0.85641039046E+03  0.46685524776E+03  0.97629324823E+03  0.25500000920E-02 0.  1.
       -2    1    3    3    0  502  0.41903785962E+02 -0.85641039046E+03  0.15073667222E+03  0.87058384348E+03  0.25500000920E-02 0. -1.
</event>
<event>
 5   0  0.3308275E-04  0.1792060E+04  0.7818609E-02  0.8710534E-01
        1   -1    0    0  501    0  0.00000000000E+00  0.00000000000E+00  0.11550180566E+04  0.11550180566E+04  0.50400001928E-02 0. -1.
       -1   -1    0    0    0  501  0.00000000000E+00  0.00000000000E+00 -0.69511411500E+03  0.69511411502E+03  0.50400001928E-02 0.  1.
    10030    2    1    2    0    0  0.00000000000E+00  0.00000000000E+00  0.45990394163E+03  0.18501321717E+04  0.17920595462E+04 0.  0.
        3    1    3    3  502    0 -0.68461915920E+03 -0.87565139149E+02  0.81986879097E+03  0.10717069988E+04  0.10100000352E+00 0. -1.
       -3    1    3    3    0  502  0.68461915920E+03  0.87565139149E+02 -0.35996484933E+03  0.77842517283E+03  0.10100000352E+00 0.  1.
</event>
<event>
 5   0  0.3308275E-04  0.1784560E+04  0.7818609E-02  0.8714554E-01
        1   -1    0    0  501    0  0.00000000000E+00  0.00000000000E+00  0.69158523585E+03  0.69158523587E+03  0.50400001928E-02 0.  1.
       -1   -1    0    0    0  501  0.00000000000E+00  0.00000000000E+00 -0.11512153105E+04  0.11512153105E+04  0.50400001928E-02 0. -1.
    10030    2    1    2    0    0  0.00000000000E+00  0.00000000000E+00 -0.45963007464E+03  0.18428005464E+04  0.17845599032E+04 0.  0.
        3    1    3    3  502    0  0.45985609113E+03  0.62307460586E+03  0.22790470923E+03  0.80723612141E+03  0.10100000352E+00 0.  1.
       -3    1    3    3    0  502 -0.45985609113E+03 -0.62307460586E+03 -0.68753478387E+03  0.10355644250E+04  0.10100000352E+00 0. -1.
</event>
<event>
 5   0  0.6774451E-04  0.1784990E+04  0.7818609E-02  0.8714323E-01
        2   -1    0    0  501    0  0.00000000000E+00  0.00000000000E+00  0.16859821413E+04  0.16859821413E+04  0.25500000920E-02 0.  1.
       -2   -1    0    0    0  501  0.00000000000E+00  0.00000000000E+00 -0.47245297101E+03  0.47245297102E+03  0.25500000920E-02 0. -1.
    10030    2    1    2    0    0  0.00000000000E+00  0.00000000000E+00  0.12135291703E+04  0.21584351123E+04  0.17849899403E+04 0.  0.
        4    1    3    3  502    0  0.62459319926E+03  0.21729361706E+03 -0.11796990804E+03  0.67175270203E+03  0.12699999809E+01 0. -1.
       -4    1    3    3    0  502 -0.62459319926E+03 -0.21729361706E+03  0.13314990784E+04  0.14866824103E+04  0.12699999809E+01 0.  1.
</event>
<event>
 5   0  0.3413839E-04  0.1768276E+04  0.7818609E-02  0.8723354E-01
        1   -1    0    0  501    0  0.00000000000E+00  0.00000000000E+00  0.13767953455E+04  0.13767953455E+04  0.50400001928E-02 0.  1.
       -1   -1    0    0    0  501  0.00000000000E+00  0.00000000000E+00 -0.56776773504E+03  0.56776773507E+03  0.50400001928E-02 0. -1.
    10030    2    1    2    0    0  0.00000000000E+00  0.00000000000E+00  0.80902761047E+03  0.19445630806E+04  0.17682759682E+04 0.  0.
        5    1    3    3  502    0 -0.68453249426E+03  0.37299547925E+03 -0.54162261510E+02  0.78145121653E+03  0.46999998093E+01 0. -1.
       -5    1    3    3    0  502  0.68453249426E+03 -0.37299547925E+03  0.86318987198E+03  0.11631118641E+04  0.46999998093E+01 0.  1.
</event>
<event>
 5   0  0.3470962E-04  0.1799932E+04  0.7818609E-02  0.8706335E-01
        1   -1    0    0  501    0  0.00000000000E+00  0.00000000000E+00  0.15385295035E+04  0.15385295035E+04  0.50400001928E-02 0. -1.
       -1   -1    0    0    0  501  0.00000000000E+00  0.00000000000E+00 -0.52643714150E+03  0.52643714153E+03  0.50400001928E-02 0.  1.
    10030    2    1    2    0    0  0.00000000000E+00  0.00000000000E+00  0.10120923620E+04  0.20649666451E+04  0.17999323032E+04 0.  0.
        4    1    3    3  502    0 -0.76564038244E+03 -0.84506954603E+02  0.10399670707E+04  0.12941714499E+04  0.12699999809E+01 0. -1.
       -4    1    3    3    0  502  0.76564038244E+03  0.84506954603E+02 -0.27874708726E+02  0.77079519516E+03  0.12699999809E+01 0.  1.
</event>
<event>
 5   0  0.3377273E-04  0.1624079E+04  0.7818609E-02  0.8805890E-01
        1   -1    0    0  501    0  0.00000000000E+00  0.00000000000E+00  0.60658170581E+03  0.60658170583E+03  0.50400001928E-02 0. -1.
       -1   -1    0    0    0  501  0.00000000000E+00  0.00000000000E+00 -0.10870891628E+04  0.10870891628E+04  0.50400001928E-02 0.  1.
    10030    2    1    2    0    0  0.00000000000E+00  0.00000000000E+00 -0.48050745695E+03  0.16936708686E+04  0.16240793069E+04 0.  0.
        2    1    3    3  502    0 -0.27086198382E+03  0.73732512520E+03 -0.45497406768E+03  0.90775324665E+03  0.25500000920E-02 0.  1.
       -2    1    3    3    0  502  0.27086198382E+03 -0.73732512520E+03 -0.25533389275E+02  0.78591762196E+03  0.25500000920E-02 0. -1.
</event>
<event>
 5   0  0.6929121E-04  0.1750220E+04  0.7818609E-02  0.8733229E-01
       -2   -1    0    0    0  501  0.00000000000E+00  0.00000000000E+00  0.42041466000E+03  0.42041466001E+03  0.25500000920E-02 0.  1.
        2   -1    0    0  501    0  0.00000000000E+00  0.00000000000E+00 -0.18215759224E+04  0.18215759224E+04  0.25500000920E-02 0. -1.
    10030    2    1    2    0    0  0.00000000000E+00  0.00000000000E+00 -0.14011612624E+04  0.22419905824E+04  0.17502196686E+04 0.  0.
        3    1    3    3  502    0  0.55865099964E+03 -0.44298399006E+03 -0.13505945201E+04  0.15272299508E+04  0.10100000352E+00 0. -1.
       -3    1    3    3    0  502 -0.55865099964E+03  0.44298399006E+03 -0.50566742337E+02  0.71476063160E+03  0.10100000352E+00 0.  1.
</event>
<event>
 5   0  0.6774451E-04  0.1818734E+04  0.7818609E-02  0.8696400E-01
       -2   -1    0    0    0  501  0.00000000000E+00  0.00000000000E+00  0.67960869730E+03  0.67960869730E+03  0.25500000920E-02 0. -1.
        2   -1    0    0  501    0  0.00000000000E+00  0.00000000000E+00 -0.12168002717E+04  0.12168002717E+04  0.25500000920E-02 0.  1.
    10030    2    1    2    0    0  0.00000000000E+00  0.00000000000E+00 -0.53719157439E+03  0.18964089690E+04  0.18187336776E+04 0.  0.
        4    1    3    3  502    0 -0.39027329369E+03 -0.26582536370E+03 -0.10789419865E+04  0.11777494601E+04  0.12699999809E+01 0.  1.
       -4    1    3    3    0  502  0.39027329369E+03  0.26582536370E+03  0.54175041210E+03  0.71865950885E+03  0.12699999809E+01 0. -1.
</event>
<event>
 5   0  0.6771967E-04  0.1784199E+04  0.7818609E-02  0.8714748E-01
        2   -1    0    0  501    0  0.00000000000E+00  0.00000000000E+00  0.74524254791E+03  0.74524254791E+03  0.25500000920E-02 0. -1.
       -2   -1    0    0    0  501  0.00000000000E+00  0.00000000000E+00 -0.10678959004E+04  0.10678959004E+04  0.25500000920E-02 0.  1.
    10030    2    1    2    0    0  0.00000000000E+00  0.00000000000E+00 -0.32265335251E+03  0.18131384483E+04  0.17841989370E+04 0.  0.
        1    1    3    3  502    0 -0.66280327709E+03 -0.43858304297E+03  0.25043452806E+03  0.83329509933E+03  0.50400001928E-02 0.  1.
       -1    1    3    3    0  502  0.66280327709E+03  0.43858304297E+03 -0.57308788057E+03  0.97984334900E+03  0.50400001928E-02 0. -1.
</event>
<event>
 5   0  0.6929121E-04  0.1827792E+04  0.7818609E-02  0.8691658E-01
        2   -1    0    0  501    0  0.00000000000E+00  0.00000000000E+00  0.88357279965E+03  0.88357279966E+03  0.25500000920E-02 0. -1.
       -2   -1    0    0    0  501  0.00000000000E+00  0.00000000000E+00 -0.94525941353E+03  0.94525941353E+03  0.25500000920E-02 0.  1.
    10030    2    1    2    0    0  0.00000000000E+00  0.00000000000E+00 -0.61686613874E+02  0.18288322132E+04  0.18277915706E+04 0.  0.
        3    1    3    3  502    0  0.18504935323E+03  0.43381158534E+03  0.75239847818E+03  0.88799731693E+03  0.10100000352E+00 0. -1.
       -3    1    3    3    0  502 -0.18504935323E+03 -0.43381158534E+03 -0.81408509206E+03  0.94083489626E+03  0.10100000352E+00 0.  1.
</event>
<event>
 5   0  0.3413839E-04  0.1774142E+04  0.7818609E-02  0.8720173E-01
        1   -1    0    0  501    0  0.00000000000E+00  0.00000000000E+00  0.60717821348E+03  0.60717821350E+03  0.50400001928E-02 0.  1.
       -1   -1    0    0    0  501  0.00000000000E+00  0.00000000000E+00 -0.12959863270E+04  0.12959863270E+04  0.50400001928E-02 0. -1.
    10030    2    1    2    0    0  0.00000000000E+00  0.00000000000E+00 -0.68880811353E+03  0.19031645405E+04  0.17741416660E+04 0.  0.
        5    1    3    3  502    0  0.61420544487E+02  0.43073112340E+03 -0.11736487897E+04  0.12517089740E+04  0.46999998093E+01 0. -1.
       -5    1    3    3    0  502 -0.61420544487E+02 -0.43073112340E+03  0.48484067616E+03  0.65145556657E+03  0.46999998093E+01 0.  1.
</event>
<event>
 5   0  0.3470962E-04  0.1088860E+04  0.7818609E-02  0.9216118E-01
        1   -1    0    0  501    0  0.00000000000E+00  0.00000000000E+00  0.12080715597E+04  0.12080715597E+04  0.50400001928E-02 0.  1.
       -1   -1    0    0    0  501  0.00000000000E+00  0.00000000000E+00 -0.24535300822E+03  0.24535300827E+03  0.50400001928E-02 0. -1.
    10030    2    1    2    0    0  0.00000000000E+00  0.00000000000E+00  0.96271855150E+03  0.14534245680E+04  0.10888599384E+04 0.  0.
        4    1    3    3  502    0 -0.27186591334E+02  0.48852255797E+03  0.80006664509E+03  0.93781749284E+03  0.12699999809E+01 0.  1.
       -4    1    3    3    0  502  0.27186591334E+02 -0.48852255797E+03  0.16265190641E+03  0.51560707516E+03  0.12699999809E+01 0. -1.
</event>
<event>
 5   0  0.3413839E-04  0.1815742E+04  0.7818609E-02  0.8697972E-01
        1   -1    0    0  501    0  0.00000000000E+00  0.00000000000E+00  0.20114416467E+04  0.20114416467E+04  0.50400001928E-02 0.  1.
       -1   -1    0    0    0  501  0.00000000000E+00  0.00000000000E+00 -0.40977073301E+03  0.40977073304E+03  0.50400001928E-02 0. -1.
    10030    2    1    2    0    0  0.00000000000E+00  0.00000000000E+00  0.16016709137E+04  0.24212123797E+04  0.18157421821E+04 0.  0.
        5    1    3    3  502    0 -0.77099019018E+03 -0.17642526955E+03  0.20650274759E+03  0.81744554794E+03  0.46999998093E+01 0. -1.
       -5    1    3    3    0  502  0.77099019018E+03  0.17642526955E+03  0.13951681661E+04  0.16037668318E+04  0.46999998093E+01 0.  1.
</event>
<event>
 5   0  0.3404261E-04  0.2013492E+04  0.7818609E-02  0.8600338E-01
        1   -1    0    0  501    0  0.00000000000E+00  0.00000000000E+00  0.18499547335E+04  0.18499547335E+04  0.50400001928E-02 0. -1.
       -1   -1    0    0    0  501  0.00000000000E+00  0.00000000000E+00 -0.54787166432E+03  0.54787166434E+03  0.50400001928E-02 0.  1.
    10030    2    1    2    0    0  0.00000000000E+00  0.00000000000E+00  0.13020830692E+04  0.23978263979E+04  0.20134922685E+04 0.  0.
        1    1    3    3  502    0  0.26932576601E+03  0.12454203082E+03  0.17966963863E+04  0.18210340443E+04  0.50400001928E-02 0. -1.
       -1    1    3    3    0  502 -0.26932576601E+03 -0.12454203082E+03 -0.49461331713E+03  0.57679235361E+03  0.50400001928E-02 0.  1.
</event>
<event>
 5   0  0.6774451E-04  0.1396710E+04  0.7818609E-02  0.8956204E-01
        2   -1    0    0  501    0  0.00000000000E+00  0.00000000000E+00  0.14403244131E+04  0.14403244131E+04  0.25500000920E-02 0. -1.
       -2   -1    0    0    0  501  0.00000000000E+00  0.00000000000E+00 -0.33860387049E+03  0.33860387050E+03  0.25500000920E-02 0.  1.
    10030    2    1    2    0    0  0.00000000000E+00  0.00000000000E+00  0.11017205426E+04  0.17789282836E+04  0.13967095919E+04 0.  0.
        4    1    3    3  502    0  0.84794973504E+01  0.43977512471E+03 -0.14000153647E+03  0.46160167385E+03  0.12699999809E+01 0.  1.
       -4    1    3    3    0  502 -0.84794973504E+01 -0.43977512471E+03  0.12417220790E+04  0.13173266097E+04  0.12699999809E+01 0. -1.
</event>
<event>
 5   0  0.6771967E-04  0.1365677E+04  0.7818609E-02  0.8979045E-01
        2   -1    0    0  501    0  0.00000000000E+00  0.00000000000E+00  0.19556458621E+04  0.19556458621E+04  0.25500000920E-02 0.  1.
       -2   -1    0    0    0  501  0.00000000000E+00  0.00000000000E+00 -0.23842169524E+03  0.23842169526E+03  0.25500000920E-02 0. -1.
    10030    2    1    2    0    0  0.00000000000E+00  0.00000000000E+00  0.17172241668E+04  0.21940675573E+04  0.13656769775E+04 0.  0.
        1    1    3    3  502    0  0.41671848901E+03 -0.44181486996E+03  0.35718004509E+03  0.70457949377E+03  0.50400001928E-02 0. -1.
       -1    1    3    3    0  502 -0.41671848901E+03  0.44181486996E+03  0.13600441217E+04  0.14894880636E+04  0.50400001928E-02 0.  1.
</event>
<event>
 5   0  0.6853162E-04  0.1764126E+04  0.7818609E-02  0.8725613E-01
       -2   -1    0    0    0  501  0.00000000000E+00  0.00000000000E+00  0.39612089575E+03  0.39612089576E+03  0.25500000920E-02 0. -1.
        2   -1    0    0  501    0  0.00000000000E+00  0.00000000000E+00 -0.19641355188E+04  0.19641355188E+04  0.25500000920E-02 0.  1.
    10030    2    1    2    0    0  0.00000000000E+00  0.00000000000E+00 -0.15680146231E+04  0.23602564146E+04  0.17641259831E+04 0.  0.
        2    1    3    3  502    0 -0.72640989795E+03  0.49288074425E+03 -0.89935071454E+03  0.12567555354E+04  0.25500000920E-02 0.  1.
       -2    1    3    3    0  502  0.72640989795E+03 -0.49288074425E+03 -0.66866390852E+03  0.11035008792E+04  0.25500000920E-02 0. -1.
</event>
<event>
 5   0  0.3308275E-04  0.1789167E+04  0.7818609E-02  0.8712082E-01
        1   -1    0    0  501    0  0.00000000000E+00  0.00000000000E+00  0.68145705655E+03  0.68145705657E+03  0.50400001928E-02 0. -1.
       -1   -1    0    0    0  501  0.00000000000E+00  0.00000000000E+00 -0.11743657635E+04  0.11743657635E+04  0.50400001928E-02 0.  1.
    10030    2    1    2    0    0  0.00000000000E+00  0.00000000000E+00 -0.49290870698E+03  0.18558228201E+04  0.17891672214E+04 0.  0.
        3    1    3    3  502    0 -0.41964212411E+03 -0.42792862494E+03 -0.93531779514E+03  0.11108743441E+04  0.10100000352E+00 0.  1.
       -3    1    3    3    0  502  0.41964212411E+03  0.42792862494E+03  0.44240908816E+03  0.74494847597E+03  0.10100000352E+00 0. -1.
</event>
<event>
 5   0  0.6929121E-04  0.1830256E+04  0.7818609E-02  0.8690373E-01
       -2   -1    0    0    0  501  0.00000000000E+00  0.00000000000E+00  0.55724604236E+03  0.55724604237E+03  0.25500000920E-02 0. -1.
        2   -1    0    0  501    0  0.00000000000E+00  0.00000000000E+00 -0.15028530488E+04  0.15028530488E+04  0.25500000920E-02 0.  1.
    10030    2    1    2    0    0  0.00000000000E+00  0.00000000000E+00 -0.94560700643E+03  0.20600990912E+04  0.18302556255E+04 0.  0.
        3    1    3    3  502    0 -0.42036964452E+03 -0.86606919541E+02 -0.13825392093E+04  0.14476277394E+04  0.10100000352E+00 0.  1.
       -3    1    3    3    0  502  0.42036964452E+03  0.86606919541E+02  0.43693220288E+03  0.61247135171E+03  0.10100000352E+00 0. -1.
</event>
<event>
 5   0  0.6547153E-04  0.1768413E+04  0.7818609E-02  0.8723280E-01
        2   -1    0    0  501    0  0.00000000000E+00  0.00000000000E+00  0.11307111074E+04  0.11307111074E+04  0.25500000920E-02 0.  1.
       -2   -1    0    0    0  501  0.00000000000E+00  0.00000000000E+00 -0.69144193976E+03  0.69144193977E+03  0.25500000920E-02 0. -1.
    10030    2    1    2    0    0  0.00000000000E+00  0.00000000000E+00  0.43926916759E+03  0.18221530471E+04  0.17684129398E+04 0.  0.
        5    1    3    3  502    0 -0.29071373453E+03 -0.33331324730E+03 -0.56926037905E+03  0.72089643183E+03  0.46999998093E+01 0. -1.
       -5    1    3    3    0  502  0.29071373453E+03  0.33331324730E+03  0.10085295466E+04  0.11012566153E+04  0.46999998093E+01 0.  1.
</event>
<event>
 5   0  0.6771967E-04  0.1779880E+04  0.7818609E-02  0.8717073E-01
       -2   -1    0    0    0  501  0.00000000000E+00  0.00000000000E+00  0.42464657793E+03  0.42464657794E+03  0.25500000920E-02 0. -1.
        2   -1    0    0  501    0  0.00000000000E+00  0.00000000000E+00 -0.18650643298E+04  0.18650643298E+04  0.25500000920E-02 0.  1.
    10030    2    1    2    0    0  0.00000000000E+00  0.00000000000E+00 -0.14404177518E+04  0.22897109077E+04  0.17798799794E+04 0.  0.
        1    1    3    3  502    0 -0.57627084616E+03  0.50128176967E+03 -0.13077924667E+04  0.15144941851E+04  0.50400001928E-02 0.  1.
       -1    1    3    3    0  502  0.57627084616E+03 -0.50128176967E+03 -0.13262528516E+03  0.77521672262E+03  0.50400001928E-02 0. -1.
</event>
<event>
 5   0  0.3308275E-04  0.1923670E+04  0.7818609E-02  0.8643163E-01
       -1   -1    0    0    0  501  0.00000000000E+00  0.00000000000E+00  0.15492066054E+04  0.15492066054E+04  0.50400001928E-02 0. -1.
        1   -1    0    0  501    0  0.00000000000E+00  0.00000000000E+00 -0.59716172567E+03  0.59716172569E+03  0.50400001928E-02 0.  1.
    10030    2    1    2    0    0  0.00000000000E+00  0.00000000000E+00  0.95204487976E+03  0.21463683311E+04  0.19236703355E+04 0.  0.
        3    1    3    3  502    0  0.67421397906E+03 -0.23579468122E+03 -0.24272850167E+03  0.75437441432E+03  0.10100000352E+00 0.  1.
       -3    1    3    3    0  502 -0.67421397906E+03  0.23579468122E+03  0.11947733814E+04  0.13919939168E+04  0.10100000352E+00 0. -1.
</event>
<event>
 5   0  0.3470962E-04  0.1933251E+04  0.7818609E-02  0.8638480E-01
        1   -1    0    0  501    0  0.00000000000E+00  0.00000000000E+00  0.15587502881E+04  0.15587502881E+04  0.50400001928E-02 0.  1.
       -1   -1    0    0    0  501  0.00000000000E+00  0.00000000000E+00 -0.59943197081E+03  0.59943197083E+03  0.50400001928E-02 0. -1.
    10030    2    1    2    0    0  0.00000000000E+00  0.00000000000E+00  0.95931831730E+03  0.21581822589E+04  0.19332508965E+04 0.  0.
        4    1    3    3  502    0  0.17805423175E+03 -0.46258515899E+03  0.14060771816E+04  0.14908866464E+04  0.12699999809E+01 0.  1.
       -4    1    3    3    0  502 -0.17805423175E+03  0.46258515899E+03 -0.44675886434E+03  0.66729561255E+03  0.12699999809E+01 0. -1.
</event>
<event>
 5   0  0.3308275E-04  0.1616501E+04  0.7818609E-02  0.8810475E-01
       -1   -1    0    0    0  501  0.00000000000E+00  0.00000000000E+00  0.70288073228E+03  0.70288073229E+03  0.50400001928E-02 0.  1.
        1   -1    0    0  501    0  0.00000000000E+00  0.00000000000E+00 -0.92941590791E+03  0.92941590792E+03  0.50400001928E-02 0. -1.
    10030    2    1    2    0    0  0.00000000000E+00  0.00000000000E+00 -0.22653517564E+03  0.16322966402E+04  0.16165005833E+04 0.  0.
        3    1    3    3  502    0  0.32003352716E+02  0.39504845244E+03 -0.82455201263E+03  0.91486257224E+03  0.10100000352E+00 0. -1.
       -3    1    3    3    0  502 -0.32003352716E+02 -0.39504845244E+03  0.59801683699E+03  0.71743406797E+03  0.10100000352E+00 0.  1.
</event>
<event>
 5   0  0.6774451E-04  0.1777729E+04  0.7818609E-02  0.8718233E-01
        2   -1    0    0  501    0  0.00000000000E+00  0.00000000000E+00  0.89639404287E+03  0.89639404287E+03  0.25500000920E-02 0. -1.
       -2   -1    0    0    0  501  0.00000000000E+00  0.00000000000E+00 -0.88139824482E+03  0.88139824482E+03  0.25500000920E-02 0.  1.
    10030    2    1    2    0    0  0.00000000000E+00  0.00000000000E+00  0.14995798051E+02  0.17777922877E+04  0.17777290413E+04 0.  0.
        4    1    3    3  502    0 -0.82683476143E+02 -0.14713226491E+03 -0.86522671625E+03  0.88153465276E+03  0.12699999809E+01 0.  1.
       -4    1    3    3    0  502  0.82683476143E+02  0.14713226491E+03  0.88022251430E+03  0.89625763494E+03  0.12699999809E+01 0. -1.
</event>
<event>
 5   0  0.6547153E-04  0.1804346E+04  0.7818609E-02  0.8703992E-01
       -2   -1    0    0    0  501  0.00000000000E+00  0.00000000000E+00  0.64856347285E+03  0.64856347286E+03  0.25500000920E-02 0.  1.
        2   -1    0    0  501    0  0.00000000000E+00  0.00000000000E+00 -0.12549519116E+04  0.12549519116E+04  0.25500000920E-02 0. -1.
    10030    2    1    2    0    0  0.00000000000E+00  0.00000000000E+00 -0.60638843871E+03  0.19035153844E+04  0.18043458316E+04 0.  0.
        5    1    3    3  502    0  0.27259129836E+03 -0.37014414137E+03  0.51573127554E+03  0.69087881709E+03  0.46999998093E+01 0.  1.
       -5    1    3    3    0  502 -0.27259129836E+03  0.37014414137E+03 -0.11221197142E+04  0.12126365673E+04  0.46999998093E+01 0. -1.
</event>
<event>
 5   0  0.6853162E-04  0.1795493E+04  0.7818609E-02  0.8708700E-01
       -2   -1    0    0    0  501  0.00000000000E+00  0.00000000000E+00  0.12794279916E+04  0.12794279916E+04  0.25500000920E-02 0. -1.
        2   -1    0    0  501    0  0.00000000000E+00  0.00000000000E+00 -0.62992897103E+03  0.62992897103E+03  0.25500000920E-02 0.  1.
    10030    2    1    2    0    0  0.00000000000E+00  0.00000000000E+00  0.64949902055E+03  0.19093569626E+04  0.17954929777E+04 0.  0.
        2    1    3    3  502    0 -0.14801726666E+03 -0.43915618833E+02  0.12652036739E+04  0.12745893571E+04  0.25500000920E-02 0. -1.
       -2    1    3    3    0  502  0.14801726666E+03  0.43915618833E+02 -0.61570465336E+03  0.63476760549E+03  0.25500000920E-02 0.  1.
</event>
<event>
 5   0  0.6929121E-04  0.1739137E+04  0.7818609E-02  0.8739353E-01
       -2   -1    0    0    0  501  0.00000000000E+00  0.00000000000E+00  0.73287398397E+03  0.73287398398E+03  0.25500000920E-02 0.  1.
        2   -1    0    0  501    0  0.00000000000E+00  0.00000000000E+00 -0.10317590268E+04  0.10317590268E+04  0.25500000920E-02 0. -1.
    10030    2    1    2    0    0  0.00000000000E+00  0.00000000000E+00 -0.29888504282E+03  0.17646330108E+04  0.17391369681E+04 0.  0.
        3    1    3    3  502    0  0.46081321151E+02 -0.81420664792E+03  0.15679897046E+03  0.83044679602E+03  0.10100000352E+00 0.  1.
       -3    1    3    3    0  502 -0.46081321151E+02  0.81420664792E+03 -0.45568401328E+03  0.93418621476E+03  0.10100000352E+00 0. -1.
</event>
<event>
 5   0  0.6853162E-04  0.1802084E+04  0.7818609E-02  0.8705192E-01
       -2   -1    0    0    0  501  0.00000000000E+00  0.00000000000E+00  0.67779433143E+03  0.67779433143E+03  0.25500000920E-02 0. -1.
        2   -1    0    0  501    0  0.00000000000E+00  0.00000000000E+00 -0.11978219112E+04  0.11978219112E+04  0.25500000920E-02 0.  1.
    10030    2    1    2    0    0  0.00000000000E+00  0.00000000000E+00 -0.52002757976E+03  0.18756162426E+04  0.18020842394E+04 0.  0.
        2    1    3    3  502    0  0.31877677304E+03  0.42432158636E+03  0.49785257579E+03  0.72768442811E+03  0.25500000920E-02 0. -1.
       -2    1    3    3    0  502 -0.31877677304E+03 -0.42432158636E+03 -0.10178801556E+04  0.11479318145E+04  0.25500000920E-02 0.  1.
</event>
<event>
 5   0  0.6929121E-04  0.1824876E+04  0.7818609E-02  0.8693181E-01
        2   -1    0    0  501    0  0.00000000000E+00  0.00000000000E+00  0.96505873940E+03  0.96505873940E+03  0.25500000920E-02 0. -1.
       -2   -1    0    0    0  501  0.00000000000E+00  0.00000000000E+00 -0.86268666689E+03  0.86268666689E+03  0.25500000920E-02 0.  1.
    10030    2    1    2    0    0  0.00000000000E+00  0.00000000000E+00  0.10237207251E+03  0.18277454063E+04  0.18248762229E+04 0.  0.
        3    1    3    3  502    0  0.88659659546E+03  0.21560078292E+03  0.48717131136E+02  0.91373441970E+03  0.10100000352E+00 0. -1.
       -3    1    3    3    0  502 -0.88659659546E+03 -0.21560078292E+03  0.53654941372E+02  0.91401098659E+03  0.10100000352E+00 0.  1.
</event>
<event>
 5   0  0.6929121E-04  0.1820704E+04  0.7818609E-02  0.8695366E-01
        2   -1    0    0  501    0  0.00000000000E+00  0.00000000000E+00  0.17822519959E+04  0.17822519959E+04  0.25500000920E-02 0.  1.
       -2   -1    0    0    0  501  0.00000000000E+00  0.00000000000E+00 -0.46499638197E+03  0.46499638198E+03  0.25500000920E-02 0. -1.
    10030    2    1    2    0    0  0.00000000000E+00  0.00000000000E+00  0.13172556139E+04  0.22472483778E+04  0.18207039626E+04 0.  0.
        3    1    3    3  502    0  0.55381621918E+03 -0.31603545705E+03 -0.14331812023E+03  0.65355252927E+03  0.10100000352E+00 0. -1.
       -3    1    3    3    0  502 -0.55381621918E+03  0.31603545705E+03  0.14605737341E+04  0.15936958486E+04  0.10100000352E+00 0.  1.
</event>
<event>
 5   0  0.6774451E-04  0.1793036E+04  0.7818609E-02  0.8710012E-01
        2   -1    0    0  501    0  0.00000000000E+00  0.00000000000E+00  0.20658011936E+04  0.20658011936E+04  0.25500000920E-02 0. -1.
       -2   -1    0    0    0  501  0.00000000000E+00  0.00000000000E+00 -0.38907146565E+03  0.38907146566E+03  0.25500000920E-02 0.  1.
    10030    2    1    2    0    0  0.00000000000E+00  0.00000000000E+00  0.16767297279E+04  0.24548726592E+04  0.17930357477E+04 0.  0.
        4    1    3    3  502    0  0.22042481160E+03  0.85908960168E+03  0.10175079571E+04  0.13497948352E+04  0.12699999809E+01 0. -1.
       -4    1    3    3    0  502 -0.22042481160E+03 -0.85908960168E+03  0.65922177080E+03  0.11050778241E+04  0.12699999809E+01 0.  1.
</event>
<event>
 5   0  0.3308275E-04  0.1815035E+04  0.7818609E-02  0.8698345E-01
        1   -1    0    0  501    0  0.00000000000E+00  0.00000000000E+00  0.92126068859E+03  0.92126068861E+03  0.50400001928E-02 0. -1.
       -1   -1    0    0    0  501  0.00000000000E+00  0.00000000000E+00 -0.89397906389E+03  0.89397906390E+03  0.50400001928E-02 0.  1.
    10030    2    1    2    0    0  0.00000000000E+00  0.00000000000E+00  0.27281624706E+02  0.18152397525E+04  0.18150347303E+04 0.  0.
        3    1    3    3  502    0  0.63661948325E+03  0.59788445919E+03 -0.23303977008E+03  0.90391246126E+03  0.10100000352E+00 0.  1.
       -3    1    3    3    0  502 -0.63661948325E+03 -0.59788445919E+03  0.26032139478E+03  0.91132729125E+03  0.10100000352E+00 0. -1.
</event>
<event>
 5   0  0.3377273E-04  0.1779405E+04  0.7818609E-02  0.8717329E-01
        1   -1    0    0  501    0  0.00000000000E+00  0.00000000000E+00  0.20543774252E+04  0.20543774252E+04  0.50400001928E-02 0.  1.
       -1   -1    0    0    0  501  0.00000000000E+00  0.00000000000E+00 -0.38530932707E+03  0.38530932711E+03  0.50400001928E-02 0. -1.
    10030    2    1    2    0    0  0.00000000000E+00  0.00000000000E+00  0.16690680981E+04  0.24396867523E+04  0.17794052751E+04 0.  0.
        2    1    3    3  502    0 -0.23532655197E+03  0.17530631257E+03  0.19861173501E+04  0.20076785145E+04  0.25500000920E-02 0.  1.
       -2    1    3    3    0  502  0.23532655197E+03 -0.17530631257E+03 -0.31704925201E+03  0.43200823776E+03  0.25500000920E-02 0. -1.
</event>
<event>
 5   0  0.3377273E-04  0.1806085E+04  0.7818609E-02  0.8703070E-01
        1   -1    0    0  501    0  0.00000000000E+00  0.00000000000E+00  0.19840103708E+04  0.19840103708E+04  0.50400001928E-02 0. -1.
       -1   -1    0    0    0  501  0.00000000000E+00  0.00000000000E+00 -0.41102894604E+03  0.41102894607E+03  0.50400001928E-02 0.  1.
    10030    2    1    2    0    0  0.00000000000E+00  0.00000000000E+00  0.15729814248E+04  0.23950393169E+04  0.18060849279E+04 0.  0.
        2    1    3    3  502    0  0.54625122079E+03  0.69175438306E+03  0.52605179616E+03  0.10264721209E+04  0.25500000920E-02 0. -1.
       -2    1    3    3    0  502 -0.54625122079E+03 -0.69175438306E+03  0.10469296286E+04  0.13685671960E+04  0.25500000920E-02 0.  1.
</event>
<event>
 5   0  0.3308275E-04  0.1789519E+04  0.7818609E-02  0.8711893E-01
       -1   -1    0    0    0  501  0.00000000000E+00  0.00000000000E+00  0.65054532573E+03  0.65054532575E+03  0.50400001928E-02 0.  1.
        1   -1    0    0  501    0  0.00000000000E+00  0.00000000000E+00 -0.12306512870E+04  0.12306512870E+04  0.50400001928E-02 0. -1.
    10030    2    1    2    0    0  0.00000000000E+00  0.00000000000E+00 -0.58010596126E+03  0.18811966127E+04  0.17895188654E+04 0.  0.
        3    1    3    3  502    0 -0.88596055213E+03 -0.74583888224E+02 -0.18437647591E+03  0.90801076611E+03  0.10100000352E+00 0.  1.
       -3    1    3    3    0  502  0.88596055213E+03  0.74583888224E+02 -0.39572948536E+03  0.97318584664E+03  0.10100000352E+00 0. -1.
</event>
<event>
 5   0  0.6771967E-04  0.1786507E+04  0.7818609E-02  0.8713508E-01
       -2   -1    0    0    0  501  0.00000000000E+00  0.00000000000E+00  0.62782153833E+03  0.62782153834E+03  0.25500000920E-02 0. -1.
        2   -1    0    0  501    0  0.00000000000E+00  0.00000000000E+00 -0.12709051375E+04  0.12709051375E+04  0.25500000920E-02 0.  1.
    10030    2    1    2    0    0  0.00000000000E+00  0.00000000000E+00 -0.64308359917E+03  0.18987266758E+04  0.17865067797E+04 0.  0.
        1    1    3    3  502    0 -0.21816443938E+03 -0.82745059546E+03 -0.59382048415E+03  0.10415819593E+04  0.50400001928E-02 0.  1.
       -1    1    3    3    0  502  0.21816443938E+03  0.82745059546E+03 -0.49263115016E+02  0.85714471653E+03  0.50400001928E-02 0. -1.
</event>
<event>
 5   0  0.3308275E-04  0.1755038E+04  0.7818609E-02  0.8730582E-01
       -1   -1    0    0    0  501  0.00000000000E+00  0.00000000000E+00  0.96178883042E+03  0.96178883043E+03  0.50400001928E-02 0. -1.
        1   -1    0    0  501    0  0.00000000000E+00  0.00000000000E+00 -0.80063310311E+03  0.80063310313E+03  0.50400001928E-02 0.  1.
    10030    2    1    2    0    0  0.00000000000E+00  0.00000000000E+00  0.16115572730E+03  0.17624219336E+04  0.17550384336E+04 0.  0.
        3    1    3    3  502    0 -0.65882736032E+01  0.84346213621E+03  0.32360464809E+03  0.90343331743E+03  0.10100000352E+00 0. -1.
       -3    1    3    3    0  502  0.65882736032E+01 -0.84346213621E+03 -0.16244892079E+03  0.85898861613E+03  0.10100000352E+00 0.  1.
</event>
<event>
 5   0  0.6929121E-04  0.1706944E+04  0.7818609E-02  0.8757414E-01
        2   -1    0    0  501    0  0.00000000000E+00  0.00000000000E+00  0.68484916346E+03  0.68484916346E+03  0.25500000920E-02 0.  1.
       -2   -1    0    0    0  501  0.00000000000E+00  0.00000000000E+00 -0.10636129987E+04  0.10636129987E+04  0.25500000920E-02 0. -1.
    10030    2    1    2    0    0  0.00000000000E+00  0.00000000000E+00 -0.37876383520E+03  0.17484621621E+04  0.17069440206E+04 0.  0.
        3    1    3    3  502    0  0.11912249081E+03 -0.20061994667E+03 -0.10303105764E+04  0.10563988001E+04  0.10100000352E+00 0. -1.
       -3    1    3    3    0  502 -0.11912249081E+03  0.20061994667E+03  0.65154674122E+03  0.69206336200E+03  0.10100000352E+00 0.  1.
</event>
<event>
 5   0  0.3404261E-04  0.1783446E+04  0.7818609E-02  0.8715153E-01
       -1   -1    0    0    0  501  0.00000000000E+00  0.00000000000E+00  0.61272849853E+03  0.61272849855E+03  0.50400001928E-02 0. -1.
        1   -1    0    0  501    0  0.00000000000E+00  0.00000000000E+00 -0.12977518322E+04  0.12977518323E+04  0.50400001928E-02 0.  1.
    10030    2    1    2    0    0  0.00000000000E+00  0.00000000000E+00 -0.68502333371E+03  0.19104803308E+04  0.17834455771E+04 0.  0.
        1    1    3    3  502    0  0.84779456784E+03 -0.88775994209E+02 -0.62076992687E+02  0.85468728752E+03  0.50400001928E-02 0. -1.
       -1    1    3    3    0  502 -0.84779456784E+03  0.88775994209E+02 -0.62294634103E+03  0.10557930433E+04  0.50400001928E-02 0.  1.
</event>
<event>
 5   0  0.6774451E-04  0.1888125E+04  0.7818609E-02  0.8660790E-01
        2   -1    0    0  501    0  0.00000000000E+00  0.00000000000E+00  0.11545328446E+04  0.11545328446E+04  0.25500000920E-02 0. -1.
       -2   -1    0    0    0  501  0.00000000000E+00  0.00000000000E+00 -0.77196061116E+03  0.77196061116E+03  0.25500000920E-02 0.  1.
    10030    2    1    2    0    0  0.00000000000E+00  0.00000000000E+00  0.38257223348E+03  0.19264934558E+04  0.18881248691E+04 0.  0.
        4    1    3    3  502    0 -0.48901616895E+03 -0.26269364466E+03  0.97041829365E+03  0.11179705014E+04  0.12699999809E+01 0. -1.
       -4    1    3    3    0  502  0.48901616895E+03  0.26269364466E+03 -0.58784606017E+03  0.80852295441E+03  0.12699999809E+01 0.  1.
</event>
<event>
 5   0  0.6774451E-04  0.1698559E+04  0.7818609E-02  0.8762187E-01
        2   -1    0    0  501    0  0.00000000000E+00  0.00000000000E+00  0.10986439254E+04  0.10986439254E+04  0.25500000920E-02 0. -1.
       -2   -1    0    0    0  501  0.00000000000E+00  0.00000000000E+00 -0.65651462862E+03  0.65651462863E+03  0.25500000920E-02 0.  1.
    10030    2    1    2    0    0  0.00000000000E+00  0.00000000000E+00  0.44212929673E+03  0.17551585540E+04  0.16985591643E+04 0.  0.
        4    1    3    3  502    0  0.33084725600E+02  0.14052784322E+03 -0.64374100002E+03  0.65973234102E+03  0.12699999809E+01 0.  1.
       -4    1    3    3    0  502 -0.33084725600E+02 -0.14052784322E+03  0.10858702967E+04  0.10954262130E+04  0.12699999809E+01 0. -1.
</event>
<event>
 5   0  0.3413839E-04  0.1832368E+04  0.7818609E-02  0.8689274E-01
        1   -1    0    0  501    0  0.00000000000E+00  0.00000000000E+00  0.12179466210E+04  0.12179466210E+04  0.50400001928E-02 0.  1.
       -1   -1    0    0    0  501  0.00000000000E+00  0.00000000000E+00 -0.68918677681E+03  0.68918677683E+03  0.50400001928E-02 0. -1.
    10030    2    1    2    0    0  0.00000000000E+00  0.00000000000E+00  0.52875984414E+03  0.19071333978E+04  0.18323675462E+04 0.  0.
        5    1    3    3  502    0  0.47375192225E+03 -0.39543962541E+03 -0.44041903922E+03  0.75815855946E+03  0.46999998093E+01 0. -1.
       -5    1    3    3    0  502 -0.47375192225E+03  0.39543962541E+03  0.96917888336E+03  0.11489748383E+04  0.46999998093E+01 0.  1.
</event>
<event>
 5   0  0.3308275E-04  0.1796892E+04  0.7818609E-02  0.8707954E-01
       -1   -1    0    0    0  501  0.00000000000E+00  0.00000000000E+00  0.16684364641E+04  0.16684364641E+04  0.50400001928E-02 0. -1.
        1   -1    0    0  501    0  0.00000000000E+00  0.00000000000E+00 -0.48380923884E+03  0.48380923886E+03  0.50400001928E-02 0.  1.
    10030    2    1    2    0    0  0.00000000000E+00  0.00000000000E+00  0.11846272252E+04  0.21522457029E+04  0.17968917338E+04 0.  0.
        3    1    3    3  502    0 -0.50827787177E+03  0.62759319006E+03  0.12077715716E+03  0.81658235288E+03  0.10100000352E+00 0. -1.
       -3    1    3    3    0  502  0.50827787177E+03 -0.62759319006E+03  0.10638500681E+04  0.13356633501E+04  0.10100000352E+00 0.  1.
</event>
<event>
 5   0  0.3377273E-04  0.1783509E+04  0.7818609E-02  0.8715119E-01
        1   -1    0    0  501    0  0.00000000000E+00  0.00000000000E+00  0.17016804756E+04  0.17016804756E+04  0.50400001928E-02 0. -1.
       -1   -1    0    0    0  501  0.00000000000E+00  0.00000000000E+00 -0.46731801022E+03  0.46731801025E+03  0.50400001928E-02 0.  1.
    10030    2    1    2    0    0  0.00000000000E+00  0.00000000000E+00  0.12343624654E+04  0.21689984859E+04  0.17835088269E+04 0.  0.
        2    1    3    3  502    0 -0.54860351313E+02 -0.51147549802E+03 -0.26869148912E+03  0.58035502889E+03  0.25500000920E-02 0.  1.
       -2    1    3    3    0  502  0.54860351313E+02  0.51147549802E+03  0.15030539545E+04  0.15886434570E+04  0.25500000920E-02 0. -1.
</event>
<event>
 5   0  0.6774451E-04  0.1747270E+04  0.7818609E-02  0.8734855E-01
        2   -1    0    0  501    0  0.00000000000E+00  0.00000000000E+00  0.46553064734E+03  0.46553064735E+03  0.25500000920E-02 0. -1.
       -2   -1    0    0    0  501  0.00000000000E+00  0.00000000000E+00 -0.16395004934E+04  0.16395004934E+04  0.25500000920E-02 0.  1.
    10030    2    1    2    0    0  0.00000000000E+00  0.00000000000E+00 -0.11739698460E+04  0.21050311407E+04  0.17472695568E+04 0.  0.
        4    1    3    3  502    0 -0.57638206395E+03  0.48779697629E+03 -0.11163562858E+04  0.13477444652E+04  0.12699999809E+01 0.  1.
       -4    1    3    3    0  502  0.57638206395E+03 -0.48779697629E+03 -0.57613560246E+02  0.75728667554E+03  0.12699999809E+01 0. -1.
</event>
<event>
 5   0  0.3308275E-04  0.1838116E+04  0.7818609E-02  0.8686288E-01
       -1   -1    0    0    0  501  0.00000000000E+00  0.00000000000E+00  0.62588612874E+03  0.62588612876E+03  0.50400001928E-02 0.  1.
        1   -1    0    0  501    0  0.00000000000E+00  0.00000000000E+00 -0.13495547845E+04  0.13495547845E+04  0.50400001928E-02 0. -1.
    10030    2    1    2    0    0  0.00000000000E+00  0.00000000000E+00 -0.72366865573E+03  0.19754409132E+04  0.18381160133E+04 0.  0.
        3    1    3    3  502    0 -0.51453669865E+03  0.70052968752E+03 -0.40897625474E+02  0.87015083941E+03  0.10100000352E+00 0.  1.
       -3    1    3    3    0  502  0.51453669865E+03 -0.70052968752E+03 -0.68277103026E+03  0.11052900738E+04  0.10100000352E+00 0. -1.
</event>
<event>
 5   0  0.6853162E-04  0.1802934E+04  0.7818609E-02  0.8704741E-01
        2   -1    0    0  501    0  0.00000000000E+00  0.00000000000E+00  0.13254335060E+04  0.13254335060E+04  0.25500000920E-02 0. -1.
       -2   -1    0    0    0  501  0.00000000000E+00  0.00000000000E+00 -0.61311444849E+03  0.61311444850E+03  0.25500000920E-02 0.  1.
    10030    2    1    2    0    0  0.00000000000E+00  0.00000000000E+00  0.71231905755E+03  0.19385479545E+04  0.18029336461E+04 0.  0.
        2    1    3    3  502    0  0.12418862276E+03  0.20281543184E+03  0.12910963529E+04  0.13128163260E+04  0.25500000920E-02 0. -1.
       -2    1    3    3    0  502 -0.12418862276E+03 -0.20281543184E+03 -0.57877729530E+03  0.62573162856E+03  0.25500000920E-02 0.  1.
</event>
<event>
 5   0  0.6774451E-04  0.1685872E+04  0.7818609E-02  0.8769463E-01
       -2   -1    0    0    0  501  0.00000000000E+00  0.00000000000E+00  0.35316174046E+03  0.35316174047E+03  0.25500000920E-02 0. -1.
        2   -1    0    0  501    0  0.00000000000E+00  0.00000000000E+00 -0.20119431029E+04  0.20119431029E+04  0.25500000920E-02 0.  1.
    10030    2    1    2    0    0  0.00000000000E+00  0.00000000000E+00 -0.16587813624E+04  0.23651048433E+04  0.16858722703E+04 0.  0.
        4    1    3    3  502    0 -0.78810038005E+03 -0.29662245915E+03 -0.88285969143E+03  0.12200532529E+04  0.12699999809E+01 0. -1.
       -4    1    3    3    0  502  0.78810038005E+03  0.29662245915E+03 -0.77592167099E+03  0.11450515904E+04  0.12699999809E+01 0.  1.
</event>
<event>
 5   0  0.3413839E-04  0.1756859E+04  0.7818609E-02  0.8729584E-01
       -1   -1    0    0    0  501  0.00000000000E+00  0.00000000000E+00  0.42944385461E+03  0.42944385464E+03  0.50400001928E-02 0. -1.
        1   -1    0    0  501    0  0.00000000000E+00  0.00000000000E+00 -0.17968311004E+04  0.17968311004E+04  0.50400001928E-02 0.  1.
    10030    2    1    2    0    0  0.00000000000E+00  0.00000000000E+00 -0.13673872458E+04  0.22262749550E+04  0.17568586441E+04 0.  0.
        5    1    3    3  502    0 -0.27032465540E+03 -0.15917054840E+03 -0.17234120578E+04  0.17517368221E+04  0.46999998093E+01 0.  1.
       -5    1    3    3    0  502  0.27032465540E+03  0.15917054840E+03  0.35602481207E+03  0.47453813293E+03  0.46999998093E+01 0. -1.
</event>
<event>
 5   0  0.3377273E-04  0.1816016E+04  0.7818609E-02  0.8697828E-01
       -1   -1    0    0    0  501  0.00000000000E+00  0.00000000000E+00  0.12951005894E+04  0.12951005894E+04  0.50400001928E-02 0. -1.
        1   -1    0    0  501    0  0.00000000000E+00  0.00000000000E+00 -0.63661342015E+03  0.63661342017E+03  0.50400001928E-02 0.  1.
    10030    2    1    2    0    0  0.00000000000E+00  0.00000000000E+00  0.65848716925E+03  0.19317140096E+04  0.18160158762E+04 0.  0.
        2    1    3    3  502    0 -0.73869452654E+03  0.34377842895E+03  0.75555801617E+03  0.11111800608E+04  0.25500000920E-02 0. -1.
       -2    1    3    3    0  502  0.73869452654E+03 -0.34377842895E+03 -0.97070846916E+02  0.82053394877E+03  0.25500000920E-02 0.  1.
</event>
<event>
 5   0  0.6853162E-04  0.1879022E+04  0.7818609E-02  0.8665369E-01
       -2   -1    0    0    0  501  0.00000000000E+00  0.00000000000E+00  0.76461287061E+03  0.76461287062E+03  0.25500000920E-02 0.  1.
        2   -1    0    0  501    0  0.00000000000E+00  0.00000000000E+00 -0.11544160259E+04  0.11544160259E+04  0.25500000920E-02 0. -1.
    10030    2    1    2    0    0  0.00000000000E+00  0.00000000000E+00 -0.38980315529E+03  0.19190288965E+04  0.18790224602E+04 0.  0.
        2    1    3    3  502    0 -0.41322956486E+02 -0.34356608475E+03 -0.10869606788E+04  0.11407141441E+04  0.25500000920E-02 0. -1.
       -2    1    3    3    0  502  0.41322956486E+02  0.34356608475E+03  0.69715752347E+03  0.77831475244E+03  0.25500000920E-02 0.  1.
</event>
<event>
 5   0  0.6929121E-04  0.1857032E+04  0.7818609E-02  0.8676545E-01
       -2   -1    0    0    0  501  0.00000000000E+00  0.00000000000E+00  0.61196846679E+03  0.61196846679E+03  0.25500000920E-02 0. -1.
        2   -1    0    0  501    0  0.00000000000E+00  0.00000000000E+00 -0.14088008084E+04  0.14088008084E+04  0.25500000920E-02 0.  1.
    10030    2    1    2    0    0  0.00000000000E+00  0.00000000000E+00 -0.79683234157E+03  0.20207692752E+04  0.18570316860E+04 0.  0.
        3    1    3    3  502    0  0.33334499385E+03  0.30267149132E+03  0.48522528818E+03  0.66194600012E+03  0.10100000352E+00 0. -1.
       -3    1    3    3    0  502 -0.33334499385E+03 -0.30267149132E+03 -0.12820576298E+04  0.13588232750E+04  0.10100000352E+00 0.  1.
</event>
<event>
 5   0  0.6547153E-04  0.1810466E+04  0.7818609E-02  0.8700753E-01
       -2   -1    0    0    0  501  0.00000000000E+00  0.00000000000E+00  0.13960020653E+04  0.13960020653E+04  0.25500000920E-02 0. -1.
        2   -1    0    0  501    0  0.00000000000E+00  0.00000000000E+00 -0.58699557924E+03  0.58699557924E+03  0.25500000920E-02 0.  1.
    10030    2    1    2    0    0  0.00000000000E+00  0.00000000000E+00  0.80900648610E+03  0.19829976446E+04  0.18104662835E+04 0.  0.
        5    1    3    3  502    0  0.25285686619E+03  0.68821565344E+03  0.98598876351E+03  0.12287283313E+04  0.46999998093E+01 0. -1.
       -5    1    3    3    0  502 -0.25285686619E+03 -0.68821565344E+03 -0.17698227741E+03  0.75426931326E+03  0.46999998093E+01 0.  1.
</event>
<event>
 5   0  0.3377273E-04  0.1257975E+04  0.7818609E-02  0.9063572E-01
        1   -1    0    0  501    0  0.00000000000E+00  0.00000000000E+00  0.16838226331E+04  0.16838226331E+04  0.50400001928E-02 0. -1.
       -1   -1    0    0    0  501  0.00000000000E+00  0.00000000000E+00 -0.23495652423E+03  0.23495652429E+03  0.50400001928E-02 0.  1.
    10030    2    1    2    0    0  0.00000000000E+00  0.00000000000E+00  0.14488661089E+04  0.19187791574E+04  0.12579747428E+04 0.  0.
        2    1    3    3  502    0 -0.62290783655E+03  0.86672365447E+02  0.70926873483E+03  0.94793903284E+03  0.25500000920E-02 0. -1.
       -2    1    3    3    0  502  0.62290783655E+03 -0.86672365447E+02  0.73959737403E+03  0.97084012455E+03  0.25500000920E-02 0.  1.
</event>
<event>
 5   0  0.6853162E-04  0.1794323E+04  0.7818609E-02  0.8709324E-01
        2   -1    0    0  501    0  0.00000000000E+00  0.00000000000E+00  0.14760418376E+04  0.14760418376E+04  0.25500000920E-02 0.  1.
       -2   -1    0    0    0  501  0.00000000000E+00  0.00000000000E+00 -0.54530880646E+03  0.54530880647E+03  0.25500000920E-02 0. -1.
    10030    2    1    2    0    0  0.00000000000E+00  0.00000000000E+00  0.93073303114E+03  0.20213506441E+04  0.17943228391E+04 0.  0.
        2    1    3    3  502    0 -0.16082387865E+03 -0.66690746054E+03 -0.18594528818E+03  0.71077811662E+03  0.25500000920E-02 0. -1.
       -2    1    3    3    0  502  0.16082387865E+03  0.66690746054E+03  0.11166783193E+04  0.13105725275E+04  0.25500000920E-02 0.  1.
</event>
<event>
 5   0  0.3377273E-04  0.1728592E+04  0.7818609E-02  0.8745223E-01
        1   -1    0    0  501    0  0.00000000000E+00  0.00000000000E+00  0.76258422251E+03  0.76258422253E+03  0.50400001928E-02 0.  1.
       -1   -1    0    0    0  501  0.00000000000E+00  0.00000000000E+00 -0.97957384312E+03  0.97957384314E+03  0.50400001928E-02 0. -1.
    10030    2    1    2    0    0  0.00000000000E+00  0.00000000000E+00 -0.21698962061E+03  0.17421580657E+04  0.17285919791E+04 0.  0.
        2    1    3    3  502    0 -0.20891567946E+03 -0.41883303298E+03 -0.84079244100E+03  0.96228831412E+03  0.25500000920E-02 0. -1.
       -2    1    3    3    0  502  0.20891567946E+03  0.41883303298E+03  0.62380282039E+03  0.77986975154E+03  0.25500000920E-02 0.  1.
</event>
<event>
 5   0  0.6547153E-04  0.1822632E+04  0.7818609E-02  0.8694356E-01
       -2   -1    0    0    0  501  0.00000000000E+00  0.00000000000E+00  0.73837242182E+03  0.73837242183E+03  0.25500000920E-02 0.  1.
        2   -1    0    0  501    0  0.00000000000E+00  0.00000000000E+00 -0.11247671739E+04  0.11247671739E+04  0.25500000920E-02 0. -1.
    10030    2    1    2    0    0  0.00000000000E+00  0.00000000000E+00 -0.38639475211E+03  0.18631395958E+04  0.18226322308E+04 0.  0.
        5    1    3    3  502    0 -0.61703911795E+03  0.66456511467E+03 -0.10124880851E+03  0.91250067174E+03  0.46999998093E+01 0. -1.
       -5    1    3    3    0  502  0.61703911795E+03 -0.66456511467E+03 -0.28514594360E+03  0.95063892402E+03  0.46999998093E+01 0.  1.
</event>
<event>
 5   0  0.3404261E-04  0.1643332E+04  0.7818609E-02  0.8794361E-01
       -1   -1    0    0    0  501  0.00000000000E+00  0.00000000000E+00  0.85978617334E+03  0.85978617335E+03  0.50400001928E-02 0. -1.
        1   -1    0    0  501    0  0.00000000000E+00  0.00000000000E+00 -0.78523576442E+03  0.78523576443E+03  0.50400001928E-02 0.  1.
    10030    2    1    2    0    0  0.00000000000E+00  0.00000000000E+00  0.74550408920E+02  0.16450219378E+04  0.16433318023E+04 0.  0.
        1    1    3    3  502    0 -0.77828735466E+03  0.26082920856E+03  0.19969058939E+00  0.82083075135E+03  0.50400001928E-02 0. -1.
       -1    1    3    3    0  502  0.77828735466E+03 -0.26082920856E+03  0.74350718331E+02  0.82419118644E+03  0.50400001928E-02 0.  1.
</event>
<event>
 5   0  0.3377273E-04  0.1816382E+04  0.7818609E-02  0.8697636E-01
        1   -1    0    0  501    0  0.00000000000E+00  0.00000000000E+00  0.20221632216E+04  0.20221632216E+04  0.50400001928E-02 0. -1.
       -1   -1    0    0    0  501  0.00000000000E+00  0.00000000000E+00 -0.40788551425E+03  0.40788551428E+03  0.50400001928E-02 0.  1.
    10030    2    1    2    0    0  0.00000000000E+00  0.00000000000E+00  0.16142777074E+04  0.24300487359E+04  0.18163822126E+04 0.  0.
        2    1    3    3  502    0  0.40435837546E+03  0.20686763264E+03  0.18592982010E+04  0.19139722343E+04  0.25500000920E-02 0. -1.
       -2    1    3    3    0  502 -0.40435837546E+03 -0.20686763264E+03 -0.24502049364E+03  0.51607650164E+03  0.25500000920E-02 0.  1.
</event>
<event>
 5   0  0.3404261E-04  0.1716161E+04  0.7818609E-02  0.8752200E-01
        1   -1    0    0  501    0  0.00000000000E+00  0.00000000000E+00  0.49742417730E+03  0.49742417733E+03  0.50400001928E-02 0.  1.
       -1   -1    0    0    0  501  0.00000000000E+00  0.00000000000E+00 -0.14802305867E+04  0.14802305868E+04  0.50400001928E-02 0. -1.
    10030    2    1    2    0    0  0.00000000000E+00  0.00000000000E+00 -0.98280640944E+03  0.19776547641E+04  0.17161613932E+04 0.  0.
        1    1    3    3  502    0  0.49446824737E+03  0.64862664288E+03 -0.79865030188E+03  0.11415155164E+04  0.50400001928E-02 0. -1.
       -1    1    3    3    0  502 -0.49446824737E+03 -0.64862664288E+03 -0.18415610756E+03  0.83613924766E+03  0.50400001928E-02 0.  1.
</event>
<event>
 5   0  0.6547153E-04  0.1953737E+04  0.7818609E-02  0.8628561E-01
       -2   -1    0    0    0  501  0.00000000000E+00  0.00000000000E+00  0.85456752611E+03  0.85456752611E+03  0.25500000920E-02 0. -1.
        2   -1    0    0  501    0  0.00000000000E+00  0.00000000000E+00 -0.11166724776E+04  0.11166724776E+04  0.25500000920E-02 0.  1.
    10030    2    1    2    0    0  0.00000000000E+00  0.00000000000E+00 -0.26210495152E+03  0.19712400037E+04  0.19537369697E+04 0.  0.
        5    1    3    3  502    0 -0.55090397999E+03  0.45442421758E+03  0.54144209237E+03  0.89620209444E+03  0.46999998093E+01 0. -1.
       -5    1    3    3    0  502  0.55090397999E+03 -0.45442421758E+03 -0.80354704389E+03  0.10750379093E+04  0.46999998093E+01 0.  1.
</event>
<event>
 5   0  0.3413839E-04  0.2311716E+04  0.7818609E-02  0.8473316E-01
       -1   -1    0    0    0  501  0.00000000000E+00  0.00000000000E+00  0.20948104055E+04  0.20948104055E+04  0.50400001928E-02 0. -1.
        1   -1    0    0  501    0  0.00000000000E+00  0.00000000000E+00 -0.63777018520E+03  0.63777018522E+03  0.50400001928E-02 0.  1.
    10030    2    1    2    0    0  0.00000000000E+00  0.00000000000E+00  0.14570402203E+04  0.27325805907E+04  0.23117159171E+04 0.  0.
        5    1    3    3  502    0  0.79092075205E+03 -0.29608434821E+03  0.16613452659E+04  0.18636823119E+04  0.46999998093E+01 0. -1.
       -5    1    3    3    0  502 -0.79092075205E+03  0.29608434821E+03 -0.20430504558E+03  0.86889827881E+03  0.46999998093E+01 0.  1.
</event>
<event>
 5   0  0.3308275E-04  0.1791415E+04  0.7818609E-02  0.8710878E-01
       -1   -1    0    0    0  501  0.00000000000E+00  0.00000000000E+00  0.57206452695E+03  0.57206452697E+03  0.50400001928E-02 0.  1.
        1   -1    0    0  501    0  0.00000000000E+00  0.00000000000E+00 -0.14024493123E+04  0.14024493123E+04  0.50400001928E-02 0. -1.
    10030    2    1    2    0    0  0.00000000000E+00  0.00000000000E+00 -0.83038478539E+03  0.19745138393E+04  0.17914145276E+04 0.  0.
        3    1    3    3  502    0 -0.39348021342E+03  0.22540792053E+03  0.43619286663E+03  0.62920555949E+03  0.10100000352E+00 0.  1.
       -3    1    3    3    0  502  0.39348021342E+03 -0.22540792053E+03 -0.12665776520E+04  0.13453082798E+04  0.10100000352E+00 0. -1.
</event>
<event>
 5   0  0.6771967E-04  0.1779950E+04  0.7818609E-02  0.8717035E-01
        2   -1    0    0  501    0  0.00000000000E+00  0.00000000000E+00  0.83001538778E+03  0.83001538778E+03  0.25500000920E-02 0.  1.
       -2   -1    0    0    0  501  0.00000000000E+00  0.00000000000E+00 -0.95426657451E+03  0.95426657451E+03  0.25500000920E-02 0. -1.
    10030    2    1    2    0    0  0.00000000000E+00  0.00000000000E+00 -0.12425118673E+03  0.17842819623E+04  0.17799504947E+04 0.  0.
        1    1    3    3  502    0  0.83175862181E+03 -0.84671112949E+02  0.24368125645E+03  0.87084565630E+03  0.50400001928E-02 0.  1.
       -1    1    3    3    0  502 -0.83175862181E+03  0.84671112949E+02 -0.36793244319E+03  0.91343630599E+03  0.50400001928E-02 0. -1.
</event>
<event>
 5   0  0.3308275E-04  0.1716828E+04  0.7818609E-02  0.8751825E-01
       -1   -1    0    0    0  501  0.00000000000E+00  0.00000000000E+00  0.51189023441E+03  0.51189023444E+03  0.50400001928E-02 0. -1.
        1   -1    0    0  501    0  0.00000000000E+00  0.00000000000E+00 -0.14395163992E+04  0.14395163992E+04  0.50400001928E-02 0.  1.
    10030    2    1    2    0    0  0.00000000000E+00  0.00000000000E+00 -0.92762616483E+03  0.19514066337E+04  0.17168277573E+04 0.  0.
        3    1    3    3  502    0 -0.58426170259E+03 -0.62862850191E+03 -0.48473601015E+03  0.98564929882E+03  0.10100000352E+00 0. -1.
       -3    1    3    3    0  502  0.58426170259E+03  0.62862850191E+03 -0.44289015467E+03  0.96575733486E+03  0.10100000352E+00 0.  1.
</event>
<event>
 5   0  0.6929121E-04  0.1760602E+04  0.7818609E-02  0.8727536E-01
       -2   -1    0    0    0  501  0.00000000000E+00  0.00000000000E+00  0.24985954689E+03  0.24985954691E+03  0.25500000920E-02 0.  1.
        2   -1    0    0  501    0  0.00000000000E+00  0.00000000000E+00 -0.31014616166E+04  0.31014616166E+04  0.25500000920E-02 0. -1.
    10030    2    1    2    0    0  0.00000000000E+00  0.00000000000E+00 -0.28516020697E+04  0.33513211635E+04  0.17606019360E+04 0.  0.
        3    1    3    3  502    0  0.47943148958E+03 -0.14118288752E+03 -0.28052114749E+04  0.28493856513E+04  0.10100000352E+00 0. -1.
       -3    1    3    3    0  502 -0.47943148958E+03  0.14118288752E+03 -0.46390594848E+02  0.50193551221E+03  0.10100000352E+00 0.  1.
</event>
<event>
 5   0  0.3404261E-04  0.1824712E+04  0.7818609E-02  0.8693267E-01
        1   -1    0    0  501    0  0.00000000000E+00  0.00000000000E+00  0.10261554504E+04  0.10261554504E+04  0.50400001928E-02 0.  1.
       -1   -1    0    0    0  501  0.00000000000E+00  0.00000000000E+00 -0.81117642140E+03  0.81117642141E+03  0.50400001928E-02 0. -1.
    10030    2    1    2    0    0  0.00000000000E+00  0.00000000000E+00  0.21497902902E+03  0.18373318718E+04  0.18247116003E+04 0.  0.
        1    1    3    3  502    0 -0.70619285055E+03  0.48627707480E+03  0.42144623064E+03  0.95540078552E+03  0.50400001928E-02 0.  1.
       -1    1    3    3    0  502  0.70619285055E+03 -0.48627707480E+03 -0.20646720162E+03  0.88193108631E+03  0.50400001928E-02 0. -1.
</event>
<event>
 5   0  0.3404261E-04  0.1795485E+04  0.7818609E-02  0.8708704E-01
       -1   -1    0    0    0  501  0.00000000000E+00  0.00000000000E+00  0.14552920368E+04  0.14552920368E+04  0.50400001928E-02 0.  1.
        1   -1    0    0  501    0  0.00000000000E+00  0.00000000000E+00 -0.55380081307E+03  0.55380081310E+03  0.50400001928E-02 0. -1.
    10030    2    1    2    0    0  0.00000000000E+00  0.00000000000E+00  0.90149122377E+03  0.20090928499E+04  0.17954853531E+04 0.  0.
        1    1    3    3  502    0 -0.14079769550E+03 -0.45446580677E+03 -0.40112643835E+03  0.62230666086E+03  0.50400001928E-02 0. -1.
       -1    1    3    3    0  502  0.14079769550E+03  0.45446580677E+03  0.13026176621E+04  0.13867861891E+04  0.50400001928E-02 0.  1.
</event>
<event>
 5   0  0.6771967E-04  0.1819378E+04  0.7818609E-02  0.8696062E-01
       -2   -1    0    0    0  501  0.00000000000E+00  0.00000000000E+00  0.61666671498E+03  0.61666671498E+03  0.25500000920E-02 0. -1.
        2   -1    0    0  501    0  0.00000000000E+00  0.00000000000E+00 -0.13419464576E+04  0.13419464576E+04  0.25500000920E-02 0.  1.
    10030    2    1    2    0    0  0.00000000000E+00  0.00000000000E+00 -0.72527974264E+03  0.19586131726E+04  0.18193776009E+04 0.  0.
        1    1    3    3  502    0  0.46058848810E+03 -0.20697304796E+02 -0.12068499359E+04  0.12919198511E+04  0.50400001928E-02 0.  1.
       -1    1    3    3    0  502 -0.46058848810E+03  0.20697304796E+02  0.48157019331E+03  0.66669332148E+03  0.50400001928E-02 0. -1.
</event>
<event>
 5   0  0.3404261E-04  0.1601311E+04  0.7818609E-02  0.8819743E-01
        1   -1    0    0  501    0  0.00000000000E+00  0.00000000000E+00  0.14612807282E+04  0.14612807282E+04  0.50400001928E-02 0. -1.
       -1   -1    0    0    0  501  0.00000000000E+00  0.00000000000E+00 -0.43868984436E+03  0.43868984439E+03  0.50400001928E-02 0.  1.
    10030    2    1    2    0    0  0.00000000000E+00  0.00000000000E+00  0.10225908838E+04  0.18999705726E+04  0.16013107322E+04 0.  0.
        1    1    3    3  502    0 -0.16884512872E+03  0.36250198623E+03 -0.31171183239E+03  0.50703119627E+03  0.50400001928E-02 0.  1.
       -1    1    3    3    0  502  0.16884512872E+03 -0.36250198623E+03  0.13343027162E+04  0.13929393763E+04  0.50400001928E-02 0. -1.
</event>
<event>
 5   0  0.3404261E-04  0.1784991E+04  0.7818609E-02  0.8714322E-01
       -1   -1    0    0    0  501  0.00000000000E+00  0.00000000000E+00  0.74873830751E+03  0.74873830753E+03  0.50400001928E-02 0.  1.
        1   -1    0    0  501    0  0.00000000000E+00  0.00000000000E+00 -0.10638541156E+04  0.10638541156E+04  0.50400001928E-02 0. -1.
    10030    2    1    2    0    0  0.00000000000E+00  0.00000000000E+00 -0.31511580808E+03  0.18125924231E+04  0.17849911260E+04 0.  0.
        1    1    3    3  502    0 -0.60454167006E+03  0.52814146847E+03  0.23853031523E+03  0.83743701427E+03  0.50400001928E-02 0.  1.
       -1    1    3    3    0  502  0.60454167006E+03 -0.52814146847E+03 -0.55364612332E+03  0.97515540887E+03  0.50400001928E-02 0. -1.
</event>
<event>
 5   0  0.6929121E-04  0.1803141E+04  0.7818609E-02  0.8704631E-01
        2   -1    0    0  501    0  0.00000000000E+00  0.00000000000E+00  0.20703670839E+04  0.20703670839E+04  0.25500000920E-02 0.  1.
       -2   -1    0    0    0  501  0.00000000000E+00  0.00000000000E+00 -0.39260171072E+03  0.39260171073E+03  0.25500000920E-02 0. -1.
    10030    2    1    2    0    0  0.00000000000E+00  0.00000000000E+00  0.16777653731E+04  0.24629687946E+04  0.18031413244E+04 0.  0.
        3    1    3    3  502    0  0.21449780576E+03  0.79545876575E+02 -0.35229539712E+03  0.42005822476E+03  0.10100000352E+00 0. -1.
       -3    1    3    3    0  502 -0.21449780576E+03 -0.79545876575E+02  0.20300607703E+04  0.20429105698E+04  0.10100000352E+00 0.  1.
</event>
<event>
 5   0  0.6547153E-04  0.1781496E+04  0.7818609E-02  0.8716202E-01
       -2   -1    0    0    0  501  0.00000000000E+00  0.00000000000E+00  0.49038429231E+03  0.49038429231E+03  0.25500000920E-02 0. -1.
        2   -1    0    0  501    0  0.00000000000E+00  0.00000000000E+00 -0.16179796541E+04  0.16179796541E+04  0.25500000920E-02 0.  1.
    10030    2    1    2    0    0  0.00000000000E+00  0.00000000000E+00 -0.11275953617E+04  0.21083639464E+04  0.17814957846E+04 0.  0.
        5    1    3    3  502    0  0.70359909612E+03 -0.43805123735E+03 -0.94996246052E+03  0.12607106492E+04  0.46999998093E+01 0.  1.
       -5    1    3    3    0  502 -0.70359909612E+03  0.43805123735E+03 -0.17763290122E+03  0.84765329717E+03  0.46999998093E+01 0. -1.
</event>
<event>
 5   0  0.6853162E-04  0.1819376E+04  0.7818609E-02  0.8696063E-01
        2   -1    0    0  501    0  0.00000000000E+00  0.00000000000E+00  0.12917554893E+04  0.12917554893E+04  0.25500000920E-02 0.  1.
       -2   -1    0    0    0  501  0.00000000000E+00  0.00000000000E+00 -0.64062604529E+03  0.64062604529E+03  0.25500000920E-02 0. -1.
    10030    2    1    2    0    0  0.00000000000E+00  0.00000000000E+00  0.65112944398E+03  0.19323815346E+04  0.18193759486E+04 0.  0.
        2    1    3    3  502    0 -0.74812520543E+03  0.65470677527E+02 -0.21969777665E+03  0.78246076303E+03  0.25500000920E-02 0. -1.
       -2    1    3    3    0  502  0.74812520543E+03 -0.65470677527E+02  0.87082722063E+03  0.11499207715E+04  0.25500000920E-02 0.  1.
</event>
<event>
 5   0  0.6853162E-04  0.1893872E+04  0.7818609E-02  0.8657913E-01
       -2   -1    0    0    0  501  0.00000000000E+00  0.00000000000E+00  0.53941119283E+03  0.53941119284E+03  0.25500000920E-02 0.  1.
        2   -1    0    0  501    0  0.00000000000E+00  0.00000000000E+00 -0.16623446593E+04  0.16623446593E+04  0.25500000920E-02 0. -1.
    10030    2    1    2    0    0  0.00000000000E+00  0.00000000000E+00 -0.11229334665E+04  0.22017558521E+04  0.18938715010E+04 0.  0.
        2    1    3    3  502    0 -0.90174705807E+03 -0.28860409148E+03 -0.57974670680E+03  0.11102010279E+04  0.25500000920E-02 0. -1.
       -2    1    3    3    0  502  0.90174705807E+03  0.28860409148E+03 -0.54318675965E+03  0.10915548242E+04  0.25500000920E-02 0.  1.
</event>
<event>
 5   0  0.6929121E-04  0.1746931E+04  0.7818609E-02  0.8735041E-01
        2   -1    0    0  501    0  0.00000000000E+00  0.00000000000E+00  0.15937294664E+04  0.15937294664E+04  0.25500000920E-02 0. -1.
       -2   -1    0    0    0  501  0.00000000000E+00  0.00000000000E+00 -0.47871495089E+03  0.47871495090E+03  0.25500000920E-02 0.  1.
    10030    2    1    2    0    0  0.00000000000E+00  0.00000000000E+00  0.11150145155E+04  0.20724444173E+04  0.17469311643E+04 0.  0.
        3    1    3    3  502    0  0.25674591208E+03 -0.71548585116E+03  0.10679118654E+04  0.13108295957E+04  0.10100000352E+00 0. -1.
       -3    1    3    3    0  502 -0.25674591208E+03  0.71548585116E+03  0.47102650117E+02  0.76161482157E+03  0.10100000352E+00 0.  1.
</event>
<event>
 5   0  0.3377273E-04  0.1511142E+04  0.7818609E-02  0.8877078E-01
       -1   -1    0    0    0  501  0.00000000000E+00  0.00000000000E+00  0.14330019945E+04  0.14330019945E+04  0.50400001928E-02 0.  1.
        1   -1    0    0  501    0  0.00000000000E+00  0.00000000000E+00 -0.39838547216E+03  0.39838547219E+03  0.50400001928E-02 0. -1.
    10030    2    1    2    0    0  0.00000000000E+00  0.00000000000E+00  0.10346165224E+04  0.18313874667E+04  0.15111415238E+04 0.  0.
        2    1    3    3  502    0  0.24573333850E+03  0.11170214716E+03 -0.33795662322E+03  0.43252389820E+03  0.25500000920E-02 0. -1.
       -2    1    3    3    0  502 -0.24573333850E+03 -0.11170214716E+03  0.13725731456E+04  0.13988635685E+04  0.25500000920E-02 0.  1.
</event>
<event>
 5   0  0.6771967E-04  0.1756122E+04  0.7818609E-02  0.8729988E-01
        2   -1    0    0  501    0  0.00000000000E+00  0.00000000000E+00  0.94213761198E+03  0.94213761198E+03  0.25500000920E-02 0. -1.
       -2   -1    0    0    0  501  0.00000000000E+00  0.00000000000E+00 -0.81834217359E+03  0.81834217360E+03  0.25500000920E-02 0.  1.
    10030    2    1    2    0    0  0.00000000000E+00  0.00000000000E+00  0.12379543838E+03  0.17604797856E+04  0.17561217967E+04 0.  0.
        1    1    3    3  502    0 -0.86594440864E+03  0.12882220346E+02  0.20705093000E+03  0.89044694288E+03  0.50400001928E-02 0. -1.
       -1    1    3    3    0  502  0.86594440864E+03 -0.12882220346E+02 -0.83255491618E+02  0.87003284269E+03  0.50400001928E-02 0.  1.
</event>
<event>
 5   0  0.3308275E-04  0.1769892E+04  0.7818609E-02  0.8722476E-01
       -1   -1    0    0    0  501  0.00000000000E+00  0.00000000000E+00  0.10995187945E+04  0.10995187945E+04  0.50400001928E-02 0.  1.
        1   -1    0    0  501    0  0.00000000000E+00  0.00000000000E+00 -0.71224766111E+03  0.71224766113E+03  0.50400001928E-02 0. -1.
    10030    2    1    2    0    0  0.00000000000E+00  0.00000000000E+00  0.38727113340E+03  0.18117664556E+04  0.17698923015E+04 0.  0.
        3    1    3    3  502    0 -0.70135516983E+03  0.13446404805E+03 -0.34136716155E+03  0.79152460710E+03  0.10100000352E+00 0. -1.
       -3    1    3    3    0  502  0.70135516983E+03 -0.13446404805E+03  0.72863829495E+03  0.10202418485E+04  0.10100000352E+00 0.  1.
</event>
<event>
 5   0  0.3308275E-04  0.1766553E+04  0.7818609E-02  0.8724291E-01
       -1   -1    0    0    0  501  0.00000000000E+00  0.00000000000E+00  0.83169556653E+03  0.83169556654E+03  0.50400001928E-02 0.  1.
        1   -1    0    0  501    0  0.00000000000E+00  0.00000000000E+00 -0.93805606399E+03  0.93805606400E+03  0.50400001928E-02 0. -1.
    10030    2    1    2    0    0  0.00000000000E+00  0.00000000000E+00 -0.10636049746E+03  0.17697516305E+04  0.17665526537E+04 0.  0.
        3    1    3    3  502    0  0.26687586002E+03  0.63073040929E+03 -0.61198374121E+03  0.91845940769E+03  0.10100000352E+00 0.  1.
       -3    1    3    3    0  502 -0.26687586002E+03 -0.63073040929E+03  0.50562324375E+03  0.85129222285E+03  0.10100000352E+00 0. -1.
</event>
<event>
 5   0  0.3470962E-04  0.1802196E+04  0.7818609E-02  0.8705133E-01
       -1   -1    0    0    0  501  0.00000000000E+00  0.00000000000E+00  0.62460138136E+03  0.62460138138E+03  0.50400001928E-02 0. -1.
        1   -1    0    0  501    0  0.00000000000E+00  0.00000000000E+00 -0.12999931610E+04  0.12999931610E+04  0.50400001928E-02 0.  1.
    10030    2    1    2    0    0  0.00000000000E+00  0.00000000000E+00 -0.67539177965E+03  0.19245945424E+04  0.18021959096E+04 0.  0.
        4    1    3    3  502    0  0.18626101430E+03  0.19574591871E+03  0.58031865328E+03  0.64014137688E+03  0.12699999809E+01 0. -1.
       -4    1    3    3    0  502 -0.18626101430E+03 -0.19574591871E+03 -0.12557104329E+04  0.12844531655E+04  0.12699999809E+01 0.  1.
</event>
<event>
 5   0  0.6774451E-04  0.1814497E+04  0.7818609E-02  0.8698628E-01
        2   -1    0    0  501    0  0.00000000000E+00  0.00000000000E+00  0.16724947521E+04  0.16724947521E+04  0.25500000920E-02 0.  1.
       -2   -1    0    0    0  501  0.00000000000E+00  0.00000000000E+00 -0.49213919842E+03  0.49213919842E+03  0.25500000920E-02 0. -1.
    10030    2    1    2    0    0  0.00000000000E+00  0.00000000000E+00  0.11803555537E+04  0.21646339505E+04  0.18144974254E+04 0.  0.
        4    1    3    3  502    0 -0.38909439700E+03 -0.63211881653E+03 -0.32145854897E+02  0.74296945891E+03  0.12699999809E+01 0. -1.
       -4    1    3    3    0  502  0.38909439700E+03  0.63211881653E+03  0.12125014086E+04  0.14216644916E+04  0.12699999809E+01 0.  1.
</event>
<event>
 5   0  0.3308275E-04  0.1548926E+04  0.7818609E-02  0.8852554E-01
        1   -1    0    0  501    0  0.00000000000E+00  0.00000000000E+00  0.11330814113E+04  0.11330814113E+04  0.50400001928E-02 0. -1.
       -1   -1    0    0    0  501  0.00000000000E+00  0.00000000000E+00 -0.52934664699E+03  0.52934664702E+03  0.50400001928E-02 0.  1.
    10030    2    1    2    0    0  0.00000000000E+00  0.00000000000E+00  0.60373476434E+03  0.16624280584E+04  0.15489258806E+04 0.  0.
        3    1    3    3  502    0 -0.56245274328E+02 -0.77220565638E+03  0.32129724354E+03  0.83827026402E+03  0.10100000352E+00 0.  1.
       -3    1    3    3    0  502  0.56245274328E+02  0.77220565638E+03  0.28243752080E+03  0.82415779435E+03  0.10100000352E+00 0. -1.
</event>
<event>
 5   0  0.6547153E-04  0.1952121E+04  0.7818609E-02  0.8629339E-01
        2   -1    0    0  501    0  0.00000000000E+00  0.00000000000E+00  0.13555051231E+04  0.13555051231E+04  0.25500000920E-02 0. -1.
       -2   -1    0    0    0  501  0.00000000000E+00  0.00000000000E+00 -0.70283350872E+03  0.70283350872E+03  0.25500000920E-02 0.  1.
    10030    2    1    2    0    0  0.00000000000E+00  0.00000000000E+00  0.65267161435E+03  0.20583386318E+04  0.19521213300E+04 0.  0.
        5    1    3    3  502    0  0.30055530877E+03 -0.31978473956E+03 -0.59292488009E+03  0.73768406294E+03  0.46999998093E+01 0.  1.
       -5    1    3    3    0  502 -0.30055530877E+03  0.31978473956E+03  0.12455964944E+04  0.13206545689E+04  0.46999998093E+01 0. -1.
</event>
<event>
 5   0  0.3308275E-04  0.1815684E+04  0.7818609E-02  0.8698003E-01
        1   -1    0    0  501    0  0.00000000000E+00  0.00000000000E+00  0.14089253740E+04  0.14089253740E+04  0.50400001928E-02 0. -1.
       -1   -1    0    0    0  501  0.00000000000E+00  0.00000000000E+00 -0.58496872619E+03  0.58496872621E+03  0.50400001928E-02 0.  1.
    10030    2    1    2    0    0  0.00000000000E+00  0.00000000000E+00  0.82395664779E+03  0.19938941002E+04  0.18156842031E+04 0.  0.
        3    1    3    3  502    0  0.53949728492E+03  0.14316674444E+03  0.11982287906E+04  0.13218571338E+04  0.10100000352E+00 0. -1.
       -3    1    3    3    0  502 -0.53949728492E+03 -0.14316674444E+03 -0.37427214284E+03  0.67203696644E+03  0.10100000352E+00 0.  1.
</event>
<event>
 5   0  0.6771967E-04  0.1777918E+04  0.7818609E-02  0.8718131E-01
        2   -1    0    0  501    0  0.00000000000E+00  0.00000000000E+00  0.17534259347E+04  0.17534259347E+04  0.25500000920E-02 0. -1.
       -2   -1    0    0    0  501  0.00000000000E+00  0.00000000000E+00 -0.45068815689E+03  0.45068815690E+03  0.25500000920E-02 0.  1.
    10030    2    1    2    0    0  0.00000000000E+00  0.00000000000E+00  0.13027377778E+04  0.22041140916E+04  0.17779182239E+04 0.  0.
        1    1    3    3  502    0 -0.49942282775E+03  0.45730388760E+03  0.13653618166E+04  0.15240613166E+04  0.50400001928E-02 0. -1.
       -1    1    3    3    0  502  0.49942282775E+03 -0.45730388760E+03 -0.62624038812E+02  0.68005277498E+03  0.50400001928E-02 0.  1.
</event>
<event>
 5   0  0.3308275E-04  0.1493306E+04  0.7818609E-02  0.8888917E-01
       -1   -1    0    0    0  501  0.00000000000E+00  0.00000000000E+00  0.59236282064E+03  0.59236282066E+03  0.50400001928E-02 0.  1.
        1   -1    0    0  501    0  0.00000000000E+00  0.00000000000E+00 -0.94112993717E+03  0.94112993719E+03  0.50400001928E-02 0. -1.
    10030    2    1    2    0    0  0.00000000000E+00  0.00000000000E+00 -0.34876711653E+03  0.15334927578E+04  0.14933055738E+04 0.  0.
        3    1    3    3  502    0 -0.27839571730E+03 -0.58571553873E+03  0.20560633798E+03  0.68032407289E+03  0.10100000352E+00 0.  1.
       -3    1    3    3    0  502  0.27839571730E+03  0.58571553873E+03 -0.55437345452E+03  0.85316868496E+03  0.10100000352E+00 0. -1.
</event>
<event>
 5   0  0.6547153E-04  0.1830246E+04  0.7818609E-02  0.8690378E-01
        2   -1    0    0  501    0  0.00000000000E+00  0.00000000000E+00  0.10170145592E+04  0.10170145592E+04  0.25500000920E-02 0. -1.
       -2   -1    0    0    0  501  0.00000000000E+00  0.00000000000E+00 -0.82343965571E+03  0.82343965571E+03  0.25500000920E-02 0.  1.
    10030    2    1    2    0    0  0.00000000000E+00  0.00000000000E+00  0.19357490345E+03  0.18404542149E+04  0.18302460146E+04 0.  0.
        5    1    3    3  502    0 -0.15363981585E+03 -0.20096949885E+03  0.98114361096E+03  0.10132417322E+04  0.46999998093E+01 0. -1.
       -5    1    3    3    0  502  0.15363981585E+03  0.20096949885E+03 -0.78756870751E+03  0.82721248270E+03  0.46999998093E+01 0.  1.
</event>
<event>
 5   0  0.6929121E-04  0.1808001E+04  0.7818609E-02  0.8702056E-01
       -2   -1    0    0    0  501  0.00000000000E+00  0.00000000000E+00  0.59972354634E+03  0.59972354634E+03  0.25500000920E-02 0. -1.
        2   -1    0    0  501    0  0.00000000000E+00  0.00000000000E+00 -0.13626566439E+04  0.13626566439E+04  0.25500000920E-02 0.  1.
    10030    2    1    2    0    0  0.00000000000E+00  0.00000000000E+00 -0.76293309757E+03  0.19623801902E+04  0.18080014103E+04 0.  0.
        3    1    3    3  502    0 -0.48807739486E+03  0.22076715643E+03 -0.11718332769E+04  0.12884684396E+04  0.10100000352E+00 0.  1.
       -3    1    3    3    0  502  0.48807739486E+03 -0.22076715643E+03  0.40890017938E+03  0.67391175063E+03  0.10100000352E+00 0. -1.
</event>
<event>
 5   0  0.6929121E-04  0.1928888E+04  0.7818609E-02  0.8640609E-01
        2   -1    0    0  501    0  0.00000000000E+00  0.00000000000E+00  0.10214009417E+04  0.10214009417E+04  0.25500000920E-02 0.  1.
       -2   -1    0    0    0  501  0.00000000000E+00  0.00000000000E+00 -0.91066357511E+03  0.91066357512E+03  0.25500000920E-02 0. -1.
    10030    2    1    2    0    0  0.00000000000E+00  0.00000000000E+00  0.11073736655E+03  0.19320645168E+04  0.19288884189E+04 0.  0.
        3    1    3    3  502    0 -0.84422705359E+03 -0.19966399149E+02 -0.41126819116E+03  0.93928670297E+03  0.10100000352E+00 0. -1.
       -3    1    3    3    0  502  0.84422705359E+03  0.19966399149E+02  0.52200555771E+03  0.99277781381E+03  0.10100000352E+00 0.  1.
</event>
<event>
 5   0  0.3404261E-04  0.1781815E+04  0.7818609E-02  0.8716030E-01
        1   -1    0    0  501    0  0.00000000000E+00  0.00000000000E+00  0.82190766103E+03  0.82190766105E+03  0.50400001928E-02 0.  1.
       -1   -1    0    0    0  501  0.00000000000E+00  0.00000000000E+00 -0.96570025041E+03  0.96570025042E+03  0.50400001928E-02 0. -1.
    10030    2    1    2    0    0  0.00000000000E+00  0.00000000000E+00 -0.14379258938E+03  0.17876079115E+04  0.17818152924E+04 0.  0.
        1    1    3    3  502    0 -0.94412904792E+02  0.37854505735E+03  0.73164840587E+03  0.82916798471E+03  0.50400001928E-02 0.  1.
       -1    1    3    3    0  502  0.94412904792E+02 -0.37854505735E+03 -0.87544099524E+03  0.95843992676E+03  0.50400001928E-02 0. -1.
</event>
<event>
 5   0  0.3470962E-04  0.1799058E+04  0.7818609E-02  0.8706801E-01
       -1   -1    0    0    0  501  0.00000000000E+00  0.00000000000E+00  0.16389453732E+04  0.16389453732E+04  0.50400001928E-02 0.  1.
        1   -1    0    0  501    0  0.00000000000E+00  0.00000000000E+00 -0.49370291030E+03  0.49370291032E+03  0.50400001928E-02 0. -1.
    10030    2    1    2    0    0  0.00000000000E+00  0.00000000000E+00  0.11452424629E+04  0.21326482835E+04  0.17990576429E+04 0.  0.
        4    1    3    3  502    0 -0.24386991469E+02 -0.89256764104E+03  0.44342201838E+03  0.99694353825E+03  0.12699999809E+01 0.  1.
       -4    1    3    3    0  502  0.24386991469E+02  0.89256764104E+03  0.70182044452E+03  0.11357047453E+04  0.12699999809E+01 0. -1.
</event>
<event>
 5   0  0.3404261E-04  0.1518842E+04  0.7818609E-02  0.8872019E-01
       -1   -1    0    0    0  501  0.00000000000E+00  0.00000000000E+00  0.45699785433E+03  0.45699785436E+03  0.50400001928E-02 0.  1.
        1   -1    0    0  501    0  0.00000000000E+00  0.00000000000E+00 -0.12619756217E+04  0.12619756217E+04  0.50400001928E-02 0. -1.
    10030    2    1    2    0    0  0.00000000000E+00  0.00000000000E+00 -0.80497776735E+03  0.17189734761E+04  0.15188418632E+04 0.  0.
        1    1    3    3  502    0 -0.51060683315E+03 -0.35432559271E+02 -0.10374341297E+04  0.11568251284E+04  0.50400001928E-02 0. -1.
       -1    1    3    3    0  502  0.51060683315E+03  0.35432559271E+02  0.23245636233E+03  0.56214834762E+03  0.50400001928E-02 0.  1.
</event>
<event>
 5   0  0.3413839E-04  0.1798264E+04  0.7818609E-02  0.8707223E-01
       -1   -1    0    0    0  501  0.00000000000E+00  0.00000000000E+00  0.50620668988E+03  0.50620668990E+03  0.50400001928E-02 0. -1.
        1   -1    0    0  501    0  0.00000000000E+00  0.00000000000E+00 -0.15970520751E+04  0.15970520752E+04  0.50400001928E-02 0.  1.
    10030    2    1    2    0    0  0.00000000000E+00  0.00000000000E+00 -0.10908453853E+04  0.21032587651E+04  0.17982641014E+04 0.  0.
        5    1    3    3  502    0 -0.26145159353E+03  0.84403997128E+03 -0.73992891070E+03  0.11525091287E+04  0.46999998093E+01 0.  1.
       -5    1    3    3    0  502  0.26145159353E+03 -0.84403997128E+03 -0.35091647457E+03  0.95074963634E+03  0.46999998093E+01 0. -1.
</event>
<event>
 5   0  0.3308275E-04  0.1784269E+04  0.7818609E-02  0.8714710E-01
        1   -1    0    0  501    0  0.00000000000E+00  0.00000000000E+00  0.19071349437E+04  0.19071349437E+04  0.50400001928E-02 0.  1.
       -1   -1    0    0    0  501  0.00000000000E+00  0.00000000000E+00 -0.41732957987E+03  0.41732957990E+03  0.50400001928E-02 0. -1.
    10030    2    1    2    0    0  0.00000000000E+00  0.00000000000E+00  0.14898053638E+04  0.23244645236E+04  0.17842688417E+04 0.  0.
        3    1    3    3  502    0 -0.29526038018E+03  0.13862872090E+03  0.18266654592E+04  0.18555601107E+04  0.10100000352E+00 0.  1.
       -3    1    3    3    0  502  0.29526038018E+03 -0.13862872090E+03 -0.33686009539E+03  0.46890441289E+03  0.10100000352E+00 0. -1.
</event>
<event>
 5   0  0.3470962E-04  0.1730563E+04  0.7818609E-02  0.8744123E-01
       -1   -1    0    0    0  501  0.00000000000E+00  0.00000000000E+00  0.13943736060E+04  0.13943736060E+04  0.50400001928E-02 0. -1.
        1   -1    0    0  501    0  0.00000000000E+00  0.00000000000E+00 -0.53695217976E+03  0.53695217979E+03  0.50400001928E-02 0.  1.
    10030    2    1    2    0    0  0.00000000000E+00  0.00000000000E+00  0.85742142625E+03  0.19313257858E+04  0.17305628532E+04 0.  0.
        4    1    3    3  502    0 -0.73792820047E+03 -0.19130970783E+03  0.88555695398E+03  0.11684819917E+04  0.12699999809E+01 0. -1.
       -4    1    3    3    0  502  0.73792820047E+03  0.19130970783E+03 -0.28135527726E+02  0.76284379409E+03  0.12699999809E+01 0.  1.
</event>
<event>
 5   0  0.3377273E-04  0.1787540E+04  0.7818609E-02  0.8712954E-01
       -1   -1    0    0    0  501  0.00000000000E+00  0.00000000000E+00  0.10760928327E+04  0.10760928327E+04  0.50400001928E-02 0.  1.
        1   -1    0    0  501    0  0.00000000000E+00  0.00000000000E+00 -0.74233819047E+03  0.74233819049E+03  0.50400001928E-02 0. -1.
    10030    2    1    2    0    0  0.00000000000E+00  0.00000000000E+00  0.33375464224E+03  0.18184310232E+04  0.17875399926E+04 0.  0.
        2    1    3    3  502    0 -0.13766413740E+03 -0.23814553347E+03  0.10319613456E+04  0.10679929441E+04  0.25500000920E-02 0.  1.
       -2    1    3    3    0  502  0.13766413740E+03  0.23814553347E+03 -0.69820670340E+03  0.75043807907E+03  0.25500000920E-02 0. -1.
</event>
<event>
 5   0  0.6853162E-04  0.1768093E+04  0.7818609E-02  0.8723454E-01
        2   -1    0    0  501    0  0.00000000000E+00  0.00000000000E+00  0.11683066098E+04  0.11683066098E+04  0.25500000920E-02 0.  1.
       -2   -1    0    0    0  501  0.00000000000E+00  0.00000000000E+00 -0.66894932842E+03  0.66894932842E+03  0.25500000920E-02 0. -1.
    10030    2    1    2    0    0  0.00000000000E+00  0.00000000000E+00  0.49935728137E+03  0.18372559382E+04  0.17680926695E+04 0.  0.
        2    1    3    3  502    0  0.20634070367E+03  0.62358158572E+03  0.86452316172E+03  0.10857397373E+04  0.25500000920E-02 0. -1.
       -2    1    3    3    0  502 -0.20634070367E+03 -0.62358158572E+03 -0.36516588035E+03  0.75151620090E+03  0.25500000920E-02 0.  1.
</event>
<event>
 5   0  0.3413839E-04  0.1793548E+04  0.7818609E-02  0.8709738E-01
        1   -1    0    0  501    0  0.00000000000E+00  0.00000000000E+00  0.21060808782E+04  0.21060808782E+04  0.50400001928E-02 0. -1.
       -1   -1    0    0    0  501  0.00000000000E+00  0.00000000000E+00 -0.38184823657E+03  0.38184823661E+03  0.50400001928E-02 0.  1.
    10030    2    1    2    0    0  0.00000000000E+00  0.00000000000E+00  0.17242326416E+04  0.24879291148E+04  0.17935476235E+04 0.  0.
        5    1    3    3  502    0  0.44169630821E+03  0.76424977055E+03  0.10814792172E+04  0.13959916646E+04  0.46999998093E+01 0. -1.
       -5    1    3    3    0  502 -0.44169630821E+03 -0.76424977055E+03  0.64275342440E+03  0.10919374502E+04  0.46999998093E+01 0.  1.
</event>
<event>
 5   0  0.3308275E-04  0.1800466E+04  0.7818609E-02  0.8706051E-01
       -1   -1    0    0    0  501  0.00000000000E+00  0.00000000000E+00  0.51675523433E+03  0.51675523435E+03  0.50400001928E-02 0.  1.
        1   -1    0    0  501    0  0.00000000000E+00  0.00000000000E+00 -0.15682857983E+04  0.15682857983E+04  0.50400001928E-02 0. -1.
    10030    2    1    2    0    0  0.00000000000E+00  0.00000000000E+00 -0.10515305639E+04  0.20850410326E+04  0.18004664898E+04 0.  0.
        3    1    3    3  502    0  0.25567204173E+03  0.77689525600E+03 -0.90167701626E+02  0.82283938672E+03  0.10100000352E+00 0.  1.
       -3    1    3    3    0  502 -0.25567204173E+03 -0.77689525600E+03 -0.96136286232E+03  0.12622016459E+04  0.10100000352E+00 0. -1.
</event>
<event>
 5   0  0.6853162E-04  0.1814363E+04  0.7818609E-02  0.8698698E-01
       -2   -1    0    0    0  501  0.00000000000E+00  0.00000000000E+00  0.91290907662E+03  0.91290907662E+03  0.25500000920E-02 0.  1.
        2   -1    0    0  501    0  0.00000000000E+00  0.00000000000E+00 -0.90148997822E+03  0.90148997823E+03  0.25500000920E-02 0. -1.
    10030    2    1    2    0    0  0.00000000000E+00  0.00000000000E+00  0.11419098392E+02  0.18143990548E+04  0.18143631209E+04 0.  0.
        2    1    3    3  502    0  0.41641599264E+03 -0.38482642080E+03 -0.70246034201E+03  0.90274259076E+03  0.25500000920E-02 0. -1.
       -2    1    3    3    0  502 -0.41641599264E+03  0.38482642080E+03  0.71387944040E+03  0.91165646408E+03  0.25500000920E-02 0.  1.
</event>
<event>
 5   0  0.3377273E-04  0.1860198E+04  0.7818609E-02  0.8674926E-01
       -1   -1    0    0    0  501  0.00000000000E+00  0.00000000000E+00  0.68731608806E+03  0.68731608808E+03  0.50400001928E-02 0.  1.
        1   -1    0    0  501    0  0.00000000000E+00  0.00000000000E+00 -0.12586409318E+04  0.12586409318E+04  0.50400001928E-02 0. -1.
    10030    2    1    2    0    0  0.00000000000E+00  0.00000000000E+00 -0.57132484373E+03  0.19459570199E+04  0.18601980126E+04 0.  0.
        2    1    3    3  502    0 -0.48945521404E+03 -0.26855279212E+03 -0.10638647540E+04  0.12014554605E+04  0.25500000920E-02 0. -1.
       -2    1    3    3    0  502  0.48945521404E+03  0.26855279212E+03  0.49253991028E+03  0.74450155939E+03  0.25500000920E-02 0.  1.
</event>
<event>
 5   0  0.3413839E-04  0.1799648E+04  0.7818609E-02  0.8706487E-01
        1   -1    0    0  501    0  0.00000000000E+00  0.00000000000E+00  0.14759328124E+04  0.14759328124E+04  0.50400001928E-02 0. -1.
       -1   -1    0    0    0  501  0.00000000000E+00  0.00000000000E+00 -0.54859099608E+03  0.54859099610E+03  0.50400001928E-02 0.  1.
    10030    2    1    2    0    0  0.00000000000E+00  0.00000000000E+00  0.92734181629E+03  0.20245238085E+04  0.17996482453E+04 0.  0.
        5    1    3    3  502    0 -0.34970196635E+03 -0.46236506652E+03 -0.31049814805E+03  0.65765044663E+03  0.46999998093E+01 0.  1.
       -5    1    3    3    0  502  0.34970196635E+03  0.46236506652E+03  0.12378399643E+04  0.13668733619E+04  0.46999998093E+01 0. -1.
</event>
<event>
 5   0  0.6771967E-04  0.1792575E+04  0.7818609E-02  0.8710258E-01
        2   -1    0    0  501    0  0.00000000000E+00  0.00000000000E+00  0.59597717202E+03  0.59597717202E+03  0.25500000920E-02 0. -1.
       -2   -1    0    0    0  501  0.00000000000E+00  0.00000000000E+00 -0.13479229732E+04  0.13479229732E+04  0.25500000920E-02 0.  1.
    10030    2    1    2    0    0  0.00000000000E+00  0.00000000000E+00 -0.75194580120E+03  0.19439001452E+04  0.17925750435E+04 0.  0.
        1    1    3    3  502    0  0.21558818255E+03  0.41276788280E+03  0.45449266470E+03  0.65070667110E+03  0.50400001928E-02 0. -1.
       -1    1    3    3    0  502 -0.21558818255E+03 -0.41276788280E+03 -0.12064384659E+04  0.12931934741E+04  0.50400001928E-02 0.  1.
</event>
<event>
 5   0  0.6853162E-04  0.1881700E+04  0.7818609E-02  0.8664020E-01
        2   -1    0    0  501    0  0.00000000000E+00  0.00000000000E+00  0.70161727987E+03  0.70161727987E+03  0.25500000920E-02 0. -1.
       -2   -1    0    0    0  501  0.00000000000E+00  0.00000000000E+00 -0.12616543479E+04  0.12616543479E+04  0.25500000920E-02 0.  1.
    10030    2    1    2    0    0  0.00000000000E+00  0.00000000000E+00 -0.56003706802E+03  0.19632716278E+04  0.18816997547E+04 0.  0.
        2    1    3    3  502    0  0.86225739449E+03 -0.27309489112E+03 -0.96924670815E+01  0.90452339816E+03  0.25500000920E-02 0. -1.
       -2    1    3    3    0  502 -0.86225739449E+03  0.27309489112E+03 -0.55034460094E+03  0.10587482296E+04  0.25500000920E-02 0.  1.
</event>
<event>
 5   0  0.6774451E-04  0.1379845E+04  0.7818609E-02  0.8968538E-01
        2   -1    0    0  501    0  0.00000000000E+00  0.00000000000E+00  0.37992592928E+03  0.37992592929E+03  0.25500000920E-02 0.  1.
       -2   -1    0    0    0  501  0.00000000000E+00  0.00000000000E+00 -0.12528572388E+04  0.12528572389E+04  0.25500000920E-02 0. -1.
    10030    2    1    2    0    0  0.00000000000E+00  0.00000000000E+00 -0.87293130957E+03  0.16327831681E+04  0.13798448474E+04 0.  0.
        4    1    3    3  502    0 -0.28025094444E+03  0.46143108211E+03 -0.94478217386E+03  0.10881517377E+04  0.12699999809E+01 0. -1.
       -4    1    3    3    0  502  0.28025094444E+03 -0.46143108211E+03  0.71850864291E+02  0.54463143041E+03  0.12699999809E+01 0.  1.
</event>
<event>
 5   0  0.6547153E-04  0.1846771E+04  0.7818609E-02  0.8681815E-01
        2   -1    0    0  501    0  0.00000000000E+00  0.00000000000E+00  0.14319712399E+04  0.14319712399E+04  0.25500000920E-02 0. -1.
       -2   -1    0    0    0  501  0.00000000000E+00  0.00000000000E+00 -0.59543179226E+03  0.59543179227E+03  0.25500000920E-02 0.  1.
    10030    2    1    2    0    0  0.00000000000E+00  0.00000000000E+00  0.83653944768E+03  0.20274030322E+04  0.18467714551E+04 0.  0.
        5    1    3    3  502    0 -0.75886669928E+03  0.48773597379E+03  0.63466369990E+03  0.11029891882E+04  0.46999998093E+01 0. -1.
       -5    1    3    3    0  502  0.75886669928E+03 -0.48773597379E+03  0.20187574777E+03  0.92441384397E+03  0.46999998093E+01 0.  1.
</event>
<event>
 5   0  0.6774451E-04  0.1847943E+04  0.7818609E-02  0.8681212E-01
       -2   -1    0    0    0  501  0.00000000000E+00  0.00000000000E+00  0.70983978003E+03  0.70983978004E+03  0.25500000920E-02 0. -1.
        2   -1    0    0  501    0  0.00000000000E+00  0.00000000000E+00 -0.12026980009E+04  0.12026980009E+04  0.25500000920E-02 0.  1.
    10030    2    1    2    0    0  0.00000000000E+00  0.00000000000E+00 -0.49285822091E+03  0.19125377810E+04  0.18479425147E+04 0.  0.
        4    1    3    3  502    0 -0.54733802297E+03 -0.11691681830E+03  0.51443744419E+03  0.76019467946E+03  0.12699999809E+01 0. -1.
       -4    1    3    3    0  502  0.54733802297E+03  0.11691681830E+03 -0.10072956651E+04  0.11523431015E+04  0.12699999809E+01 0.  1.
</event>
<event>
 5   0  0.6771967E-04  0.1119624E+04  0.7818609E-02  0.9186274E-01
       -2   -1    0    0    0  501  0.00000000000E+00  0.00000000000E+00  0.15684609680E+03  0.15684609682E+03  0.25500000920E-02 0. -1.
        2   -1    0    0  501    0  0.00000000000E+00  0.00000000000E+00 -0.19980685813E+04  0.19980685813E+04  0.25500000920E-02 0.  1.
    10030    2    1    2    0    0  0.00000000000E+00  0.00000000000E+00 -0.18412224845E+04  0.21549146781E+04  0.11196236120E+04 0.  0.
        1    1    3    3  502    0 -0.27285077382E+03  0.46738024898E+03 -0.11961657947E+04  0.13128992537E+04  0.50400001928E-02 0.  1.
       -1    1    3    3    0  502  0.27285077382E+03 -0.46738024898E+03 -0.64505668982E+03  0.84201542445E+03  0.50400001928E-02 0. -1.
</event>
<event>
 5   0  0.3377273E-04  0.1828179E+04  0.7818609E-02  0.8691456E-01
       -1   -1    0    0    0  501  0.00000000000E+00  0.00000000000E+00  0.86050660265E+03  0.86050660266E+03  0.50400001928E-02 0. -1.
        1   -1    0    0  501    0  0.00000000000E+00  0.00000000000E+00 -0.97100842466E+03  0.97100842467E+03  0.50400001928E-02 0.  1.
    10030    2    1    2    0    0  0.00000000000E+00  0.00000000000E+00 -0.11050182201E+03  0.18315150273E+04  0.18281785041E+04 0.  0.
        2    1    3    3  502    0  0.88711649601E+03  0.19359147727E+03 -0.16082741185E+03  0.92212731983E+03  0.25500000920E-02 0. -1.
       -2    1    3    3    0  502 -0.88711649601E+03 -0.19359147727E+03  0.50325589839E+02  0.90938770751E+03  0.25500000920E-02 0.  1.
</event>
<event>
 5   0  0.6853162E-04  0.1546405E+04  0.7818609E-02  0.8854167E-01
       -2   -1    0    0    0  501  0.00000000000E+00  0.00000000000E+00  0.46933885144E+03  0.46933885145E+03  0.25500000920E-02 0. -1.
        2   -1    0    0  501    0  0.00000000000E+00  0.00000000000E+00 -0.12737964747E+04  0.12737964747E+04  0.25500000920E-02 0.  1.
    10030    2    1    2    0    0  0.00000000000E+00  0.00000000000E+00 -0.80445762323E+03  0.17431353261E+04  0.15464050885E+04 0.  0.
        2    1    3    3  502    0  0.45123713932E+03 -0.32605752910E+03 -0.10070667220E+04  0.11507005913E+04  0.25500000920E-02 0.  1.
       -2    1    3    3    0  502 -0.45123713932E+03  0.32605752910E+03  0.20260909875E+03  0.59243473488E+03  0.25500000920E-02 0. -1.
</event>
<event>
 5   0  0.6929121E-04  0.1759930E+04  0.7818609E-02  0.8727903E-01
       -2   -1    0    0    0  501  0.00000000000E+00  0.00000000000E+00  0.71106957755E+03  0.71106957755E+03  0.25500000920E-02 0.  1.
        2   -1    0    0  501    0  0.00000000000E+00  0.00000000000E+00 -0.10889773286E+04  0.10889773286E+04  0.25500000920E-02 0. -1.
    10030    2    1    2    0    0  0.00000000000E+00  0.00000000000E+00 -0.37790775102E+03  0.18000469061E+04  0.17599302816E+04 0.  0.
        3    1    3    3  502    0  0.12457146784E+03  0.44182506388E+03 -0.95680701829E+03  0.10612290602E+04  0.10100000352E+00 0. -1.
       -3    1    3    3    0  502 -0.12457146784E+03 -0.44182506388E+03  0.57889926727E+03  0.73881784597E+03  0.10100000352E+00 0.  1.
</event>
<event>
 5   0  0.6547153E-04  0.1806381E+04  0.7818609E-02  0.8702913E-01
       -2   -1    0    0    0  501  0.00000000000E+00  0.00000000000E+00  0.99783950632E+03  0.99783950632E+03  0.25500000920E-02 0. -1.
        2   -1    0    0  501    0  0.00000000000E+00  0.00000000000E+00 -0.81751928834E+03  0.81751928834E+03  0.25500000920E-02 0.  1.
    10030    2    1    2    0    0  0.00000000000E+00  0.00000000000E+00  0.18032021798E+03  0.18153587947E+04  0.18063809599E+04 0.  0.
        5    1    3    3  502    0 -0.45311754698E+03  0.56461443577E+03  0.63286812044E+03  0.96158677212E+03  0.46999998093E+01 0. -1.
       -5    1    3    3    0  502  0.45311754698E+03 -0.56461443577E+03 -0.45254790245E+03  0.85377202254E+03  0.46999998093E+01 0.  1.
</event>
<event>
 5   0  0.6771967E-04  0.1756786E+04  0.7818609E-02  0.8729624E-01
        2   -1    0    0  501    0  0.00000000000E+00  0.00000000000E+00  0.13112400190E+04  0.13112400190E+04  0.25500000920E-02 0.  1.
       -2   -1    0    0    0  501  0.00000000000E+00  0.00000000000E+00 -0.58843129206E+03  0.58843129206E+03  0.25500000920E-02 0. -1.
    10030    2    1    2    0    0  0.00000000000E+00  0.00000000000E+00  0.72280872699E+03  0.18996713111E+04  0.17567864510E+04 0.  0.
        1    1    3    3  502    0  0.43167386857E+02 -0.82368337553E+03  0.68806170490E+03  0.10741259871E+04  0.50400001928E-02 0.  1.
       -1    1    3    3    0  502 -0.43167386857E+02  0.82368337553E+03  0.34747022086E+02  0.82554532400E+03  0.50400001928E-02 0. -1.
</event>
<event>
 5   0  0.3404261E-04  0.1504431E+04  0.7818609E-02  0.8881512E-01
        1   -1    0    0  501    0  0.00000000000E+00  0.00000000000E+00  0.10472415342E+04  0.10472415342E+04  0.50400001928E-02 0.  1.
       -1   -1    0    0    0  501  0.00000000000E+00  0.00000000000E+00 -0.54030311957E+03  0.54030311960E+03  0.50400001928E-02 0. -1.
    10030    2    1    2    0    0  0.00000000000E+00  0.00000000000E+00  0.50693841459E+03  0.15875446538E+04  0.15044306137E+04 0.  0.
        1    1    3    3  502    0  0.36067093296E+03 -0.31326640612E+03 -0.35967196052E+03  0.59798267726E+03  0.50400001928E-02 0. -1.
       -1    1    3    3    0  502 -0.36067093296E+03  0.31326640612E+03  0.86661037511E+03  0.98956197651E+03  0.50400001928E-02 0.  1.
</event>
<event>
 5   0  0.6853162E-04  0.1901716E+04  0.7818609E-02  0.8654003E-01
        2   -1    0    0  501    0  0.00000000000E+00  0.00000000000E+00  0.10898009038E+04  0.10898009038E+04  0.25500000920E-02 0. -1.
       -2   -1    0    0    0  501  0.00000000000E+00  0.00000000000E+00 -0.82962970157E+03  0.82962970158E+03  0.25500000920E-02 0.  1.
    10030    2    1    2    0    0  0.00000000000E+00  0.00000000000E+00  0.26017120218E+03  0.19194306053E+04  0.19017162760E+04 0.  0.
        2    1    3    3  502    0  0.48492292065E+03 -0.37582718239E+03 -0.60313489257E+03  0.86033017420E+03  0.25500000920E-02 0.  1.
       -2    1    3    3    0  502 -0.48492292065E+03  0.37582718239E+03  0.86330609475E+03  0.10591004311E+04  0.25500000920E-02 0. -1.
</event>
<event>
 5   0  0.3308275E-04  0.1805451E+04  0.7818609E-02  0.8703406E-01
        1   -1    0    0  501    0  0.00000000000E+00  0.00000000000E+00  0.17033465829E+04  0.17033465829E+04  0.50400001928E-02 0.  1.
       -1   -1    0    0    0  501  0.00000000000E+00  0.00000000000E+00 -0.47841886835E+03  0.47841886838E+03  0.50400001928E-02 0. -1.
    10030    2    1    2    0    0  0.00000000000E+00  0.00000000000E+00  0.12249277145E+04  0.21817654513E+04  0.18054507965E+04 0.  0.
        3    1    3    3  502    0  0.77375497837E+03  0.20807662272E+03  0.11149749210E+04  0.13730119199E+04  0.10100000352E+00 0.  1.
       -3    1    3    3    0  502 -0.77375497837E+03 -0.20807662272E+03  0.10995279350E+03  0.80875353136E+03  0.10100000352E+00 0. -1.
</event>
<event>
 5   0  0.6547153E-04  0.1755145E+04  0.7818609E-02  0.8730523E-01
       -2   -1    0    0    0  501  0.00000000000E+00  0.00000000000E+00  0.33270872231E+03  0.33270872232E+03  0.25500000920E-02 0. -1.
        2   -1    0    0  501    0  0.00000000000E+00  0.00000000000E+00 -0.23147372489E+04  0.23147372489E+04  0.25500000920E-02 0.  1.
    10030    2    1    2    0    0  0.00000000000E+00  0.00000000000E+00 -0.19820285266E+04  0.26474459712E+04  0.17551447491E+04 0.  0.
        5    1    3    3  502    0 -0.37225044866E+03  0.73938323711E+03 -0.55162613667E+03  0.99477206058E+03  0.46999998093E+01 0.  1.
       -5    1    3    3    0  502  0.37225044866E+03 -0.73938323711E+03 -0.14304023899E+04  0.16526739107E+04  0.46999998093E+01 0. -1.
</event>
<event>
 5   0  0.3470962E-04  0.1489709E+04  0.7818609E-02  0.8891325E-01
        1   -1    0    0  501    0  0.00000000000E+00  0.00000000000E+00  0.12445550669E+04  0.12445550669E+04  0.50400001928E-02 0. -1.
       -1   -1    0    0    0  501  0.00000000000E+00  0.00000000000E+00 -0.44578848067E+03  0.44578848070E+03  0.50400001928E-02 0.  1.
    10030    2    1    2    0    0  0.00000000000E+00  0.00000000000E+00  0.79876658623E+03  0.16903435476E+04  0.14897091158E+04 0.  0.
        4    1    3    3  502    0  0.30299996109E+03  0.66543190304E+03  0.23812248824E+03  0.76896848200E+03  0.12699999809E+01 0.  1.
       -4    1    3    3    0  502 -0.30299996109E+03 -0.66543190304E+03  0.56064409799E+03  0.92137506560E+03  0.12699999809E+01 0. -1.
</event>
<event>
 5   0  0.6774451E-04  0.1817288E+04  0.7818609E-02  0.8697159E-01
        2   -1    0    0  501    0  0.00000000000E+00  0.00000000000E+00  0.84387289174E+03  0.84387289174E+03  0.25500000920E-02 0. -1.
       -2   -1    0    0    0  501  0.00000000000E+00  0.00000000000E+00 -0.97838698595E+03  0.97838698595E+03  0.25500000920E-02 0.  1.
    10030    2    1    2    0    0  0.00000000000E+00  0.00000000000E+00 -0.13451409421E+03  0.18222598777E+04  0.18172883702E+04 0.  0.
        4    1    3    3  502    0 -0.45018984733E+03  0.30438099939E+03 -0.79747581648E+03  0.96503263272E+03  0.12699999809E+01 0.  1.
       -4    1    3    3    0  502  0.45018984733E+03 -0.30438099939E+03  0.66296172227E+03  0.85722724498E+03  0.12699999809E+01 0. -1.
</event>
<event>
 5   0  0.3404261E-04  0.1424100E+04  0.7818609E-02  0.8936556E-01
       -1   -1    0    0    0  501  0.00000000000E+00  0.00000000000E+00  0.71953235182E+03  0.71953235184E+03  0.50400001928E-02 0. -1.
        1   -1    0    0  501    0  0.00000000000E+00  0.00000000000E+00 -0.70464565818E+03  0.70464565820E+03  0.50400001928E-02 0.  1.
    10030    2    1    2    0    0  0.00000000000E+00  0.00000000000E+00  0.14886693645E+02  0.14241780100E+04  0.14241002039E+04 0.  0.
        1    1    3    3  502    0  0.12652521757E+03  0.40858744211E+03  0.57673978160E+03  0.71803976508E+03  0.50400001928E-02 0. -1.
       -1    1    3    3    0  502 -0.12652521757E+03 -0.40858744211E+03 -0.56185308795E+03  0.70613824496E+03  0.50400001928E-02 0.  1.
</event>
<event>
 5   0  0.6771967E-04  0.1714846E+04  0.7818609E-02  0.8752942E-01
       -2   -1    0    0    0  501  0.00000000000E+00  0.00000000000E+00  0.95664260606E+03  0.95664260606E+03  0.25500000920E-02 0.  1.
        2   -1    0    0  501    0  0.00000000000E+00  0.00000000000E+00 -0.76849401276E+03  0.76849401277E+03  0.25500000920E-02 0. -1.
    10030    2    1    2    0    0  0.00000000000E+00  0.00000000000E+00  0.18814859329E+03  0.17251366188E+04  0.17148458999E+04 0.  0.
        1    1    3    3  502    0  0.20464950608E+03  0.46935636145E+03  0.78594943590E+03  0.93802629504E+03  0.50400001928E-02 0.  1.
       -1    1    3    3    0  502 -0.20464950608E+03 -0.46935636145E+03 -0.59780084260E+03  0.78711032379E+03  0.50400001928E-02 0. -1.
</event>
<event>
 5   0  0.3470962E-04  0.1893585E+04  0.7818609E-02  0.8658056E-01
        1   -1    0    0  501    0  0.00000000000E+00  0.00000000000E+00  0.98104809629E+03  0.98104809630E+03  0.50400001928E-02 0. -1.
       -1   -1    0    0    0  501  0.00000000000E+00  0.00000000000E+00 -0.91373324085E+03  0.91373324087E+03  0.50400001928E-02 0.  1.
    10030    2    1    2    0    0  0.00000000000E+00  0.00000000000E+00  0.67314855437E+02  0.18947813372E+04  0.18935852307E+04 0.  0.
        4    1    3    3  502    0  0.62358387185E+03 -0.38352384185E+03  0.63442592896E+03  0.96873384102E+03  0.12699999809E+01 0. -1.
       -4    1    3    3    0  502 -0.62358387185E+03  0.38352384185E+03 -0.56711107352E+03  0.92604749615E+03  0.12699999809E+01 0.  1.
</event>
<event>
 5   0  0.2467375E-04  0.1786273E+04  0.7818609E-02  0.8713634E-01
       -3   -1    0    0    0  501  0.00000000000E+00  0.00000000000E+00  0.18129820127E+04  0.18129820155E+04  0.10100000352E+00 0.  1.
        3   -1    0    0  501    0  0.00000000000E+00  0.00000000000E+00 -0.43998923583E+03  0.43998924742E+03  0.10100000352E+00 0. -1.
    10030    2    1    2    0    0  0.00000000000E+00  0.00000000000E+00  0.13729927769E+04  0.22529712629E+04  0.17862727525E+04 0.  0.
        5    1    3    3  502    0 -0.39262726141E+03  0.73605461235E+03  0.28419702642E+03  0.88131867028E+03  0.46999998093E+01 0. -1.
       -5    1    3    3    0  502  0.39262726141E+03 -0.73605461235E+03  0.10887957505E+04  0.13716525927E+04  0.46999998093E+01 0.  1.
</event>
<event>
 5   0  0.6929121E-04  0.1697711E+04  0.7818609E-02  0.8762671E-01
        2   -1    0    0  501    0  0.00000000000E+00  0.00000000000E+00  0.15497925280E+04  0.15497925280E+04  0.25500000920E-02 0.  1.
       -2   -1    0    0    0  501  0.00000000000E+00  0.00000000000E+00 -0.46493681246E+03  0.46493681246E+03  0.25500000920E-02 0. -1.
    10030    2    1    2    0    0  0.00000000000E+00  0.00000000000E+00  0.10848557155E+04  0.20147293405E+04  0.16977109270E+04 0.  0.
        3    1    3    3  502    0 -0.77117599051E+03 -0.24894329811E+03  0.24250965021E+03  0.84587003414E+03  0.10100000352E+00 0.  1.
       -3    1    3    3    0  502  0.77117599051E+03  0.24894329811E+03  0.84234606534E+03  0.11688593063E+04  0.10100000352E+00 0. -1.
</event>
<event>
 5   0  0.3308275E-04  0.1783146E+04  0.7818609E-02  0.8715314E-01
        1   -1    0    0  501    0  0.00000000000E+00  0.00000000000E+00  0.63907571531E+03  0.63907571533E+03  0.50400001928E-02 0.  1.
       -1   -1    0    0    0  501  0.00000000000E+00  0.00000000000E+00 -0.12438313110E+04  0.12438313110E+04  0.50400001928E-02 0. -1.
    10030    2    1    2    0    0  0.00000000000E+00  0.00000000000E+00 -0.60475559564E+03  0.18829070263E+04  0.17831459669E+04 0.  0.
        3    1    3    3  502    0 -0.14473032802E+03 -0.52052147141E+03 -0.10512910987E+04  0.11819908860E+04  0.10100000352E+00 0. -1.
       -3    1    3    3    0  502  0.14473032802E+03  0.52052147141E+03  0.44653550308E+03  0.70091614032E+03  0.10100000352E+00 0.  1.
</event>
<event>
 5   0  0.6771967E-04  0.1749597E+04  0.7818609E-02  0.8733572E-01
        2   -1    0    0  501    0  0.00000000000E+00  0.00000000000E+00  0.12255384858E+04  0.12255384858E+04  0.25500000920E-02 0. -1.
       -2   -1    0    0    0  501  0.00000000000E+00  0.00000000000E+00 -0.62443739120E+03  0.62443739120E+03  0.25500000920E-02 0.  1.
    10030    2    1    2    0    0  0.00000000000E+00  0.00000000000E+00  0.60110109457E+03  0.18499758770E+04  0.17495965876E+04 0.  0.
        1    1    3    3  502    0 -0.58951746342E+02 -0.42891428563E+03  0.11043133721E+04  0.11861495676E+04  0.50400001928E-02 0. -1.
       -1    1    3    3    0  502  0.58951746342E+02  0.42891428563E+03 -0.50321227751E+03  0.66382630942E+03  0.50400001928E-02 0.  1.
</event>
<event>
 5   0  0.3470962E-04  0.1795888E+04  0.7818609E-02  0.8708489E-01
       -1   -1    0    0    0  501  0.00000000000E+00  0.00000000000E+00  0.70768166034E+03  0.70768166036E+03  0.50400001928E-02 0. -1.
        1   -1    0    0  501    0  0.00000000000E+00  0.00000000000E+00 -0.11393583358E+04  0.11393583358E+04  0.50400001928E-02 0.  1.
    10030    2    1    2    0    0  0.00000000000E+00  0.00000000000E+00 -0.43167667549E+03  0.18470399962E+04  0.17958875230E+04 0.  0.
        4    1    3    3  502    0  0.56928139607E+03 -0.69040426748E+03 -0.13913510757E+03  0.90559348028E+03  0.12699999809E+01 0.  1.
       -4    1    3    3    0  502 -0.56928139607E+03  0.69040426748E+03 -0.29254156792E+03  0.94144651591E+03  0.12699999809E+01 0. -1.
</event>
<event>
 5   0  0.6929121E-04  0.1795297E+04  0.7818609E-02  0.8708805E-01
        2   -1    0    0  501    0  0.00000000000E+00  0.00000000000E+00  0.93734118709E+03  0.93734118709E+03  0.25500000920E-02 0.  1.
       -2   -1    0    0    0  501  0.00000000000E+00  0.00000000000E+00 -0.85963617235E+03  0.85963617235E+03  0.25500000920E-02 0. -1.
    10030    2    1    2    0    0  0.00000000000E+00  0.00000000000E+00  0.77705014741E+02  0.17969773594E+04  0.17952965106E+04 0.  0.
        3    1    3    3  502    0 -0.31616038223E+03 -0.69829163734E+01 -0.80203297800E+03  0.86212705352E+03  0.10100000352E+00 0. -1.
       -3    1    3    3    0  502  0.31616038223E+03  0.69829163734E+01  0.87973799274E+03  0.93485030592E+03  0.10100000352E+00 0.  1.
</event>
<event>
 5   0  0.3470962E-04  0.1792437E+04  0.7818609E-02  0.8710332E-01
        1   -1    0    0  501    0  0.00000000000E+00  0.00000000000E+00  0.68487145335E+03  0.68487145337E+03  0.50400001928E-02 0.  1.
       -1   -1    0    0    0  501  0.00000000000E+00  0.00000000000E+00 -0.11727862855E+04  0.11727862855E+04  0.50400001928E-02 0. -1.
    10030    2    1    2    0    0  0.00000000000E+00  0.00000000000E+00 -0.48791483213E+03  0.18576577389E+04  0.17924372768E+04 0.  0.
        4    1    3    3  502    0 -0.44350410587E+03 -0.59481472649E+03 -0.76494734140E+03  0.10656671614E+04  0.12699999809E+01 0. -1.
       -4    1    3    3    0  502  0.44350410587E+03  0.59481472649E+03  0.27703250927E+03  0.79199057751E+03  0.12699999809E+01 0.  1.
</event>
<event>
 5   0  0.2467375E-04  0.1771306E+04  0.7818609E-02  0.8721709E-01
        3   -1    0    0  501    0  0.00000000000E+00  0.00000000000E+00  0.11656330755E+04  0.11656330799E+04  0.10100000352E+00 0. -1.
       -3   -1    0    0    0  501  0.00000000000E+00  0.00000000000E+00 -0.67292258829E+03  0.67292259587E+03  0.10100000352E+00 0.  1.
    10030    2    1    2    0    0  0.00000000000E+00  0.00000000000E+00  0.49271048721E+03  0.18385556758E+04  0.17713055492E+04 0.  0.
        2    1    3    3  502    0 -0.15258618262E+03  0.85903074118E+03  0.40433250391E+03  0.96161381602E+03  0.25500000920E-02 0.  1.
       -2    1    3    3    0  502  0.15258618262E+03 -0.85903074118E+03  0.88377983302E+02  0.87694185974E+03  0.25500000920E-02 0. -1.
</event>
<event>
 5   0  0.3470962E-04  0.1806948E+04  0.7818609E-02  0.8702613E-01
        1   -1    0    0  501    0  0.00000000000E+00  0.00000000000E+00  0.91472997779E+03  0.91472997780E+03  0.50400001928E-02 0.  1.
       -1   -1    0    0    0  501  0.00000000000E+00  0.00000000000E+00 -0.89235620924E+03  0.89235620925E+03  0.50400001928E-02 0. -1.
    10030    2    1    2    0    0  0.00000000000E+00  0.00000000000E+00  0.22373768550E+02  0.18070861871E+04  0.18069476755E+04 0.  0.
        4    1    3    3  502    0 -0.51898547066E+03 -0.67387553047E+03 -0.29348251422E+03  0.89977094218E+03  0.12699999809E+01 0. -1.
       -4    1    3    3    0  502  0.51898547066E+03  0.67387553047E+03  0.31585628277E+03  0.90731524488E+03  0.12699999809E+01 0.  1.
</event>
<event>
 5   0  0.3413839E-04  0.1788545E+04  0.7818609E-02  0.8712415E-01
        1   -1    0    0  501    0  0.00000000000E+00  0.00000000000E+00  0.89447528962E+03  0.89447528963E+03  0.50400001928E-02 0. -1.
       -1   -1    0    0    0  501  0.00000000000E+00  0.00000000000E+00 -0.89406932996E+03  0.89406932998E+03  0.50400001928E-02 0.  1.
    10030    2    1    2    0    0  0.00000000000E+00  0.00000000000E+00  0.40595965269E+00  0.17885446196E+04  0.17885445735E+04 0.  0.
        5    1    3    3  502    0  0.11105228385E+03 -0.56826936826E+02  0.88571919243E+03  0.89447330219E+03  0.46999998093E+01 0. -1.
       -5    1    3    3    0  502 -0.11105228385E+03  0.56826936826E+02 -0.88531323278E+03  0.89407131742E+03  0.46999998093E+01 0.  1.
</event>
<event>
 5   0  0.6853162E-04  0.1786353E+04  0.7818609E-02  0.8713591E-01
        2   -1    0    0  501    0  0.00000000000E+00  0.00000000000E+00  0.10487522854E+04  0.10487522854E+04  0.25500000920E-02 0. -1.
       -2   -1    0    0    0  501  0.00000000000E+00  0.00000000000E+00 -0.76067908443E+03  0.76067908443E+03  0.25500000920E-02 0.  1.
    10030    2    1    2    0    0  0.00000000000E+00  0.00000000000E+00  0.28807320095E+03  0.18094313698E+04  0.17863526284E+04 0.  0.
        2    1    3    3  502    0 -0.44838305538E+03 -0.29894536663E+03 -0.57744954775E+03  0.78985041418E+03  0.25500000920E-02 0.  1.
       -2    1    3    3    0  502  0.44838305538E+03  0.29894536663E+03  0.86552274870E+03  0.10195809556E+04  0.25500000920E-02 0. -1.
</event>
<event>
 5   0  0.6774451E-04  0.1707195E+04  0.7818609E-02  0.8757271E-01
       -2   -1    0    0    0  501  0.00000000000E+00  0.00000000000E+00  0.28828091534E+03  0.28828091535E+03  0.25500000920E-02 0. -1.
        2   -1    0    0  501    0  0.00000000000E+00  0.00000000000E+00 -0.25274963884E+04  0.25274963884E+04  0.25500000920E-02 0.  1.
    10030    2    1    2    0    0  0.00000000000E+00  0.00000000000E+00 -0.22392154731E+04  0.28157773038E+04  0.17071953285E+04 0.  0.
        4    1    3    3  502    0 -0.16110895321E+03 -0.50935702531E+02  0.26042039366E+03  0.31043668426E+03  0.12699999809E+01 0. -1.
       -4    1    3    3    0  502  0.16110895321E+03  0.50935702531E+02 -0.24996358668E+04  0.25053406195E+04  0.12699999809E+01 0.  1.
</event>
<event>
 5   0  0.6547153E-04  0.1815661E+04  0.7818609E-02  0.8698015E-01
       -2   -1    0    0    0  501  0.00000000000E+00  0.00000000000E+00  0.12430503414E+04  0.12430503414E+04  0.25500000920E-02 0. -1.
        2   -1    0    0  501    0  0.00000000000E+00  0.00000000000E+00 -0.66301089460E+03  0.66301089461E+03  0.25500000920E-02 0.  1.
    10030    2    1    2    0    0  0.00000000000E+00  0.00000000000E+00  0.58003944681E+03  0.19060612360E+04  0.18156606719E+04 0.  0.
        5    1    3    3  502    0 -0.16429466598E+03 -0.65272877952E+03  0.92951830155E+03  0.11476384273E+04  0.46999998093E+01 0.  1.
       -5    1    3    3    0  502  0.16429466598E+03  0.65272877952E+03 -0.34947885474E+03  0.75842280872E+03  0.46999998093E+01 0. -1.
</event>
<event>
 5   0  0.6547153E-04  0.1798817E+04  0.7818609E-02  0.8706929E-01
        2   -1    0    0  501    0  0.00000000000E+00  0.00000000000E+00  0.45734865390E+03  0.45734865391E+03  0.25500000920E-02 0. -1.
       -2   -1    0    0    0  501  0.00000000000E+00  0.00000000000E+00 -0.17687502271E+04  0.17687502271E+04  0.25500000920E-02 0.  1.
    10030    2    1    2    0    0  0.00000000000E+00  0.00000000000E+00 -0.13114015732E+04  0.22260988810E+04  0.17988168728E+04 0.  0.
        5    1    3    3  502    0 -0.27869541679E+03  0.68975709984E+03 -0.30191462355E+02  0.74456000867E+03  0.46999998093E+01 0. -1.
       -5    1    3    3    0  502  0.27869541679E+03 -0.68975709984E+03 -0.12812101109E+04  0.14815388724E+04  0.46999998093E+01 0.  1.
</event>
<event>
 5   0  0.3470962E-04  0.1776469E+04  0.7818609E-02  0.8718914E-01
       -1   -1    0    0    0  501  0.00000000000E+00  0.00000000000E+00  0.53634302797E+03  0.53634302799E+03  0.50400001928E-02 0. -1.
        1   -1    0    0  501    0  0.00000000000E+00  0.00000000000E+00 -0.14709997050E+04  0.14709997050E+04  0.50400001928E-02 0.  1.
    10030    2    1    2    0    0  0.00000000000E+00  0.00000000000E+00 -0.93465667700E+03  0.20073427330E+04  0.17764688975E+04 0.  0.
        4    1    3    3  502    0 -0.34335510686E+03 -0.60639508956E+03  0.15502453777E+03  0.71389211668E+03  0.12699999809E+01 0. -1.
       -4    1    3    3    0  502  0.34335510686E+03  0.60639508956E+03 -0.10896812148E+04  0.12934506163E+04  0.12699999809E+01 0.  1.
</event>
<event>
 5   0  0.3404261E-04  0.1806100E+04  0.7818609E-02  0.8703062E-01
       -1   -1    0    0    0  501  0.00000000000E+00  0.00000000000E+00  0.48068863339E+03  0.48068863342E+03  0.50400001928E-02 0. -1.
        1   -1    0    0  501    0  0.00000000000E+00  0.00000000000E+00 -0.16965236730E+04  0.16965236730E+04  0.50400001928E-02 0.  1.
    10030    2    1    2    0    0  0.00000000000E+00  0.00000000000E+00 -0.12158350396E+04  0.21772123065E+04  0.18061003803E+04 0.  0.
        1    1    3    3  502    0 -0.30792699990E+02 -0.51050342811E+03  0.28928267710E+03  0.58757672502E+03  0.50400001928E-02 0. -1.
       -1    1    3    3    0  502  0.30792699990E+02  0.51050342811E+03 -0.15051177167E+04  0.15896355814E+04  0.50400001928E-02 0.  1.
</event>
<event>
 5   0  0.6929121E-04  0.1722165E+04  0.7818609E-02  0.8748823E-01
        2   -1    0    0  501    0  0.00000000000E+00  0.00000000000E+00  0.14156689361E+04  0.14156689361E+04  0.25500000920E-02 0. -1.
       -2   -1    0    0    0  501  0.00000000000E+00  0.00000000000E+00 -0.52375445775E+03  0.52375445775E+03  0.25500000920E-02 0.  1.
    10030    2    1    2    0    0  0.00000000000E+00  0.00000000000E+00  0.89191447840E+03  0.19394233939E+04  0.17221648191E+04 0.  0.
        3    1    3    3  502    0  0.36084965697E+03 -0.60809717180E+03  0.99934295350E+03  0.12242062711E+04  0.10100000352E+00 0. -1.
       -3    1    3    3    0  502 -0.36084965697E+03  0.60809717180E+03 -0.10742847510E+03  0.71521712280E+03  0.10100000352E+00 0.  1.
</event>
<event>
 5   0  0.6771967E-04  0.1811446E+04  0.7818609E-02  0.8700236E-01
        2   -1    0    0  501    0  0.00000000000E+00  0.00000000000E+00  0.20708903556E+04  0.20708903556E+04  0.25500000920E-02 0. -1.
       -2   -1    0    0    0  501  0.00000000000E+00  0.00000000000E+00 -0.39612625438E+03  0.39612625438E+03  0.25500000920E-02 0.  1.
    10030    2    1    2    0    0  0.00000000000E+00  0.00000000000E+00  0.16747641013E+04  0.24670166100E+04  0.18114458753E+04 0.  0.
        1    1    3    3  502    0 -0.44852319343E+02 -0.87517852825E+03  0.52567288269E+03  0.10219007616E+04  0.50400001928E-02 0.  1.
       -1    1    3    3    0  502  0.44852319343E+02  0.87517852825E+03  0.11490912186E+04  0.14451158485E+04  0.50400001928E-02 0. -1.
</event>
<event>
 5   0  0.2467375E-04  0.1828436E+04  0.7818609E-02  0.8691322E-01
       -3   -1    0    0    0  501  0.00000000000E+00  0.00000000000E+00  0.80401857728E+03  0.80401858362E+03  0.10100000352E+00 0. -1.
        3   -1    0    0  501    0  0.00000000000E+00  0.00000000000E+00 -0.10395215269E+04  0.10395215318E+04  0.10100000352E+00 0.  1.
    10030    2    1    2    0    0  0.00000000000E+00  0.00000000000E+00 -0.23550294965E+03  0.18435401155E+04  0.18284360853E+04 0.  0.
        5    1    3    3  502    0  0.68490129797E+03  0.41264946082E+03  0.32908339766E+03  0.86468915691E+03  0.46999998093E+01 0. -1.
       -5    1    3    3    0  502 -0.68490129797E+03 -0.41264946082E+03 -0.56458634731E+03  0.97885095854E+03  0.46999998093E+01 0.  1.
</event>
<event>
 5   0  0.6547153E-04  0.9369418E+03  0.7818609E-02  0.9380545E-01
       -2   -1    0    0    0  501  0.00000000000E+00  0.00000000000E+00  0.69726301848E+03  0.69726301848E+03  0.25500000920E-02 0. -1.
        2   -1    0    0  501    0  0.00000000000E+00  0.00000000000E+00 -0.31475208742E+03  0.31475208743E+03  0.25500000920E-02 0.  1.
    10030    2    1    2    0    0  0.00000000000E+00  0.00000000000E+00  0.38251093105E+03  0.10120151059E+04  0.93694181368E+03 0.  0.
        5    1    3    3  502    0 -0.36150924565E+02 -0.46524370889E+03  0.14692682353E+03  0.48925267447E+03  0.46999998093E+01 0. -1.
       -5    1    3    3    0  502  0.36150924565E+02  0.46524370889E+03  0.23558410753E+03  0.52276243144E+03  0.46999998093E+01 0.  1.
</event>
<event>
 5   0  0.3308275E-04  0.1806595E+04  0.7818609E-02  0.8702800E-01
        1   -1    0    0  501    0  0.00000000000E+00  0.00000000000E+00  0.21545591836E+04  0.21545591836E+04  0.50400001928E-02 0.  1.
       -1   -1    0    0    0  501  0.00000000000E+00  0.00000000000E+00 -0.37870689593E+03  0.37870689596E+03  0.50400001928E-02 0. -1.
    10030    2    1    2    0    0  0.00000000000E+00  0.00000000000E+00  0.17758522877E+04  0.25332660795E+04  0.18065950521E+04 0.  0.
        3    1    3    3  502    0  0.30125290566E+03 -0.23566730220E+03 -0.25955413853E+03  0.46223452005E+03  0.10100000352E+00 0. -1.
       -3    1    3    3    0  502 -0.30125290566E+03  0.23566730220E+03  0.20354064262E+04  0.20710315595E+04  0.10100000352E+00 0.  1.
</event>
<event>
 5   0  0.6853162E-04  0.1580848E+04  0.7818609E-02  0.8832401E-01
        2   -1    0    0  501    0  0.00000000000E+00  0.00000000000E+00  0.27002973614E+04  0.27002973614E+04  0.25500000920E-02 0. -1.
       -2   -1    0    0    0  501  0.00000000000E+00  0.00000000000E+00 -0.23137081405E+03  0.23137081407E+03  0.25500000920E-02 0.  1.
    10030    2    1    2    0    0  0.00000000000E+00  0.00000000000E+00  0.24689265474E+04  0.29316681755E+04  0.15808478721E+04 0.  0.
        2    1    3    3  502    0 -0.26539868837E+03  0.38654150714E+02  0.26133361343E+04  0.26270623057E+04  0.25500000920E-02 0. -1.
       -2    1    3    3    0  502  0.26539868837E+03 -0.38654150714E+02 -0.14440958688E+03  0.30460586985E+03  0.25500000920E-02 0.  1.
</event>
<event>
 5   0  0.3404261E-04  0.1845991E+04  0.7818609E-02  0.8682217E-01
        1   -1    0    0  501    0  0.00000000000E+00  0.00000000000E+00  0.15741306675E+04  0.15741306675E+04  0.50400001928E-02 0. -1.
       -1   -1    0    0    0  501  0.00000000000E+00  0.00000000000E+00 -0.54120101414E+03  0.54120101417E+03  0.50400001928E-02 0.  1.
    10030    2    1    2    0    0  0.00000000000E+00  0.00000000000E+00  0.10329296533E+04  0.21153316816E+04  0.18459914557E+04 0.  0.
        1    1    3    3  502    0  0.27874961269E+03  0.32075060053E+03 -0.42243588365E+03  0.59919476812E+03  0.50400001928E-02 0.  1.
       -1    1    3    3    0  502 -0.27874961269E+03 -0.32075060053E+03  0.14553655370E+04  0.15161369135E+04  0.50400001928E-02 0. -1.
</event>
<event>
 5   0  0.6929121E-04  0.1793661E+04  0.7818609E-02  0.8709678E-01
       -2   -1    0    0    0  501  0.00000000000E+00  0.00000000000E+00  0.40977113250E+03  0.40977113251E+03  0.25500000920E-02 0.  1.
        2   -1    0    0  501    0  0.00000000000E+00  0.00000000000E+00 -0.19628144777E+04  0.19628144777E+04  0.25500000920E-02 0. -1.
    10030    2    1    2    0    0  0.00000000000E+00  0.00000000000E+00 -0.15530433452E+04  0.23725856102E+04  0.17936607387E+04 0.  0.
        3    1    3    3  502    0  0.47225861245E+03  0.10962813012E+03  0.22149139772E+03  0.53301498422E+03  0.10100000352E+00 0.  1.
       -3    1    3    3    0  502 -0.47225861245E+03 -0.10962813012E+03 -0.17745347429E+04  0.18395706260E+04  0.10100000352E+00 0. -1.
</event>
<event>
 5   0  0.6853162E-04  0.1727780E+04  0.7818609E-02  0.8745677E-01
        2   -1    0    0  501    0  0.00000000000E+00  0.00000000000E+00  0.10274802337E+04  0.10274802337E+04  0.25500000920E-02 0. -1.
       -2   -1    0    0    0  501  0.00000000000E+00  0.00000000000E+00 -0.72634602327E+03  0.72634602327E+03  0.25500000920E-02 0.  1.
    10030    2    1    2    0    0  0.00000000000E+00  0.00000000000E+00  0.30113421046E+03  0.17538262570E+04  0.17277802890E+04 0.  0.
        2    1    3    3  502    0  0.15262344007E+03  0.26137057696E+03  0.97189856195E+03  0.10179367896E+04  0.25500000920E-02 0. -1.
       -2    1    3    3    0  502 -0.15262344007E+03 -0.26137057696E+03 -0.67076435149E+03  0.73588946737E+03  0.25500000920E-02 0.  1.
</event>
<event>
 5   0  0.3404261E-04  0.1893316E+04  0.7818609E-02  0.8658190E-01
       -1   -1    0    0    0  501  0.00000000000E+00  0.00000000000E+00  0.34027797177E+03  0.34027797181E+03  0.50400001928E-02 0.  1.
        1   -1    0    0  501    0  0.00000000000E+00  0.00000000000E+00 -0.26336163120E+04  0.26336163120E+04  0.50400001928E-02 0. -1.
    10030    2    1    2    0    0  0.00000000000E+00  0.00000000000E+00 -0.22933383402E+04  0.29738942838E+04  0.18933162621E+04 0.  0.
        1    1    3    3  502    0  0.58596800075E+03  0.51285556204E+03 -0.19922172006E+04  0.21389971248E+04  0.50400001928E-02 0. -1.
       -1    1    3    3    0  502 -0.58596800075E+03 -0.51285556204E+03 -0.30112113964E+03  0.83489715905E+03  0.50400001928E-02 0.  1.
</event>
<event>
 5   0  0.6547153E-04  0.1801220E+04  0.7818609E-02  0.8705651E-01
       -2   -1    0    0    0  501  0.00000000000E+00  0.00000000000E+00  0.73554555115E+03  0.73554555116E+03  0.25500000920E-02 0. -1.
        2   -1    0    0  501    0  0.00000000000E+00  0.00000000000E+00 -0.11027168373E+04  0.11027168373E+04  0.25500000920E-02 0.  1.
    10030    2    1    2    0    0  0.00000000000E+00  0.00000000000E+00 -0.36717128612E+03  0.18382623884E+04  0.18012201019E+04 0.  0.
        5    1    3    3  502    0 -0.46587624232E+03  0.26198439844E+03 -0.92333687858E+03  0.10668878008E+04  0.46999998093E+01 0.  1.
       -5    1    3    3    0  502  0.46587624232E+03 -0.26198439844E+03  0.55616559246E+03  0.77137458762E+03  0.46999998093E+01 0. -1.
</event>
<event>
 5   0  0.6853162E-04  0.1048434E+04  0.7818609E-02  0.9256962E-01
       -2   -1    0    0    0  501  0.00000000000E+00  0.00000000000E+00  0.59474157403E+03  0.59474157403E+03  0.25500000920E-02 0.  1.
        2   -1    0    0  501    0  0.00000000000E+00  0.00000000000E+00 -0.46205564989E+03  0.46205564989E+03  0.25500000920E-02 0. -1.
    10030    2    1    2    0    0  0.00000000000E+00  0.00000000000E+00  0.13268592414E+03  0.10567972239E+04  0.10484344605E+04 0.  0.
        2    1    3    3  502    0  0.48098209386E+03  0.10251595064E+03 -0.11662741640E+03  0.50542580960E+03  0.25500000920E-02 0. -1.
       -2    1    3    3    0  502 -0.48098209386E+03 -0.10251595064E+03  0.24931334055E+03  0.55137141432E+03  0.25500000920E-02 0.  1.
</event>
<event>
 5   0  0.6547153E-04  0.1827095E+04  0.7818609E-02  0.8692022E-01
       -2   -1    0    0    0  501  0.00000000000E+00  0.00000000000E+00  0.42210825823E+03  0.42210825823E+03  0.25500000920E-02 0.  1.
        2   -1    0    0  501    0  0.00000000000E+00  0.00000000000E+00 -0.19771454296E+04  0.19771454296E+04  0.25500000920E-02 0. -1.
    10030    2    1    2    0    0  0.00000000000E+00  0.00000000000E+00 -0.15550371714E+04  0.23992536878E+04  0.18270954146E+04 0.  0.
        5    1    3    3  502    0 -0.26111293591E+03 -0.84308810205E+03 -0.46796602498E+03  0.99899539721E+03  0.46999998093E+01 0.  1.
       -5    1    3    3    0  502  0.26111293591E+03  0.84308810205E+03 -0.10870711464E+04  0.14002582906E+04  0.46999998093E+01 0. -1.
</event>
<event>
 5   0  0.3404261E-04  0.1480686E+04  0.7818609E-02  0.8897399E-01
       -1   -1    0    0    0  501  0.00000000000E+00  0.00000000000E+00  0.61117617602E+03  0.61117617604E+03  0.50400001928E-02 0. -1.
        1   -1    0    0  501    0  0.00000000000E+00  0.00000000000E+00 -0.89680866814E+03  0.89680866815E+03  0.50400001928E-02 0.  1.
    10030    2    1    2    0    0  0.00000000000E+00  0.00000000000E+00 -0.28563249212E+03  0.15079848442E+04  0.14806864522E+04 0.  0.
        1    1    3    3  502    0  0.37443028312E+03 -0.27987432626E+02 -0.79264466140E+03  0.87707861254E+03  0.50400001928E-02 0.  1.
       -1    1    3    3    0  502 -0.37443028312E+03  0.27987432626E+02  0.50701216928E+03  0.63090623165E+03  0.50400001928E-02 0. -1.
</event>
<event>
 5   0  0.6774451E-04  0.1027392E+04  0.7818609E-02  0.9279001E-01
        2   -1    0    0  501    0  0.00000000000E+00  0.00000000000E+00  0.19507864315E+04  0.19507864315E+04  0.25500000920E-02 0.  1.
       -2   -1    0    0    0  501  0.00000000000E+00  0.00000000000E+00 -0.13527046604E+03  0.13527046607E+03  0.25500000920E-02 0. -1.
    10030    2    1    2    0    0  0.00000000000E+00  0.00000000000E+00  0.18155159655E+04  0.20860568976E+04  0.10273924076E+04 0.  0.
        4    1    3    3  502    0  0.14217537919E+02  0.37643117125E+03  0.16169003311E+04  0.16602020536E+04  0.12699999809E+01 0.  1.
       -4    1    3    3    0  502 -0.14217537919E+02 -0.37643117125E+03  0.19861563441E+03  0.42585484405E+03  0.12699999809E+01 0. -1.
</event>
<event>
 5   0  0.6929121E-04  0.1775207E+04  0.7818609E-02  0.8719596E-01
        2   -1    0    0  501    0  0.00000000000E+00  0.00000000000E+00  0.79878699408E+03  0.79878699409E+03  0.25500000920E-02 0.  1.
       -2   -1    0    0    0  501  0.00000000000E+00  0.00000000000E+00 -0.98629597064E+03  0.98629597065E+03  0.25500000920E-02 0. -1.
    10030    2    1    2    0    0  0.00000000000E+00  0.00000000000E+00 -0.18750897656E+03  0.17850829647E+04  0.17752074737E+04 0.  0.
        3    1    3    3  502    0 -0.57222266533E+03  0.66508185537E+03 -0.22891850480E+03  0.90673940308E+03  0.10100000352E+00 0. -1.
       -3    1    3    3    0  502  0.57222266533E+03 -0.66508185537E+03  0.41409528237E+02  0.87834356165E+03  0.10100000352E+00 0.  1.
</event>
<event>
 5   0  0.6547153E-04  0.1690386E+04  0.7818609E-02  0.8766867E-01
        2   -1    0    0  501    0  0.00000000000E+00  0.00000000000E+00  0.10833998024E+04  0.10833998024E+04  0.25500000920E-02 0. -1.
       -2   -1    0    0    0  501  0.00000000000E+00  0.00000000000E+00 -0.65936044547E+03  0.65936044547E+03  0.25500000920E-02 0.  1.
    10030    2    1    2    0    0  0.00000000000E+00  0.00000000000E+00  0.42403935692E+03  0.17427602479E+04  0.16903857268E+04 0.  0.
        5    1    3    3  502    0 -0.18576273640E+03 -0.57855556812E+03 -0.39362914296E+03  0.72401680355E+03  0.46999998093E+01 0.  1.
       -5    1    3    3    0  502  0.18576273640E+03  0.57855556812E+03  0.81766849989E+03  0.10187434443E+04  0.46999998093E+01 0. -1.
</event>
<event>
 5   0  0.6929121E-04  0.9498979E+03  0.7818609E-02  0.9365270E-01
       -2   -1    0    0    0  501  0.00000000000E+00  0.00000000000E+00  0.12523897507E+03  0.12523897510E+03  0.25500000920E-02 0.  1.
        2   -1    0    0  501    0  0.00000000000E+00  0.00000000000E+00 -0.18011685961E+04  0.18011685961E+04  0.25500000920E-02 0. -1.
    10030    2    1    2    0    0  0.00000000000E+00  0.00000000000E+00 -0.16759296210E+04  0.19264075712E+04  0.94989790807E+03 0.  0.
        3    1    3    3  502    0 -0.13950355883E+03  0.44219789648E+03 -0.10465279888E+04  0.11446488824E+04  0.10100000352E+00 0. -1.
       -3    1    3    3    0  502  0.13950355883E+03 -0.44219789648E+03 -0.62940163225E+03  0.78175868876E+03  0.10100000352E+00 0.  1.
</event>
<event>
 5   0  0.3308275E-04  0.1815270E+04  0.7818609E-02  0.8698221E-01
        1   -1    0    0  501    0  0.00000000000E+00  0.00000000000E+00  0.11554136626E+04  0.11554136626E+04  0.50400001928E-02 0.  1.
       -1   -1    0    0    0  501  0.00000000000E+00  0.00000000000E+00 -0.71299215232E+03  0.71299215234E+03  0.50400001928E-02 0. -1.
    10030    2    1    2    0    0  0.00000000000E+00  0.00000000000E+00  0.44242151032E+03  0.18684058150E+04  0.18152695383E+04 0.  0.
        3    1    3    3  502    0 -0.89496762414E+03 -0.14214240653E+03  0.16843256980E+03  0.92170551303E+03  0.10100000352E+00 0.  1.
       -3    1    3    3    0  502  0.89496762414E+03  0.14214240653E+03  0.27398894052E+03  0.94670030195E+03  0.10100000352E+00 0. -1.
</event>
<event>
 5   0  0.3308275E-04  0.1875463E+04  0.7818609E-02  0.8667167E-01
       -1   -1    0    0    0  501  0.00000000000E+00  0.00000000000E+00  0.50207675055E+03  0.50207675057E+03  0.50400001928E-02 0. -1.
        1   -1    0    0  501    0  0.00000000000E+00  0.00000000000E+00 -0.17514057072E+04  0.17514057072E+04  0.50400001928E-02 0.  1.
    10030    2    1    2    0    0  0.00000000000E+00  0.00000000000E+00 -0.12493289566E+04  0.22534824578E+04  0.18754627017E+04 0.  0.
        3    1    3    3  502    0 -0.60292288177E+03  0.12639874981E+02  0.23817356746E+03  0.64838447409E+03  0.10100000352E+00 0. -1.
       -3    1    3    3    0  502  0.60292288177E+03 -0.12639874981E+02 -0.14875025241E+04  0.16050979837E+04  0.10100000352E+00 0.  1.
</event>
<event>
 5   0  0.6774451E-04  0.1198825E+04  0.7818609E-02  0.9113886E-01
        2   -1    0    0  501    0  0.00000000000E+00  0.00000000000E+00  0.12649015629E+04  0.12649015629E+04  0.25500000920E-02 0. -1.
       -2   -1    0    0    0  501  0.00000000000E+00  0.00000000000E+00 -0.28405006738E+03  0.28405006739E+03  0.25500000920E-02 0.  1.
    10030    2    1    2    0    0  0.00000000000E+00  0.00000000000E+00  0.98085149551E+03  0.15489516303E+04  0.11988250484E+04 0.  0.
        4    1    3    3  502    0 -0.55531947564E+02 -0.67884590303E+02 -0.27571312360E+03  0.28932931795E+03  0.12699999809E+01 0.  1.
       -4    1    3    3    0  502  0.55531947564E+02  0.67884590303E+02  0.12565646191E+04  0.12596223123E+04  0.12699999809E+01 0. -1.
</event>
<event>
 5   0  0.3413839E-04  0.1837258E+04  0.7818609E-02  0.8686733E-01
       -1   -1    0    0    0  501  0.00000000000E+00  0.00000000000E+00  0.70940626957E+03  0.70940626959E+03  0.50400001928E-02 0. -1.
        1   -1    0    0  501    0  0.00000000000E+00  0.00000000000E+00 -0.11895570803E+04  0.11895570803E+04  0.50400001928E-02 0.  1.
    10030    2    1    2    0    0  0.00000000000E+00  0.00000000000E+00 -0.48015081070E+03  0.18989633499E+04  0.18372580121E+04 0.  0.
        5    1    3    3  502    0 -0.40857706372E+02  0.33522602540E+03 -0.11230571622E+04  0.11727426486E+04  0.46999998093E+01 0.  1.
       -5    1    3    3    0  502  0.40857706372E+02 -0.33522602540E+03  0.64290635146E+03  0.72622070131E+03  0.46999998093E+01 0. -1.
</event>
<event>
 5   0  0.2467375E-04  0.1758626E+04  0.7818609E-02  0.8728616E-01
       -3   -1    0    0    0  501  0.00000000000E+00  0.00000000000E+00  0.46760420703E+03  0.46760421793E+03  0.10100000352E+00 0.  1.
        3   -1    0    0  501    0  0.00000000000E+00  0.00000000000E+00 -0.16535171896E+04  0.16535171927E+04  0.10100000352E+00 0. -1.
    10030    2    1    2    0    0  0.00000000000E+00  0.00000000000E+00 -0.11859129826E+04  0.21211214107E+04  0.17586262924E+04 0.  0.
        3    1    3    3  502    0 -0.21612567850E+03  0.84933033382E+03 -0.50665940041E+03  0.10123122458E+04  0.10100000352E+00 0. -1.
       -3    1    3    3    0  502  0.21612567850E+03 -0.84933033382E+03 -0.67925358221E+03  0.11088091648E+04  0.10100000352E+00 0.  1.
</event>
<event>
 5   0  0.3308275E-04  0.1807504E+04  0.7818609E-02  0.8702319E-01
        1   -1    0    0  501    0  0.00000000000E+00  0.00000000000E+00  0.94228568363E+03  0.94228568364E+03  0.50400001928E-02 0. -1.
       -1   -1    0    0    0  501  0.00000000000E+00  0.00000000000E+00 -0.86679454036E+03  0.86679454038E+03  0.50400001928E-02 0.  1.
    10030    2    1    2    0    0  0.00000000000E+00  0.00000000000E+00  0.75491143263E+02  0.18090802240E+04  0.18075044521E+04 0.  0.
        3    1    3    3  502    0 -0.19570773217E+03 -0.48756193767E+03  0.77374365088E+03  0.93525258993E+03  0.10100000352E+00 0. -1.
       -3    1    3    3    0  502  0.19570773217E+03  0.48756193767E+03 -0.69825250762E+03  0.87382763409E+03  0.10100000352E+00 0.  1.
</event>
<event>
 5   0  0.2467375E-04  0.1801501E+04  0.7818609E-02  0.8705502E-01
       -3   -1    0    0    0  501  0.00000000000E+00  0.00000000000E+00  0.12719967190E+04  0.12719967230E+04  0.10100000352E+00 0. -1.
        3   -1    0    0  501    0  0.00000000000E+00  0.00000000000E+00 -0.63785633386E+03  0.63785634186E+03  0.10100000352E+00 0.  1.
    10030    2    1    2    0    0  0.00000000000E+00  0.00000000000E+00  0.63414038512E+03  0.19098530648E+04  0.18015006803E+04 0.  0.
        4    1    3    3  502    0 -0.77985730238E+03 -0.25859515192E+03 -0.74324169096E+02  0.82496942954E+03  0.12699999809E+01 0.  1.
       -4    1    3    3    0  502  0.77985730238E+03  0.25859515192E+03  0.70846455421E+03  0.10848836353E+04  0.12699999809E+01 0. -1.
</event>
<event>
 5   0  0.3308275E-04  0.1819357E+04  0.7818609E-02  0.8696073E-01
        1   -1    0    0  501    0  0.00000000000E+00  0.00000000000E+00  0.15950378874E+04  0.15950378874E+04  0.50400001928E-02 0. -1.
       -1   -1    0    0    0  501  0.00000000000E+00  0.00000000000E+00 -0.51880573343E+03  0.51880573346E+03  0.50400001928E-02 0.  1.
    10030    2    1    2    0    0  0.00000000000E+00  0.00000000000E+00  0.10762321540E+04  0.21138436208E+04  0.18193568106E+04 0.  0.
        3    1    3    3  502    0  0.57276376295E+02  0.24524780126E+03  0.15537251823E+04  0.15740041358E+04  0.10100000352E+00 0. -1.
       -3    1    3    3    0  502 -0.57276376295E+02 -0.24524780126E+03 -0.47749302832E+03  0.53983948504E+03  0.10100000352E+00 0.  1.
</event>
<event>
 5   0  0.6771967E-04  0.1818967E+04  0.7818609E-02  0.8696278E-01
       -2   -1    0    0    0  501  0.00000000000E+00  0.00000000000E+00  0.51360032212E+03  0.51360032213E+03  0.25500000920E-02 0.  1.
        2   -1    0    0  501    0  0.00000000000E+00  0.00000000000E+00 -0.16105134312E+04  0.16105134312E+04  0.25500000920E-02 0. -1.
    10030    2    1    2    0    0  0.00000000000E+00  0.00000000000E+00 -0.10969131090E+04  0.21241137533E+04  0.18189669783E+04 0.  0.
        1    1    3    3  502    0  0.63798189967E+03 -0.13835985896E+03  0.19101743331E+03  0.68018527971E+03  0.50400001928E-02 0.  1.
       -1    1    3    3    0  502 -0.63798189967E+03  0.13835985896E+03 -0.12879305424E+04  0.14439284736E+04  0.50400001928E-02 0. -1.
</event>
<event>
 5   0  0.3377273E-04  0.1777759E+04  0.7818609E-02  0.8718217E-01
        1   -1    0    0  501    0  0.00000000000E+00  0.00000000000E+00  0.23632033304E+04  0.23632033304E+04  0.50400001928E-02 0. -1.
       -1   -1    0    0    0  501  0.00000000000E+00  0.00000000000E+00 -0.33433731457E+03  0.33433731461E+03  0.50400001928E-02 0.  1.
    10030    2    1    2    0    0  0.00000000000E+00  0.00000000000E+00  0.20288660158E+04  0.26975406450E+04  0.17777593260E+04 0.  0.
        2    1    3    3  502    0  0.18388479147E+03  0.54276991394E+03 -0.16599286842E+02  0.57331346779E+03  0.25500000920E-02 0.  1.
       -2    1    3    3    0  502 -0.18388479147E+03 -0.54276991394E+03  0.20454653026E+04  0.21242271772E+04  0.25500000920E-02 0. -1.
</event>
<event>
 5   0  0.3308275E-04  0.9381103E+03  0.7818609E-02  0.9379157E-01
       -1   -1    0    0    0  501  0.00000000000E+00  0.00000000000E+00  0.14852894167E+03  0.14852894175E+03  0.50400001928E-02 0.  1.
        1   -1    0    0  501    0  0.00000000000E+00  0.00000000000E+00 -0.14812784718E+04  0.14812784718E+04  0.50400001928E-02 0. -1.
    10030    2    1    2    0    0  0.00000000000E+00  0.00000000000E+00 -0.13327495301E+04  0.16298074135E+04  0.93811027881E+03 0.  0.
        3    1    3    3  502    0 -0.38746628147E+03 -0.10557202911E+03 -0.24531979676E+03  0.47059258971E+03  0.10100000352E+00 0.  1.
       -3    1    3    3    0  502  0.38746628147E+03  0.10557202911E+03 -0.10874297333E+04  0.11592148238E+04  0.10100000352E+00 0. -1.
</event>
<event>
 5   0  0.3377273E-04  0.1093688E+04  0.7818609E-02  0.9211366E-01
       -1   -1    0    0    0  501  0.00000000000E+00  0.00000000000E+00  0.10286896161E+04  0.10286896161E+04  0.50400001928E-02 0. -1.
        1   -1    0    0  501    0  0.00000000000E+00  0.00000000000E+00 -0.29069832428E+03  0.29069832433E+03  0.50400001928E-02 0.  1.
    10030    2    1    2    0    0  0.00000000000E+00  0.00000000000E+00  0.73799129183E+03  0.13193879405E+04  0.10936879768E+04 0.  0.
        2    1    3    3  502    0  0.30569255896E+03  0.27008885090E+03 -0.70364126104E+02  0.41394086321E+03  0.25500000920E-02 0.  1.
       -2    1    3    3    0  502 -0.30569255896E+03 -0.27008885090E+03  0.80835541794E+03  0.90544707725E+03  0.25500000920E-02 0. -1.
</event>
<event>
 5   0  0.3308275E-04  0.1841801E+04  0.7818609E-02  0.8684381E-01
        1   -1    0    0  501    0  0.00000000000E+00  0.00000000000E+00  0.11735844992E+04  0.11735844992E+04  0.50400001928E-02 0.  1.
       -1   -1    0    0    0  501  0.00000000000E+00  0.00000000000E+00 -0.72262173634E+03  0.72262173636E+03  0.50400001928E-02 0. -1.
    10030    2    1    2    0    0  0.00000000000E+00  0.00000000000E+00  0.45096276288E+03  0.18962062356E+04  0.18418009323E+04 0.  0.
        3    1    3    3  502    0  0.32624900328E+03  0.84481107348E+03  0.39748991813E+03  0.98901082261E+03  0.10100000352E+00 0. -1.
       -3    1    3    3    0  502 -0.32624900328E+03 -0.84481107348E+03  0.53472844746E+02  0.90719541299E+03  0.10100000352E+00 0.  1.
</event>
<event>
 5   0  0.6547153E-04  0.1537716E+04  0.7818609E-02  0.8859752E-01
       -2   -1    0    0    0  501  0.00000000000E+00  0.00000000000E+00  0.58271870201E+03  0.58271870202E+03  0.25500000920E-02 0.  1.
        2   -1    0    0  501    0  0.00000000000E+00  0.00000000000E+00 -0.10144568261E+04  0.10144568261E+04  0.25500000920E-02 0. -1.
    10030    2    1    2    0    0  0.00000000000E+00  0.00000000000E+00 -0.43173812410E+03  0.15971755281E+04  0.15377164433E+04 0.  0.
        5    1    3    3  502    0  0.70133947851E+03 -0.90775449701E+02 -0.52920177825E+03  0.88328583057E+03  0.46999998093E+01 0. -1.
       -5    1    3    3    0  502 -0.70133947851E+03  0.90775449701E+02  0.97463654154E+02  0.71388969755E+03  0.46999998093E+01 0.  1.
</event>
<event>
 5   0  0.6771967E-04  0.1192200E+04  0.7818609E-02  0.9119712E-01
       -2   -1    0    0    0  501  0.00000000000E+00  0.00000000000E+00  0.68639696642E+03  0.68639696642E+03  0.25500000920E-02 0.  1.
        2   -1    0    0  501    0  0.00000000000E+00  0.00000000000E+00 -0.51768142056E+03  0.51768142056E+03  0.25500000920E-02 0. -1.
    10030    2    1    2    0    0  0.00000000000E+00  0.00000000000E+00  0.16871554586E+03  0.12040783870E+04  0.11921995750E+04 0.  0.
        1    1    3    3  502    0 -0.23726916167E+03 -0.30567057878E+03  0.54231125503E+03  0.66620766670E+03  0.50400001928E-02 0.  1.
       -1    1    3    3    0  502  0.23726916167E+03  0.30567057878E+03 -0.37359570916E+03  0.53787072029E+03  0.50400001928E-02 0. -1.
</event>
<event>
 5   0  0.3404261E-04  0.1808345E+04  0.7818609E-02  0.8701874E-01
       -1   -1    0    0    0  501  0.00000000000E+00  0.00000000000E+00  0.10666790757E+04  0.10666790757E+04  0.50400001928E-02 0.  1.
        1   -1    0    0  501    0  0.00000000000E+00  0.00000000000E+00 -0.76642387885E+03  0.76642387886E+03  0.50400001928E-02 0. -1.
    10030    2    1    2    0    0  0.00000000000E+00  0.00000000000E+00  0.30025519681E+03  0.18331029545E+04  0.18083454478E+04 0.  0.
        1    1    3    3  502    0  0.44718447631E+03  0.48515382226E+03  0.77679847291E+03  0.10191977505E+04  0.50400001928E-02 0.  1.
       -1    1    3    3    0  502 -0.44718447631E+03 -0.48515382226E+03 -0.47654327610E+03  0.81390520402E+03  0.50400001928E-02 0. -1.
</event>
<event>
 5   0  0.6853162E-04  0.1832579E+04  0.7818609E-02  0.8689164E-01
       -2   -1    0    0    0  501  0.00000000000E+00  0.00000000000E+00  0.60678701650E+03  0.60678701650E+03  0.25500000920E-02 0.  1.
        2   -1    0    0  501    0  0.00000000000E+00  0.00000000000E+00 -0.13836589088E+04  0.13836589088E+04  0.25500000920E-02 0. -1.
    10030    2    1    2    0    0  0.00000000000E+00  0.00000000000E+00 -0.77687189232E+03  0.19904459253E+04  0.18325787963E+04 0.  0.
        2    1    3    3  502    0 -0.65354976288E+03  0.21118655018E+03 -0.10471979516E+04  0.12523380539E+04  0.25500000920E-02 0. -1.
       -2    1    3    3    0  502  0.65354976288E+03 -0.21118655018E+03  0.27032605923E+03  0.73810787141E+03  0.25500000920E-02 0.  1.
</event>
<event>
 5   0  0.6547153E-04  0.1777336E+04  0.7818609E-02  0.8718445E-01
        2   -1    0    0  501    0  0.00000000000E+00  0.00000000000E+00  0.17550309548E+04  0.17550309548E+04  0.25500000920E-02 0.  1.
       -2   -1    0    0    0  501  0.00000000000E+00  0.00000000000E+00 -0.44998131875E+03  0.44998131875E+03  0.25500000920E-02 0. -1.
    10030    2    1    2    0    0  0.00000000000E+00  0.00000000000E+00  0.13050496361E+04  0.22050122736E+04  0.17773363705E+04 0.  0.
        5    1    3    3  502    0  0.64127230093E+03 -0.47525259963E+03  0.11371861438E+04  0.13893558266E+04  0.46999998093E+01 0.  1.
       -5    1    3    3    0  502 -0.64127230093E+03  0.47525259963E+03  0.16786349228E+03  0.81565644694E+03  0.46999998093E+01 0. -1.
</event>
<event>
 5   0  0.3377273E-04  0.1078188E+04  0.7818609E-02  0.9226716E-01
       -1   -1    0    0    0  501  0.00000000000E+00  0.00000000000E+00  0.38728438921E+03  0.38728438924E+03  0.50400001928E-02 0.  1.
        1   -1    0    0  501    0  0.00000000000E+00  0.00000000000E+00 -0.75041074964E+03  0.75041074966E+03  0.50400001928E-02 0. -1.
    10030    2    1    2    0    0  0.00000000000E+00  0.00000000000E+00 -0.36312636043E+03  0.11376951389E+04  0.10781880520E+04 0.  0.
        2    1    3    3  502    0 -0.72343874048E+02 -0.45427322370E+03 -0.47819139700E+03  0.66352453613E+03  0.25500000920E-02 0. -1.
       -2    1    3    3    0  502  0.72343874048E+02  0.45427322370E+03  0.11506503656E+03  0.47417060277E+03  0.25500000920E-02 0.  1.
</event>
<event>
 5   0  0.6853162E-04  0.1585981E+04  0.7818609E-02  0.8829207E-01
       -2   -1    0    0    0  501  0.00000000000E+00  0.00000000000E+00  0.59537652310E+03  0.59537652311E+03  0.25500000920E-02 0.  1.
        2   -1    0    0  501    0  0.00000000000E+00  0.00000000000E+00 -0.10561956482E+04  0.10561956482E+04  0.25500000920E-02 0. -1.
    10030    2    1    2    0    0  0.00000000000E+00  0.00000000000E+00 -0.46081912513E+03  0.16515721713E+04  0.15859812014E+04 0.  0.
        2    1    3    3  502    0  0.13773918079E+03 -0.73433271783E+03  0.46320027246E+02  0.74857342147E+03  0.25500000920E-02 0.  1.
       -2    1    3    3    0  502 -0.13773918079E+03  0.73433271783E+03 -0.50713915237E+03  0.90299874987E+03  0.25500000920E-02 0. -1.
</event>
<event>
 5   0  0.6929121E-04  0.1522557E+04  0.7818609E-02  0.8869590E-01
       -2   -1    0    0    0  501  0.00000000000E+00  0.00000000000E+00  0.49001157493E+03  0.49001157494E+03  0.25500000920E-02 0.  1.
        2   -1    0    0  501    0  0.00000000000E+00  0.00000000000E+00 -0.11827170604E+04  0.11827170604E+04  0.25500000920E-02 0. -1.
    10030    2    1    2    0    0  0.00000000000E+00  0.00000000000E+00 -0.69270548550E+03  0.16727286354E+04  0.15225571247E+04 0.  0.
        3    1    3    3  502    0 -0.37815529502E+03  0.34545398748E+03  0.27240694813E+03  0.58012536594E+03  0.10100000352E+00 0.  1.
       -3    1    3    3    0  502  0.37815529502E+03 -0.34545398748E+03 -0.96511243364E+03  0.10926032694E+04  0.10100000352E+00 0. -1.
</event>
<event>
 5   0  0.3413839E-04  0.1729058E+04  0.7818609E-02  0.8744963E-01
       -1   -1    0    0    0  501  0.00000000000E+00  0.00000000000E+00  0.58766519134E+03  0.58766519136E+03  0.50400001928E-02 0.  1.
        1   -1    0    0  501    0  0.00000000000E+00  0.00000000000E+00 -0.12718301278E+04  0.12718301278E+04  0.50400001928E-02 0. -1.
    10030    2    1    2    0    0  0.00000000000E+00  0.00000000000E+00 -0.68416493645E+03  0.18594953192E+04  0.17290578885E+04 0.  0.
        5    1    3    3  502    0  0.16878284032E+03 -0.26377811698E+03 -0.12086761176E+04  0.12485938449E+04  0.46999998093E+01 0. -1.
       -5    1    3    3    0  502 -0.16878284032E+03  0.26377811698E+03  0.52451118113E+03  0.61090147431E+03  0.46999998093E+01 0.  1.
</event>
<event>
 5   0  0.3413839E-04  0.1545629E+04  0.7818609E-02  0.8854665E-01
        1   -1    0    0  501    0  0.00000000000E+00  0.00000000000E+00  0.10255022367E+04  0.10255022367E+04  0.50400001928E-02 0.  1.
       -1   -1    0    0    0  501  0.00000000000E+00  0.00000000000E+00 -0.58238993583E+03  0.58238993585E+03  0.50400001928E-02 0. -1.
    10030    2    1    2    0    0  0.00000000000E+00  0.00000000000E+00  0.44311230085E+03  0.16078921725E+04  0.15456289100E+04 0.  0.
        5    1    3    3  502    0  0.17150712020E+03 -0.75342439332E+03  0.23459431471E+03  0.80753921961E+03  0.46999998093E+01 0.  1.
       -5    1    3    3    0  502 -0.17150712020E+03  0.75342439332E+03  0.20851798614E+03  0.80035295293E+03  0.46999998093E+01 0. -1.
</event>
<event>
 5   0  0.6771967E-04  0.1484752E+04  0.7818609E-02  0.8894656E-01
       -2   -1    0    0    0  501  0.00000000000E+00  0.00000000000E+00  0.16196508370E+04  0.16196508370E+04  0.25500000920E-02 0. -1.
        2   -1    0    0  501    0  0.00000000000E+00  0.00000000000E+00 -0.34027234681E+03  0.34027234682E+03  0.25500000920E-02 0.  1.
    10030    2    1    2    0    0  0.00000000000E+00  0.00000000000E+00  0.12793784902E+04  0.19599231838E+04  0.14847523582E+04 0.  0.
        1    1    3    3  502    0  0.19935101257E+02 -0.41864897240E+03  0.14485350172E+04  0.15079516128E+04  0.50400001928E-02 0. -1.
       -1    1    3    3    0  502 -0.19935101257E+02  0.41864897240E+03 -0.16915652705E+03  0.45197157103E+03  0.50400001928E-02 0.  1.
</event>
<event>
 5   0  0.3470962E-04  0.1725053E+04  0.7818609E-02  0.8747203E-01
       -1   -1    0    0    0  501  0.00000000000E+00  0.00000000000E+00  0.64948966469E+03  0.64948966471E+03  0.50400001928E-02 0.  1.
        1   -1    0    0  501    0  0.00000000000E+00  0.00000000000E+00 -0.11454413038E+04  0.11454413038E+04  0.50400001928E-02 0. -1.
    10030    2    1    2    0    0  0.00000000000E+00  0.00000000000E+00 -0.49595163914E+03  0.17949309685E+04  0.17250533770E+04 0.  0.
        4    1    3    3  502    0  0.54257751107E+02  0.83631393262E+03 -0.35789378524E+02  0.83883692692E+03  0.12699999809E+01 0. -1.
       -4    1    3    3    0  502 -0.54257751107E+02 -0.83631393262E+03 -0.46016226061E+03  0.95609404163E+03  0.12699999809E+01 0.  1.
</event>
<event>
 5   0  0.3377273E-04  0.1835311E+04  0.7818609E-02  0.8687743E-01
       -1   -1    0    0    0  501  0.00000000000E+00  0.00000000000E+00  0.12691477886E+04  0.12691477886E+04  0.50400001928E-02 0.  1.
        1   -1    0    0  501    0  0.00000000000E+00  0.00000000000E+00 -0.66350973807E+03  0.66350973809E+03  0.50400001928E-02 0. -1.
    10030    2    1    2    0    0  0.00000000000E+00  0.00000000000E+00  0.60563805049E+03  0.19326575267E+04  0.18353113270E+04 0.  0.
        2    1    3    3  502    0 -0.59411361523E+03 -0.17342503514E+03 -0.41064591990E+03  0.74274982474E+03  0.25500000920E-02 0. -1.
       -2    1    3    3    0  502  0.59411361523E+03  0.17342503514E+03  0.10162839704E+04  0.11899077019E+04  0.25500000920E-02 0.  1.
</event>
<event>
 5   0  0.6774451E-04  0.1834218E+04  0.7818609E-02  0.8688311E-01
        2   -1    0    0  501    0  0.00000000000E+00  0.00000000000E+00  0.10213933047E+04  0.10213933047E+04  0.25500000920E-02 0.  1.
       -2   -1    0    0    0  501  0.00000000000E+00  0.00000000000E+00 -0.82347249490E+03  0.82347249490E+03  0.25500000920E-02 0. -1.
    10030    2    1    2    0    0  0.00000000000E+00  0.00000000000E+00  0.19792080980E+03  0.18448657996E+04  0.18342184089E+04 0.  0.
        4    1    3    3  502    0  0.52333978842E+03  0.45401651740E+03  0.70334129884E+03  0.98727206370E+03  0.12699999809E+01 0.  1.
       -4    1    3    3    0  502 -0.52333978842E+03 -0.45401651740E+03 -0.50542048904E+03  0.85759373590E+03  0.12699999809E+01 0. -1.
</event>
<event>
 5   0  0.6853162E-04  0.1844668E+04  0.7818609E-02  0.8682900E-01
        2   -1    0    0  501    0  0.00000000000E+00  0.00000000000E+00  0.78725988810E+03  0.78725988810E+03  0.25500000920E-02 0. -1.
       -2   -1    0    0    0  501  0.00000000000E+00  0.00000000000E+00 -0.10805837977E+04  0.10805837977E+04  0.25500000920E-02 0.  1.
    10030    2    1    2    0    0  0.00000000000E+00  0.00000000000E+00 -0.29332390956E+03  0.18678436858E+04  0.18446682950E+04 0.  0.
        2    1    3    3  502    0  0.21252502444E+03 -0.89511365725E+03 -0.80225644435E+02  0.92348876519E+03  0.25500000920E-02 0.  1.
       -2    1    3    3    0  502 -0.21252502444E+03  0.89511365725E+03 -0.21309826513E+03  0.94435492057E+03  0.25500000920E-02 0. -1.
</event>
<event>
 5   0  0.6547153E-04  0.1835698E+04  0.7818609E-02  0.8687543E-01
        2   -1    0    0  501    0  0.00000000000E+00  0.00000000000E+00  0.11497890989E+04  0.11497890989E+04  0.25500000920E-02 0. -1.
       -2   -1    0    0    0  501  0.00000000000E+00  0.00000000000E+00 -0.73269663963E+03  0.73269663964E+03  0.25500000920E-02 0.  1.
    10030    2    1    2    0    0  0.00000000000E+00  0.00000000000E+00  0.41709245926E+03  0.18824857385E+04  0.18356978063E+04 0.  0.
        5    1    3    3  502    0  0.12072321796E+03 -0.20605727543E+03  0.11173568990E+04  0.11426032670E+04  0.46999998093E+01 0. -1.
       -5    1    3    3    0  502 -0.12072321796E+03  0.20605727543E+03 -0.70026443972E+03  0.73988247151E+03  0.46999998093E+01 0.  1.
</event>
<event>
 5   0  0.2467375E-04  0.1720941E+04  0.7818609E-02  0.8749510E-01
       -4   -1    0    0    0  501  0.00000000000E+00  0.00000000000E+00  0.85413874041E+03  0.85413968458E+03  0.12699999809E+01 0. -1.
        4   -1    0    0  501    0  0.00000000000E+00  0.00000000000E+00 -0.86684740751E+03  0.86684833784E+03  0.12699999809E+01 0.  1.
    10030    2    1    2    0    0  0.00000000000E+00  0.00000000000E+00 -0.12708667103E+02  0.17209880224E+04  0.17209410981E+04 0.  0.
        5    1    3    3  502    0 -0.11982624575E+03  0.80364277503E+03  0.27682725075E+03  0.85840285169E+03  0.46999998093E+01 0.  1.
       -5    1    3    3    0  502  0.11982624575E+03 -0.80364277503E+03 -0.28953591786E+03  0.86258517073E+03  0.46999998093E+01 0. -1.
</event>
<event>
 5   0  0.6774451E-04  0.1776125E+04  0.7818609E-02  0.8719100E-01
        2   -1    0    0  501    0  0.00000000000E+00  0.00000000000E+00  0.96835115728E+03  0.96835115728E+03  0.25500000920E-02 0. -1.
       -2   -1    0    0    0  501  0.00000000000E+00  0.00000000000E+00 -0.81443065325E+03  0.81443065326E+03  0.25500000920E-02 0.  1.
    10030    2    1    2    0    0  0.00000000000E+00  0.00000000000E+00  0.15392050403E+03  0.17827818105E+04  0.17761248443E+04 0.  0.
        4    1    3    3  502    0 -0.68629992125E+03 -0.45625888970E+03 -0.25514764274E+03  0.86271761825E+03  0.12699999809E+01 0. -1.
       -4    1    3    3    0  502  0.68629992125E+03  0.45625888970E+03  0.40906814677E+03  0.92006419229E+03  0.12699999809E+01 0.  1.
</event>
<event>
 5   0  0.6929121E-04  0.1863277E+04  0.7818609E-02  0.8673355E-01
       -2   -1    0    0    0  501  0.00000000000E+00  0.00000000000E+00  0.52910924021E+03  0.52910924022E+03  0.25500000920E-02 0. -1.
        2   -1    0    0  501    0  0.00000000000E+00  0.00000000000E+00 -0.16403982511E+04  0.16403982511E+04  0.25500000920E-02 0.  1.
    10030    2    1    2    0    0  0.00000000000E+00  0.00000000000E+00 -0.11112890109E+04  0.21695074913E+04  0.18632765466E+04 0.  0.
        3    1    3    3  502    0  0.45647955733E+03  0.47160762967E+03  0.21420404566E+03  0.69041344570E+03  0.10100000352E+00 0. -1.
       -3    1    3    3    0  502 -0.45647955733E+03 -0.47160762967E+03 -0.13254930566E+04  0.14790940456E+04  0.10100000352E+00 0.  1.
</event>
<event>
 5   0  0.3308275E-04  0.1700650E+04  0.7818609E-02  0.8760994E-01
        1   -1    0    0  501    0  0.00000000000E+00  0.00000000000E+00  0.17580660193E+04  0.17580660193E+04  0.50400001928E-02 0.  1.
       -1   -1    0    0    0  501  0.00000000000E+00  0.00000000000E+00 -0.41127705640E+03  0.41127705644E+03  0.50400001928E-02 0. -1.
    10030    2    1    2    0    0  0.00000000000E+00  0.00000000000E+00  0.13467889629E+04  0.21693430758E+04  0.17006495435E+04 0.  0.
        3    1    3    3  502    0  0.34564311248E+02  0.54710065860E+03  0.15025700498E+04  0.15994469629E+04  0.10100000352E+00 0.  1.
       -3    1    3    3    0  502 -0.34564311248E+02 -0.54710065860E+03 -0.15578108689E+03  0.56989611289E+03  0.10100000352E+00 0. -1.
</event>
<event>
 5   0  0.6929121E-04  0.1783409E+04  0.7818609E-02  0.8715173E-01
       -2   -1    0    0    0  501  0.00000000000E+00  0.00000000000E+00  0.86545822315E+03  0.86545822316E+03  0.25500000920E-02 0. -1.
        2   -1    0    0  501    0  0.00000000000E+00  0.00000000000E+00 -0.91874653410E+03  0.91874653411E+03  0.25500000920E-02 0.  1.
    10030    2    1    2    0    0  0.00000000000E+00  0.00000000000E+00 -0.53288310948E+02  0.17842047573E+04  0.17834088067E+04 0.  0.
        3    1    3    3  502    0 -0.89719036894E+02  0.35562053757E+03 -0.83979301874E+03  0.91638845303E+03  0.10100000352E+00 0.  1.
       -3    1    3    3    0  502  0.89719036894E+02 -0.35562053757E+03  0.78650470779E+03  0.86781630424E+03  0.10100000352E+00 0. -1.
</event>
<event>
 5   0  0.3377273E-04  0.1696059E+04  0.7818609E-02  0.8763615E-01
        1   -1    0    0  501    0  0.00000000000E+00  0.00000000000E+00  0.79567734360E+03  0.79567734362E+03  0.50400001928E-02 0.  1.
       -1   -1    0    0    0  501  0.00000000000E+00  0.00000000000E+00 -0.90382639211E+03  0.90382639212E+03  0.50400001928E-02 0. -1.
    10030    2    1    2    0    0  0.00000000000E+00  0.00000000000E+00 -0.10814904851E+03  0.16995037357E+04  0.16960591768E+04 0.  0.
        2    1    3    3  502    0  0.11330403671E+03 -0.26701932898E+03  0.74442344802E+03  0.79893891929E+03  0.25500000920E-02 0.  1.
       -2    1    3    3    0  502 -0.11330403671E+03  0.26701932898E+03 -0.85257249653E+03  0.90056481645E+03  0.25500000920E-02 0. -1.
</event>
<event>
 5   0  0.3404261E-04  0.1055119E+04  0.7818609E-02  0.9250075E-01
       -1   -1    0    0    0  501  0.00000000000E+00  0.00000000000E+00  0.90215702177E+03  0.90215702179E+03  0.50400001928E-02 0. -1.
        1   -1    0    0  501    0  0.00000000000E+00  0.00000000000E+00 -0.30850419392E+03  0.30850419396E+03  0.50400001928E-02 0.  1.
    10030    2    1    2    0    0  0.00000000000E+00  0.00000000000E+00  0.59365282785E+03  0.12106612157E+04  0.10551193768E+04 0.  0.
        1    1    3    3  502    0  0.23721493063E+03 -0.10685186339E+02  0.83737293533E+03  0.87038987205E+03  0.50400001928E-02 0. -1.
       -1    1    3    3    0  502 -0.23721493063E+03  0.10685186339E+02 -0.24372010748E+03  0.34027134369E+03  0.50400001928E-02 0.  1.
</event>
<event>
 5   0  0.6774451E-04  0.1820814E+04  0.7818609E-02  0.8695309E-01
        2   -1    0    0  501    0  0.00000000000E+00  0.00000000000E+00  0.20818407396E+04  0.20818407396E+04  0.25500000920E-02 0.  1.
       -2   -1    0    0    0  501  0.00000000000E+00  0.00000000000E+00 -0.39812869965E+03  0.39812869966E+03  0.25500000920E-02 0. -1.
    10030    2    1    2    0    0  0.00000000000E+00  0.00000000000E+00  0.16837120400E+04  0.24799694393E+04  0.18208136056E+04 0.  0.
        4    1    3    3  502    0  0.46303530826E+03  0.51195146245E+03  0.16503254897E+04  0.17888744594E+04  0.12699999809E+01 0.  1.
       -4    1    3    3    0  502 -0.46303530826E+03 -0.51195146245E+03  0.33386550271E+02  0.69109497990E+03  0.12699999809E+01 0. -1.
</event>
<event>
 5   0  0.6774451E-04  0.1819107E+04  0.7818609E-02  0.8696204E-01
        2   -1    0    0  501    0  0.00000000000E+00  0.00000000000E+00  0.21210725207E+04  0.21210725207E+04  0.25500000920E-02 0.  1.
       -2   -1    0    0    0  501  0.00000000000E+00  0.00000000000E+00 -0.39003267786E+03  0.39003267786E+03  0.25500000920E-02 0. -1.
    10030    2    1    2    0    0  0.00000000000E+00  0.00000000000E+00  0.17310398428E+04  0.25111051985E+04  0.18191070284E+04 0.  0.
        4    1    3    3  502    0  0.38826544169E+03  0.13871694973E+03  0.19846648635E+04  0.20270393875E+04  0.12699999809E+01 0.  1.
       -4    1    3    3    0  502 -0.38826544169E+03 -0.13871694973E+03 -0.25362502069E+03  0.48406581099E+03  0.12699999809E+01 0. -1.
</event>
<event>
 5   0  0.6774451E-04  0.2060586E+04  0.7818609E-02  0.8578807E-01
       -2   -1    0    0    0  501  0.00000000000E+00  0.00000000000E+00  0.64684335068E+03  0.64684335068E+03  0.25500000920E-02 0.  1.
        2   -1    0    0  501    0  0.00000000000E+00  0.00000000000E+00 -0.16410528903E+04  0.16410528903E+04  0.25500000920E-02 0. -1.
    10030    2    1    2    0    0  0.00000000000E+00  0.00000000000E+00 -0.99420953962E+03  0.22878962410E+04  0.20605864701E+04 0.  0.
        4    1    3    3  502    0 -0.69380399715E+02  0.10274028510E+04 -0.53446609310E+03  0.11601835526E+04  0.12699999809E+01 0. -1.
       -4    1    3    3    0  502  0.69380399715E+02 -0.10274028510E+04 -0.45974344652E+03  0.11277126884E+04  0.12699999809E+01 0.  1.
</event>
<event>
 5   0  0.2467375E-04  0.1775623E+04  0.7818609E-02  0.8719371E-01
        3   -1    0    0  501    0  0.00000000000E+00  0.00000000000E+00  0.11333316906E+04  0.11333316951E+04  0.10100000352E+00 0. -1.
       -3   -1    0    0    0  501  0.00000000000E+00  0.00000000000E+00 -0.69547979793E+03  0.69547980526E+03  0.10100000352E+00 0.  1.
    10030    2    1    2    0    0  0.00000000000E+00  0.00000000000E+00  0.43785189272E+03  0.18288115004E+04  0.17756230524E+04 0.  0.
        3    1    3    3  502    0 -0.81296115942E+02 -0.61440807404E+03 -0.43580698146E+03  0.75765036475E+03  0.10100000352E+00 0.  1.
       -3    1    3    3    0  502  0.81296115942E+02  0.61440807404E+03  0.87365887418E+03  0.10711611357E+04  0.10100000352E+00 0. -1.
</event>
<event>
 5   0  0.3404261E-04  0.1781079E+04  0.7818609E-02  0.8716427E-01
        1   -1    0    0  501    0  0.00000000000E+00  0.00000000000E+00  0.13458892848E+04  0.13458892848E+04  0.50400001928E-02 0.  1.
       -1   -1    0    0    0  501  0.00000000000E+00  0.00000000000E+00 -0.58924640625E+03  0.58924640627E+03  0.50400001928E-02 0. -1.
    10030    2    1    2    0    0  0.00000000000E+00  0.00000000000E+00  0.75664287852E+03  0.19351356911E+04  0.17810788015E+04 0.  0.
        1    1    3    3  502    0 -0.11074781314E+03  0.19892366338E+03  0.13137340840E+04  0.13333165212E+04  0.50400001928E-02 0.  1.
       -1    1    3    3    0  502  0.11074781314E+03 -0.19892366338E+03 -0.55709120552E+03  0.60181916990E+03  0.50400001928E-02 0. -1.
</event>
<event>
 5   0  0.2467375E-04  0.1689269E+04  0.7818609E-02  0.8767509E-01
       -3   -1    0    0    0  501  0.00000000000E+00  0.00000000000E+00  0.87698306331E+03  0.87698306912E+03  0.10100000352E+00 0.  1.
        3   -1    0    0  501    0  0.00000000000E+00  0.00000000000E+00 -0.81347883292E+03  0.81347883919E+03  0.10100000352E+00 0. -1.
    10030    2    1    2    0    0  0.00000000000E+00  0.00000000000E+00  0.63504230387E+02  0.16904619083E+04  0.16892686809E+04 0.  0.
        5    1    3    3  502    0  0.79565587508E+03 -0.26800015666E+03  0.12397318414E+03  0.84869534929E+03  0.46999998093E+01 0. -1.
       -5    1    3    3    0  502 -0.79565587508E+03  0.26800015666E+03 -0.60468953754E+02  0.84176655902E+03  0.46999998093E+01 0.  1.
</event>
<event>
 5   0  0.6929121E-04  0.1707071E+04  0.7818609E-02  0.8757342E-01
        2   -1    0    0  501    0  0.00000000000E+00  0.00000000000E+00  0.14434871731E+04  0.14434871731E+04  0.25500000920E-02 0. -1.
       -2   -1    0    0    0  501  0.00000000000E+00  0.00000000000E+00 -0.50469621420E+03  0.50469621420E+03  0.25500000920E-02 0.  1.
    10030    2    1    2    0    0  0.00000000000E+00  0.00000000000E+00  0.93879095895E+03  0.19481833874E+04  0.17070706037E+04 0.  0.
        3    1    3    3  502    0  0.36331839117E+03 -0.33977084751E+03 -0.32216865640E+03  0.59265262638E+03  0.10100000352E+00 0.  1.
       -3    1    3    3    0  502 -0.36331839117E+03  0.33977084751E+03  0.12609596154E+04  0.13555307610E+04  0.10100000352E+00 0. -1.
</event>
<event>
 5   0  0.6771967E-04  0.1785905E+04  0.7818609E-02  0.8713831E-01
        2   -1    0    0  501    0  0.00000000000E+00  0.00000000000E+00  0.54755207136E+03  0.54755207137E+03  0.25500000920E-02 0. -1.
       -2   -1    0    0    0  501  0.00000000000E+00  0.00000000000E+00 -0.14562338512E+04  0.14562338512E+04  0.25500000920E-02 0.  1.
    10030    2    1    2    0    0  0.00000000000E+00  0.00000000000E+00 -0.90868177985E+03  0.20037859226E+04  0.17859046577E+04 0.  0.
        1    1    3    3  502    0 -0.13928758514E+03 -0.38719232250E+03  0.43483649862E+03  0.59866660716E+03  0.50400001928E-02 0. -1.
       -1    1    3    3    0  502  0.13928758514E+03  0.38719232250E+03 -0.13435182785E+04  0.14051193154E+04  0.50400001928E-02 0.  1.
</event>
<event>
 5   0  0.3377273E-04  0.1782612E+04  0.7818609E-02  0.8715601E-01
       -1   -1    0    0    0  501  0.00000000000E+00  0.00000000000E+00  0.11466989868E+04  0.11466989869E+04  0.50400001928E-02 0. -1.
        1   -1    0    0  501    0  0.00000000000E+00  0.00000000000E+00 -0.69279454837E+03  0.69279454839E+03  0.50400001928E-02 0.  1.
    10030    2    1    2    0    0  0.00000000000E+00  0.00000000000E+00  0.45390443847E+03  0.18394935352E+04  0.17826124725E+04 0.  0.
        2    1    3    3  502    0  0.44612023512E+03  0.62699226728E+03 -0.23715930068E+03  0.80522487624E+03  0.25500000920E-02 0.  1.
       -2    1    3    3    0  502 -0.44612023512E+03 -0.62699226728E+03  0.69106373916E+03  0.10342686590E+04  0.25500000920E-02 0. -1.
</event>
<event>
 5   0  0.3404261E-04  0.1740473E+04  0.7818609E-02  0.8738612E-01
        1   -1    0    0  501    0  0.00000000000E+00  0.00000000000E+00  0.95922842202E+03  0.95922842204E+03  0.50400001928E-02 0.  1.
       -1   -1    0    0    0  501  0.00000000000E+00  0.00000000000E+00 -0.78950046758E+03  0.78950046759E+03  0.50400001928E-02 0. -1.
    10030    2    1    2    0    0  0.00000000000E+00  0.00000000000E+00  0.16972795445E+03  0.17487288896E+04  0.17404726803E+04 0.  0.
        1    1    3    3  502    0 -0.62543942501E+03 -0.53842241847E+03  0.36228626080E+03  0.90129046919E+03  0.50400001928E-02 0.  1.
       -1    1    3    3    0  502  0.62543942501E+03  0.53842241847E+03 -0.19255830635E+03  0.84743842044E+03  0.50400001928E-02 0. -1.
</event>
<event>
 5   0  0.3377273E-04  0.1897831E+04  0.7818609E-02  0.8655937E-01
        1   -1    0    0  501    0  0.00000000000E+00  0.00000000000E+00  0.11147824730E+04  0.11147824730E+04  0.50400001928E-02 0. -1.
       -1   -1    0    0    0  501  0.00000000000E+00  0.00000000000E+00 -0.80772789277E+03  0.80772789279E+03  0.50400001928E-02 0.  1.
    10030    2    1    2    0    0  0.00000000000E+00  0.00000000000E+00  0.30705458021E+03  0.19225103658E+04  0.18978312863E+04 0.  0.
        2    1    3    3  502    0  0.79310712364E+03  0.52065793824E+03  0.13492274744E+03  0.95828375025E+03  0.25500000920E-02 0. -1.
       -2    1    3    3    0  502 -0.79310712364E+03 -0.52065793824E+03  0.17213183276E+03  0.96422661552E+03  0.25500000920E-02 0.  1.
</event>
<event>
 5   0  0.6929121E-04  0.1702780E+04  0.7818609E-02  0.8759781E-01
        2   -1    0    0  501    0  0.00000000000E+00  0.00000000000E+00  0.11375698189E+04  0.11375698189E+04  0.25500000920E-02 0. -1.
       -2   -1    0    0    0  501  0.00000000000E+00  0.00000000000E+00 -0.63720442911E+03  0.63720442912E+03  0.25500000920E-02 0.  1.
    10030    2    1    2    0    0  0.00000000000E+00  0.00000000000E+00  0.50036538980E+03  0.17747742480E+04  0.17027795242E+04 0.  0.
        3    1    3    3  502    0  0.46015415597E+03  0.13195063849E+03  0.98401915136E+03  0.10942789949E+04  0.10100000352E+00 0. -1.
       -3    1    3    3    0  502 -0.46015415597E+03 -0.13195063849E+03 -0.48365376156E+03  0.68049525312E+03  0.10100000352E+00 0.  1.
</event>
<event>
 5   0  0.3377273E-04  0.1779956E+04  0.7818609E-02  0.8717032E-01
        1   -1    0    0  501    0  0.00000000000E+00  0.00000000000E+00  0.18591789738E+04  0.18591789738E+04  0.50400001928E-02 0.  1.
       -1   -1    0    0    0  501  0.00000000000E+00  0.00000000000E+00 -0.42602735252E+03  0.42602735255E+03  0.50400001928E-02 0. -1.
    10030    2    1    2    0    0  0.00000000000E+00  0.00000000000E+00  0.14331516213E+04  0.22852063263E+04  0.17799562872E+04 0.  0.
        2    1    3    3  502    0  0.14475935799E+03  0.54383110157E+02 -0.40864723450E+03  0.43692717548E+03  0.25500000920E-02 0. -1.
       -2    1    3    3    0  502 -0.14475935799E+03 -0.54383110157E+02  0.18417988558E+04  0.18482791509E+04  0.25500000920E-02 0.  1.
</event>
<event>
 5   0  0.6774451E-04  0.1773378E+04  0.7818609E-02  0.8720586E-01
        2   -1    0    0  501    0  0.00000000000E+00  0.00000000000E+00  0.15389846785E+04  0.15389846785E+04  0.25500000920E-02 0.  1.
       -2   -1    0    0    0  501  0.00000000000E+00  0.00000000000E+00 -0.51086779340E+03  0.51086779340E+03  0.25500000920E-02 0. -1.
    10030    2    1    2    0    0  0.00000000000E+00  0.00000000000E+00  0.10281168851E+04  0.20498524719E+04  0.17733783655E+04 0.  0.
        4    1    3    3  502    0 -0.52198829247E+03 -0.17214514787E+03 -0.29019585524E+03  0.62154724414E+03  0.12699999809E+01 0. -1.
       -4    1    3    3    0  502  0.52198829247E+03  0.17214514787E+03  0.13183127403E+04  0.14283052277E+04  0.12699999809E+01 0.  1.
</event>
<event>
 5   0  0.3308275E-04  0.1502974E+04  0.7818609E-02  0.8882478E-01
       -1   -1    0    0    0  501  0.00000000000E+00  0.00000000000E+00  0.11272401550E+04  0.11272401550E+04  0.50400001928E-02 0.  1.
        1   -1    0    0  501    0  0.00000000000E+00  0.00000000000E+00 -0.50098677346E+03  0.50098677349E+03  0.50400001928E-02 0. -1.
    10030    2    1    2    0    0  0.00000000000E+00  0.00000000000E+00  0.62625338154E+03  0.16282269285E+04  0.15029735968E+04 0.  0.
        3    1    3    3  502    0  0.30351801397E+03 -0.30292431731E+03 -0.35543012649E+03  0.55697119481E+03  0.10100000352E+00 0. -1.
       -3    1    3    3    0  502 -0.30351801397E+03  0.30292431731E+03  0.98168350804E+03  0.10712557337E+04  0.10100000352E+00 0.  1.
</event>
<event>
 5   0  0.3404261E-04  0.1803610E+04  0.7818609E-02  0.8704382E-01
       -1   -1    0    0    0  501  0.00000000000E+00  0.00000000000E+00  0.64608471713E+03  0.64608471715E+03  0.50400001928E-02 0.  1.
        1   -1    0    0  501    0  0.00000000000E+00  0.00000000000E+00 -0.12587395285E+04  0.12587395285E+04  0.50400001928E-02 0. -1.
    10030    2    1    2    0    0  0.00000000000E+00  0.00000000000E+00 -0.61265481134E+03  0.19048242456E+04  0.18036101266E+04 0.  0.
        1    1    3    3  502    0 -0.55212614144E+03  0.70294984787E+03 -0.18016397898E+03  0.91183376995E+03  0.50400001928E-02 0.  1.
       -1    1    3    3    0  502  0.55212614144E+03 -0.70294984787E+03 -0.43249083236E+03  0.99299047567E+03  0.50400001928E-02 0. -1.
</event>
<event>
 5   0  0.6774451E-04  0.1850745E+04  0.7818609E-02  0.8679770E-01
        2   -1    0    0  501    0  0.00000000000E+00  0.00000000000E+00  0.72482940778E+03  0.72482940778E+03  0.25500000920E-02 0.  1.
       -2   -1    0    0    0  501  0.00000000000E+00  0.00000000000E+00 -0.11814008648E+04  0.11814008648E+04  0.25500000920E-02 0. -1.
    10030    2    1    2    0    0  0.00000000000E+00  0.00000000000E+00 -0.45657145705E+03  0.19062302726E+04  0.18507448114E+04 0.  0.
        4    1    3    3  502    0 -0.75309498259E+03 -0.64165946759E+02  0.32161479071E+03  0.82140550767E+03  0.12699999809E+01 0.  1.
       -4    1    3    3    0  502  0.75309498259E+03  0.64165946759E+02 -0.77818624777E+03  0.10848247649E+04  0.12699999809E+01 0. -1.
</event>
<event>
 5   0  0.6547153E-04  0.1851820E+04  0.7818609E-02  0.8679218E-01
        2   -1    0    0  501    0  0.00000000000E+00  0.00000000000E+00  0.10181266054E+04  0.10181266054E+04  0.25500000920E-02 0. -1.
       -2   -1    0    0    0  501  0.00000000000E+00  0.00000000000E+00 -0.84204571510E+03  0.84204571511E+03  0.25500000920E-02 0.  1.
    10030    2    1    2    0    0  0.00000000000E+00  0.00000000000E+00  0.17608089027E+03  0.18601723205E+04  0.18518198028E+04 0.  0.
        5    1    3    3  502    0 -0.65142350035E+02 -0.62974949875E+03 -0.59062445403E+03  0.86584484328E+03  0.46999998093E+01 0.  1.
       -5    1    3    3    0  502  0.65142350035E+02  0.62974949875E+03  0.76670534430E+03  0.99432747720E+03  0.46999998093E+01 0. -1.
</event>
<event>
 5   0  0.3377273E-04  0.1832591E+04  0.7818609E-02  0.8689157E-01
        1   -1    0    0  501    0  0.00000000000E+00  0.00000000000E+00  0.19066118197E+04  0.19066118197E+04  0.50400001928E-02 0.  1.
       -1   -1    0    0    0  501  0.00000000000E+00  0.00000000000E+00 -0.44036117578E+03  0.44036117581E+03  0.50400001928E-02 0. -1.
    10030    2    1    2    0    0  0.00000000000E+00  0.00000000000E+00  0.14662506439E+04  0.23469729955E+04  0.18325914141E+04 0.  0.
        2    1    3    3  502    0  0.35471567809E+03  0.12166853004E+03 -0.33758537524E+03  0.50456944920E+03  0.25500000920E-02 0. -1.
       -2    1    3    3    0  502 -0.35471567809E+03 -0.12166853004E+03  0.18038360191E+04  0.18424035463E+04  0.25500000920E-02 0.  1.
</event>
<event>
 5   0  0.3377273E-04  0.1778823E+04  0.7818609E-02  0.8717643E-01
        1   -1    0    0  501    0  0.00000000000E+00  0.00000000000E+00  0.90147832378E+03  0.90147832380E+03  0.50400001928E-02 0.  1.
       -1   -1    0    0    0  501  0.00000000000E+00  0.00000000000E+00 -0.87750586411E+03  0.87750586412E+03  0.50400001928E-02 0. -1.
    10030    2    1    2    0    0  0.00000000000E+00  0.00000000000E+00  0.23972459678E+02  0.17789841879E+04  0.17788226618E+04 0.  0.
        2    1    3    3  502    0 -0.87445940937E+03 -0.54970956389E+02 -0.14083946133E+03  0.88743271213E+03  0.25500000920E-02 0. -1.
       -2    1    3    3    0  502  0.87445940937E+03  0.54970956389E+02  0.16481192101E+03  0.89155147579E+03  0.25500000920E-02 0.  1.
</event>
<event>
 5   0  0.3404261E-04  0.1788363E+04  0.7818609E-02  0.8712512E-01
        1   -1    0    0  501    0  0.00000000000E+00  0.00000000000E+00  0.11329848615E+04  0.11329848616E+04  0.50400001928E-02 0.  1.
       -1   -1    0    0    0  501  0.00000000000E+00  0.00000000000E+00 -0.70571161640E+03  0.70571161641E+03  0.50400001928E-02 0. -1.
    10030    2    1    2    0    0  0.00000000000E+00  0.00000000000E+00  0.42727324515E+03  0.18386964780E+04  0.17883630258E+04 0.  0.
        1    1    3    3  502    0 -0.26894787838E+03  0.70968722631E+03 -0.27250492053E+03  0.80637947159E+03  0.50400001928E-02 0. -1.
       -1    1    3    3    0  502  0.26894787838E+03 -0.70968722631E+03  0.69977816567E+03  0.10323170064E+04  0.50400001928E-02 0.  1.
</event>
<event>
 5   0  0.3413839E-04  0.1806137E+04  0.7818609E-02  0.8703043E-01
        1   -1    0    0  501    0  0.00000000000E+00  0.00000000000E+00  0.80425463659E+03  0.80425463660E+03  0.50400001928E-02 0.  1.
       -1   -1    0    0    0  501  0.00000000000E+00  0.00000000000E+00 -0.10140232116E+04  0.10140232116E+04  0.50400001928E-02 0. -1.
    10030    2    1    2    0    0  0.00000000000E+00  0.00000000000E+00 -0.20976857498E+03  0.18182778482E+04  0.18061371704E+04 0.  0.
        5    1    3    3  502    0 -0.59475839162E+03 -0.33990004650E+02 -0.78813474276E+03  0.98796322177E+03  0.46999998093E+01 0. -1.
       -5    1    3    3    0  502  0.59475839162E+03  0.33990004650E+02  0.57836616778E+03  0.83031462642E+03  0.46999998093E+01 0.  1.
</event>
<event>
 5   0  0.3308275E-04  0.1259658E+04  0.7818609E-02  0.9062183E-01
        1   -1    0    0  501    0  0.00000000000E+00  0.00000000000E+00  0.13973428294E+04  0.13973428294E+04  0.50400001928E-02 0. -1.
       -1   -1    0    0    0  501  0.00000000000E+00  0.00000000000E+00 -0.28388504173E+03  0.28388504177E+03  0.50400001928E-02 0.  1.
    10030    2    1    2    0    0  0.00000000000E+00  0.00000000000E+00  0.11134577876E+04  0.16812278711E+04  0.12596582512E+04 0.  0.
        3    1    3    3  502    0  0.24371853444E+02  0.18099796975E+03 -0.24776870571E+03  0.30780447369E+03  0.10100000352E+00 0.  1.
       -3    1    3    3    0  502 -0.24371853444E+02 -0.18099796975E+03  0.13612264933E+04  0.13734233974E+04  0.10100000352E+00 0. -1.
</event>
<event>
 5   0  0.6771967E-04  0.1233903E+04  0.7818609E-02  0.9083688E-01
       -2   -1    0    0    0  501  0.00000000000E+00  0.00000000000E+00  0.31304993852E+03  0.31304993853E+03  0.25500000920E-02 0.  1.
        2   -1    0    0  501    0  0.00000000000E+00  0.00000000000E+00 -0.12158732334E+04  0.12158732334E+04  0.25500000920E-02 0. -1.
    10030    2    1    2    0    0  0.00000000000E+00  0.00000000000E+00 -0.90282329491E+03  0.15289231720E+04  0.12339028179E+04 0.  0.
        1    1    3    3  502    0 -0.40312233345E+03 -0.13817201899E+03 -0.10042063712E+04  0.10908847595E+04  0.50400001928E-02 0. -1.
       -1    1    3    3    0  502  0.40312233345E+03  0.13817201899E+03  0.10138307633E+03  0.43803841241E+03  0.50400001928E-02 0.  1.
</event>
<event>
 5   0  0.3413839E-04  0.1843408E+04  0.7818609E-02  0.8683550E-01
        1   -1    0    0  501    0  0.00000000000E+00  0.00000000000E+00  0.18374736693E+04  0.18374736693E+04  0.50400001928E-02 0. -1.
       -1   -1    0    0    0  501  0.00000000000E+00  0.00000000000E+00 -0.46234037205E+03  0.46234037208E+03  0.50400001928E-02 0.  1.
    10030    2    1    2    0    0  0.00000000000E+00  0.00000000000E+00  0.13751332972E+04  0.22998140414E+04  0.18434079960E+04 0.  0.
        5    1    3    3  502    0  0.15224569081E+03 -0.19781007345E+03  0.17944864785E+04  0.18117702358E+04  0.46999998093E+01 0. -1.
       -5    1    3    3    0  502 -0.15224569081E+03  0.19781007345E+03 -0.41935318130E+03  0.48804380561E+03  0.46999998093E+01 0.  1.
</event>
<event>
 5   0  0.3404261E-04  0.1815192E+04  0.7818609E-02  0.8698262E-01
       -1   -1    0    0    0  501  0.00000000000E+00  0.00000000000E+00  0.74501540481E+03  0.74501540483E+03  0.50400001928E-02 0.  1.
        1   -1    0    0  501    0  0.00000000000E+00  0.00000000000E+00 -0.11056556571E+04  0.11056556571E+04  0.50400001928E-02 0. -1.
    10030    2    1    2    0    0  0.00000000000E+00  0.00000000000E+00 -0.36064025226E+03  0.18506710619E+04  0.18151919975E+04 0.  0.
        1    1    3    3  502    0 -0.81056222469E+03 -0.12991563342E+03  0.21433926300E+03  0.84842825954E+03  0.50400001928E-02 0. -1.
       -1    1    3    3    0  502  0.81056222469E+03  0.12991563342E+03 -0.57497951526E+03  0.10022428024E+04  0.50400001928E-02 0.  1.
</event>
<event>
 5   0  0.3404261E-04  0.2512055E+04  0.7818609E-02  0.8398704E-01
       -1   -1    0    0    0  501  0.00000000000E+00  0.00000000000E+00  0.83560441492E+03  0.83560441493E+03  0.50400001928E-02 0.  1.
        1   -1    0    0  501    0  0.00000000000E+00  0.00000000000E+00 -0.18879802965E+04  0.18879802965E+04  0.50400001928E-02 0. -1.
    10030    2    1    2    0    0  0.00000000000E+00  0.00000000000E+00 -0.10523758816E+04  0.27235847115E+04  0.25120546738E+04 0.  0.
        1    1    3    3  502    0  0.11897453279E+04  0.36380093111E+03 -0.71322402668E+03  0.14340619146E+04  0.50400001928E-02 0.  1.
       -1    1    3    3    0  502 -0.11897453279E+04 -0.36380093111E+03 -0.33915185493E+03  0.12895227968E+04  0.50400001928E-02 0. -1.
</event>
<event>
 5   0  0.3470962E-04  0.1513392E+04  0.7818609E-02  0.8875596E-01
       -1   -1    0    0    0  501  0.00000000000E+00  0.00000000000E+00  0.45902063390E+03  0.45902063393E+03  0.50400001928E-02 0.  1.
        1   -1    0    0  501    0  0.00000000000E+00  0.00000000000E+00 -0.12474134285E+04  0.12474134285E+04  0.50400001928E-02 0. -1.
    10030    2    1    2    0    0  0.00000000000E+00  0.00000000000E+00 -0.78839279464E+03  0.17064340625E+04  0.15133915590E+04 0.  0.
        4    1    3    3  502    0  0.10784065350E+03 -0.28658990828E+02 -0.12380846201E+04  0.12431034083E+04  0.12699999809E+01 0. -1.
       -4    1    3    3    0  502 -0.10784065350E+03  0.28658990828E+02  0.44969182546E+03  0.46333065417E+03  0.12699999809E+01 0.  1.
</event>
<event>
 5   0  0.3308275E-04  0.1800565E+04  0.7818609E-02  0.8705999E-01
        1   -1    0    0  501    0  0.00000000000E+00  0.00000000000E+00  0.14222367215E+04  0.14222367215E+04  0.50400001928E-02 0.  1.
       -1   -1    0    0    0  501  0.00000000000E+00  0.00000000000E+00 -0.56988309122E+03  0.56988309124E+03  0.50400001928E-02 0. -1.
    10030    2    1    2    0    0  0.00000000000E+00  0.00000000000E+00  0.85235363026E+03  0.19921198127E+04  0.18005650883E+04 0.  0.
        3    1    3    3  502    0  0.34103234359E+03  0.30196831925E+03 -0.43298061130E+03  0.62845854690E+03  0.10100000352E+00 0. -1.
       -3    1    3    3    0  502 -0.34103234359E+03 -0.30196831925E+03  0.12853342416E+04  0.13636612658E+04  0.10100000352E+00 0.  1.
</event>
<event>
 5   0  0.6771967E-04  0.1899446E+04  0.7818609E-02  0.8655132E-01
       -2   -1    0    0    0  501  0.00000000000E+00  0.00000000000E+00  0.14132009455E+04  0.14132009455E+04  0.25500000920E-02 0. -1.
        2   -1    0    0  501    0  0.00000000000E+00  0.00000000000E+00 -0.63824849758E+03  0.63824849759E+03  0.25500000920E-02 0.  1.
    10030    2    1    2    0    0  0.00000000000E+00  0.00000000000E+00  0.77495244792E+03  0.20514494431E+04  0.18994455825E+04 0.  0.
        1    1    3    3  502    0  0.14012097004E+03  0.88721644900E+03  0.72068893915E+03  0.11515986543E+04  0.50400001928E-02 0. -1.
       -1    1    3    3    0  502 -0.14012097004E+03 -0.88721644900E+03  0.54263508771E+02  0.89985078876E+03  0.50400001928E-02 0.  1.
</event>
<event>
 5   0  0.6929121E-04  0.1676972E+04  0.7818609E-02  0.8774608E-01
       -2   -1    0    0    0  501  0.00000000000E+00  0.00000000000E+00  0.68823954597E+03  0.68823954597E+03  0.25500000920E-02 0. -1.
        2   -1    0    0  501    0  0.00000000000E+00  0.00000000000E+00 -0.10215325311E+04  0.10215325311E+04  0.25500000920E-02 0.  1.
    10030    2    1    2    0    0  0.00000000000E+00  0.00000000000E+00 -0.33329298510E+03  0.17097720770E+04  0.16769723735E+04 0.  0.
        3    1    3    3  502    0  0.72763900449E+03 -0.10540900449E+03 -0.57763053355E+03  0.93500086768E+03  0.10100000352E+00 0.  1.
       -3    1    3    3    0  502 -0.72763900449E+03  0.10540900449E+03  0.24433754845E+03  0.77477120936E+03  0.10100000352E+00 0. -1.
</event>
<event>
 5   0  0.3308275E-04  0.1842018E+04  0.7818609E-02  0.8684268E-01
       -1   -1    0    0    0  501  0.00000000000E+00  0.00000000000E+00  0.79472995125E+03  0.79472995127E+03  0.50400001928E-02 0.  1.
        1   -1    0    0  501    0  0.00000000000E+00  0.00000000000E+00 -0.10673537466E+04  0.10673537466E+04  0.50400001928E-02 0. -1.
    10030    2    1    2    0    0  0.00000000000E+00  0.00000000000E+00 -0.27262379536E+03  0.18620836979E+04  0.18420184484E+04 0.  0.
        3    1    3    3  502    0  0.69660006066E+03 -0.54582955642E+03 -0.39419155718E+03  0.96879747271E+03  0.10100000352E+00 0. -1.
       -3    1    3    3    0  502 -0.69660006066E+03  0.54582955642E+03  0.12156776182E+03  0.89328622518E+03  0.10100000352E+00 0.  1.
</event>
<event>
 5   0  0.2467375E-04  0.1759627E+04  0.7818609E-02  0.8728069E-01
       -4   -1    0    0    0  501  0.00000000000E+00  0.00000000000E+00  0.70232321806E+03  0.70232436632E+03  0.12699999809E+01 0. -1.
        4   -1    0    0  501    0  0.00000000000E+00  0.00000000000E+00 -0.11021567177E+04  0.11021574494E+04  0.12699999809E+01 0.  1.
    10030    2    1    2    0    0  0.00000000000E+00  0.00000000000E+00 -0.39983349965E+03  0.18044818157E+04  0.17596271752E+04 0.  0.
        2    1    3    3  502    0  0.55004449862E+03 -0.66926475242E+03 -0.42352170927E+02  0.86732806117E+03  0.25500000920E-02 0. -1.
       -2    1    3    3    0  502 -0.55004449862E+03  0.66926475242E+03 -0.35748132872E+03  0.93715375456E+03  0.25500000920E-02 0.  1.
</event>
<event>
 5   0  0.3470962E-04  0.1553402E+04  0.7818609E-02  0.8849698E-01
       -1   -1    0    0    0  501  0.00000000000E+00  0.00000000000E+00  0.30681444391E+03  0.30681444395E+03  0.50400001928E-02 0.  1.
        1   -1    0    0  501    0  0.00000000000E+00  0.00000000000E+00 -0.19662181636E+04  0.19662181636E+04  0.50400001928E-02 0. -1.
    10030    2    1    2    0    0  0.00000000000E+00  0.00000000000E+00 -0.16594037197E+04  0.22730326076E+04  0.15534015998E+04 0.  0.
        4    1    3    3  502    0 -0.52808455879E+03  0.17690097517E+03 -0.16218863182E+04  0.17148422955E+04  0.12699999809E+01 0. -1.
       -4    1    3    3    0  502  0.52808455879E+03 -0.17690097517E+03 -0.37517401536E+02  0.55819031214E+03  0.12699999809E+01 0.  1.
</event>
<event>
 5   0  0.3377273E-04  0.1831577E+04  0.7818609E-02  0.8689685E-01
       -1   -1    0    0    0  501  0.00000000000E+00  0.00000000000E+00  0.11313056073E+04  0.11313056073E+04  0.50400001928E-02 0. -1.
        1   -1    0    0  501    0  0.00000000000E+00  0.00000000000E+00 -0.74132813700E+03  0.74132813701E+03  0.50400001928E-02 0.  1.
    10030    2    1    2    0    0  0.00000000000E+00  0.00000000000E+00  0.38997747029E+03  0.18726337443E+04  0.18315771109E+04 0.  0.
        2    1    3    3  502    0  0.16161199295E+02  0.60418881789E+03 -0.50844786284E+03  0.78982563978E+03  0.25500000920E-02 0.  1.
       -2    1    3    3    0  502 -0.16161199295E+02 -0.60418881789E+03  0.89842533313E+03  0.10828081045E+04  0.25500000920E-02 0. -1.
</event>
<event>
 5   0  0.3404261E-04  0.1886248E+04  0.7818609E-02  0.8661732E-01
        1   -1    0    0  501    0  0.00000000000E+00  0.00000000000E+00  0.10395904287E+04  0.10395904288E+04  0.50400001928E-02 0.  1.
       -1   -1    0    0    0  501  0.00000000000E+00  0.00000000000E+00 -0.85560920492E+03  0.85560920493E+03  0.50400001928E-02 0. -1.
    10030    2    1    2    0    0  0.00000000000E+00  0.00000000000E+00  0.18398122382E+03  0.18951996337E+04  0.18862482766E+04 0.  0.
        1    1    3    3  502    0  0.13237416205E+03 -0.63271893453E+03  0.78200067500E+03  0.10145842620E+04  0.50400001928E-02 0.  1.
       -1    1    3    3    0  502 -0.13237416205E+03  0.63271893453E+03 -0.59801945118E+03  0.88061537172E+03  0.50400001928E-02 0. -1.
</event>
<event>
 5   0  0.3413839E-04  0.1775626E+04  0.7818609E-02  0.8719370E-01
        1   -1    0    0  501    0  0.00000000000E+00  0.00000000000E+00  0.67026739636E+03  0.67026739637E+03  0.50400001928E-02 0. -1.
       -1   -1    0    0    0  501  0.00000000000E+00  0.00000000000E+00 -0.11759666422E+04  0.11759666422E+04  0.50400001928E-02 0.  1.
    10030    2    1    2    0    0  0.00000000000E+00  0.00000000000E+00 -0.50569924587E+03  0.18462340386E+04  0.17756261989E+04 0.  0.
        5    1    3    3  502    0 -0.79483272010E+02  0.35768257361E+03 -0.10936689742E+04  0.11534246092E+04  0.46999998093E+01 0.  1.
       -5    1    3    3    0  502  0.79483272010E+02 -0.35768257361E+03  0.58796972835E+03  0.69280942939E+03  0.46999998093E+01 0. -1.
</event>
<event>
 5   0  0.6547153E-04  0.1807220E+04  0.7818609E-02  0.8702470E-01
       -2   -1    0    0    0  501  0.00000000000E+00  0.00000000000E+00  0.13292354480E+04  0.13292354480E+04  0.25500000920E-02 0.  1.
        2   -1    0    0  501    0  0.00000000000E+00  0.00000000000E+00 -0.61427094365E+03  0.61427094366E+03  0.25500000920E-02 0. -1.
    10030    2    1    2    0    0  0.00000000000E+00  0.00000000000E+00  0.71496450437E+03  0.19435063917E+04  0.18072196469E+04 0.  0.
        5    1    3    3  502    0  0.61375170465E+03 -0.27009335630E+03 -0.29387244245E+03  0.73213706265E+03  0.46999998093E+01 0. -1.
       -5    1    3    3    0  502 -0.61375170465E+03  0.27009335630E+03  0.10088369468E+04  0.12113693290E+04  0.46999998093E+01 0.  1.
</event>
<event>
 5   0  0.6774451E-04  0.1079647E+04  0.7818609E-02  0.9225260E-01
       -2   -1    0    0    0  501  0.00000000000E+00  0.00000000000E+00  0.58093732793E+03  0.58093732794E+03  0.25500000920E-02 0.  1.
        2   -1    0    0  501    0  0.00000000000E+00  0.00000000000E+00 -0.50161917568E+03  0.50161917569E+03  0.25500000920E-02 0. -1.
    10030    2    1    2    0    0  0.00000000000E+00  0.00000000000E+00  0.79318152249E+02  0.10825565036E+04  0.10796468007E+04 0.  0.
        4    1    3    3  502    0 -0.19639137254E+03 -0.41354376554E+03 -0.24715320406E+03  0.52026371813E+03  0.12699999809E+01 0. -1.
       -4    1    3    3    0  502  0.19639137254E+03  0.41354376554E+03  0.32647135631E+03  0.56229278549E+03  0.12699999809E+01 0.  1.
</event>
<event>
 5   0  0.3413839E-04  0.1807568E+04  0.7818609E-02  0.8702285E-01
       -1   -1    0    0    0  501  0.00000000000E+00  0.00000000000E+00  0.38677993192E+03  0.38677993196E+03  0.50400001928E-02 0.  1.
        1   -1    0    0  501    0  0.00000000000E+00  0.00000000000E+00 -0.21118615393E+04  0.21118615393E+04  0.50400001928E-02 0. -1.
    10030    2    1    2    0    0  0.00000000000E+00  0.00000000000E+00 -0.17250816074E+04  0.24986414712E+04  0.18075681591E+04 0.  0.
        5    1    3    3  502    0 -0.25170233474E+03  0.64493693524E+03 -0.16656043608E+04  0.18037620942E+04  0.46999998093E+01 0. -1.
       -5    1    3    3    0  502  0.25170233474E+03 -0.64493693524E+03 -0.59477246521E+02  0.69487937701E+03  0.46999998093E+01 0.  1.
</event>
<event>
 5   0  0.2467375E-04  0.1260635E+04  0.7818609E-02  0.9061378E-01
       -3   -1    0    0    0  501  0.00000000000E+00  0.00000000000E+00  0.12789082349E+04  0.12789082388E+04  0.10100000352E+00 0.  1.
        3   -1    0    0  501    0  0.00000000000E+00  0.00000000000E+00 -0.31065567587E+03  0.31065569229E+03  0.10100000352E+00 0. -1.
    10030    2    1    2    0    0  0.00000000000E+00  0.00000000000E+00  0.96825255898E+03  0.15895639311E+04  0.12606349484E+04 0.  0.
        2    1    3    3  502    0  0.52823978178E+03 -0.89156552591E+02  0.90292360058E+03  0.10498843681E+04  0.25500000920E-02 0.  1.
       -2    1    3    3    0  502 -0.52823978178E+03  0.89156552591E+02  0.65328958408E+02  0.53967956301E+03  0.25500000920E-02 0. -1.
</event>
<event>
 5   0  0.6771967E-04  0.1778169E+04  0.7818609E-02  0.8717996E-01
        2   -1    0    0  501    0  0.00000000000E+00  0.00000000000E+00  0.83352260781E+03  0.83352260781E+03  0.25500000920E-02 0. -1.
       -2   -1    0    0    0  501  0.00000000000E+00  0.00000000000E+00 -0.94834956934E+03  0.94834956935E+03  0.25500000920E-02 0.  1.
    10030    2    1    2    0    0  0.00000000000E+00  0.00000000000E+00 -0.11482696154E+03  0.17818721772E+04  0.17781685029E+04 0.  0.
        1    1    3    3  502    0 -0.12017374715E+03 -0.33798470686E+03  0.75778903315E+03  0.83840301190E+03  0.50400001928E-02 0. -1.
       -1    1    3    3    0  502  0.12017374715E+03  0.33798470686E+03 -0.87261599469E+03  0.94346916526E+03  0.50400001928E-02 0.  1.
</event>
<event>
 5   0  0.6774451E-04  0.1796713E+04  0.7818609E-02  0.8708050E-01
       -2   -1    0    0    0  501  0.00000000000E+00  0.00000000000E+00  0.54973674586E+03  0.54973674587E+03  0.25500000920E-02 0.  1.
        2   -1    0    0  501    0  0.00000000000E+00  0.00000000000E+00 -0.14680556644E+04  0.14680556644E+04  0.25500000920E-02 0. -1.
    10030    2    1    2    0    0  0.00000000000E+00  0.00000000000E+00 -0.91831891858E+03  0.20177924103E+04  0.17967127135E+04 0.  0.
        4    1    3    3  502    0 -0.89624826837E+03 -0.72358761865E+01 -0.52774088622E+03  0.10401083464E+04  0.12699999809E+01 0. -1.
       -4    1    3    3    0  502  0.89624826837E+03  0.72358761865E+01 -0.39057803236E+03  0.97768406386E+03  0.12699999809E+01 0.  1.
</event>
<event>
 5   0  0.6774451E-04  0.1834168E+04  0.7818609E-02  0.8688338E-01
        2   -1    0    0  501    0  0.00000000000E+00  0.00000000000E+00  0.10830235215E+04  0.10830235215E+04  0.25500000920E-02 0.  1.
       -2   -1    0    0    0  501  0.00000000000E+00  0.00000000000E+00 -0.77656911784E+03  0.77656911785E+03  0.25500000920E-02 0. -1.
    10030    2    1    2    0    0  0.00000000000E+00  0.00000000000E+00  0.30645440366E+03  0.18595926394E+04  0.18341675177E+04 0.  0.
        4    1    3    3  502    0  0.52925235758E+02 -0.32265259817E+03 -0.71546685995E+03  0.78663855758E+03  0.12699999809E+01 0. -1.
       -4    1    3    3    0  502 -0.52925235758E+02  0.32265259817E+03  0.10219212636E+04  0.10729540818E+04  0.12699999809E+01 0.  1.
</event>
<event>
 5   0  0.3470962E-04  0.1814321E+04  0.7818609E-02  0.8698721E-01
        1   -1    0    0  501    0  0.00000000000E+00  0.00000000000E+00  0.11002241448E+04  0.11002241448E+04  0.50400001928E-02 0. -1.
       -1   -1    0    0    0  501  0.00000000000E+00  0.00000000000E+00 -0.74797469633E+03  0.74797469635E+03  0.50400001928E-02 0.  1.
    10030    2    1    2    0    0  0.00000000000E+00  0.00000000000E+00  0.35224944850E+03  0.18481988412E+04  0.18143206119E+04 0.  0.
        4    1    3    3  502    0 -0.41538626005E+03 -0.43535758397E+03  0.86766486461E+03  0.10559005167E+04  0.12699999809E+01 0. -1.
       -4    1    3    3    0  502  0.41538626005E+03  0.43535758397E+03 -0.51541541612E+03  0.79229832451E+03  0.12699999809E+01 0.  1.
</event>
<event>
 5   0  0.3308275E-04  0.1762557E+04  0.7818609E-02  0.8726469E-01
        1   -1    0    0  501    0  0.00000000000E+00  0.00000000000E+00  0.96778314358E+03  0.96778314359E+03  0.50400001928E-02 0. -1.
       -1   -1    0    0    0  501  0.00000000000E+00  0.00000000000E+00 -0.80250572264E+03  0.80250572266E+03  0.50400001928E-02 0.  1.
    10030    2    1    2    0    0  0.00000000000E+00  0.00000000000E+00  0.16527742094E+03  0.17702888663E+04  0.17625566783E+04 0.  0.
        3    1    3    3  502    0 -0.37338541857E+03  0.77189291636E+03  0.28704108605E+03  0.90422781444E+03  0.10100000352E+00 0.  1.
       -3    1    3    3    0  502  0.37338541857E+03 -0.77189291636E+03 -0.12176366511E+03  0.86606105181E+03  0.10100000352E+00 0. -1.
</event>
<event>
 5   0  0.3308275E-04  0.1812027E+04  0.7818609E-02  0.8699930E-01
        1   -1    0    0  501    0  0.00000000000E+00  0.00000000000E+00  0.11597794107E+04  0.11597794107E+04  0.50400001928E-02 0.  1.
       -1   -1    0    0    0  501  0.00000000000E+00  0.00000000000E+00 -0.70777309903E+03  0.70777309905E+03  0.50400001928E-02 0. -1.
    10030    2    1    2    0    0  0.00000000000E+00  0.00000000000E+00  0.45200631162E+03  0.18675525097E+04  0.18120272268E+04 0.  0.
        3    1    3    3  502    0 -0.49370044915E+03 -0.51523489580E+03  0.80136906388E+03  0.10730328597E+04  0.10100000352E+00 0.  1.
       -3    1    3    3    0  502  0.49370044915E+03  0.51523489580E+03 -0.34936275226E+03  0.79451964998E+03  0.10100000352E+00 0. -1.
</event>
<event>
 5   0  0.6774451E-04  0.1837803E+04  0.7818609E-02  0.8686451E-01
       -2   -1    0    0    0  501  0.00000000000E+00  0.00000000000E+00  0.12047854532E+04  0.12047854532E+04  0.25500000920E-02 0.  1.
        2   -1    0    0  501    0  0.00000000000E+00  0.00000000000E+00 -0.70085476185E+03  0.70085476185E+03  0.25500000920E-02 0. -1.
    10030    2    1    2    0    0  0.00000000000E+00  0.00000000000E+00  0.50393069136E+03  0.19056402151E+04  0.18378026248E+04 0.  0.
        4    1    3    3  502    0 -0.26750814817E+03 -0.84185105214E+03 -0.10568501829E+02  0.88339521702E+03  0.12699999809E+01 0. -1.
       -4    1    3    3    0  502  0.26750814817E+03  0.84185105214E+03  0.51449919319E+03  0.10222449980E+04  0.12699999809E+01 0.  1.
</event>
<event>
 5   0  0.3470962E-04  0.1797144E+04  0.7818609E-02  0.8707820E-01
        1   -1    0    0  501    0  0.00000000000E+00  0.00000000000E+00  0.13198690763E+04  0.13198690763E+04  0.50400001928E-02 0. -1.
       -1   -1    0    0    0  501  0.00000000000E+00  0.00000000000E+00 -0.61175137900E+03  0.61175137902E+03  0.50400001928E-02 0.  1.
    10030    2    1    2    0    0  0.00000000000E+00  0.00000000000E+00  0.70811769727E+03  0.19316204553E+04  0.17971440983E+04 0.  0.
        4    1    3    3  502    0  0.56867466513E+03 -0.19332362972E+03  0.10723986999E+04  0.12291482763E+04  0.12699999809E+01 0. -1.
       -4    1    3    3    0  502 -0.56867466513E+03  0.19332362972E+03 -0.36428100263E+03  0.70247217905E+03  0.12699999809E+01 0.  1.
</event>
<event>
 5   0  0.6771967E-04  0.1716743E+04  0.7818609E-02  0.8751872E-01
       -2   -1    0    0    0  501  0.00000000000E+00  0.00000000000E+00  0.85793648572E+03  0.85793648572E+03  0.25500000920E-02 0. -1.
        2   -1    0    0  501    0  0.00000000000E+00  0.00000000000E+00 -0.85880670004E+03  0.85880670004E+03  0.25500000920E-02 0.  1.
    10030    2    1    2    0    0  0.00000000000E+00  0.00000000000E+00 -0.87021431916E+00  0.17167431858E+04  0.17167429652E+04 0.  0.
        1    1    3    3  502    0 -0.84280475499E+03 -0.15275264892E+03 -0.56545499556E+02  0.85840003515E+03  0.50400001928E-02 0.  1.
       -1    1    3    3    0  502  0.84280475499E+03  0.15275264892E+03  0.55675285237E+02  0.85834315061E+03  0.50400001928E-02 0. -1.
</event>
<event>
 5   0  0.3413839E-04  0.1789233E+04  0.7818609E-02  0.8712046E-01
       -1   -1    0    0    0  501  0.00000000000E+00  0.00000000000E+00  0.11417675334E+04  0.11417675334E+04  0.50400001928E-02 0. -1.
        1   -1    0    0  501    0  0.00000000000E+00  0.00000000000E+00 -0.70096449379E+03  0.70096449380E+03  0.50400001928E-02 0.  1.
    10030    2    1    2    0    0  0.00000000000E+00  0.00000000000E+00  0.44080303965E+03  0.18427320272E+04  0.17892327977E+04 0.  0.
        5    1    3    3  502    0 -0.58395642108E+03 -0.67723013520E+03  0.19373020697E+03  0.91498592384E+03  0.46999998093E+01 0.  1.
       -5    1    3    3    0  502  0.58395642108E+03  0.67723013520E+03  0.24707283268E+03  0.92774610341E+03  0.46999998093E+01 0. -1.
</event>
<event>
 5   0  0.6929121E-04  0.1633307E+04  0.7818609E-02  0.8800344E-01
        2   -1    0    0  501    0  0.00000000000E+00  0.00000000000E+00  0.21255994337E+04  0.21255994337E+04  0.25500000920E-02 0. -1.
       -2   -1    0    0    0  501  0.00000000000E+00  0.00000000000E+00 -0.31375743777E+03  0.31375743778E+03  0.25500000920E-02 0.  1.
    10030    2    1    2    0    0  0.00000000000E+00  0.00000000000E+00  0.18118419960E+04  0.24393568715E+04  0.16333066241E+04 0.  0.
        3    1    3    3  502    0  0.12761516710E+03  0.54370774152E+03  0.17958048871E+04  0.18806432256E+04  0.10100000352E+00 0. -1.
       -3    1    3    3    0  502 -0.12761516710E+03 -0.54370774152E+03  0.16037108806E+02  0.55871364590E+03  0.10100000352E+00 0.  1.
</event>
<event>
 5   0  0.6771967E-04  0.1807658E+04  0.7818609E-02  0.8702237E-01
        2   -1    0    0  501    0  0.00000000000E+00  0.00000000000E+00  0.14716800277E+04  0.14716800277E+04  0.25500000920E-02 0.  1.
       -2   -1    0    0    0  501  0.00000000000E+00  0.00000000000E+00 -0.55508482260E+03  0.55508482260E+03  0.25500000920E-02 0. -1.
    10030    2    1    2    0    0  0.00000000000E+00  0.00000000000E+00  0.91659520507E+03  0.20267648503E+04  0.18076584269E+04 0.  0.
        1    1    3    3  502    0  0.59621593606E+03  0.62259860630E+03  0.76289713960E+03  0.11511361833E+04  0.50400001928E-02 0.  1.
       -1    1    3    3    0  502 -0.59621593606E+03 -0.62259860630E+03  0.15369806546E+03  0.87562866692E+03  0.50400001928E-02 0. -1.
</event>
<event>
 5   0  0.3413839E-04  0.1168099E+04  0.7818609E-02  0.9141247E-01
       -1   -1    0    0    0  501  0.00000000000E+00  0.00000000000E+00  0.45505578527E+03  0.45505578530E+03  0.50400001928E-02 0.  1.
        1   -1    0    0  501    0  0.00000000000E+00  0.00000000000E+00 -0.74960832214E+03  0.74960832215E+03  0.50400001928E-02 0. -1.
    10030    2    1    2    0    0  0.00000000000E+00  0.00000000000E+00 -0.29455253686E+03  0.12046641075E+04  0.11680986323E+04 0.  0.
        5    1    3    3  502    0 -0.79466691322E+02  0.11191105346E+03  0.43816668907E+03  0.45918533984E+03  0.46999998093E+01 0.  1.
       -5    1    3    3    0  502  0.79466691322E+02 -0.11191105346E+03 -0.73271922593E+03  0.74547876761E+03  0.46999998093E+01 0. -1.
</event>
<event>
 5   0  0.3377273E-04  0.1772043E+04  0.7818609E-02  0.8721310E-01
       -1   -1    0    0    0  501  0.00000000000E+00  0.00000000000E+00  0.78039063768E+03  0.78039063770E+03  0.50400001928E-02 0. -1.
        1   -1    0    0  501    0  0.00000000000E+00  0.00000000000E+00 -0.10059496427E+04  0.10059496427E+04  0.50400001928E-02 0.  1.
    10030    2    1    2    0    0  0.00000000000E+00  0.00000000000E+00 -0.22555900505E+03  0.17863402804E+04  0.17720425313E+04 0.  0.
        2    1    3    3  502    0 -0.43723847140E+03 -0.20924761716E+03  0.63487280174E+03  0.79876499708E+03  0.25500000920E-02 0. -1.
       -2    1    3    3    0  502  0.43723847140E+03  0.20924761716E+03 -0.86043180679E+03  0.98757528336E+03  0.25500000920E-02 0.  1.
</event>
<event>
 5   0  0.6853162E-04  0.1781865E+04  0.7818609E-02  0.8716003E-01
       -2   -1    0    0    0  501  0.00000000000E+00  0.00000000000E+00  0.57556032733E+03  0.57556032734E+03  0.25500000920E-02 0.  1.
        2   -1    0    0  501    0  0.00000000000E+00  0.00000000000E+00 -0.13791093318E+04  0.13791093318E+04  0.25500000920E-02 0. -1.
    10030    2    1    2    0    0  0.00000000000E+00  0.00000000000E+00 -0.80354900443E+03  0.19546696591E+04  0.17818648865E+04 0.  0.
        2    1    3    3  502    0 -0.57937150870E+03 -0.83128296800E+02  0.33506520499E+03  0.67442594139E+03  0.25500000920E-02 0.  1.
       -2    1    3    3    0  502  0.57937150870E+03  0.83128296800E+02 -0.11386142094E+04  0.12802437177E+04  0.25500000920E-02 0. -1.
</event>
<event>
 5   0  0.6853162E-04  0.1459084E+04  0.7818609E-02  0.8912127E-01
        2   -1    0    0  501    0  0.00000000000E+00  0.00000000000E+00  0.11753124777E+04  0.11753124777E+04  0.25500000920E-02 0. -1.
       -2   -1    0    0    0  501  0.00000000000E+00  0.00000000000E+00 -0.45284288428E+03  0.45284288429E+03  0.25500000920E-02 0.  1.
    10030    2    1    2    0    0  0.00000000000E+00  0.00000000000E+00  0.72246959344E+03  0.16281553620E+04  0.14590844970E+04 0.  0.
        2    1    3    3  502    0 -0.58236216044E+03  0.29725824088E+03  0.12607131226E+00  0.65384108435E+03  0.25500000920E-02 0.  1.
       -2    1    3    3    0  502  0.58236216044E+03 -0.29725824088E+03  0.72234352212E+03  0.97431427766E+03  0.25500000920E-02 0. -1.
</event>
<event>
 5   0  0.3308275E-04  0.1871935E+04  0.7818609E-02  0.8668954E-01
        1   -1    0    0  501    0  0.00000000000E+00  0.00000000000E+00  0.11320497436E+04  0.11320497436E+04  0.50400001928E-02 0.  1.
       -1   -1    0    0    0  501  0.00000000000E+00  0.00000000000E+00 -0.77384869997E+03  0.77384869998E+03  0.50400001928E-02 0. -1.
    10030    2    1    2    0    0  0.00000000000E+00  0.00000000000E+00  0.35820104362E+03  0.19058984436E+04  0.18719350655E+04 0.  0.
        3    1    3    3  502    0 -0.49507353030E+03 -0.34479099037E+02 -0.62886454176E+03  0.80109751639E+03  0.10100000352E+00 0. -1.
       -3    1    3    3    0  502  0.49507353030E+03  0.34479099037E+02  0.98706558538E+03  0.11048009272E+04  0.10100000352E+00 0.  1.
</event>
<event>
 5   0  0.3377273E-04  0.1123304E+04  0.7818609E-02  0.9182771E-01
       -1   -1    0    0    0  501  0.00000000000E+00  0.00000000000E+00  0.29324252750E+03  0.29324252754E+03  0.50400001928E-02 0. -1.
        1   -1    0    0  501    0  0.00000000000E+00  0.00000000000E+00 -0.10757417867E+04  0.10757417867E+04  0.50400001928E-02 0.  1.
    10030    2    1    2    0    0  0.00000000000E+00  0.00000000000E+00 -0.78249925922E+03  0.13689843143E+04  0.11233044832E+04 0.  0.
        2    1    3    3  502    0  0.80643073338E+02  0.45065478727E+03 -0.78777166856E+03  0.91114062820E+03  0.25500000920E-02 0.  1.
       -2    1    3    3    0  502 -0.80643073338E+02 -0.45065478727E+03  0.52724093396E+01  0.45784368607E+03  0.25500000920E-02 0. -1.
</event>
<event>
 5   0  0.6771967E-04  0.1800482E+04  0.7818609E-02  0.8706043E-01
       -2   -1    0    0    0  501  0.00000000000E+00  0.00000000000E+00  0.66301837329E+03  0.66301837330E+03  0.25500000920E-02 0. -1.
        2   -1    0    0  501    0  0.00000000000E+00  0.00000000000E+00 -0.12223401277E+04  0.12223401277E+04  0.25500000920E-02 0.  1.
    10030    2    1    2    0    0  0.00000000000E+00  0.00000000000E+00 -0.55932175437E+03  0.18853585010E+04  0.18004821166E+04 0.  0.
        1    1    3    3  502    0  0.36958756943E+02 -0.39602267529E+03  0.56602069361E+03  0.69179428639E+03  0.50400001928E-02 0. -1.
       -1    1    3    3    0  502 -0.36958756943E+02  0.39602267529E+03 -0.11253424480E+04  0.11935642146E+04  0.50400001928E-02 0.  1.
</event>
<event>
 5   0  0.3470962E-04  0.1656556E+04  0.7818609E-02  0.8786537E-01
        1   -1    0    0  501    0  0.00000000000E+00  0.00000000000E+00  0.87085424632E+03  0.87085424633E+03  0.50400001928E-02 0.  1.
       -1   -1    0    0    0  501  0.00000000000E+00  0.00000000000E+00 -0.78778378222E+03  0.78778378224E+03  0.50400001928E-02 0. -1.
    10030    2    1    2    0    0  0.00000000000E+00  0.00000000000E+00  0.83070464097E+02  0.16586380286E+04  0.16565564910E+04 0.  0.
        4    1    3    3  502    0  0.32357772072E+03  0.72535593842E+03  0.27677610572E+03  0.84110071000E+03  0.12699999809E+01 0.  1.
       -4    1    3    3    0  502 -0.32357772072E+03 -0.72535593842E+03 -0.19370564163E+03  0.81753731857E+03  0.12699999809E+01 0. -1.
</event>
<event>
 5   0  0.6771967E-04  0.1119353E+04  0.7818609E-02  0.9186532E-01
       -2   -1    0    0    0  501  0.00000000000E+00  0.00000000000E+00  0.18223537773E+03  0.18223537775E+03  0.25500000920E-02 0. -1.
        2   -1    0    0  501    0  0.00000000000E+00  0.00000000000E+00 -0.17188626974E+04  0.17188626974E+04  0.25500000920E-02 0.  1.
    10030    2    1    2    0    0  0.00000000000E+00  0.00000000000E+00 -0.15366273196E+04  0.19010980751E+04  0.11193526574E+04 0.  0.
        1    1    3    3  502    0  0.17354582369E+03  0.18060003015E+03 -0.16183629577E+04  0.16376303572E+04  0.50400001928E-02 0.  1.
       -1    1    3    3    0  502 -0.17354582369E+03 -0.18060003015E+03  0.81735638121E+02  0.26346771790E+03  0.50400001928E-02 0. -1.
</event>
<event>
 5   0  0.3404261E-04  0.1792433E+04  0.7818609E-02  0.8710334E-01
        1   -1    0    0  501    0  0.00000000000E+00  0.00000000000E+00  0.11611262717E+04  0.11611262717E+04  0.50400001928E-02 0. -1.
       -1   -1    0    0    0  501  0.00000000000E+00  0.00000000000E+00 -0.69174579751E+03  0.69174579753E+03  0.50400001928E-02 0.  1.
    10030    2    1    2    0    0  0.00000000000E+00  0.00000000000E+00  0.46938047415E+03  0.18528720692E+04  0.17924332276E+04 0.  0.
        1    1    3    3  502    0 -0.25749004453E+03 -0.85038156289E+03  0.11345703154E+03  0.89572452438E+03  0.50400001928E-02 0. -1.
       -1    1    3    3    0  502  0.25749004453E+03  0.85038156289E+03  0.35592344262E+03  0.95714754483E+03  0.50400001928E-02 0.  1.
</event>
<event>
 5   0  0.6774451E-04  0.1762962E+04  0.7818609E-02  0.8726248E-01
        2   -1    0    0  501    0  0.00000000000E+00  0.00000000000E+00  0.10335186256E+04  0.10335186256E+04  0.25500000920E-02 0. -1.
       -2   -1    0    0    0  501  0.00000000000E+00  0.00000000000E+00 -0.75180872828E+03  0.75180872828E+03  0.25500000920E-02 0.  1.
    10030    2    1    2    0    0  0.00000000000E+00  0.00000000000E+00  0.28170989729E+03  0.17853273539E+04  0.17629615124E+04 0.  0.
        4    1    3    3  502    0 -0.39278783491E+03  0.18854398517E+03  0.91685013167E+03  0.10151093017E+04  0.12699999809E+01 0. -1.
       -4    1    3    3    0  502  0.39278783491E+03 -0.18854398517E+03 -0.63514023438E+03  0.77021805213E+03  0.12699999809E+01 0.  1.
</event>
<event>
 5   0  0.2467375E-04  0.1805043E+04  0.7818609E-02  0.8703622E-01
        3   -1    0    0  501    0  0.00000000000E+00  0.00000000000E+00  0.90583022006E+03  0.90583022569E+03  0.10100000352E+00 0.  1.
       -3   -1    0    0    0  501  0.00000000000E+00  0.00000000000E+00 -0.89922460061E+03  0.89922460629E+03  0.10100000352E+00 0. -1.
    10030    2    1    2    0    0  0.00000000000E+00  0.00000000000E+00  0.66056194461E+01  0.18050548320E+04  0.18050427453E+04 0.  0.
        2    1    3    3  502    0 -0.44402350556E+03  0.63761350131E+03  0.46247576307E+03  0.90420776483E+03  0.25500000920E-02 0. -1.
       -2    1    3    3    0  502  0.44402350556E+03 -0.63761350131E+03 -0.45587014362E+03  0.90084706715E+03  0.25500000920E-02 0.  1.
</event>
<event>
 5   0  0.6929121E-04  0.1915578E+04  0.7818609E-02  0.8647141E-01
       -2   -1    0    0    0  501  0.00000000000E+00  0.00000000000E+00  0.20714006826E+04  0.20714006826E+04  0.25500000920E-02 0. -1.
        2   -1    0    0  501    0  0.00000000000E+00  0.00000000000E+00 -0.44286937317E+03  0.44286937317E+03  0.25500000920E-02 0.  1.
    10030    2    1    2    0    0  0.00000000000E+00  0.00000000000E+00  0.16285313094E+04  0.25142700558E+04  0.19155781601E+04 0.  0.
        3    1    3    3  502    0 -0.45454797381E+03  0.71953342010E+03  0.23761787538E+03  0.88363140960E+03  0.10100000352E+00 0.  1.
       -3    1    3    3    0  502  0.45454797381E+03 -0.71953342010E+03  0.13909134341E+04  0.16306386462E+04  0.10100000352E+00 0. -1.
</event>
<event>
 5   0  0.6853162E-04  0.1241753E+04  0.7818609E-02  0.9077075E-01
        2   -1    0    0  501    0  0.00000000000E+00  0.00000000000E+00  0.64796422721E+03  0.64796422722E+03  0.25500000920E-02 0.  1.
       -2   -1    0    0    0  501  0.00000000000E+00  0.00000000000E+00 -0.59492113166E+03  0.59492113167E+03  0.25500000920E-02 0. -1.
    10030    2    1    2    0    0  0.00000000000E+00  0.00000000000E+00  0.53043095553E+02  0.12428853589E+04  0.12417529728E+04 0.  0.
        2    1    3    3  502    0  0.29804606761E+03  0.42745291647E+03  0.36437959744E+03  0.63586157712E+03  0.25500000920E-02 0.  1.
       -2    1    3    3    0  502 -0.29804606761E+03 -0.42745291647E+03 -0.31133650188E+03  0.60702378177E+03  0.25500000920E-02 0. -1.
</event>
<event>
 5   0  0.6771967E-04  0.1815424E+04  0.7818609E-02  0.8698140E-01
        2   -1    0    0  501    0  0.00000000000E+00  0.00000000000E+00  0.12253360706E+04  0.12253360706E+04  0.25500000920E-02 0.  1.
       -2   -1    0    0    0  501  0.00000000000E+00  0.00000000000E+00 -0.67242068958E+03  0.67242068958E+03  0.25500000920E-02 0. -1.
    10030    2    1    2    0    0  0.00000000000E+00  0.00000000000E+00  0.55291538103E+03  0.18977567602E+04  0.18154242761E+04 0.  0.
        1    1    3    3  502    0 -0.62733837545E+03 -0.47985624760E+03  0.74410024575E+03  0.10851270117E+04  0.50400001928E-02 0.  1.
       -1    1    3    3    0  502  0.62733837545E+03  0.47985624760E+03 -0.19118486473E+03  0.81262974853E+03  0.50400001928E-02 0. -1.
</event>
<event>
 5   0  0.3377273E-04  0.1717824E+04  0.7818609E-02  0.8751264E-01
        1   -1    0    0  501    0  0.00000000000E+00  0.00000000000E+00  0.72542183139E+03  0.72542183141E+03  0.50400001928E-02 0. -1.
       -1   -1    0    0    0  501  0.00000000000E+00  0.00000000000E+00 -0.10169664956E+04  0.10169664956E+04  0.50400001928E-02 0.  1.
    10030    2    1    2    0    0  0.00000000000E+00  0.00000000000E+00 -0.29154466417E+03  0.17423883270E+04  0.17178238532E+04 0.  0.
        2    1    3    3  502    0 -0.30517357943E+03  0.46580886912E+02  0.66720585697E+03  0.73516280387E+03  0.25500000920E-02 0. -1.
       -2    1    3    3    0  502  0.30517357943E+03 -0.46580886912E+02 -0.95875052114E+03  0.10072255231E+04  0.25500000920E-02 0.  1.
</event>
<event>
 5   0  0.6853162E-04  0.1845625E+04  0.7818609E-02  0.8682406E-01
        2   -1    0    0  501    0  0.00000000000E+00  0.00000000000E+00  0.14848101444E+04  0.14848101444E+04  0.25500000920E-02 0. -1.
       -2   -1    0    0    0  501  0.00000000000E+00  0.00000000000E+00 -0.57352990377E+03  0.57352990378E+03  0.25500000920E-02 0.  1.
    10030    2    1    2    0    0  0.00000000000E+00  0.00000000000E+00  0.91128024059E+03  0.20583400481E+04  0.18456251182E+04 0.  0.
        2    1    3    3  502    0  0.36446753469E+03 -0.79489168296E+03  0.78439154709E+03  0.11747167619E+04  0.25500000920E-02 0. -1.
       -2    1    3    3    0  502 -0.36446753469E+03  0.79489168296E+03  0.12688869350E+03  0.88362328626E+03  0.25500000920E-02 0.  1.
</event>
<event>
 5   0  0.3308275E-04  0.1781372E+04  0.7818609E-02  0.8716269E-01
        1   -1    0    0  501    0  0.00000000000E+00  0.00000000000E+00  0.11096414066E+04  0.11096414066E+04  0.50400001928E-02 0. -1.
       -1   -1    0    0    0  501  0.00000000000E+00  0.00000000000E+00 -0.71493531162E+03  0.71493531164E+03  0.50400001928E-02 0.  1.
    10030    2    1    2    0    0  0.00000000000E+00  0.00000000000E+00  0.39470609499E+03  0.18245767183E+04  0.17813723079E+04 0.  0.
        3    1    3    3  502    0 -0.31009134320E+03 -0.42498048147E+03  0.93350328832E+03  0.10715378903E+04  0.10100000352E+00 0. -1.
       -3    1    3    3    0  502  0.31009134320E+03  0.42498048147E+03 -0.53879719333E+03  0.75303882801E+03  0.10100000352E+00 0.  1.
</event>
<event>
 5   0  0.3470962E-04  0.1784792E+04  0.7818609E-02  0.8714429E-01
       -1   -1    0    0    0  501  0.00000000000E+00  0.00000000000E+00  0.11835460323E+04  0.11835460323E+04  0.50400001928E-02 0.  1.
        1   -1    0    0  501    0  0.00000000000E+00  0.00000000000E+00 -0.67286806689E+03  0.67286806691E+03  0.50400001928E-02 0. -1.
    10030    2    1    2    0    0  0.00000000000E+00  0.00000000000E+00  0.51067796536E+03  0.18564140992E+04  0.17847916750E+04 0.  0.
        4    1    3    3  502    0  0.37245542007E+02 -0.79399647220E+03  0.67726636176E+03  0.10442743729E+04  0.12699999809E+01 0.  1.
       -4    1    3    3    0  502 -0.37245542007E+02  0.79399647220E+03 -0.16658839639E+03  0.81213972626E+03  0.12699999809E+01 0. -1.
</event>
<event>
 5   0  0.3377273E-04  0.1789130E+04  0.7818609E-02  0.8712101E-01
       -1   -1    0    0    0  501  0.00000000000E+00  0.00000000000E+00  0.66078581392E+03  0.66078581394E+03  0.50400001928E-02 0. -1.
        1   -1    0    0  501    0  0.00000000000E+00  0.00000000000E+00 -0.12110532040E+04  0.12110532040E+04  0.50400001928E-02 0.  1.
    10030    2    1    2    0    0  0.00000000000E+00  0.00000000000E+00 -0.55026739004E+03  0.18718390179E+04  0.17891302659E+04 0.  0.
        2    1    3    3  502    0 -0.38353789060E+03 -0.36247130516E+01 -0.11206599983E+04  0.11844801745E+04  0.25500000920E-02 0.  1.
       -2    1    3    3    0  502  0.38353789060E+03  0.36247130516E+01  0.57039260823E+03  0.68735884340E+03  0.25500000920E-02 0. -1.
</event>
<event>
 5   0  0.3413839E-04  0.1743605E+04  0.7818609E-02  0.8736878E-01
       -1   -1    0    0    0  501  0.00000000000E+00  0.00000000000E+00  0.98919465937E+03  0.98919465938E+03  0.50400001928E-02 0. -1.
        1   -1    0    0  501    0  0.00000000000E+00  0.00000000000E+00 -0.76834195428E+03  0.76834195430E+03  0.50400001928E-02 0.  1.
    10030    2    1    2    0    0  0.00000000000E+00  0.00000000000E+00  0.22085270509E+03  0.17575366137E+04  0.17436051821E+04 0.  0.
        5    1    3    3  502    0 -0.15807533610E+03  0.45048640869E+03  0.84570090273E+03  0.97116318051E+03  0.46999998093E+01 0. -1.
       -5    1    3    3    0  502  0.15807533610E+03 -0.45048640869E+03 -0.62484819765E+03  0.78637343317E+03  0.46999998093E+01 0.  1.
</event>
<event>
 5   0  0.6929121E-04  0.1837344E+04  0.7818609E-02  0.8686689E-01
       -2   -1    0    0    0  501  0.00000000000E+00  0.00000000000E+00  0.56725634323E+03  0.56725634323E+03  0.25500000920E-02 0. -1.
        2   -1    0    0  501    0  0.00000000000E+00  0.00000000000E+00 -0.14877897105E+04  0.14877897105E+04  0.25500000920E-02 0.  1.
    10030    2    1    2    0    0  0.00000000000E+00  0.00000000000E+00 -0.92053336727E+03  0.20550460537E+04  0.18373438989E+04 0.  0.
        3    1    3    3  502    0  0.75874699879E+03  0.29707122269E+03  0.14280289125E+02  0.81495537079E+03  0.10100000352E+00 0. -1.
       -3    1    3    3    0  502 -0.75874699879E+03 -0.29707122269E+03 -0.93481365639E+03  0.12400906829E+04  0.10100000352E+00 0.  1.
</event>
<event>
 5   0  0.6774451E-04  0.1806660E+04  0.7818609E-02  0.8702766E-01
        2   -1    0    0  501    0  0.00000000000E+00  0.00000000000E+00  0.18677081267E+04  0.18677081267E+04  0.25500000920E-02 0.  1.
       -2   -1    0    0    0  501  0.00000000000E+00  0.00000000000E+00 -0.43690182218E+03  0.43690182219E+03  0.25500000920E-02 0. -1.
    10030    2    1    2    0    0  0.00000000000E+00  0.00000000000E+00  0.14308063045E+04  0.23046099489E+04  0.18066599944E+04 0.  0.
        4    1    3    3  502    0  0.57548380244E+03  0.48030847176E+03  0.72352410109E+02  0.75306992973E+03  0.12699999809E+01 0. -1.
       -4    1    3    3    0  502 -0.57548380244E+03 -0.48030847176E+03  0.13584538944E+04  0.15515400192E+04  0.12699999809E+01 0.  1.
</event>
<event>
 5   0  0.6547153E-04  0.1836186E+04  0.7818609E-02  0.8687289E-01
       -2   -1    0    0    0  501  0.00000000000E+00  0.00000000000E+00  0.63133611134E+03  0.63133611134E+03  0.25500000920E-02 0. -1.
        2   -1    0    0  501    0  0.00000000000E+00  0.00000000000E+00 -0.13350973344E+04  0.13350973344E+04  0.25500000920E-02 0.  1.
    10030    2    1    2    0    0  0.00000000000E+00  0.00000000000E+00 -0.70376122308E+03  0.19664334458E+04  0.18361864387E+04 0.  0.
        5    1    3    3  502    0 -0.47411903119E+02  0.53584751117E+03 -0.11486238677E+04  0.12683608805E+04  0.46999998093E+01 0.  1.
       -5    1    3    3    0  502  0.47411903119E+02 -0.53584751117E+03  0.44486264461E+03  0.69807256525E+03  0.46999998093E+01 0. -1.
</event>
<event>
 5   0  0.3377273E-04  0.1815449E+04  0.7818609E-02  0.8698127E-01
        1   -1    0    0  501    0  0.00000000000E+00  0.00000000000E+00  0.14464048615E+04  0.14464048615E+04  0.50400001928E-02 0. -1.
       -1   -1    0    0    0  501  0.00000000000E+00  0.00000000000E+00 -0.56966301225E+03  0.56966301228E+03  0.50400001928E-02 0.  1.
    10030    2    1    2    0    0  0.00000000000E+00  0.00000000000E+00  0.87674184928E+03  0.20160678738E+04  0.18154485400E+04 0.  0.
        2    1    3    3  502    0 -0.17021541391E+02 -0.45784669868E+02  0.14449443104E+04  0.14457697012E+04  0.25500000920E-02 0. -1.
       -2    1    3    3    0  502  0.17021541391E+02  0.45784669868E+02 -0.56820246110E+03  0.57029817260E+03  0.25500000920E-02 0.  1.
</event>
<event>
 5   0  0.2467375E-04  0.1791361E+04  0.7818609E-02  0.8710907E-01
        4   -1    0    0  501    0  0.00000000000E+00  0.00000000000E+00  0.43884086181E+03  0.43884269949E+03  0.12699999809E+01 0. -1.
       -4   -1    0    0    0  501  0.00000000000E+00  0.00000000000E+00 -0.18280902510E+04  0.18280906921E+04  0.12699999809E+01 0.  1.
    10030    2    1    2    0    0  0.00000000000E+00  0.00000000000E+00 -0.13892493891E+04  0.22669333916E+04  0.17913606942E+04 0.  0.
        5    1    3    3  502    0  0.78877189970E+03 -0.42433431630E+03 -0.69549450237E+03  0.11339997419E+04  0.46999998093E+01 0.  1.
       -5    1    3    3    0  502 -0.78877189970E+03  0.42433431630E+03 -0.69375488678E+03  0.11329336497E+04  0.46999998093E+01 0. -1.
</event>
<event>
 5   0  0.2467375E-04  0.1801012E+04  0.7818609E-02  0.8705761E-01
        3   -1    0    0  501    0  0.00000000000E+00  0.00000000000E+00  0.95276983937E+03  0.95276984472E+03  0.10100000352E+00 0. -1.
       -3   -1    0    0    0  501  0.00000000000E+00  0.00000000000E+00 -0.85110907659E+03  0.85110908258E+03  0.10100000352E+00 0.  1.
    10030    2    1    2    0    0  0.00000000000E+00  0.00000000000E+00  0.10166076278E+03  0.18038789273E+04  0.18010120138E+04 0.  0.
        4    1    3    3  502    0  0.28186268035E+03 -0.85344128542E+03 -0.49436022668E+01  0.89879622292E+03  0.12699999809E+01 0.  1.
       -4    1    3    3    0  502 -0.28186268035E+03  0.85344128542E+03  0.10660436504E+03  0.90508270438E+03  0.12699999809E+01 0. -1.
</event>
<event>
 5   0  0.2467375E-04  0.1024721E+04  0.7818609E-02  0.9281839E-01
       -3   -1    0    0    0  501  0.00000000000E+00  0.00000000000E+00  0.92353426114E+03  0.92353426667E+03  0.10100000352E+00 0. -1.
        3   -1    0    0  501    0  0.00000000000E+00  0.00000000000E+00 -0.28424843834E+03  0.28424845628E+03  0.10100000352E+00 0.  1.
    10030    2    1    2    0    0  0.00000000000E+00  0.00000000000E+00  0.63928582281E+03  0.12077827229E+04  0.10247208120E+04 0.  0.
        2    1    3    3  502    0 -0.28948257001E+03  0.38184238392E+03  0.53346047559E+03  0.71706613609E+03  0.25500000920E-02 0. -1.
       -2    1    3    3    0  502  0.28948257001E+03 -0.38184238392E+03  0.10582534722E+03  0.49071658686E+03  0.25500000920E-02 0.  1.
</event>
<event>
 5   0  0.3470962E-04  0.1796222E+04  0.7818609E-02  0.8708311E-01
       -1   -1    0    0    0  501  0.00000000000E+00  0.00000000000E+00  0.69881241970E+03  0.69881241972E+03  0.50400001928E-02 0. -1.
        1   -1    0    0  501    0  0.00000000000E+00  0.00000000000E+00 -0.11542491406E+04  0.11542491406E+04  0.50400001928E-02 0.  1.
    10030    2    1    2    0    0  0.00000000000E+00  0.00000000000E+00 -0.45543672087E+03  0.18530615603E+04  0.17962222968E+04 0.  0.
        4    1    3    3  502    0  0.46732370236E+03 -0.28271300178E+02 -0.10183986584E+04  0.11208604505E+04  0.12699999809E+01 0.  1.
       -4    1    3    3    0  502 -0.46732370236E+03  0.28271300178E+02  0.56296193751E+03  0.73220110980E+03  0.12699999809E+01 0. -1.
</event>
<event>
 5   0  0.3404261E-04  0.1809613E+04  0.7818609E-02  0.8701204E-01
        1   -1    0    0  501    0  0.00000000000E+00  0.00000000000E+00  0.12801024684E+04  0.12801024684E+04  0.50400001928E-02 0. -1.
       -1   -1    0    0    0  501  0.00000000000E+00  0.00000000000E+00 -0.63953851466E+03  0.63953851468E+03  0.50400001928E-02 0.  1.
    10030    2    1    2    0    0  0.00000000000E+00  0.00000000000E+00  0.64056395373E+03  0.19196409831E+04  0.18096130319E+04 0.  0.
        1    1    3    3  502    0  0.24448835327E+03  0.12497943332E+03  0.12348386936E+04  0.12649984240E+04  0.50400001928E-02 0. -1.
       -1    1    3    3    0  502 -0.24448835327E+03 -0.12497943332E+03 -0.59427473986E+03  0.65464255903E+03  0.50400001928E-02 0.  1.
</event>
<event>
 5   0  0.6774451E-04  0.1770364E+04  0.7818609E-02  0.8722220E-01
       -2   -1    0    0    0  501  0.00000000000E+00  0.00000000000E+00  0.11852689252E+04  0.11852689252E+04  0.25500000920E-02 0. -1.
        2   -1    0    0  501    0  0.00000000000E+00  0.00000000000E+00 -0.66107091764E+03  0.66107091764E+03  0.25500000920E-02 0.  1.
    10030    2    1    2    0    0  0.00000000000E+00  0.00000000000E+00  0.52419800755E+03  0.18463398428E+04  0.17703635966E+04 0.  0.
        4    1    3    3  502    0 -0.46704763239E+03  0.21533510056E+03  0.10134634375E+04  0.11364912884E+04  0.12699999809E+01 0. -1.
       -4    1    3    3    0  502  0.46704763239E+03 -0.21533510056E+03 -0.48926542995E+03  0.70984855448E+03  0.12699999809E+01 0.  1.
</event>
<event>
 5   0  0.6547153E-04  0.1773069E+04  0.7818609E-02  0.8720753E-01
       -2   -1    0    0    0  501  0.00000000000E+00  0.00000000000E+00  0.50296224924E+03  0.50296224924E+03  0.25500000920E-02 0.  1.
        2   -1    0    0  501    0  0.00000000000E+00  0.00000000000E+00 -0.15626294345E+04  0.15626294345E+04  0.25500000920E-02 0. -1.
    10030    2    1    2    0    0  0.00000000000E+00  0.00000000000E+00 -0.10596671853E+04  0.20655916838E+04  0.17730692204E+04 0.  0.
        5    1    3    3  502    0 -0.44571503508E+03  0.75905151939E+03 -0.65257428264E+03  0.10957629242E+04  0.46999998093E+01 0.  1.
       -5    1    3    3    0  502  0.44571503508E+03 -0.75905151939E+03 -0.40709290265E+03  0.96982875962E+03  0.46999998093E+01 0. -1.
</event>
<event>
 5   0  0.3413839E-04  0.1820126E+04  0.7818609E-02  0.8695669E-01
       -1   -1    0    0    0  501  0.00000000000E+00  0.00000000000E+00  0.17150968386E+04  0.17150968386E+04  0.50400001928E-02 0. -1.
        1   -1    0    0  501    0  0.00000000000E+00  0.00000000000E+00 -0.48289680717E+03  0.48289680719E+03  0.50400001928E-02 0.  1.
    10030    2    1    2    0    0  0.00000000000E+00  0.00000000000E+00  0.12322000314E+04  0.21979936458E+04  0.18201261356E+04 0.  0.
        5    1    3    3  502    0  0.74637583870E+03 -0.15385603427E+03  0.12168081608E+04  0.14357551191E+04  0.46999998093E+01 0. -1.
       -5    1    3    3    0  502 -0.74637583870E+03  0.15385603427E+03  0.15391870637E+02  0.76223852668E+03  0.46999998093E+01 0.  1.
</event>
<event>
 5   0  0.6771967E-04  0.1789704E+04  0.7818609E-02  0.8711794E-01
        2   -1    0    0  501    0  0.00000000000E+00  0.00000000000E+00  0.33583484199E+03  0.33583484200E+03  0.25500000920E-02 0. -1.
       -2   -1    0    0    0  501  0.00000000000E+00  0.00000000000E+00 -0.23843877383E+04  0.23843877383E+04  0.25500000920E-02 0.  1.
    10030    2    1    2    0    0  0.00000000000E+00  0.00000000000E+00 -0.20485528964E+04  0.27202225803E+04  0.17897044218E+04 0.  0.
        1    1    3    3  502    0 -0.49907820840E+03  0.73854340596E+03 -0.11442936245E+04  0.14504941640E+04  0.50400001928E-02 0. -1.
       -1    1    3    3    0  502  0.49907820840E+03 -0.73854340596E+03 -0.90425927186E+03  0.12697284164E+04  0.50400001928E-02 0.  1.
</event>
<event>
 5   0  0.6853162E-04  0.1811399E+04  0.7818609E-02  0.8700261E-01
        2   -1    0    0  501    0  0.00000000000E+00  0.00000000000E+00  0.18772021545E+04  0.18772021545E+04  0.25500000920E-02 0. -1.
       -2   -1    0    0    0  501  0.00000000000E+00  0.00000000000E+00 -0.43697576354E+03  0.43697576355E+03  0.25500000920E-02 0.  1.
    10030    2    1    2    0    0  0.00000000000E+00  0.00000000000E+00  0.14402263909E+04  0.23141779180E+04  0.18113992876E+04 0.  0.
        2    1    3    3  502    0 -0.43276464121E+03  0.10492272502E+03  0.17276872786E+04  0.17841517160E+04  0.25500000920E-02 0. -1.
       -2    1    3    3    0  502  0.43276464121E+03 -0.10492272502E+03 -0.28746088768E+03  0.53002620205E+03  0.25500000920E-02 0.  1.
</event>
<event>
 5   0  0.6853162E-04  0.1456971E+04  0.7818609E-02  0.8913582E-01
        2   -1    0    0  501    0  0.00000000000E+00  0.00000000000E+00  0.12079926615E+04  0.12079926615E+04  0.25500000920E-02 0.  1.
       -2   -1    0    0    0  501  0.00000000000E+00  0.00000000000E+00 -0.43931658879E+03  0.43931658880E+03  0.25500000920E-02 0. -1.
    10030    2    1    2    0    0  0.00000000000E+00  0.00000000000E+00  0.76867607275E+03  0.16473092503E+04  0.14569711258E+04 0.  0.
        2    1    3    3  502    0  0.19707177547E+03  0.68105004006E+02  0.11735339035E+04  0.11919133353E+04  0.25500000920E-02 0.  1.
       -2    1    3    3    0  502 -0.19707177547E+03 -0.68105004006E+02 -0.40485783076E+03  0.45539591500E+03  0.25500000920E-02 0. -1.
</event>
<event>
 5   0  0.3470962E-04  0.1812453E+04  0.7818609E-02  0.8699705E-01
       -1   -1    0    0    0  501  0.00000000000E+00  0.00000000000E+00  0.11217499522E+04  0.11217499522E+04  0.50400001928E-02 0. -1.
        1   -1    0    0  501    0  0.00000000000E+00  0.00000000000E+00 -0.73211188442E+03  0.73211188444E+03  0.50400001928E-02 0.  1.
    10030    2    1    2    0    0  0.00000000000E+00  0.00000000000E+00  0.38963806780E+03  0.18538618367E+04  0.18124530023E+04 0.  0.
        4    1    3    3  502    0 -0.27488785602E+03  0.27065006695E+03  0.10335721993E+04  0.11032170667E+04  0.12699999809E+01 0. -1.
       -4    1    3    3    0  502  0.27488785602E+03 -0.27065006695E+03 -0.64393413149E+03  0.75064477000E+03  0.12699999809E+01 0.  1.
</event>
<event>
 5   0  0.3404261E-04  0.1814875E+04  0.7818609E-02  0.8698429E-01
       -1   -1    0    0    0  501  0.00000000000E+00  0.00000000000E+00  0.11468812574E+04  0.11468812574E+04  0.50400001928E-02 0.  1.
        1   -1    0    0  501    0  0.00000000000E+00  0.00000000000E+00 -0.71798425392E+03  0.71798425393E+03  0.50400001928E-02 0. -1.
    10030    2    1    2    0    0  0.00000000000E+00  0.00000000000E+00  0.42889700350E+03  0.18648655114E+04  0.18148748541E+04 0.  0.
        1    1    3    3  502    0  0.35896688087E+03  0.68518275762E+03 -0.27307805429E+03  0.82030741595E+03  0.50400001928E-02 0. -1.
       -1    1    3    3    0  502 -0.35896688087E+03 -0.68518275762E+03  0.70197505780E+03  0.10445580954E+04  0.50400001928E-02 0.  1.
</event>
<event>
 5   0  0.6547153E-04  0.1866449E+04  0.7818609E-02  0.8671740E-01
        2   -1    0    0  501    0  0.00000000000E+00  0.00000000000E+00  0.10085849720E+04  0.10085849720E+04  0.25500000920E-02 0. -1.
       -2   -1    0    0    0  501  0.00000000000E+00  0.00000000000E+00 -0.86349463761E+03  0.86349463762E+03  0.25500000920E-02 0.  1.
    10030    2    1    2    0    0  0.00000000000E+00  0.00000000000E+00  0.14509033439E+03  0.18720796096E+04  0.18664487294E+04 0.  0.
        5    1    3    3  502    0  0.32763331421E+03  0.11173006012E+03 -0.79670565678E+03  0.86867093221E+03  0.46999998093E+01 0.  1.
       -5    1    3    3    0  502 -0.32763331421E+03 -0.11173006012E+03  0.94179599118E+03  0.10034086774E+04  0.46999998093E+01 0. -1.
</event>
<event>
 5   0  0.3413839E-04  0.1795643E+04  0.7818609E-02  0.8708620E-01
        1   -1    0    0  501    0  0.00000000000E+00  0.00000000000E+00  0.13914082497E+04  0.13914082497E+04  0.50400001928E-02 0. -1.
       -1   -1    0    0    0  501  0.00000000000E+00  0.00000000000E+00 -0.57932891781E+03  0.57932891783E+03  0.50400001928E-02 0.  1.
    10030    2    1    2    0    0  0.00000000000E+00  0.00000000000E+00  0.81207933191E+03  0.19707371676E+04  0.17956425430E+04 0.  0.
        5    1    3    3  502    0 -0.36992707558E+03 -0.64380924097E+03 -0.14787674998E+03  0.75711690193E+03  0.46999998093E+01 0.  1.
       -5    1    3    3    0  502  0.36992707558E+03  0.64380924097E+03  0.95995608189E+03  0.12136202656E+04  0.46999998093E+01 0. -1.
</event>
<event>
 5   0  0.6853162E-04  0.1481743E+04  0.7818609E-02  0.8896685E-01
       -2   -1    0    0    0  501  0.00000000000E+00  0.00000000000E+00  0.59773778826E+03  0.59773778827E+03  0.25500000920E-02 0.  1.
        2   -1    0    0  501    0  0.00000000000E+00  0.00000000000E+00 -0.91827984271E+03  0.91827984271E+03  0.25500000920E-02 0. -1.
    10030    2    1    2    0    0  0.00000000000E+00  0.00000000000E+00 -0.32054205445E+03  0.15160176310E+04  0.14817429766E+04 0.  0.
        2    1    3    3  502    0  0.14874809641E+03 -0.32465762125E+03 -0.82441013666E+03  0.89843232392E+03  0.25500000920E-02 0. -1.
       -2    1    3    3    0  502 -0.14874809641E+03  0.32465762125E+03  0.50386808222E+03  0.61758530707E+03  0.25500000920E-02 0.  1.
</event>
<event>
 5   0  0.6774451E-04  0.1766386E+04  0.7818609E-02  0.8724382E-01
        2   -1    0    0  501    0  0.00000000000E+00  0.00000000000E+00  0.19479417995E+04  0.19479417995E+04  0.25500000920E-02 0. -1.
       -2   -1    0    0    0  501  0.00000000000E+00  0.00000000000E+00 -0.40043819494E+03  0.40043819495E+03  0.25500000920E-02 0.  1.
    10030    2    1    2    0    0  0.00000000000E+00  0.00000000000E+00  0.15475036046E+04  0.23483799945E+04  0.17663864787E+04 0.  0.
        4    1    3    3  502    0 -0.30746258123E+02 -0.38328747671E+03  0.18308150591E+04  0.18707592083E+04  0.12699999809E+01 0. -1.
       -4    1    3    3    0  502  0.30746258123E+02  0.38328747671E+03 -0.28331145449E+03  0.47762078612E+03  0.12699999809E+01 0.  1.
</event>
<event>
 5   0  0.3470962E-04  0.1699510E+04  0.7818609E-02  0.8761644E-01
       -1   -1    0    0    0  501  0.00000000000E+00  0.00000000000E+00  0.53983878782E+03  0.53983878785E+03  0.50400001928E-02 0.  1.
        1   -1    0    0  501    0  0.00000000000E+00  0.00000000000E+00 -0.13375912099E+04  0.13375912099E+04  0.50400001928E-02 0. -1.
    10030    2    1    2    0    0  0.00000000000E+00  0.00000000000E+00 -0.79775242203E+03  0.18774299977E+04  0.16995100675E+04 0.  0.
        4    1    3    3  502    0 -0.59445456755E+03  0.56370997886E+03 -0.14955686809E+03  0.83277490526E+03  0.12699999809E+01 0. -1.
       -4    1    3    3    0  502  0.59445456755E+03 -0.56370997886E+03 -0.64819555394E+03  0.10446550925E+04  0.12699999809E+01 0.  1.
</event>
<event>
 5   0  0.6547153E-04  0.1792121E+04  0.7818609E-02  0.8710501E-01
       -2   -1    0    0    0  501  0.00000000000E+00  0.00000000000E+00  0.72266159046E+03  0.72266159047E+03  0.25500000920E-02 0.  1.
        2   -1    0    0  501    0  0.00000000000E+00  0.00000000000E+00 -0.11110651233E+04  0.11110651233E+04  0.25500000920E-02 0. -1.
    10030    2    1    2    0    0  0.00000000000E+00  0.00000000000E+00 -0.38840353288E+03  0.18337267138E+04  0.17921206312E+04 0.  0.
        5    1    3    3  502    0  0.51634115157E+03  0.57110480883E+02  0.55283864864E+03  0.75863196166E+03  0.46999998093E+01 0.  1.
       -5    1    3    3    0  502 -0.51634115157E+03 -0.57110480883E+02 -0.94124218152E+03  0.10750947521E+04  0.46999998093E+01 0. -1.
</event>
<event>
 5   0  0.6929121E-04  0.1793581E+04  0.7818609E-02  0.8709721E-01
       -2   -1    0    0    0  501  0.00000000000E+00  0.00000000000E+00  0.35848991635E+03  0.35848991636E+03  0.25500000920E-02 0. -1.
        2   -1    0    0  501    0  0.00000000000E+00  0.00000000000E+00 -0.22433904934E+04  0.22433904934E+04  0.25500000920E-02 0.  1.
    10030    2    1    2    0    0  0.00000000000E+00  0.00000000000E+00 -0.18849005770E+04  0.26018804098E+04  0.17935806314E+04 0.  0.
        3    1    3    3  502    0 -0.89507274658E+03 -0.52707441929E+02 -0.91734233849E+03  0.12827510562E+04  0.10100000352E+00 0.  1.
       -3    1    3    3    0  502  0.89507274658E+03  0.52707441929E+02 -0.96755823855E+03  0.13191293535E+04  0.10100000352E+00 0. -1.
</event>
<event>
 5   0  0.6774451E-04  0.1807843E+04  0.7818609E-02  0.8702140E-01
        2   -1    0    0  501    0  0.00000000000E+00  0.00000000000E+00  0.79939389853E+03  0.79939389853E+03  0.25500000920E-02 0. -1.
       -2   -1    0    0    0  501  0.00000000000E+00  0.00000000000E+00 -0.10221168497E+04  0.10221168497E+04  0.25500000920E-02 0.  1.
    10030    2    1    2    0    0  0.00000000000E+00  0.00000000000E+00 -0.22272295115E+03  0.18215107482E+04  0.18078428839E+04 0.  0.
        4    1    3    3  502    0 -0.25861245614E+02  0.90326790321E+03 -0.13412991631E+03  0.91353935676E+03  0.12699999809E+01 0. -1.
       -4    1    3    3    0  502  0.25861245614E+02 -0.90326790321E+03 -0.88593034848E+02  0.90797139146E+03  0.12699999809E+01 0.  1.
</event>
<event>
 5   0  0.3377273E-04  0.1347965E+04  0.7818609E-02  0.8992370E-01
        1   -1    0    0  501    0  0.00000000000E+00  0.00000000000E+00  0.13499610354E+04  0.13499610355E+04  0.50400001928E-02 0. -1.
       -1   -1    0    0    0  501  0.00000000000E+00  0.00000000000E+00 -0.33649319384E+03  0.33649319388E+03  0.50400001928E-02 0.  1.
    10030    2    1    2    0    0  0.00000000000E+00  0.00000000000E+00  0.10134678416E+04  0.16864542293E+04  0.13479654305E+04 0.  0.
        2    1    3    3  502    0 -0.25769212790E+03  0.57593778517E+03  0.80317892451E+03  0.10213745395E+04  0.25500000920E-02 0. -1.
       -2    1    3    3    0  502  0.25769212790E+03 -0.57593778517E+03  0.21028891710E+03  0.66507968983E+03  0.25500000920E-02 0.  1.
</event>
<event>
 5   0  0.6547153E-04  0.1783017E+04  0.7818609E-02  0.8715383E-01
       -2   -1    0    0    0  501  0.00000000000E+00  0.00000000000E+00  0.81004466472E+03  0.81004466472E+03  0.25500000920E-02 0.  1.
        2   -1    0    0  501    0  0.00000000000E+00  0.00000000000E+00 -0.98116482159E+03  0.98116482160E+03  0.25500000920E-02 0. -1.
    10030    2    1    2    0    0  0.00000000000E+00  0.00000000000E+00 -0.17112015687E+03  0.17912094863E+04  0.17830169141E+04 0.  0.
        5    1    3    3  502    0  0.50284643302E+03  0.72235052921E+03  0.56938129610E+02  0.88199141881E+03  0.46999998093E+01 0. -1.
       -5    1    3    3    0  502 -0.50284643302E+03 -0.72235052921E+03 -0.22805828648E+03  0.90921806751E+03  0.46999998093E+01 0.  1.
</event>
<event>
 5   0  0.3308275E-04  0.1253834E+04  0.7818609E-02  0.9066998E-01
       -1   -1    0    0    0  501  0.00000000000E+00  0.00000000000E+00  0.22580208901E+03  0.22580208907E+03  0.50400001928E-02 0. -1.
        1   -1    0    0  501    0  0.00000000000E+00  0.00000000000E+00 -0.17405719147E+04  0.17405719147E+04  0.50400001928E-02 0.  1.
    10030    2    1    2    0    0  0.00000000000E+00  0.00000000000E+00 -0.15147698257E+04  0.19663740038E+04  0.12538337601E+04 0.  0.
        3    1    3    3  502    0 -0.38912920016E+02  0.50659939709E+03 -0.13333285426E+04  0.14268574481E+04  0.10100000352E+00 0.  1.
       -3    1    3    3    0  502  0.38912920016E+02 -0.50659939709E+03 -0.18144128313E+03  0.53951655573E+03  0.10100000352E+00 0. -1.
</event>
<event>
 5   0  0.6774451E-04  0.1877798E+04  0.7818609E-02  0.8665988E-01
        2   -1    0    0  501    0  0.00000000000E+00  0.00000000000E+00  0.11837026817E+04  0.11837026817E+04  0.25500000920E-02 0.  1.
       -2   -1    0    0    0  501  0.00000000000E+00  0.00000000000E+00 -0.74472332159E+03  0.74472332159E+03  0.25500000920E-02 0. -1.
    10030    2    1    2    0    0  0.00000000000E+00  0.00000000000E+00  0.43897936011E+03  0.19284260033E+04  0.18777976386E+04 0.  0.
        4    1    3    3  502    0 -0.37756513485E+03  0.53870508128E+02 -0.66158823368E+03  0.76364786816E+03  0.12699999809E+01 0. -1.
       -4    1    3    3    0  502  0.37756513485E+03 -0.53870508128E+02  0.11005675938E+04  0.11647781351E+04  0.12699999809E+01 0.  1.
</event>
<event>
 5   0  0.3404261E-04  0.1821128E+04  0.7818609E-02  0.8695144E-01
        1   -1    0    0  501    0  0.00000000000E+00  0.00000000000E+00  0.11328770835E+04  0.11328770835E+04  0.50400001928E-02 0. -1.
       -1   -1    0    0    0  501  0.00000000000E+00  0.00000000000E+00 -0.73187748417E+03  0.73187748419E+03  0.50400001928E-02 0.  1.
    10030    2    1    2    0    0  0.00000000000E+00  0.00000000000E+00  0.40099959931E+03  0.18647545677E+04  0.18211284741E+04 0.  0.
        1    1    3    3  502    0  0.48024508254E+03  0.18480818307E+03 -0.56872039105E+03  0.76696302848E+03  0.50400001928E-02 0.  1.
       -1    1    3    3    0  502 -0.48024508254E+03 -0.18480818307E+03  0.96971999036E+03  0.10977915392E+04  0.50400001928E-02 0. -1.
</event>
<event>
 5   0  0.6547153E-04  0.1806799E+04  0.7818609E-02  0.8702692E-01
        2   -1    0    0  501    0  0.00000000000E+00  0.00000000000E+00  0.12603462090E+04  0.12603462090E+04  0.25500000920E-02 0.  1.
       -2   -1    0    0    0  501  0.00000000000E+00  0.00000000000E+00 -0.64754497246E+03  0.64754497247E+03  0.25500000920E-02 0. -1.
    10030    2    1    2    0    0  0.00000000000E+00  0.00000000000E+00  0.61280123652E+03  0.19078911815E+04  0.18067992154E+04 0.  0.
        5    1    3    3  502    0  0.57682604801E+03  0.46638544272E+03 -0.23806989552E+03  0.77906548890E+03  0.46999998093E+01 0. -1.
       -5    1    3    3    0  502 -0.57682604801E+03 -0.46638544272E+03  0.85087113204E+03  0.11288256926E+04  0.46999998093E+01 0.  1.
</event>
<event>
 5   0  0.3413839E-04  0.1727656E+04  0.7818609E-02  0.8745746E-01
        1   -1    0    0  501    0  0.00000000000E+00  0.00000000000E+00  0.27940888680E+04  0.27940888680E+04  0.50400001928E-02 0. -1.
       -1   -1    0    0    0  501  0.00000000000E+00  0.00000000000E+00 -0.26706342614E+03  0.26706342619E+03  0.50400001928E-02 0.  1.
    10030    2    1    2    0    0  0.00000000000E+00  0.00000000000E+00  0.25270254419E+04  0.30611522942E+04  0.17276561534E+04 0.  0.
        5    1    3    3  502    0 -0.19460037354E+03  0.36877849195E+03 -0.76914635931E+02  0.42403399950E+03  0.46999998093E+01 0.  1.
       -5    1    3    3    0  502  0.19460037354E+03 -0.36877849195E+03  0.26039400778E+04  0.26371182947E+04  0.46999998093E+01 0. -1.
</event>
<event>
 5   0  0.3413839E-04  0.1763934E+04  0.7818609E-02  0.8725717E-01
       -1   -1    0    0    0  501  0.00000000000E+00  0.00000000000E+00  0.56492532218E+03  0.56492532220E+03  0.50400001928E-02 0. -1.
        1   -1    0    0  501    0  0.00000000000E+00  0.00000000000E+00 -0.13769360852E+04  0.13769360853E+04  0.50400001928E-02 0.  1.
    10030    2    1    2    0    0  0.00000000000E+00  0.00000000000E+00 -0.81201076307E+03  0.19418614075E+04  0.17639343090E+04 0.  0.
        5    1    3    3  502    0  0.31701176155E+03  0.26290254203E+03  0.45255265741E+03  0.61191519126E+03  0.46999998093E+01 0. -1.
       -5    1    3    3    0  502 -0.31701176155E+03 -0.26290254203E+03 -0.12645634205E+04  0.13299462162E+04  0.46999998093E+01 0.  1.
</event>
<event>
 5   0  0.6547153E-04  0.1833235E+04  0.7818609E-02  0.8688823E-01
        2   -1    0    0  501    0  0.00000000000E+00  0.00000000000E+00  0.13376977194E+04  0.13376977194E+04  0.25500000920E-02 0.  1.
       -2   -1    0    0    0  501  0.00000000000E+00  0.00000000000E+00 -0.62808464378E+03  0.62808464378E+03  0.25500000920E-02 0. -1.
    10030    2    1    2    0    0  0.00000000000E+00  0.00000000000E+00  0.70961307565E+03  0.19657823632E+04  0.18332347319E+04 0.  0.
        5    1    3    3  502    0 -0.18062077062E+03  0.86949009901E+03  0.59821783503E+03  0.10707584056E+04  0.46999998093E+01 0.  1.
       -5    1    3    3    0  502  0.18062077062E+03 -0.86949009901E+03  0.11139524062E+03  0.89502395760E+03  0.46999998093E+01 0. -1.
</event>
<event>
 5   0  0.3470962E-04  0.1827792E+04  0.7818609E-02  0.8691658E-01
        1   -1    0    0  501    0  0.00000000000E+00  0.00000000000E+00  0.15635646422E+04  0.15635646422E+04  0.50400001928E-02 0.  1.
       -1   -1    0    0    0  501  0.00000000000E+00  0.00000000000E+00 -0.53416753427E+03  0.53416753429E+03  0.50400001928E-02 0. -1.
    10030    2    1    2    0    0  0.00000000000E+00  0.00000000000E+00  0.10293971080E+04  0.20977321765E+04  0.18277915304E+04 0.  0.
        4    1    3    3  502    0 -0.48808689926E+02  0.93662829925E+01 -0.53261442667E+03  0.53492967376E+03  0.12699999809E+01 0. -1.
       -4    1    3    3    0  502  0.48808689926E+02 -0.93662829925E+01  0.15620115346E+04  0.15628025028E+04  0.12699999809E+01 0.  1.
</event>
<event>
 5   0  0.3470962E-04  0.1504745E+04  0.7818609E-02  0.8881304E-01
       -1   -1    0    0    0  501  0.00000000000E+00  0.00000000000E+00  0.29789612857E+03  0.29789612861E+03  0.50400001928E-02 0.  1.
        1   -1    0    0  501    0  0.00000000000E+00  0.00000000000E+00 -0.19002065666E+04  0.19002065666E+04  0.50400001928E-02 0. -1.
    10030    2    1    2    0    0  0.00000000000E+00  0.00000000000E+00 -0.16023104380E+04  0.21981026952E+04  0.15047447355E+04 0.  0.
        4    1    3    3  502    0  0.55949456726E+03 -0.49766226849E+03 -0.69420187178E+03  0.10210875359E+04  0.12699999809E+01 0. -1.
       -4    1    3    3    0  502 -0.55949456726E+03  0.49766226849E+03 -0.90810856625E+03  0.11770151593E+04  0.12699999809E+01 0.  1.
</event>
<event>
 5   0  0.3413839E-04  0.1746775E+04  0.7818609E-02  0.8735127E-01
        1   -1    0    0  501    0  0.00000000000E+00  0.00000000000E+00  0.22449862208E+04  0.22449862208E+04  0.50400001928E-02 0. -1.
       -1   -1    0    0    0  501  0.00000000000E+00  0.00000000000E+00 -0.33978194182E+03  0.33978194185E+03  0.50400001928E-02 0.  1.
    10030    2    1    2    0    0  0.00000000000E+00  0.00000000000E+00  0.19052042790E+04  0.25847681627E+04  0.17467750600E+04 0.  0.
        5    1    3    3  502    0  0.56238646147E+01 -0.44578939008E+03  0.20639073711E+04  0.21115149856E+04  0.46999998093E+01 0. -1.
       -5    1    3    3    0  502 -0.56238646147E+01  0.44578939008E+03 -0.15870309207E+03  0.47325317705E+03  0.46999998093E+01 0.  1.
</event>
<event>
 5   0  0.3470962E-04  0.1766016E+04  0.7818609E-02  0.8724583E-01
       -1   -1    0    0    0  501  0.00000000000E+00  0.00000000000E+00  0.12620339657E+04  0.12620339657E+04  0.50400001928E-02 0.  1.
        1   -1    0    0  501    0  0.00000000000E+00  0.00000000000E+00 -0.61781489593E+03  0.61781489595E+03  0.50400001928E-02 0. -1.
    10030    2    1    2    0    0  0.00000000000E+00  0.00000000000E+00  0.64421906976E+03  0.18798488616E+04  0.17660162889E+04 0.  0.
        4    1    3    3  502    0  0.63005975441E+03 -0.56863272856E+03  0.62715264552E+02  0.85103072296E+03  0.12699999809E+01 0. -1.
       -4    1    3    3    0  502 -0.63005975441E+03  0.56863272856E+03  0.58150380521E+03  0.10288181387E+04  0.12699999809E+01 0.  1.
</event>
<event>
 5   0  0.3470962E-04  0.1768069E+04  0.7818609E-02  0.8723467E-01
       -1   -1    0    0    0  501  0.00000000000E+00  0.00000000000E+00  0.46109547453E+03  0.46109547456E+03  0.50400001928E-02 0. -1.
        1   -1    0    0  501    0  0.00000000000E+00  0.00000000000E+00 -0.16949134856E+04  0.16949134857E+04  0.50400001928E-02 0.  1.
    10030    2    1    2    0    0  0.00000000000E+00  0.00000000000E+00 -0.12338180111E+04  0.21560089602E+04  0.17680689330E+04 0.  0.
        4    1    3    3  502    0 -0.54365407613E+03  0.66269732066E+03 -0.35314360387E+03  0.92705960496E+03  0.12699999809E+01 0. -1.
       -4    1    3    3    0  502  0.54365407613E+03 -0.66269732066E+03 -0.88067440724E+03  0.12289493553E+04  0.12699999809E+01 0.  1.
</event>
<event>
 5   0  0.3470962E-04  0.1791692E+04  0.7818609E-02  0.8710730E-01
        1   -1    0    0  501    0  0.00000000000E+00  0.00000000000E+00  0.10397264899E+04  0.10397264899E+04  0.50400001928E-02 0. -1.
       -1   -1    0    0    0  501  0.00000000000E+00  0.00000000000E+00 -0.77187571172E+03  0.77187571174E+03  0.50400001928E-02 0.  1.
    10030    2    1    2    0    0  0.00000000000E+00  0.00000000000E+00  0.26785077819E+03  0.18116022017E+04  0.17916915186E+04 0.  0.
        4    1    3    3  502    0 -0.40639886968E+03 -0.62948016501E+03 -0.36258421021E+03  0.83239067859E+03  0.12699999809E+01 0.  1.
       -4    1    3    3    0  502  0.40639886968E+03  0.62948016501E+03  0.63043498840E+03  0.97921152307E+03  0.12699999809E+01 0. -1.
</event>
<event>
 5   0  0.3404261E-04  0.1770701E+04  0.7818609E-02  0.8722037E-01
       -1   -1    0    0    0  501  0.00000000000E+00  0.00000000000E+00  0.37379365776E+03  0.37379365779E+03  0.50400001928E-02 0.  1.
        1   -1    0    0  501    0  0.00000000000E+00  0.00000000000E+00 -0.20970009145E+04  0.20970009145E+04  0.50400001928E-02 0. -1.
    10030    2    1    2    0    0  0.00000000000E+00  0.00000000000E+00 -0.17232072568E+04  0.24707945723E+04  0.17707011518E+04 0.  0.
        1    1    3    3  502    0  0.54775182388E+03  0.13281086836E+02  0.10879732695E+03  0.55861015584E+03  0.50400001928E-02 0.  1.
       -1    1    3    3    0  502 -0.54775182388E+03 -0.13281086836E+02 -0.18320045837E+04  0.19121844165E+04  0.50400001928E-02 0. -1.
</event>
<event>
 5   0  0.6853162E-04  0.1822137E+04  0.7818609E-02  0.8694615E-01
       -2   -1    0    0    0  501  0.00000000000E+00  0.00000000000E+00  0.62280877649E+03  0.62280877649E+03  0.25500000920E-02 0. -1.
        2   -1    0    0  501    0  0.00000000000E+00  0.00000000000E+00 -0.13327458102E+04  0.13327458102E+04  0.25500000920E-02 0.  1.
    10030    2    1    2    0    0  0.00000000000E+00  0.00000000000E+00 -0.70993703373E+03  0.19555545867E+04  0.18221369734E+04 0.  0.
        2    1    3    3  502    0 -0.64428356630E+03 -0.64274779292E+03 -0.30918653524E+03  0.96115677841E+03  0.25500000920E-02 0.  1.
       -2    1    3    3    0  502  0.64428356630E+03  0.64274779292E+03 -0.40075049849E+03  0.99439780830E+03  0.25500000920E-02 0. -1.
</event>
<event>
 5   0  0.3404261E-04  0.1767803E+04  0.7818609E-02  0.8723611E-01
       -1   -1    0    0    0  501  0.00000000000E+00  0.00000000000E+00  0.99023283368E+03  0.99023283369E+03  0.50400001928E-02 0. -1.
        1   -1    0    0  501    0  0.00000000000E+00  0.00000000000E+00 -0.78898784990E+03  0.78898784992E+03  0.50400001928E-02 0.  1.
    10030    2    1    2    0    0  0.00000000000E+00  0.00000000000E+00  0.20124498378E+03  0.17792206836E+04  0.17678027881E+04 0.  0.
        1    1    3    3  502    0 -0.84091428677E+03 -0.21612950433E+03  0.26732097911E+03  0.90846535775E+03  0.50400001928E-02 0.  1.
       -1    1    3    3    0  502  0.84091428677E+03  0.21612950433E+03 -0.66075995337E+02  0.87075532586E+03  0.50400001928E-02 0. -1.
</event>
<event>
 5   0  0.3470962E-04  0.1862668E+04  0.7818609E-02  0.8673665E-01
       -1   -1    0    0    0  501  0.00000000000E+00  0.00000000000E+00  0.53249777784E+03  0.53249777786E+03  0.50400001928E-02 0.  1.
        1   -1    0    0  501    0  0.00000000000E+00  0.00000000000E+00 -0.16288957553E+04  0.16288957553E+04  0.50400001928E-02 0. -1.
    10030    2    1    2    0    0  0.00000000000E+00  0.00000000000E+00 -0.10963979775E+04  0.21613935332E+04  0.18626683764E+04 0.  0.
        4    1    3    3  502    0  0.77463128686E+03 -0.99880903717E+02 -0.11368555954E+04  0.13793013025E+04  0.12699999809E+01 0. -1.
       -4    1    3    3    0  502 -0.77463128686E+03  0.99880903717E+02  0.40457617897E+02  0.78209223066E+03  0.12699999809E+01 0.  1.
</event>
<event>
 5   0  0.6547153E-04  0.1689216E+04  0.7818609E-02  0.8767539E-01
       -2   -1    0    0    0  501  0.00000000000E+00  0.00000000000E+00  0.78408271506E+03  0.78408271506E+03  0.25500000920E-02 0. -1.
        2   -1    0    0  501    0  0.00000000000E+00  0.00000000000E+00 -0.90980570644E+03  0.90980570644E+03  0.25500000920E-02 0.  1.
    10030    2    1    2    0    0  0.00000000000E+00  0.00000000000E+00 -0.12572299137E+03  0.16938884215E+04  0.16892163017E+04 0.  0.
        5    1    3    3  502    0 -0.40076446382E+03  0.34036863848E+03 -0.72565700928E+03  0.89613790827E+03  0.46999998093E+01 0.  1.
       -5    1    3    3    0  502  0.40076446382E+03 -0.34036863848E+03  0.59993401791E+03  0.79775051323E+03  0.46999998093E+01 0. -1.
</event>
<event>
 5   0  0.2467375E-04  0.1120910E+04  0.7818609E-02  0.9185047E-01
       -4   -1    0    0    0  501  0.00000000000E+00  0.00000000000E+00  0.10133928146E+04  0.10133936103E+04  0.12699999809E+01 0.  1.
        4   -1    0    0  501    0  0.00000000000E+00  0.00000000000E+00 -0.30995660690E+03  0.30995920870E+03  0.12699999809E+01 0. -1.
    10030    2    1    2    0    0  0.00000000000E+00  0.00000000000E+00  0.70343620766E+03  0.13233528190E+04  0.11209104270E+04 0.  0.
        4    1    3    3  502    0  0.12480336832E+03  0.20773654541E+03  0.94833637162E+03  0.97881246400E+03  0.12699999809E+01 0.  1.
       -4    1    3    3    0  502 -0.12480336832E+03 -0.20773654541E+03 -0.24490016397E+03  0.34454035504E+03  0.12699999809E+01 0. -1.
</event>
<event>
 5   0  0.3308275E-04  0.1833246E+04  0.7818609E-02  0.8688816E-01
        1   -1    0    0  501    0  0.00000000000E+00  0.00000000000E+00  0.18838409276E+04  0.18838409276E+04  0.50400001928E-02 0.  1.
       -1   -1    0    0    0  501  0.00000000000E+00  0.00000000000E+00 -0.44600272040E+03  0.44600272043E+03  0.50400001928E-02 0. -1.
    10030    2    1    2    0    0  0.00000000000E+00  0.00000000000E+00  0.14378382072E+04  0.23298436480E+04  0.18332464957E+04 0.  0.
        3    1    3    3  502    0  0.41071836531E+03 -0.76129434420E+03  0.11042705700E+04  0.14027373796E+04  0.10100000352E+00 0. -1.
       -3    1    3    3    0  502 -0.41071836531E+03  0.76129434420E+03  0.33356763712E+03  0.92710626837E+03  0.10100000352E+00 0.  1.
</event>
<event>
 5   0  0.3470962E-04  0.1805762E+04  0.7818609E-02  0.8703241E-01
        1   -1    0    0  501    0  0.00000000000E+00  0.00000000000E+00  0.41707452431E+03  0.41707452434E+03  0.50400001928E-02 0. -1.
       -1   -1    0    0    0  501  0.00000000000E+00  0.00000000000E+00 -0.19545533448E+04  0.19545533448E+04  0.50400001928E-02 0.  1.
    10030    2    1    2    0    0  0.00000000000E+00  0.00000000000E+00 -0.15374788204E+04  0.23716278691E+04  0.18057623393E+04 0.  0.
        4    1    3    3  502    0  0.28818397926E+03 -0.85264768505E+03 -0.67462761940E+03  0.11248031465E+04  0.12699999809E+01 0. -1.
       -4    1    3    3    0  502 -0.28818397926E+03  0.85264768505E+03 -0.86285120105E+03  0.12468247226E+04  0.12699999809E+01 0.  1.
</event>
<event>
 5   0  0.3470962E-04  0.1841230E+04  0.7818609E-02  0.8684676E-01
        1   -1    0    0  501    0  0.00000000000E+00  0.00000000000E+00  0.13801229690E+04  0.13801229690E+04  0.50400001928E-02 0.  1.
       -1   -1    0    0    0  501  0.00000000000E+00  0.00000000000E+00 -0.61409876689E+03  0.61409876691E+03  0.50400001928E-02 0. -1.
    10030    2    1    2    0    0  0.00000000000E+00  0.00000000000E+00  0.76602420209E+03  0.19942217359E+04  0.18412298210E+04 0.  0.
        4    1    3    3  502    0  0.77609078415E+03  0.30549991127E+03 -0.39092582454E+02  0.83497122342E+03  0.12699999809E+01 0. -1.
       -4    1    3    3    0  502 -0.77609078415E+03 -0.30549991127E+03  0.80511678454E+03  0.11592505125E+04  0.12699999809E+01 0.  1.
</event>
<event>
 5   0  0.6774451E-04  0.1735816E+04  0.7818609E-02  0.8741197E-01
       -2   -1    0    0    0  501  0.00000000000E+00  0.00000000000E+00  0.54049981955E+03  0.54049981956E+03  0.25500000920E-02 0. -1.
        2   -1    0    0  501    0  0.00000000000E+00  0.00000000000E+00 -0.13936433567E+04  0.13936433567E+04  0.25500000920E-02 0.  1.
    10030    2    1    2    0    0  0.00000000000E+00  0.00000000000E+00 -0.85314353713E+03  0.19341431762E+04  0.17358156386E+04 0.  0.
        4    1    3    3  502    0 -0.76355505206E+03 -0.24137713678E+03 -0.79944510143E+03  0.11315446623E+04  0.12699999809E+01 0.  1.
       -4    1    3    3    0  502  0.76355505206E+03  0.24137713678E+03 -0.53698435705E+02  0.80259851394E+03  0.12699999809E+01 0. -1.
</event>
<event>
 5   0  0.2467375E-04  0.1782022E+04  0.7818609E-02  0.8715919E-01
        3   -1    0    0  501    0  0.00000000000E+00  0.00000000000E+00  0.74469978950E+03  0.74469979635E+03  0.10100000352E+00 0. -1.
       -3   -1    0    0    0  501  0.00000000000E+00  0.00000000000E+00 -0.10660678857E+04  0.10660678905E+04  0.10100000352E+00 0.  1.
    10030    2    1    2    0    0  0.00000000000E+00  0.00000000000E+00 -0.32136809620E+03  0.18107676868E+04  0.17820219310E+04 0.  0.
        4    1    3    3  502    0 -0.54594071078E+03  0.53370009059E+03  0.30608617832E+03  0.82254325591E+03  0.12699999809E+01 0. -1.
       -4    1    3    3    0  502  0.54594071078E+03 -0.53370009059E+03 -0.62745427452E+03  0.98822443093E+03  0.12699999809E+01 0.  1.
</event>
<event>
 5   0  0.3308275E-04  0.1807443E+04  0.7818609E-02  0.8702352E-01
       -1   -1    0    0    0  501  0.00000000000E+00  0.00000000000E+00  0.89487995907E+03  0.89487995908E+03  0.50400001928E-02 0.  1.
        1   -1    0    0  501    0  0.00000000000E+00  0.00000000000E+00 -0.91264999818E+03  0.91264999820E+03  0.50400001928E-02 0. -1.
    10030    2    1    2    0    0  0.00000000000E+00  0.00000000000E+00 -0.17770039114E+02  0.18075299573E+04  0.18074426055E+04 0.  0.
        3    1    3    3  502    0  0.79915065540E+03 -0.35100911717E+03 -0.24312488710E+03  0.90606781827E+03  0.10100000352E+00 0. -1.
       -3    1    3    3    0  502 -0.79915065540E+03  0.35100911717E+03  0.22535484799E+03  0.90146213902E+03  0.10100000352E+00 0.  1.
</event>
<event>
 5   0  0.6853162E-04  0.1629805E+04  0.7818609E-02  0.8802444E-01
       -2   -1    0    0    0  501  0.00000000000E+00  0.00000000000E+00  0.36123545931E+03  0.36123545932E+03  0.25500000920E-02 0. -1.
        2   -1    0    0  501    0  0.00000000000E+00  0.00000000000E+00 -0.18383199005E+04  0.18383199005E+04  0.25500000920E-02 0.  1.
    10030    2    1    2    0    0  0.00000000000E+00  0.00000000000E+00 -0.14770844412E+04  0.21995553598E+04  0.16298053057E+04 0.  0.
        2    1    3    3  502    0  0.69109014161E+03 -0.34309684902E+02 -0.15762044725E+03  0.70966678357E+03  0.25500000920E-02 0. -1.
       -2    1    3    3    0  502 -0.69109014161E+03  0.34309684902E+02 -0.13194639939E+04  0.14898885762E+04  0.25500000920E-02 0.  1.
</event>
<event>
 5   0  0.6547153E-04  0.1800468E+04  0.7818609E-02  0.8706050E-01
       -2   -1    0    0    0  501  0.00000000000E+00  0.00000000000E+00  0.57227099763E+03  0.57227099763E+03  0.25500000920E-02 0.  1.
        2   -1    0    0  501    0  0.00000000000E+00  0.00000000000E+00 -0.14161501838E+04  0.14161501838E+04  0.25500000920E-02 0. -1.
    10030    2    1    2    0    0  0.00000000000E+00  0.00000000000E+00 -0.84387918614E+03  0.19884211814E+04  0.18004684707E+04 0.  0.
        5    1    3    3  502    0 -0.24210685453E+03  0.35099474857E+03 -0.12975388833E+04  0.13658119513E+04  0.46999998093E+01 0. -1.
       -5    1    3    3    0  502  0.24210685453E+03 -0.35099474857E+03  0.45365969721E+03  0.62260923010E+03  0.46999998093E+01 0.  1.
</event>
<event>
 5   0  0.6929121E-04  0.1804550E+04  0.7818609E-02  0.8703884E-01
        2   -1    0    0  501    0  0.00000000000E+00  0.00000000000E+00  0.23893752706E+04  0.23893752706E+04  0.25500000920E-02 0.  1.
       -2   -1    0    0    0  501  0.00000000000E+00  0.00000000000E+00 -0.34071667278E+03  0.34071667279E+03  0.25500000920E-02 0. -1.
    10030    2    1    2    0    0  0.00000000000E+00  0.00000000000E+00  0.20486585979E+04  0.27300919434E+04  0.18045497968E+04 0.  0.
        3    1    3    3  502    0  0.37560748211E+03  0.34826722808E+03  0.21480833865E+04  0.22083100526E+04  0.10100000352E+00 0.  1.
       -3    1    3    3    0  502 -0.37560748211E+03 -0.34826722808E+03 -0.99424788689E+02  0.52178189081E+03  0.10100000352E+00 0. -1.
</event>
<event>
 5   0  0.3377273E-04  0.1765177E+04  0.7818609E-02  0.8725040E-01
       -1   -1    0    0    0  501  0.00000000000E+00  0.00000000000E+00  0.60371003163E+03  0.60371003165E+03  0.50400001928E-02 0.  1.
        1   -1    0    0  501    0  0.00000000000E+00  0.00000000000E+00 -0.12902924236E+04  0.12902924236E+04  0.50400001928E-02 0. -1.
    10030    2    1    2    0    0  0.00000000000E+00  0.00000000000E+00 -0.68658239193E+03  0.18940024552E+04  0.17651770221E+04 0.  0.
        2    1    3    3  502    0  0.70666259372E+03  0.32643990323E+03 -0.78961471588E+03  0.11087950358E+04  0.25500000920E-02 0. -1.
       -2    1    3    3    0  502 -0.70666259372E+03 -0.32643990323E+03  0.10303232395E+03  0.78520741945E+03  0.25500000920E-02 0.  1.
</event>
<event>
 5   0  0.6929121E-04  0.1754786E+04  0.7818609E-02  0.8730720E-01
        2   -1    0    0  501    0  0.00000000000E+00  0.00000000000E+00  0.71322293388E+03  0.71322293389E+03  0.25500000920E-02 0. -1.
       -2   -1    0    0    0  501  0.00000000000E+00  0.00000000000E+00 -0.10793523503E+04  0.10793523503E+04  0.25500000920E-02 0.  1.
    10030    2    1    2    0    0  0.00000000000E+00  0.00000000000E+00 -0.36612941642E+03  0.17925752842E+04  0.17547864257E+04 0.  0.
        3    1    3    3  502    0 -0.20197062217E+03  0.83800053246E+02 -0.10510712884E+04  0.10735760079E+04  0.10100000352E+00 0.  1.
       -3    1    3    3    0  502  0.20197062217E+03 -0.83800053246E+02  0.68494187199E+03  0.71899927632E+03  0.10100000352E+00 0. -1.
</event>
<event>
 5   0  0.3413839E-04  0.1755113E+04  0.7818609E-02  0.8730541E-01
        1   -1    0    0  501    0  0.00000000000E+00  0.00000000000E+00  0.85997991340E+03  0.85997991341E+03  0.50400001928E-02 0. -1.
       -1   -1    0    0    0  501  0.00000000000E+00  0.00000000000E+00 -0.89549200051E+03  0.89549200052E+03  0.50400001928E-02 0.  1.
    10030    2    1    2    0    0  0.00000000000E+00  0.00000000000E+00 -0.35512087110E+02  0.17554719139E+04  0.17551126836E+04 0.  0.
        5    1    3    3  502    0 -0.40832102146E+03  0.23757778674E+02 -0.79431211663E+03  0.89344519543E+03  0.46999998093E+01 0.  1.
       -5    1    3    3    0  502  0.40832102146E+03 -0.23757778674E+02  0.75880002952E+03  0.86202671850E+03  0.46999998093E+01 0. -1.
</event>
<event>
 5   0  0.3308275E-04  0.1789878E+04  0.7818609E-02  0.8711701E-01
        1   -1    0    0  501    0  0.00000000000E+00  0.00000000000E+00  0.80110309439E+03  0.80110309441E+03  0.50400001928E-02 0. -1.
       -1   -1    0    0    0  501  0.00000000000E+00  0.00000000000E+00 -0.99976648254E+03  0.99976648255E+03  0.50400001928E-02 0.  1.
    10030    2    1    2    0    0  0.00000000000E+00  0.00000000000E+00 -0.19866338815E+03  0.18008695770E+04  0.17898782337E+04 0.  0.
        3    1    3    3  502    0 -0.35495099716E+03  0.73960721385E+03  0.26050536007E+03  0.86073927178E+03  0.10100000352E+00 0.  1.
       -3    1    3    3    0  502  0.35495099716E+03 -0.73960721385E+03 -0.45916874822E+03  0.94013030517E+03  0.10100000352E+00 0. -1.
</event>
<event>
 5   0  0.3470962E-04  0.1907062E+04  0.7818609E-02  0.8651349E-01
        1   -1    0    0  501    0  0.00000000000E+00  0.00000000000E+00  0.64619666318E+03  0.64619666320E+03  0.50400001928E-02 0.  1.
       -1   -1    0    0    0  501  0.00000000000E+00  0.00000000000E+00 -0.14070353745E+04  0.14070353745E+04  0.50400001928E-02 0. -1.
    10030    2    1    2    0    0  0.00000000000E+00  0.00000000000E+00 -0.76083871134E+03  0.20532320377E+04  0.19070622056E+04 0.  0.
        4    1    3    3  502    0 -0.50766836980E+02  0.81063537191E+03  0.15737933245E+03  0.82733115806E+03  0.12699999809E+01 0.  1.
       -4    1    3    3    0  502  0.50766836980E+02 -0.81063537191E+03 -0.91821804378E+03  0.12259008797E+04  0.12699999809E+01 0. -1.
</event>
<event>
 5   0  0.6774451E-04  0.1750341E+04  0.7818609E-02  0.8733163E-01
       -2   -1    0    0    0  501  0.00000000000E+00  0.00000000000E+00  0.84622608964E+03  0.84622608964E+03  0.25500000920E-02 0. -1.
        2   -1    0    0  501    0  0.00000000000E+00  0.00000000000E+00 -0.90510501427E+03  0.90510501428E+03  0.25500000920E-02 0.  1.
    10030    2    1    2    0    0  0.00000000000E+00  0.00000000000E+00 -0.58878924635E+02  0.17513311039E+04  0.17503410833E+04 0.  0.
        4    1    3    3  502    0 -0.54816850099E+03  0.56225791504E+03 -0.41605055280E+03  0.88866323424E+03  0.12699999809E+01 0.  1.
       -4    1    3    3    0  502  0.54816850099E+03 -0.56225791504E+03  0.35717162817E+03  0.86266786968E+03  0.12699999809E+01 0. -1.
</event>
<event>
 5   0  0.3470962E-04  0.1799836E+04  0.7818609E-02  0.8706386E-01
        1   -1    0    0  501    0  0.00000000000E+00  0.00000000000E+00  0.66280984309E+03  0.66280984311E+03  0.50400001928E-02 0. -1.
       -1   -1    0    0    0  501  0.00000000000E+00  0.00000000000E+00 -0.12218478467E+04  0.12218478467E+04  0.50400001928E-02 0.  1.
    10030    2    1    2    0    0  0.00000000000E+00  0.00000000000E+00 -0.55903800363E+03  0.18846576898E+04  0.17998364143E+04 0.  0.
        4    1    3    3  502    0  0.17574245132E+03  0.85421097537E+03 -0.47044103064E+02  0.87337080337E+03  0.12699999809E+01 0. -1.
       -4    1    3    3    0  502 -0.17574245132E+03 -0.85421097537E+03 -0.51199390057E+03  0.10112868865E+04  0.12699999809E+01 0.  1.
</event>
<event>
 5   0  0.6547153E-04  0.1754490E+04  0.7818609E-02  0.8730883E-01
        2   -1    0    0  501    0  0.00000000000E+00  0.00000000000E+00  0.99130893589E+03  0.99130893590E+03  0.25500000920E-02 0.  1.
       -2   -1    0    0    0  501  0.00000000000E+00  0.00000000000E+00 -0.77630568320E+03  0.77630568321E+03  0.25500000920E-02 0. -1.
    10030    2    1    2    0    0  0.00000000000E+00  0.00000000000E+00  0.21500325269E+03  0.17676146191E+04  0.17544899666E+04 0.  0.
        5    1    3    3  502    0  0.50354502897E+03 -0.14683418434E+03 -0.60090755708E+03  0.79764017955E+03  0.46999998093E+01 0. -1.
       -5    1    3    3    0  502 -0.50354502897E+03  0.14683418434E+03  0.81591080977E+03  0.96997443955E+03  0.46999998093E+01 0.  1.
</event>
<event>
 5   0  0.3308275E-04  0.1900541E+04  0.7818609E-02  0.8654587E-01
        1   -1    0    0  501    0  0.00000000000E+00  0.00000000000E+00  0.19523758745E+04  0.19523758745E+04  0.50400001928E-02 0. -1.
       -1   -1    0    0    0  501  0.00000000000E+00  0.00000000000E+00 -0.46252046735E+03  0.46252046737E+03  0.50400001928E-02 0.  1.
    10030    2    1    2    0    0  0.00000000000E+00  0.00000000000E+00  0.14898554072E+04  0.24148963419E+04  0.19005407672E+04 0.  0.
        3    1    3    3  502    0  0.70474794465E+03 -0.44174690327E+03  0.16098240337E+03  0.84718671876E+03  0.10100000352E+00 0.  1.
       -3    1    3    3    0  502 -0.70474794465E+03  0.44174690327E+03  0.13288730038E+04  0.15677096231E+04  0.10100000352E+00 0. -1.
</event>
<event>
 5   0  0.6853162E-04  0.1293165E+04  0.7818609E-02  0.9035003E-01
        2   -1    0    0  501    0  0.00000000000E+00  0.00000000000E+00  0.12207630045E+04  0.12207630045E+04  0.25500000920E-02 0.  1.
       -2   -1    0    0    0  501  0.00000000000E+00  0.00000000000E+00 -0.34246511996E+03  0.34246511997E+03  0.25500000920E-02 0. -1.
    10030    2    1    2    0    0  0.00000000000E+00  0.00000000000E+00  0.87829788452E+03  0.15632281245E+04  0.12931647208E+04 0.  0.
        2    1    3    3  502    0  0.33169507276E+03  0.86361551745E+02  0.11019068472E+04  0.11539838122E+04  0.25500000920E-02 0.  1.
       -2    1    3    3    0  502 -0.33169507276E+03 -0.86361551745E+02 -0.22360896268E+03  0.40924431226E+03  0.25500000920E-02 0. -1.
</event>
<event>
 5   0  0.6774451E-04  0.1777047E+04  0.7818609E-02  0.8718602E-01
       -2   -1    0    0    0  501  0.00000000000E+00  0.00000000000E+00  0.59855432416E+03  0.59855432417E+03  0.25500000920E-02 0. -1.
        2   -1    0    0  501    0  0.00000000000E+00  0.00000000000E+00 -0.13189684408E+04  0.13189684408E+04  0.25500000920E-02 0.  1.
    10030    2    1    2    0    0  0.00000000000E+00  0.00000000000E+00 -0.72041411663E+03  0.19175227650E+04  0.17770472855E+04 0.  0.
        4    1    3    3  502    0 -0.53568296652E+03 -0.61246885017E+03 -0.74535128412E+03  0.11034602316E+04  0.12699999809E+01 0.  1.
       -4    1    3    3    0  502  0.53568296652E+03  0.61246885017E+03  0.24937167489E+02  0.81406253339E+03  0.12699999809E+01 0. -1.
</event>
<event>
 5   0  0.6853162E-04  0.1806683E+04  0.7818609E-02  0.8702753E-01
        2   -1    0    0  501    0  0.00000000000E+00  0.00000000000E+00  0.13751556673E+04  0.13751556673E+04  0.25500000920E-02 0. -1.
       -2   -1    0    0    0  501  0.00000000000E+00  0.00000000000E+00 -0.59340648344E+03  0.59340648345E+03  0.25500000920E-02 0.  1.
    10030    2    1    2    0    0  0.00000000000E+00  0.00000000000E+00  0.78174918385E+03  0.19685621507E+04  0.18066834684E+04 0.  0.
        2    1    3    3  502    0  0.59340469487E+03  0.25612973457E+03 -0.29677839291E+03  0.71120249390E+03  0.25500000920E-02 0.  1.
       -2    1    3    3    0  502 -0.59340469487E+03 -0.25612973457E+03  0.10785275768E+04  0.12573596568E+04  0.25500000920E-02 0. -1.
</event>
<event>
 5   0  0.3470962E-04  0.1814911E+04  0.7818609E-02  0.8698410E-01
        1   -1    0    0  501    0  0.00000000000E+00  0.00000000000E+00  0.56964851153E+03  0.56964851155E+03  0.50400001928E-02 0. -1.
       -1   -1    0    0    0  501  0.00000000000E+00  0.00000000000E+00 -0.14455858643E+04  0.14455858643E+04  0.50400001928E-02 0.  1.
    10030    2    1    2    0    0  0.00000000000E+00  0.00000000000E+00 -0.87593735281E+03  0.20152343759E+04  0.18149113873E+04 0.  0.
        4    1    3    3  502    0 -0.10112721694E+02 -0.16413406659E+03 -0.14289021021E+04  0.14383341368E+04  0.12699999809E+01 0.  1.
       -4    1    3    3    0  502  0.10112721694E+02  0.16413406659E+03  0.55296474929E+03  0.57690023904E+03  0.12699999809E+01 0. -1.
</event>
<event>
 5   0  0.6547153E-04  0.1733823E+04  0.7818609E-02  0.8742305E-01
       -2   -1    0    0    0  501  0.00000000000E+00  0.00000000000E+00  0.62310923529E+03  0.62310923530E+03  0.25500000920E-02 0. -1.
        2   -1    0    0  501    0  0.00000000000E+00  0.00000000000E+00 -0.12061059190E+04  0.12061059190E+04  0.25500000920E-02 0.  1.
    10030    2    1    2    0    0  0.00000000000E+00  0.00000000000E+00 -0.58299668369E+03  0.18292151543E+04  0.17338232169E+04 0.  0.
        5    1    3    3  502    0  0.67633681884E+03  0.40247312034E+03  0.91950424132E+02  0.79239704417E+03  0.46999998093E+01 0. -1.
       -5    1    3    3    0  502 -0.67633681884E+03 -0.40247312034E+03 -0.67494710782E+03  0.10368181101E+04  0.46999998093E+01 0.  1.
</event>
<event>
 5   0  0.3377273E-04  0.1800039E+04  0.7818609E-02  0.8706279E-01
       -1   -1    0    0    0  501  0.00000000000E+00  0.00000000000E+00  0.58104340014E+03  0.58104340016E+03  0.50400001928E-02 0. -1.
        1   -1    0    0  501    0  0.00000000000E+00  0.00000000000E+00 -0.13941045469E+04  0.13941045469E+04  0.50400001928E-02 0.  1.
    10030    2    1    2    0    0  0.00000000000E+00  0.00000000000E+00 -0.81306114672E+03  0.19751479470E+04  0.18000391619E+04 0.  0.
        2    1    3    3  502    0  0.21305835826E+02  0.71690226823E+03  0.19008381885E+03  0.74198022819E+03  0.25500000920E-02 0. -1.
       -2    1    3    3    0  502 -0.21305835826E+02 -0.71690226823E+03 -0.10031449656E+04  0.12331677188E+04  0.25500000920E-02 0.  1.
</event>
<event>
 5   0  0.3404261E-04  0.1806994E+04  0.7818609E-02  0.8702589E-01
       -1   -1    0    0    0  501  0.00000000000E+00  0.00000000000E+00  0.50915325453E+03  0.50915325456E+03  0.50400001928E-02 0.  1.
        1   -1    0    0  501    0  0.00000000000E+00  0.00000000000E+00 -0.16032643323E+04  0.16032643323E+04  0.50400001928E-02 0. -1.
    10030    2    1    2    0    0  0.00000000000E+00  0.00000000000E+00 -0.10941110778E+04  0.21124175869E+04  0.18069944689E+04 0.  0.
        1    1    3    3  502    0  0.43940354155E+03 -0.69233404479E+03 -0.10358842188E+03  0.82651827752E+03  0.50400001928E-02 0.  1.
       -1    1    3    3    0  502 -0.43940354155E+03  0.69233404479E+03 -0.99052265590E+03  0.12858993093E+04  0.50400001928E-02 0. -1.
</event>
<event>
 5   0  0.3413839E-04  0.1783280E+04  0.7818609E-02  0.8715242E-01
       -1   -1    0    0    0  501  0.00000000000E+00  0.00000000000E+00  0.73183393923E+03  0.73183393925E+03  0.50400001928E-02 0. -1.
        1   -1    0    0  501    0  0.00000000000E+00  0.00000000000E+00 -0.10863423021E+04  0.10863423022E+04  0.50400001928E-02 0.  1.
    10030    2    1    2    0    0  0.00000000000E+00  0.00000000000E+00 -0.35450836291E+03  0.18181762414E+04  0.17832803104E+04 0.  0.
        5    1    3    3  502    0  0.45047739960E+03  0.67962784348E+03 -0.54511381242E+03  0.98081346426E+03  0.46999998093E+01 0.  1.
       -5    1    3    3    0  502 -0.45047739960E+03 -0.67962784348E+03  0.19060544950E+03  0.83736277715E+03  0.46999998093E+01 0. -1.
</event>
<event>
 5   0  0.3470962E-04  0.1802049E+04  0.7818609E-02  0.8705211E-01
       -1   -1    0    0    0  501  0.00000000000E+00  0.00000000000E+00  0.74713929565E+03  0.74713929566E+03  0.50400001928E-02 0.  1.
        1   -1    0    0  501    0  0.00000000000E+00  0.00000000000E+00 -0.10866043189E+04  0.10866043189E+04  0.50400001928E-02 0. -1.
    10030    2    1    2    0    0  0.00000000000E+00  0.00000000000E+00 -0.33946502321E+03  0.18337436145E+04  0.18020485959E+04 0.  0.
        4    1    3    3  502    0 -0.59357219686E+03 -0.67049547325E+03 -0.27124193314E+03  0.93566336453E+03  0.12699999809E+01 0.  1.
       -4    1    3    3    0  502  0.59357219686E+03  0.67049547325E+03 -0.68223090063E+02  0.89808025000E+03  0.12699999809E+01 0. -1.
</event>
<event>
 5   0  0.6771967E-04  0.1781902E+04  0.7818609E-02  0.8715983E-01
        2   -1    0    0  501    0  0.00000000000E+00  0.00000000000E+00  0.16595559520E+04  0.16595559520E+04  0.25500000920E-02 0. -1.
       -2   -1    0    0    0  501  0.00000000000E+00  0.00000000000E+00 -0.47831701740E+03  0.47831701741E+03  0.25500000920E-02 0.  1.
    10030    2    1    2    0    0  0.00000000000E+00  0.00000000000E+00  0.11812389346E+04  0.21378729694E+04  0.17819021895E+04 0.  0.
        1    1    3    3  502    0 -0.68295459236E+03 -0.17106410201E+03  0.12456807040E+04  0.14308774646E+04  0.50400001928E-02 0. -1.
       -1    1    3    3    0  502  0.68295459236E+03  0.17106410201E+03 -0.64441769411E+02  0.70699550486E+03  0.50400001928E-02 0.  1.
</event>
<event>
 5   0  0.3404261E-04  0.1796182E+04  0.7818609E-02  0.8708333E-01
        1   -1    0    0  501    0  0.00000000000E+00  0.00000000000E+00  0.22145109471E+04  0.22145109471E+04  0.50400001928E-02 0. -1.
       -1   -1    0    0    0  501  0.00000000000E+00  0.00000000000E+00 -0.36421902933E+03  0.36421902937E+03  0.50400001928E-02 0.  1.
    10030    2    1    2    0    0  0.00000000000E+00  0.00000000000E+00  0.18502919177E+04  0.25787299764E+04  0.17961815361E+04 0.  0.
        1    1    3    3  502    0  0.47418353816E+03  0.39797761347E+03  0.18592507172E+04  0.19596044086E+04  0.50400001928E-02 0. -1.
       -1    1    3    3    0  502 -0.47418353816E+03 -0.39797761347E+03 -0.89587994429E+01  0.61912556788E+03  0.50400001928E-02 0.  1.
</event>
<event>
 5   0  0.6929121E-04  0.1716330E+04  0.7818609E-02  0.8752105E-01
       -2   -1    0    0    0  501  0.00000000000E+00  0.00000000000E+00  0.95422103368E+03  0.95422103368E+03  0.25500000920E-02 0.  1.
        2   -1    0    0  501    0  0.00000000000E+00  0.00000000000E+00 -0.77177800177E+03  0.77177800178E+03  0.25500000920E-02 0. -1.
    10030    2    1    2    0    0  0.00000000000E+00  0.00000000000E+00  0.18244303191E+03  0.17259990355E+04  0.17163295751E+04 0.  0.
        3    1    3    3  502    0  0.75877479395E+02 -0.39051707127E+03  0.85589068456E+03  0.94382723470E+03  0.10100000352E+00 0.  1.
       -3    1    3    3    0  502 -0.75877479395E+02  0.39051707127E+03 -0.67344765266E+03  0.78217180076E+03  0.10100000352E+00 0. -1.
</event>
<event>
 5   0  0.6771967E-04  0.1845219E+04  0.7818609E-02  0.8682615E-01
        2   -1    0    0  501    0  0.00000000000E+00  0.00000000000E+00  0.71214584309E+03  0.71214584309E+03  0.25500000920E-02 0. -1.
       -2   -1    0    0    0  501  0.00000000000E+00  0.00000000000E+00 -0.11952726682E+04  0.11952726682E+04  0.25500000920E-02 0.  1.
    10030    2    1    2    0    0  0.00000000000E+00  0.00000000000E+00 -0.48312682511E+03  0.19074185113E+04  0.18452191870E+04 0.  0.
        1    1    3    3  502    0 -0.90505540853E+03  0.49648127271E+02 -0.63662734458E+02  0.90864909225E+03  0.50400001928E-02 0. -1.
       -1    1    3    3    0  502  0.90505540853E+03 -0.49648127271E+02 -0.41946409065E+03  0.99876941905E+03  0.50400001928E-02 0.  1.
</event>
<event>
 5   0  0.6771967E-04  0.1768065E+04  0.7818609E-02  0.8723469E-01
       -2   -1    0    0    0  501  0.00000000000E+00  0.00000000000E+00  0.44642866446E+03  0.44642866447E+03  0.25500000920E-02 0.  1.
        2   -1    0    0  501    0  0.00000000000E+00  0.00000000000E+00 -0.17505888657E+04  0.17505888657E+04  0.25500000920E-02 0. -1.
    10030    2    1    2    0    0  0.00000000000E+00  0.00000000000E+00 -0.13041602012E+04  0.21970175302E+04  0.17680645343E+04 0.  0.
        1    1    3    3  502    0 -0.39960731156E+03 -0.58192108325E+03 -0.13133490380E+04  0.14910411953E+04  0.50400001928E-02 0. -1.
       -1    1    3    3    0  502  0.39960731156E+03  0.58192108325E+03  0.91888367723E+01  0.70597633482E+03  0.50400001928E-02 0.  1.
</event>
<event>
 5   0  0.6547153E-04  0.1790764E+04  0.7818609E-02  0.8711227E-01
        2   -1    0    0  501    0  0.00000000000E+00  0.00000000000E+00  0.14471714446E+04  0.14471714446E+04  0.25500000920E-02 0.  1.
       -2   -1    0    0    0  501  0.00000000000E+00  0.00000000000E+00 -0.55398310941E+03  0.55398310942E+03  0.25500000920E-02 0. -1.
    10030    2    1    2    0    0  0.00000000000E+00  0.00000000000E+00  0.89318833514E+03  0.20011545540E+04  0.17907635653E+04 0.  0.
        5    1    3    3  502    0  0.39537294489E+03 -0.43042723405E+03  0.12045921733E+04  0.13388994598E+04  0.46999998093E+01 0.  1.
       -5    1    3    3    0  502 -0.39537294489E+03  0.43042723405E+03 -0.31140383818E+03  0.66225509420E+03  0.46999998093E+01 0. -1.
</event>
<event>
 5   0  0.3413839E-04  0.1654771E+04  0.7818609E-02  0.8787589E-01
       -1   -1    0    0    0  501  0.00000000000E+00  0.00000000000E+00  0.67975450588E+03  0.67975450590E+03  0.50400001928E-02 0. -1.
        1   -1    0    0  501    0  0.00000000000E+00  0.00000000000E+00 -0.10070793874E+04  0.10070793874E+04  0.50400001928E-02 0.  1.
    10030    2    1    2    0    0  0.00000000000E+00  0.00000000000E+00 -0.32732488153E+03  0.16868338933E+04  0.16547709828E+04 0.  0.
        5    1    3    3  502    0  0.17155059925E+03 -0.24499770929E+03  0.62270618367E+03  0.69082455576E+03  0.46999998093E+01 0. -1.
       -5    1    3    3    0  502 -0.17155059925E+03  0.24499770929E+03 -0.95003106520E+03  0.99600933756E+03  0.46999998093E+01 0.  1.
</event>
<event>
 5   0  0.6929121E-04  0.1711270E+04  0.7818609E-02  0.8754963E-01
        2   -1    0    0  501    0  0.00000000000E+00  0.00000000000E+00  0.86796988189E+03  0.86796988189E+03  0.25500000920E-02 0. -1.
       -2   -1    0    0    0  501  0.00000000000E+00  0.00000000000E+00 -0.84347494656E+03  0.84347494656E+03  0.25500000920E-02 0.  1.
    10030    2    1    2    0    0  0.00000000000E+00  0.00000000000E+00  0.24494935331E+02  0.17114448285E+04  0.17112695284E+04 0.  0.
        3    1    3    3  502    0 -0.19216322743E+03  0.59709590634E+03 -0.56975768659E+03  0.84739250585E+03  0.10100000352E+00 0.  1.
       -3    1    3    3    0  502  0.19216322743E+03 -0.59709590634E+03  0.59425262192E+03  0.86405232261E+03  0.10100000352E+00 0. -1.
</event>
<event>
 5   0  0.3377273E-04  0.1626972E+04  0.7818609E-02  0.8804147E-01
       -1   -1    0    0    0  501  0.00000000000E+00  0.00000000000E+00  0.16843983031E+04  0.16843983031E+04  0.50400001928E-02 0.  1.
        1   -1    0    0  501    0  0.00000000000E+00  0.00000000000E+00 -0.39287596264E+03  0.39287596267E+03  0.50400001928E-02 0. -1.
    10030    2    1    2    0    0  0.00000000000E+00  0.00000000000E+00  0.12915223404E+04  0.20772742658E+04  0.16269721631E+04 0.  0.
        2    1    3    3  502    0 -0.24437933443E+03 -0.12560717408E+03  0.16233568840E+04  0.16464464747E+04  0.25500000920E-02 0.  1.
       -2    1    3    3    0  502  0.24437933443E+03  0.12560717408E+03 -0.33183454353E+03  0.43082779107E+03  0.25500000920E-02 0. -1.
</event>
<event>
 5   0  0.3404261E-04  0.1719536E+04  0.7818609E-02  0.8750300E-01
       -1   -1    0    0    0  501  0.00000000000E+00  0.00000000000E+00  0.39767253180E+03  0.39767253184E+03  0.50400001928E-02 0.  1.
        1   -1    0    0  501    0  0.00000000000E+00  0.00000000000E+00 -0.18588192611E+04  0.18588192611E+04  0.50400001928E-02 0. -1.
    10030    2    1    2    0    0  0.00000000000E+00  0.00000000000E+00 -0.14611467293E+04  0.22564917930E+04  0.17195364047E+04 0.  0.
        1    1    3    3  502    0  0.23568743547E+03  0.93278129336E+02 -0.18086728109E+04  0.18263479169E+04  0.50400001928E-02 0. -1.
       -1    1    3    3    0  502 -0.23568743547E+03 -0.93278129336E+02  0.34752608162E+03  0.43014387603E+03  0.50400001928E-02 0.  1.
</event>
<event>
 5   0  0.3308275E-04  0.1798284E+04  0.7818609E-02  0.8707213E-01
       -1   -1    0    0    0  501  0.00000000000E+00  0.00000000000E+00  0.58109157796E+03  0.58109157799E+03  0.50400001928E-02 0.  1.
        1   -1    0    0  501    0  0.00000000000E+00  0.00000000000E+00 -0.13912719356E+04  0.13912719356E+04  0.50400001928E-02 0. -1.
    10030    2    1    2    0    0  0.00000000000E+00  0.00000000000E+00 -0.81018035767E+03  0.19723635136E+04  0.17982840760E+04 0.  0.
        3    1    3    3  502    0  0.63438448591E+03 -0.57972406697E+03 -0.69513751788E+03  0.11053234136E+04  0.10100000352E+00 0.  1.
       -3    1    3    3    0  502 -0.63438448591E+03  0.57972406697E+03 -0.11504283979E+03  0.86704009998E+03  0.10100000352E+00 0. -1.
</event>
<event>
 5   0  0.3308275E-04  0.1899975E+04  0.7818609E-02  0.8654869E-01
       -1   -1    0    0    0  501  0.00000000000E+00  0.00000000000E+00  0.90261674840E+03  0.90261674841E+03  0.50400001928E-02 0. -1.
        1   -1    0    0  501    0  0.00000000000E+00  0.00000000000E+00 -0.99984414400E+03  0.99984414401E+03  0.50400001928E-02 0.  1.
    10030    2    1    2    0    0  0.00000000000E+00  0.00000000000E+00 -0.97227395603E+02  0.19024608924E+04  0.18999748106E+04 0.  0.
        3    1    3    3  502    0  0.32877952805E+03  0.83246996630E+03  0.27019549636E+03  0.93493734512E+03  0.10100000352E+00 0. -1.
       -3    1    3    3    0  502 -0.32877952805E+03 -0.83246996630E+03 -0.36742289196E+03  0.96752354730E+03  0.10100000352E+00 0.  1.
</event>
<event>
 5   0  0.6853162E-04  0.1811595E+04  0.7818609E-02  0.8700158E-01
       -2   -1    0    0    0  501  0.00000000000E+00  0.00000000000E+00  0.41749544793E+03  0.41749544794E+03  0.25500000920E-02 0.  1.
        2   -1    0    0  501    0  0.00000000000E+00  0.00000000000E+00 -0.19652170091E+04  0.19652170091E+04  0.25500000920E-02 0. -1.
    10030    2    1    2    0    0  0.00000000000E+00  0.00000000000E+00 -0.15477215612E+04  0.23827124571E+04  0.18115950491E+04 0.  0.
        2    1    3    3  502    0 -0.23855198013E+03 -0.45119201401E+03 -0.17580980859E+04  0.18306802452E+04  0.25500000920E-02 0. -1.
       -2    1    3    3    0  502  0.23855198013E+03  0.45119201401E+03  0.21037652470E+03  0.55203221182E+03  0.25500000920E-02 0.  1.
</event>
<event>
 5   0  0.3413839E-04  0.1816366E+04  0.7818609E-02  0.8697644E-01
        1   -1    0    0  501    0  0.00000000000E+00  0.00000000000E+00  0.18857027869E+04  0.18857027869E+04  0.50400001928E-02 0.  1.
       -1   -1    0    0    0  501  0.00000000000E+00  0.00000000000E+00 -0.43739490047E+03  0.43739490049E+03  0.50400001928E-02 0. -1.
    10030    2    1    2    0    0  0.00000000000E+00  0.00000000000E+00  0.14483078864E+04  0.23230976874E+04  0.18163664639E+04 0.  0.
        5    1    3    3  502    0  0.88248347804E+03 -0.36624955943E+02  0.45387951354E+03  0.99304943443E+03  0.46999998093E+01 0.  1.
       -5    1    3    3    0  502 -0.88248347804E+03  0.36624955943E+02  0.99442837289E+03  0.13300482530E+04  0.46999998093E+01 0. -1.
</event>
<event>
 5   0  0.6547153E-04  0.1296757E+04  0.7818609E-02  0.9032141E-01
        2   -1    0    0  501    0  0.00000000000E+00  0.00000000000E+00  0.52365631329E+03  0.52365631330E+03  0.25500000920E-02 0.  1.
       -2   -1    0    0    0  501  0.00000000000E+00  0.00000000000E+00 -0.80280585882E+03  0.80280585882E+03  0.25500000920E-02 0. -1.
    10030    2    1    2    0    0  0.00000000000E+00  0.00000000000E+00 -0.27914954553E+03  0.13264621721E+04  0.12967565019E+04 0.  0.
        5    1    3    3  502    0 -0.37983888766E+03 -0.52514107961E+03 -0.12123268748E+03  0.65937105531E+03  0.46999998093E+01 0. -1.
       -5    1    3    3    0  502  0.37983888766E+03  0.52514107961E+03 -0.15791685805E+03  0.66709111681E+03  0.46999998093E+01 0.  1.
</event>
<event>
 5   0  0.3377273E-04  0.1806347E+04  0.7818609E-02  0.8702931E-01
       -1   -1    0    0    0  501  0.00000000000E+00  0.00000000000E+00  0.81232160064E+03  0.81232160066E+03  0.50400001928E-02 0. -1.
        1   -1    0    0  501    0  0.00000000000E+00  0.00000000000E+00 -0.10041864880E+04  0.10041864880E+04  0.50400001928E-02 0.  1.
    10030    2    1    2    0    0  0.00000000000E+00  0.00000000000E+00 -0.19186488733E+03  0.18165080886E+04  0.18063470046E+04 0.  0.
        2    1    3    3  502    0 -0.17361249591E+03 -0.82827873361E+03  0.22133460650E+03  0.87474337227E+03  0.25500000920E-02 0.  1.
       -2    1    3    3    0  502  0.17361249591E+03  0.82827873361E+03 -0.41319949383E+03  0.94176471637E+03  0.25500000920E-02 0. -1.
</event>
<event>
 5   0  0.2467375E-04  0.1978668E+04  0.7818609E-02  0.8616660E-01
       -4   -1    0    0    0  501  0.00000000000E+00  0.00000000000E+00  0.69482210433E+03  0.69482326498E+03  0.12699999809E+01 0. -1.
        4   -1    0    0  501    0  0.00000000000E+00  0.00000000000E+00 -0.14086768059E+04  0.14086773783E+04  0.12699999809E+01 0.  1.
    10030    2    1    2    0    0  0.00000000000E+00  0.00000000000E+00 -0.71385470153E+03  0.21035006433E+04  0.19786678401E+04 0.  0.
        1    1    3    3  502    0 -0.82717601681E+02 -0.32483741067E+03 -0.13464688301E+04  0.13875661626E+04  0.50400001928E-02 0.  1.
       -1    1    3    3    0  502  0.82717601681E+02  0.32483741067E+03  0.63261412860E+03  0.71593448075E+03  0.50400001928E-02 0. -1.
</event>
<event>
 5   0  0.3404261E-04  0.1752844E+04  0.7818609E-02  0.8731787E-01
        1   -1    0    0  501    0  0.00000000000E+00  0.00000000000E+00  0.99992329246E+03  0.99992329247E+03  0.50400001928E-02 0. -1.
       -1   -1    0    0    0  501  0.00000000000E+00  0.00000000000E+00 -0.76817407636E+03  0.76817407637E+03  0.50400001928E-02 0.  1.
    10030    2    1    2    0    0  0.00000000000E+00  0.00000000000E+00  0.23174921610E+03  0.17680973688E+04  0.17528435773E+04 0.  0.
        1    1    3    3  502    0  0.13897971213E+03  0.11332166299E+03 -0.74947087104E+03  0.77062555515E+03  0.50400001928E-02 0.  1.
       -1    1    3    3    0  502 -0.13897971213E+03 -0.11332166299E+03  0.98122008714E+03  0.99747181370E+03  0.50400001928E-02 0. -1.
</event>
<event>
 5   0  0.3377273E-04  0.1617490E+04  0.7818609E-02  0.8809874E-01
       -1   -1    0    0    0  501  0.00000000000E+00  0.00000000000E+00  0.47915046386E+03  0.47915046389E+03  0.50400001928E-02 0. -1.
        1   -1    0    0  501    0  0.00000000000E+00  0.00000000000E+00 -0.13650593548E+04  0.13650593548E+04  0.50400001928E-02 0.  1.
    10030    2    1    2    0    0  0.00000000000E+00  0.00000000000E+00 -0.88590889092E+03  0.18442098187E+04  0.16174904304E+04 0.  0.
        2    1    3    3  502    0 -0.31246741420E+03 -0.56502401854E+03 -0.99822976623E+03  0.11888442676E+04  0.25500000920E-02 0.  1.
       -2    1    3    3    0  502  0.31246741420E+03  0.56502401854E+03  0.11232087531E+03  0.65536555105E+03  0.25500000920E-02 0. -1.
</event>
<event>
 5   0  0.6771967E-04  0.1751312E+04  0.7818609E-02  0.8732628E-01
       -2   -1    0    0    0  501  0.00000000000E+00  0.00000000000E+00  0.90302696497E+03  0.90302696498E+03  0.25500000920E-02 0. -1.
        2   -1    0    0  501    0  0.00000000000E+00  0.00000000000E+00 -0.84911464235E+03  0.84911464236E+03  0.25500000920E-02 0.  1.
    10030    2    1    2    0    0  0.00000000000E+00  0.00000000000E+00  0.53912322619E+02  0.17521416073E+04  0.17513119864E+04 0.  0.
        1    1    3    3  502    0  0.55973863742E+03 -0.67213998895E+03  0.68132813021E+02  0.87733778399E+03  0.50400001928E-02 0. -1.
       -1    1    3    3    0  502 -0.55973863742E+03  0.67213998895E+03 -0.14220490402E+02  0.87480382335E+03  0.50400001928E-02 0.  1.
</event>
<event>
 5   0  0.6771967E-04  0.1841934E+04  0.7818609E-02  0.8684312E-01
        2   -1    0    0  501    0  0.00000000000E+00  0.00000000000E+00  0.14059384454E+04  0.14059384454E+04  0.25500000920E-02 0.  1.
       -2   -1    0    0    0  501  0.00000000000E+00  0.00000000000E+00 -0.60328413198E+03  0.60328413199E+03  0.25500000920E-02 0. -1.
    10030    2    1    2    0    0  0.00000000000E+00  0.00000000000E+00  0.80265431346E+03  0.20092225774E+04  0.18419341516E+04 0.  0.
        1    1    3    3  502    0  0.74645673799E+03  0.47031981624E+01 -0.18707061711E+03  0.76955519463E+03  0.50400001928E-02 0. -1.
       -1    1    3    3    0  502 -0.74645673799E+03 -0.47031981624E+01  0.98972493057E+03  0.12396673828E+04  0.50400001928E-02 0.  1.
</event>
<event>
 5   0  0.2467375E-04  0.1822876E+04  0.7818609E-02  0.8694228E-01
       -3   -1    0    0    0  501  0.00000000000E+00  0.00000000000E+00  0.11285522906E+04  0.11285522951E+04  0.10100000352E+00 0. -1.
        3   -1    0    0  501    0  0.00000000000E+00  0.00000000000E+00 -0.73609306362E+03  0.73609307055E+03  0.10100000352E+00 0.  1.
    10030    2    1    2    0    0  0.00000000000E+00  0.00000000000E+00  0.39245922695E+03  0.18646453656E+04  0.18228763246E+04 0.  0.
        4    1    3    3  502    0  0.42200252071E+03  0.80433098671E+03  0.11911353194E+03  0.91609175853E+03  0.12699999809E+01 0. -1.
       -4    1    3    3    0  502 -0.42200252071E+03 -0.80433098671E+03  0.27334569501E+03  0.94855360710E+03  0.12699999809E+01 0.  1.
</event>
<event>
 5   0  0.3470962E-04  0.1349177E+04  0.7818609E-02  0.8991451E-01
       -1   -1    0    0    0  501  0.00000000000E+00  0.00000000000E+00  0.39924499984E+03  0.39924499987E+03  0.50400001928E-02 0. -1.
        1   -1    0    0  501    0  0.00000000000E+00  0.00000000000E+00 -0.11398262573E+04  0.11398262573E+04  0.50400001928E-02 0.  1.
    10030    2    1    2    0    0  0.00000000000E+00  0.00000000000E+00 -0.74058125743E+03  0.15390712572E+04  0.13491774293E+04 0.  0.
        4    1    3    3  502    0  0.59771755659E+03 -0.19163328474E+03 -0.65221631844E+03  0.90519463775E+03  0.12699999809E+01 0.  1.
       -4    1    3    3    0  502 -0.59771755659E+03  0.19163328474E+03 -0.88364938992E+02  0.63387661940E+03  0.12699999809E+01 0. -1.
</event>
<event>
 5   0  0.6547153E-04  0.1828515E+04  0.7818609E-02  0.8691281E-01
        2   -1    0    0  501    0  0.00000000000E+00  0.00000000000E+00  0.88737165298E+03  0.88737165299E+03  0.25500000920E-02 0. -1.
       -2   -1    0    0    0  501  0.00000000000E+00  0.00000000000E+00 -0.94195773287E+03  0.94195773287E+03  0.25500000920E-02 0.  1.
    10030    2    1    2    0    0  0.00000000000E+00  0.00000000000E+00 -0.54586079886E+02  0.18293293859E+04  0.18285147967E+04 0.  0.
        5    1    3    3  502    0 -0.18372925067E+03 -0.31578574202E+03 -0.86574003642E+03  0.93968344302E+03  0.46999998093E+01 0.  1.
       -5    1    3    3    0  502  0.18372925067E+03  0.31578574202E+03  0.81115395654E+03  0.88964594284E+03  0.46999998093E+01 0. -1.
</event>
<event>
 5   0  0.3413839E-04  0.1614815E+04  0.7818609E-02  0.8811498E-01
        1   -1    0    0  501    0  0.00000000000E+00  0.00000000000E+00  0.24899872529E+04  0.24899872530E+04  0.50400001928E-02 0. -1.
       -1   -1    0    0    0  501  0.00000000000E+00  0.00000000000E+00 -0.26181126402E+03  0.26181126407E+03  0.50400001928E-02 0.  1.
    10030    2    1    2    0    0  0.00000000000E+00  0.00000000000E+00  0.22281759889E+04  0.27517985170E+04  0.16148148007E+04 0.  0.
        5    1    3    3  502    0 -0.74274685247E+02 -0.17129196597E+02 -0.25564275337E+03  0.26680600741E+03  0.46999998093E+01 0.  1.
       -5    1    3    3    0  502  0.74274685247E+02  0.17129196597E+02  0.24838187423E+04  0.24849925096E+04  0.46999998093E+01 0. -1.
</event>
<event>
 5   0  0.3377273E-04  0.1709185E+04  0.7818609E-02  0.8756143E-01
       -1   -1    0    0    0  501  0.00000000000E+00  0.00000000000E+00  0.41111058356E+03  0.41111058359E+03  0.50400001928E-02 0.  1.
        1   -1    0    0  501    0  0.00000000000E+00  0.00000000000E+00 -0.17764769164E+04  0.17764769164E+04  0.50400001928E-02 0. -1.
    10030    2    1    2    0    0  0.00000000000E+00  0.00000000000E+00 -0.13653663329E+04  0.21875875000E+04  0.17091851413E+04 0.  0.
        2    1    3    3  502    0 -0.75773539689E+03  0.29211706817E+03 -0.34204398690E+03  0.88118636065E+03  0.25500000920E-02 0.  1.
       -2    1    3    3    0  502  0.75773539689E+03 -0.29211706817E+03 -0.10233223460E+04  0.13064011394E+04  0.25500000920E-02 0. -1.
</event>
<event>
 5   0  0.6547153E-04  0.1516055E+04  0.7818609E-02  0.8873846E-01
       -2   -1    0    0    0  501  0.00000000000E+00  0.00000000000E+00  0.32319027503E+03  0.32319027504E+03  0.25500000920E-02 0.  1.
        2   -1    0    0  501    0  0.00000000000E+00  0.00000000000E+00 -0.17779187447E+04  0.17779187447E+04  0.25500000920E-02 0. -1.
    10030    2    1    2    0    0  0.00000000000E+00  0.00000000000E+00 -0.14547284697E+04  0.21011090198E+04  0.15160554714E+04 0.  0.
        5    1    3    3  502    0  0.24535226628E+03 -0.43364834103E+03  0.64344704586E+02  0.50240516444E+03  0.46999998093E+01 0.  1.
       -5    1    3    3    0  502 -0.24535226628E+03  0.43364834103E+03 -0.15190731743E+04  0.15987038553E+04  0.46999998093E+01 0. -1.
</event>
<event>
 5   0  0.6771967E-04  0.1786310E+04  0.7818609E-02  0.8713614E-01
       -2   -1    0    0    0  501  0.00000000000E+00  0.00000000000E+00  0.81284109327E+03  0.81284109328E+03  0.25500000920E-02 0.  1.
        2   -1    0    0  501    0  0.00000000000E+00  0.00000000000E+00 -0.98140434629E+03  0.98140434629E+03  0.25500000920E-02 0. -1.
    10030    2    1    2    0    0  0.00000000000E+00  0.00000000000E+00 -0.16856325301E+03  0.17942454396E+04  0.17863099191E+04 0.  0.
        1    1    3    3  502    0 -0.55601508604E+03  0.14767954508E+03  0.60195454353E+03  0.83265316696E+03  0.50400001928E-02 0.  1.
       -1    1    3    3    0  502  0.55601508604E+03 -0.14767954508E+03 -0.77051779654E+03  0.96159227262E+03  0.50400001928E-02 0. -1.
</event>
<event>
 5   0  0.3377273E-04  0.1840212E+04  0.7818609E-02  0.8685203E-01
       -1   -1    0    0    0  501  0.00000000000E+00  0.00000000000E+00  0.70972560872E+03  0.70972560874E+03  0.50400001928E-02 0. -1.
        1   -1    0    0  501    0  0.00000000000E+00  0.00000000000E+00 -0.11928479951E+04  0.11928479951E+04  0.50400001928E-02 0.  1.
    10030    2    1    2    0    0  0.00000000000E+00  0.00000000000E+00 -0.48312238640E+03  0.19025736039E+04  0.18402116938E+04 0.  0.
        2    1    3    3  502    0 -0.84157867266E+03 -0.36186932870E+03 -0.33044371225E+03  0.97385682741E+03  0.25500000920E-02 0. -1.
       -2    1    3    3    0  502  0.84157867266E+03  0.36186932870E+03 -0.15267867415E+03  0.92871677645E+03  0.25500000920E-02 0.  1.
</event>
<event>
 5   0  0.3413839E-04  0.1774427E+04  0.7818609E-02  0.8720018E-01
        1   -1    0    0  501    0  0.00000000000E+00  0.00000000000E+00  0.24216399355E+04  0.24216399355E+04  0.50400001928E-02 0.  1.
       -1   -1    0    0    0  501  0.00000000000E+00  0.00000000000E+00 -0.32504756288E+03  0.32504756291E+03  0.50400001928E-02 0. -1.
    10030    2    1    2    0    0  0.00000000000E+00  0.00000000000E+00  0.20965923726E+04  0.27466874984E+04  0.17744274110E+04 0.  0.
        5    1    3    3  502    0 -0.48159538902E+03 -0.23059977366E+02 -0.10453179826E+03  0.49337092347E+03  0.46999998093E+01 0. -1.
       -5    1    3    3    0  502  0.48159538902E+03  0.23059977366E+02  0.22011241709E+04  0.22533165749E+04  0.46999998093E+01 0.  1.
</event>
<event>
 5   0  0.3308275E-04  0.1781228E+04  0.7818609E-02  0.8716346E-01
        1   -1    0    0  501    0  0.00000000000E+00  0.00000000000E+00  0.14476501331E+04  0.14476501332E+04  0.50400001928E-02 0. -1.
       -1   -1    0    0    0  501  0.00000000000E+00  0.00000000000E+00 -0.54791776179E+03  0.54791776182E+03  0.50400001928E-02 0.  1.
    10030    2    1    2    0    0  0.00000000000E+00  0.00000000000E+00  0.89973237135E+03  0.19955678950E+04  0.17812279145E+04 0.  0.
        3    1    3    3  502    0 -0.50776234627E+03  0.87570976987E+01 -0.36981161361E+03  0.62821964854E+03  0.10100000352E+00 0.  1.
       -3    1    3    3    0  502  0.50776234627E+03 -0.87570976987E+01  0.12695439850E+04  0.13673482464E+04  0.10100000352E+00 0. -1.
</event>
<event>
 5   0  0.3308275E-04  0.1756981E+04  0.7818609E-02  0.8729517E-01
        1   -1    0    0  501    0  0.00000000000E+00  0.00000000000E+00  0.21980460241E+04  0.21980460241E+04  0.50400001928E-02 0.  1.
       -1   -1    0    0    0  501  0.00000000000E+00  0.00000000000E+00 -0.35110515402E+03  0.35110515406E+03  0.50400001928E-02 0. -1.
    10030    2    1    2    0    0  0.00000000000E+00  0.00000000000E+00  0.18469408701E+04  0.25491511782E+04  0.17569806919E+04 0.  0.
        3    1    3    3  502    0 -0.84420950739E+03  0.14787103460E+03  0.12032655893E+04  0.14772960515E+04  0.10100000352E+00 0.  1.
       -3    1    3    3    0  502  0.84420950739E+03 -0.14787103460E+03  0.64367528082E+03  0.10718551267E+04  0.10100000352E+00 0. -1.
</event>
<event>
 5   0  0.3413839E-04  0.1821583E+04  0.7818609E-02  0.8694905E-01
       -1   -1    0    0    0  501  0.00000000000E+00  0.00000000000E+00  0.37218731234E+03  0.37218731238E+03  0.50400001928E-02 0.  1.
        1   -1    0    0  501    0  0.00000000000E+00  0.00000000000E+00 -0.22288267550E+04  0.22288267550E+04  0.50400001928E-02 0. -1.
    10030    2    1    2    0    0  0.00000000000E+00  0.00000000000E+00 -0.18566394427E+04  0.26010140674E+04  0.18215828718E+04 0.  0.
        5    1    3    3  502    0  0.83763767046E+03  0.15949839709E+03 -0.47130149481E+03  0.97428116817E+03  0.46999998093E+01 0.  1.
       -5    1    3    3    0  502 -0.83763767046E+03 -0.15949839709E+03 -0.13853379479E+04  0.16267328992E+04  0.46999998093E+01 0. -1.
</event>
<event>
 5   0  0.3470962E-04  0.2118227E+04  0.7818609E-02  0.8553257E-01
        1   -1    0    0  501    0  0.00000000000E+00  0.00000000000E+00  0.16259792345E+04  0.16259792345E+04  0.50400001928E-02 0.  1.
       -1   -1    0    0    0  501  0.00000000000E+00  0.00000000000E+00 -0.68987412465E+03  0.68987412467E+03  0.50400001928E-02 0. -1.
    10030    2    1    2    0    0  0.00000000000E+00  0.00000000000E+00  0.93610510983E+03  0.23158533592E+04  0.21182266178E+04 0.  0.
        4    1    3    3  502    0  0.44977767190E+03  0.54077930853E+03  0.13337467392E+04  0.15078541680E+04  0.12699999809E+01 0.  1.
       -4    1    3    3    0  502 -0.44977767190E+03 -0.54077930853E+03 -0.39764162936E+03  0.80799919119E+03  0.12699999809E+01 0. -1.
</event>
<event>
 5   0  0.3413839E-04  0.1419335E+04  0.7818609E-02  0.8939941E-01
       -1   -1    0    0    0  501  0.00000000000E+00  0.00000000000E+00  0.31493527343E+03  0.31493527347E+03  0.50400001928E-02 0.  1.
        1   -1    0    0  501    0  0.00000000000E+00  0.00000000000E+00 -0.15991471283E+04  0.15991471283E+04  0.50400001928E-02 0. -1.
    10030    2    1    2    0    0  0.00000000000E+00  0.00000000000E+00 -0.12842118549E+04  0.19140824018E+04  0.14193348275E+04 0.  0.
        5    1    3    3  502    0  0.27933477278E+03 -0.64670750930E+03 -0.75770054089E+03  0.10345968865E+04  0.46999998093E+01 0.  1.
       -5    1    3    3    0  502 -0.27933477278E+03  0.64670750930E+03 -0.52651131402E+03  0.87948551532E+03  0.46999998093E+01 0. -1.
</event>
<event>
 5   0  0.6774451E-04  0.1831469E+04  0.7818609E-02  0.8689741E-01
       -2   -1    0    0    0  501  0.00000000000E+00  0.00000000000E+00  0.91702970881E+03  0.91702970881E+03  0.25500000920E-02 0. -1.
        2   -1    0    0  501    0  0.00000000000E+00  0.00000000000E+00 -0.91444105145E+03  0.91444105146E+03  0.25500000920E-02 0.  1.
    10030    2    1    2    0    0  0.00000000000E+00  0.00000000000E+00  0.25886573505E+01  0.18314707603E+04  0.18314689308E+04 0.  0.
        4    1    3    3  502    0  0.31427013545E+03 -0.81743773656E+03 -0.26628364146E+03  0.91535717716E+03  0.12699999809E+01 0.  1.
       -4    1    3    3    0  502 -0.31427013545E+03  0.81743773656E+03  0.26887229881E+03  0.91611358310E+03  0.12699999809E+01 0. -1.
</event>
<event>
 5   0  0.3413839E-04  0.1039973E+04  0.7818609E-02  0.9265758E-01
       -1   -1    0    0    0  501  0.00000000000E+00  0.00000000000E+00  0.74480835444E+03  0.74480835446E+03  0.50400001928E-02 0.  1.
        1   -1    0    0  501    0  0.00000000000E+00  0.00000000000E+00 -0.36302725063E+03  0.36302725066E+03  0.50400001928E-02 0. -1.
    10030    2    1    2    0    0  0.00000000000E+00  0.00000000000E+00  0.38178110381E+03  0.11078356051E+04  0.10399725558E+04 0.  0.
        5    1    3    3  502    0 -0.18038044268E+03 -0.24509864908E+03  0.64001028657E+03  0.70869295805E+03  0.46999998093E+01 0.  1.
       -5    1    3    3    0  502  0.18038044268E+03  0.24509864908E+03 -0.25822918276E+03  0.39914264707E+03  0.46999998093E+01 0. -1.
</event>
<event>
 5   0  0.6929121E-04  0.1739368E+04  0.7818609E-02  0.8739224E-01
       -2   -1    0    0    0  501  0.00000000000E+00  0.00000000000E+00  0.84396985180E+03  0.84396985180E+03  0.25500000920E-02 0. -1.
        2   -1    0    0  501    0  0.00000000000E+00  0.00000000000E+00 -0.89618157417E+03  0.89618157417E+03  0.25500000920E-02 0.  1.
    10030    2    1    2    0    0  0.00000000000E+00  0.00000000000E+00 -0.52211722368E+02  0.17401514260E+04  0.17393679661E+04 0.  0.
        3    1    3    3  502    0 -0.35992737150E+03 -0.34148561697E+03 -0.74070350463E+03  0.89151659061E+03  0.10100000352E+00 0.  1.
       -3    1    3    3    0  502  0.35992737150E+03  0.34148561697E+03  0.68849178226E+03  0.84863483537E+03  0.10100000352E+00 0. -1.
</event>
<event>
 5   0  0.6929121E-04  0.1982173E+04  0.7818609E-02  0.8615001E-01
       -2   -1    0    0    0  501  0.00000000000E+00  0.00000000000E+00  0.62696487412E+03  0.62696487412E+03  0.25500000920E-02 0. -1.
        2   -1    0    0  501    0  0.00000000000E+00  0.00000000000E+00 -0.15666779347E+04  0.15666779347E+04  0.25500000920E-02 0.  1.
    10030    2    1    2    0    0  0.00000000000E+00  0.00000000000E+00 -0.93971306057E+03  0.21936428088E+04  0.19821725799E+04 0.  0.
        3    1    3    3  502    0  0.42620219001E+02  0.42940745929E+03  0.51754363745E+03  0.67383876115E+03  0.10100000352E+00 0. -1.
       -3    1    3    3    0  502 -0.42620219001E+02 -0.42940745929E+03 -0.14572566980E+04  0.15198040477E+04  0.10100000352E+00 0.  1.
</event>
<event>
 5   0  0.2467375E-04  0.1860559E+04  0.7818609E-02  0.8674742E-01
        4   -1    0    0  501    0  0.00000000000E+00  0.00000000000E+00  0.17025205322E+04  0.17025210058E+04  0.12699999809E+01 0.  1.
       -4   -1    0    0    0  501  0.00000000000E+00  0.00000000000E+00 -0.50831548327E+03  0.50831706979E+03  0.12699999809E+01 0. -1.
    10030    2    1    2    0    0  0.00000000000E+00  0.00000000000E+00  0.11942050489E+04  0.22108380756E+04  0.18605588671E+04 0.  0.
        3    1    3    3  502    0 -0.86506872657E+03 -0.15987434163E+02  0.10032396640E+04  0.13247978462E+04  0.10100000352E+00 0.  1.
       -3    1    3    3    0  502  0.86506872657E+03  0.15987434163E+02  0.19096538493E+03  0.88604022944E+03  0.10100000352E+00 0. -1.
</event>
<event>
 5   0  0.6547153E-04  0.1785594E+04  0.7818609E-02  0.8713998E-01
       -2   -1    0    0    0  501  0.00000000000E+00  0.00000000000E+00  0.13440157825E+04  0.13440157825E+04  0.25500000920E-02 0.  1.
        2   -1    0    0  501    0  0.00000000000E+00  0.00000000000E+00 -0.59306327944E+03  0.59306327945E+03  0.25500000920E-02 0. -1.
    10030    2    1    2    0    0  0.00000000000E+00  0.00000000000E+00  0.75095250309E+03  0.19370790620E+04  0.17855939153E+04 0.  0.
        5    1    3    3  502    0 -0.83082953326E+03  0.28857661281E+03  0.20913794215E+03  0.90405472381E+03  0.46999998093E+01 0.  1.
       -5    1    3    3    0  502  0.83082953326E+03 -0.28857661281E+03  0.54181456094E+03  0.10330243382E+04  0.46999998093E+01 0. -1.
</event>
<event>
 5   0  0.3413839E-04  0.1581956E+04  0.7818609E-02  0.8831711E-01
       -1   -1    0    0    0  501  0.00000000000E+00  0.00000000000E+00  0.46234685250E+03  0.46234685253E+03  0.50400001928E-02 0.  1.
        1   -1    0    0  501    0  0.00000000000E+00  0.00000000000E+00 -0.13531962122E+04  0.13531962123E+04  0.50400001928E-02 0. -1.
    10030    2    1    2    0    0  0.00000000000E+00  0.00000000000E+00 -0.89084935974E+03  0.18155430648E+04  0.15819557637E+04 0.  0.
        5    1    3    3  502    0 -0.26396552134E+03 -0.16863146889E+03 -0.12789664795E+04  0.13167732206E+04  0.46999998093E+01 0. -1.
       -5    1    3    3    0  502  0.26396552134E+03  0.16863146889E+03  0.38811711980E+03  0.49876984416E+03  0.46999998093E+01 0.  1.
</event>
<event>
 5   0  0.3377273E-04  0.1778779E+04  0.7818609E-02  0.8717667E-01
       -1   -1    0    0    0  501  0.00000000000E+00  0.00000000000E+00  0.82077851936E+03  0.82077851938E+03  0.50400001928E-02 0. -1.
        1   -1    0    0  501    0  0.00000000000E+00  0.00000000000E+00 -0.96373549118E+03  0.96373549120E+03  0.50400001928E-02 0.  1.
    10030    2    1    2    0    0  0.00000000000E+00  0.00000000000E+00 -0.14295697182E+03  0.17845140106E+04  0.17787786704E+04 0.  0.
        2    1    3    3  502    0 -0.16909103867E+02  0.60528751764E+02  0.81854814573E+03  0.82095719405E+03  0.25500000920E-02 0. -1.
       -2    1    3    3    0  502  0.16909103867E+02 -0.60528751764E+02 -0.96150511755E+03  0.96355681652E+03  0.25500000920E-02 0.  1.
</event>
<event>
 5   0  0.6547153E-04  0.1718638E+04  0.7818609E-02  0.8750805E-01
        2   -1    0    0  501    0  0.00000000000E+00  0.00000000000E+00  0.12318247276E+04  0.12318247276E+04  0.25500000920E-02 0. -1.
       -2   -1    0    0    0  501  0.00000000000E+00  0.00000000000E+00 -0.59945950540E+03  0.59945950540E+03  0.25500000920E-02 0.  1.
    10030    2    1    2    0    0  0.00000000000E+00  0.00000000000E+00  0.63236522217E+03  0.18312842330E+04  0.17186378815E+04 0.  0.
        5    1    3    3  502    0  0.25848283712E+03  0.31412629691E+03  0.11227073669E+04  0.11941451458E+04  0.46999998093E+01 0. -1.
       -5    1    3    3    0  502 -0.25848283712E+03 -0.31412629691E+03 -0.49034214475E+03  0.63713908718E+03  0.46999998093E+01 0.  1.
</event>
<event>
 5   0  0.6771967E-04  0.2034903E+04  0.7818609E-02  0.8590474E-01
       -2   -1    0    0    0  501  0.00000000000E+00  0.00000000000E+00  0.56946105049E+03  0.56946105050E+03  0.25500000920E-02 0.  1.
        2   -1    0    0  501    0  0.00000000000E+00  0.00000000000E+00 -0.18178727677E+04  0.18178727677E+04  0.25500000920E-02 0. -1.
    10030    2    1    2    0    0  0.00000000000E+00  0.00000000000E+00 -0.12484117172E+04  0.23873338182E+04  0.20349031780E+04 0.  0.
        1    1    3    3  502    0 -0.95280126178E+03  0.32120019455E+03 -0.44166999860E+03  0.10982131838E+04  0.50400001928E-02 0. -1.
       -1    1    3    3    0  502  0.95280126178E+03 -0.32120019455E+03 -0.80674171861E+03  0.12891206344E+04  0.50400001928E-02 0.  1.
</event>
<event>
 5   0  0.3377273E-04  0.1766605E+04  0.7818609E-02  0.8724263E-01
        1   -1    0    0  501    0  0.00000000000E+00  0.00000000000E+00  0.70549125885E+03  0.70549125887E+03  0.50400001928E-02 0.  1.
       -1   -1    0    0    0  501  0.00000000000E+00  0.00000000000E+00 -0.11059286550E+04  0.11059286551E+04  0.50400001928E-02 0. -1.
    10030    2    1    2    0    0  0.00000000000E+00  0.00000000000E+00 -0.40043739620E+03  0.18114199139E+04  0.17666046519E+04 0.  0.
        2    1    3    3  502    0  0.10780115899E+03  0.75309300731E+03  0.26000232775E+03  0.80397224951E+03  0.25500000920E-02 0.  1.
       -2    1    3    3    0  502 -0.10780115899E+03 -0.75309300731E+03 -0.66043972395E+03  0.10074476644E+04  0.25500000920E-02 0. -1.
</event>
<event>
 5   0  0.6771967E-04  0.1811744E+04  0.7818609E-02  0.8700079E-01
        2   -1    0    0  501    0  0.00000000000E+00  0.00000000000E+00  0.97992726282E+03  0.97992726282E+03  0.25500000920E-02 0. -1.
       -2   -1    0    0    0  501  0.00000000000E+00  0.00000000000E+00 -0.83741284162E+03  0.83741284162E+03  0.25500000920E-02 0.  1.
    10030    2    1    2    0    0  0.00000000000E+00  0.00000000000E+00  0.14251442119E+03  0.18173401044E+04  0.18117435511E+04 0.  0.
        1    1    3    3  502    0 -0.10964648143E+03  0.95527433119E+02 -0.82562771370E+03  0.83833702234E+03  0.50400001928E-02 0.  1.
       -1    1    3    3    0  502  0.10964648143E+03 -0.95527433119E+02  0.96814213490E+03  0.97900308210E+03  0.50400001928E-02 0. -1.
</event>
<event>
 5   0  0.3470962E-04  0.1793276E+04  0.7818609E-02  0.8709883E-01
       -1   -1    0    0    0  501  0.00000000000E+00  0.00000000000E+00  0.98261272679E+03  0.98261272681E+03  0.50400001928E-02 0. -1.
        1   -1    0    0  501    0  0.00000000000E+00  0.00000000000E+00 -0.81818581260E+03  0.81818581261E+03  0.50400001928E-02 0.  1.
    10030    2    1    2    0    0  0.00000000000E+00  0.00000000000E+00  0.16442691420E+03  0.18007985394E+04  0.17932760996E+04 0.  0.
        4    1    3    3  502    0  0.60581972599E+03  0.62307670558E+03 -0.13942955267E+03  0.88016153886E+03  0.12699999809E+01 0. -1.
       -4    1    3    3    0  502 -0.60581972599E+03 -0.62307670558E+03  0.30385646687E+03  0.92063700056E+03  0.12699999809E+01 0.  1.
</event>
<event>
 5   0  0.6929121E-04  0.1927470E+04  0.7818609E-02  0.8641303E-01
       -2   -1    0    0    0  501  0.00000000000E+00  0.00000000000E+00  0.82850305047E+03  0.82850305047E+03  0.25500000920E-02 0.  1.
        2   -1    0    0  501    0  0.00000000000E+00  0.00000000000E+00 -0.11210395774E+04  0.11210395775E+04  0.25500000920E-02 0. -1.
    10030    2    1    2    0    0  0.00000000000E+00  0.00000000000E+00 -0.29253652698E+03  0.19495426279E+04  0.19274695428E+04 0.  0.
        3    1    3    3  502    0  0.57284097735E+03  0.72403581667E+03 -0.42585750391E+03  0.10167247774E+04  0.10100000352E+00 0. -1.
       -3    1    3    3    0  502 -0.57284097735E+03 -0.72403581667E+03  0.13332097693E+03  0.93281785052E+03  0.10100000352E+00 0.  1.
</event>
<event>
 5   0  0.3470962E-04  0.1822216E+04  0.7818609E-02  0.8694574E-01
       -1   -1    0    0    0  501  0.00000000000E+00  0.00000000000E+00  0.85071385672E+03  0.85071385674E+03  0.50400001928E-02 0.  1.
        1   -1    0    0  501    0  0.00000000000E+00  0.00000000000E+00 -0.97578915870E+03  0.97578915872E+03  0.50400001928E-02 0. -1.
    10030    2    1    2    0    0  0.00000000000E+00  0.00000000000E+00 -0.12507530198E+03  0.18265030155E+04  0.18222155290E+04 0.  0.
        4    1    3    3  502    0 -0.34267779407E+03 -0.84418378092E+03 -0.68988564717E+02  0.91369325350E+03  0.12699999809E+01 0.  1.
       -4    1    3    3    0  502  0.34267779407E+03  0.84418378092E+03 -0.56086737266E+02  0.91280976196E+03  0.12699999809E+01 0. -1.
</event>
<event>
 5   0  0.6929121E-04  0.1841266E+04  0.7818609E-02  0.8684658E-01
       -2   -1    0    0    0  501  0.00000000000E+00  0.00000000000E+00  0.46573326096E+03  0.46573326097E+03  0.25500000920E-02 0.  1.
        2   -1    0    0  501    0  0.00000000000E+00  0.00000000000E+00 -0.18198503884E+04  0.18198503884E+04  0.25500000920E-02 0. -1.
    10030    2    1    2    0    0  0.00000000000E+00  0.00000000000E+00 -0.13541171274E+04  0.22855836494E+04  0.18412657123E+04 0.  0.
        3    1    3    3  502    0  0.53285741910E+03  0.74021071065E+03 -0.52144388337E+03  0.10505963349E+04  0.10100000352E+00 0. -1.
       -3    1    3    3    0  502 -0.53285741910E+03 -0.74021071065E+03 -0.83267324406E+03  0.12349873144E+04  0.10100000352E+00 0.  1.
</event>
<event>
 5   0  0.6774451E-04  0.1819907E+04  0.7818609E-02  0.8695784E-01
        2   -1    0    0  501    0  0.00000000000E+00  0.00000000000E+00  0.13620291796E+04  0.13620291796E+04  0.25500000920E-02 0.  1.
       -2   -1    0    0    0  501  0.00000000000E+00  0.00000000000E+00 -0.60792810667E+03  0.60792810668E+03  0.25500000920E-02 0. -1.
    10030    2    1    2    0    0  0.00000000000E+00  0.00000000000E+00  0.75410107290E+03  0.19699572862E+04  0.18199074926E+04 0.  0.
        4    1    3    3  502    0 -0.26790621558E+03  0.14613580471E+03  0.13049846205E+04  0.13401924812E+04  0.12699999809E+01 0.  1.
       -4    1    3    3    0  502  0.26790621558E+03 -0.14613580471E+03 -0.55088354765E+03  0.62976480510E+03  0.12699999809E+01 0. -1.
</event>
<event>
 5   0  0.6853162E-04  0.1828745E+04  0.7818609E-02  0.8691161E-01
       -2   -1    0    0    0  501  0.00000000000E+00  0.00000000000E+00  0.82838687451E+03  0.82838687451E+03  0.25500000920E-02 0.  1.
        2   -1    0    0  501    0  0.00000000000E+00  0.00000000000E+00 -0.10092832099E+04  0.10092832099E+04  0.25500000920E-02 0. -1.
    10030    2    1    2    0    0  0.00000000000E+00  0.00000000000E+00 -0.18089633537E+03  0.18376700844E+04  0.18287448851E+04 0.  0.
        2    1    3    3  502    0  0.65939295561E+03 -0.31516219382E+03 -0.64263040351E+03  0.97319068729E+03  0.25500000920E-02 0. -1.
       -2    1    3    3    0  502 -0.65939295561E+03  0.31516219382E+03  0.46173406814E+03  0.86447939710E+03  0.25500000920E-02 0.  1.
</event>
<event>
 5   0  0.6853162E-04  0.1803923E+04  0.7818609E-02  0.8704216E-01
       -2   -1    0    0    0  501  0.00000000000E+00  0.00000000000E+00  0.13584391680E+04  0.13584391680E+04  0.25500000920E-02 0.  1.
        2   -1    0    0  501    0  0.00000000000E+00  0.00000000000E+00 -0.59887445413E+03  0.59887445413E+03  0.25500000920E-02 0. -1.
    10030    2    1    2    0    0  0.00000000000E+00  0.00000000000E+00  0.75956471389E+03  0.19573136222E+04  0.18039229642E+04 0.  0.
        2    1    3    3  502    0 -0.56338811872E+02 -0.36050837969E+03  0.12747817083E+04  0.13259746443E+04  0.25500000920E-02 0.  1.
       -2    1    3    3    0  502  0.56338811872E+02  0.36050837969E+03 -0.51521699443E+03  0.63133897781E+03  0.25500000920E-02 0. -1.
</event>
<event>
 5   0  0.3470962E-04  0.1722091E+04  0.7818609E-02  0.8748865E-01
       -1   -1    0    0    0  501  0.00000000000E+00  0.00000000000E+00  0.38182487701E+03  0.38182487705E+03  0.50400001928E-02 0.  1.
        1   -1    0    0  501    0  0.00000000000E+00  0.00000000000E+00 -0.19417257360E+04  0.19417257360E+04  0.50400001928E-02 0. -1.
    10030    2    1    2    0    0  0.00000000000E+00  0.00000000000E+00 -0.15599008590E+04  0.23235506130E+04  0.17220908111E+04 0.  0.
        4    1    3    3  502    0 -0.25339292525E+03 -0.24169183723E+03  0.28140866906E+03  0.44923865670E+03  0.12699999809E+01 0.  1.
       -4    1    3    3    0  502  0.25339292525E+03  0.24169183723E+03 -0.18413095280E+04  0.18743119563E+04  0.12699999809E+01 0. -1.
</event>
<event>
 5   0  0.6853162E-04  0.1792151E+04  0.7818609E-02  0.8710485E-01
       -2   -1    0    0    0  501  0.00000000000E+00  0.00000000000E+00  0.62768003581E+03  0.62768003582E+03  0.25500000920E-02 0.  1.
        2   -1    0    0  501    0  0.00000000000E+00  0.00000000000E+00 -0.12792368967E+04  0.12792368967E+04  0.25500000920E-02 0. -1.
    10030    2    1    2    0    0  0.00000000000E+00  0.00000000000E+00 -0.65155686086E+03  0.19069169325E+04  0.17921511779E+04 0.  0.
        2    1    3    3  502    0 -0.28877828424E+03  0.60486536392E+03 -0.95858719656E+03  0.11696770577E+04  0.25500000920E-02 0. -1.
       -2    1    3    3    0  502  0.28877828424E+03 -0.60486536392E+03  0.30703033571E+03  0.73723987478E+03  0.25500000920E-02 0.  1.
</event>
<event>
 5   0  0.6547153E-04  0.2017012E+04  0.7818609E-02  0.8598708E-01
        2   -1    0    0  501    0  0.00000000000E+00  0.00000000000E+00  0.21446890161E+04  0.21446890161E+04  0.25500000920E-02 0. -1.
       -2   -1    0    0    0  501  0.00000000000E+00  0.00000000000E+00 -0.47423411050E+03  0.47423411051E+03  0.25500000920E-02 0.  1.
    10030    2    1    2    0    0  0.00000000000E+00  0.00000000000E+00  0.16704549056E+04  0.26189231266E+04  0.20170123330E+04 0.  0.
        5    1    3    3  502    0  0.21569458314E+03 -0.30094305552E+03  0.20532310058E+04  0.20863534047E+04  0.46999998093E+01 0. -1.
       -5    1    3    3    0  502 -0.21569458314E+03  0.30094305552E+03 -0.38277610022E+03  0.53256972197E+03  0.46999998093E+01 0.  1.
</event>
<event>
 5   0  0.6547153E-04  0.1356702E+04  0.7818609E-02  0.8985770E-01
        2   -1    0    0  501    0  0.00000000000E+00  0.00000000000E+00  0.13337359570E+04  0.13337359570E+04  0.25500000920E-02 0.  1.
       -2   -1    0    0    0  501  0.00000000000E+00  0.00000000000E+00 -0.34501597712E+03  0.34501597713E+03  0.25500000920E-02 0. -1.
    10030    2    1    2    0    0  0.00000000000E+00  0.00000000000E+00  0.98871997988E+03  0.16787519341E+04  0.13567021994E+04 0.  0.
        5    1    3    3  502    0 -0.22254044965E+03 -0.26904294666E+03 -0.22526777199E+03  0.41554303986E+03  0.46999998093E+01 0. -1.
       -5    1    3    3    0  502  0.22254044965E+03  0.26904294666E+03  0.12139877519E+04  0.12632088943E+04  0.46999998093E+01 0.  1.
</event>
<event>
 5   0  0.6929121E-04  0.1825578E+04  0.7818609E-02  0.8692815E-01
       -2   -1    0    0    0  501  0.00000000000E+00  0.00000000000E+00  0.37371037744E+03  0.37371037745E+03  0.25500000920E-02 0.  1.
        2   -1    0    0  501    0  0.00000000000E+00  0.00000000000E+00 -0.22294897857E+04  0.22294897857E+04  0.25500000920E-02 0. -1.
    10030    2    1    2    0    0  0.00000000000E+00  0.00000000000E+00 -0.18557794083E+04  0.26032001632E+04  0.18255776832E+04 0.  0.
        3    1    3    3  502    0  0.55609093579E+02  0.62508517943E+03 -0.18730757644E+04  0.19754079787E+04  0.10100000352E+00 0. -1.
       -3    1    3    3    0  502 -0.55609093579E+02 -0.62508517943E+03  0.17296356073E+02  0.62779218454E+03  0.10100000352E+00 0.  1.
</event>
<event>
 5   0  0.3413839E-04  0.1083439E+04  0.7818609E-02  0.9221485E-01
        1   -1    0    0  501    0  0.00000000000E+00  0.00000000000E+00  0.68046573163E+03  0.68046573165E+03  0.50400001928E-02 0.  1.
       -1   -1    0    0    0  501  0.00000000000E+00  0.00000000000E+00 -0.43126357781E+03  0.43126357783E+03  0.50400001928E-02 0. -1.
    10030    2    1    2    0    0  0.00000000000E+00  0.00000000000E+00  0.24920215383E+03  0.11117293095E+04  0.10834391280E+04 0.  0.
        5    1    3    3  502    0  0.17388627754E+03 -0.51231201743E+03  0.15247573639E+03  0.56211296098E+03  0.46999998093E+01 0.  1.
       -5    1    3    3    0  502 -0.17388627754E+03  0.51231201743E+03  0.96726417444E+02  0.54961634851E+03  0.46999998093E+01 0. -1.
</event>
<event>
 5   0  0.3404261E-04  0.1890262E+04  0.7818609E-02  0.8659719E-01
       -1   -1    0    0    0  501  0.00000000000E+00  0.00000000000E+00  0.48714915020E+03  0.48714915023E+03  0.50400001928E-02 0.  1.
        1   -1    0    0  501    0  0.00000000000E+00  0.00000000000E+00 -0.18336728192E+04  0.18336728192E+04  0.50400001928E-02 0. -1.
    10030    2    1    2    0    0  0.00000000000E+00  0.00000000000E+00 -0.13465236690E+04  0.23208219694E+04  0.18902615223E+04 0.  0.
        1    1    3    3  502    0  0.88060026402E+03  0.34151697826E+03 -0.71546391796E+03  0.11848963201E+04  0.50400001928E-02 0.  1.
       -1    1    3    3    0  502 -0.88060026402E+03 -0.34151697826E+03 -0.63105975102E+03  0.11359256493E+04  0.50400001928E-02 0. -1.
</event>
<event>
 5   0  0.6929121E-04  0.1289050E+04  0.7818609E-02  0.9038294E-01
        2   -1    0    0  501    0  0.00000000000E+00  0.00000000000E+00  0.24093036190E+04  0.24093036190E+04  0.25500000920E-02 0. -1.
       -2   -1    0    0    0  501  0.00000000000E+00  0.00000000000E+00 -0.17242015383E+03  0.17242015385E+03  0.25500000920E-02 0.  1.
    10030    2    1    2    0    0  0.00000000000E+00  0.00000000000E+00  0.22368834652E+04  0.25817237728E+04  0.12890500388E+04 0.  0.
        3    1    3    3  502    0  0.32404741772E+03 -0.40172691159E+03  0.34529113031E+03  0.62098084938E+03  0.10100000352E+00 0.  1.
       -3    1    3    3    0  502 -0.32404741772E+03  0.40172691159E+03  0.18915923349E+04  0.19607429235E+04  0.10100000352E+00 0. -1.
</event>
<event>
 5   0  0.3377273E-04  0.1671062E+04  0.7818609E-02  0.8778043E-01
        1   -1    0    0  501    0  0.00000000000E+00  0.00000000000E+00  0.15770942098E+04  0.15770942098E+04  0.50400001928E-02 0.  1.
       -1   -1    0    0    0  501  0.00000000000E+00  0.00000000000E+00 -0.44265726361E+03  0.44265726364E+03  0.50400001928E-02 0. -1.
    10030    2    1    2    0    0  0.00000000000E+00  0.00000000000E+00  0.11344369461E+04  0.20197514734E+04  0.16710621860E+04 0.  0.
        2    1    3    3  502    0  0.16836764562E+03 -0.20593284904E+03 -0.39011318470E+03  0.47216977803E+03  0.25500000920E-02 0. -1.
       -2    1    3    3    0  502 -0.16836764562E+03  0.20593284904E+03  0.15245501308E+04  0.15475816954E+04  0.25500000920E-02 0.  1.
</event>
<event>
 5   0  0.6774451E-04  0.1831693E+04  0.7818609E-02  0.8689625E-01
       -2   -1    0    0    0  501  0.00000000000E+00  0.00000000000E+00  0.51864448655E+03  0.51864448656E+03  0.25500000920E-02 0.  1.
        2   -1    0    0  501    0  0.00000000000E+00  0.00000000000E+00 -0.16172445450E+04  0.16172445450E+04  0.25500000920E-02 0. -1.
    10030    2    1    2    0    0  0.00000000000E+00  0.00000000000E+00 -0.10986000585E+04  0.21358890316E+04  0.18316931694E+04 0.  0.
        4    1    3    3  502    0  0.56149470666E+03  0.54137056417E+03  0.10433465983E+02  0.78004414200E+03  0.12699999809E+01 0.  1.
       -4    1    3    3    0  502 -0.56149470666E+03 -0.54137056417E+03 -0.11090335245E+04  0.13558448896E+04  0.12699999809E+01 0. -1.
</event>
<event>
 5   0  0.3470962E-04  0.1825457E+04  0.7818609E-02  0.8692878E-01
       -1   -1    0    0    0  501  0.00000000000E+00  0.00000000000E+00  0.82813138209E+03  0.82813138210E+03  0.50400001928E-02 0. -1.
        1   -1    0    0  501    0  0.00000000000E+00  0.00000000000E+00 -0.10059672776E+04  0.10059672776E+04  0.50400001928E-02 0.  1.
    10030    2    1    2    0    0  0.00000000000E+00  0.00000000000E+00 -0.17783589549E+03  0.18340986597E+04  0.18254567340E+04 0.  0.
        4    1    3    3  502    0 -0.72015348113E+03  0.41703889365E+03 -0.46556459201E+03  0.95356933542E+03  0.12699999809E+01 0.  1.
       -4    1    3    3    0  502  0.72015348113E+03 -0.41703889365E+03  0.28772869652E+03  0.88052932428E+03  0.12699999809E+01 0. -1.
</event>
<event>
 5   0  0.6774451E-04  0.1841892E+04  0.7818609E-02  0.8684334E-01
        2   -1    0    0  501    0  0.00000000000E+00  0.00000000000E+00  0.16347962183E+04  0.16347962183E+04  0.25500000920E-02 0.  1.
       -2   -1    0    0    0  501  0.00000000000E+00  0.00000000000E+00 -0.51880573775E+03  0.51880573775E+03  0.25500000920E-02 0. -1.
    10030    2    1    2    0    0  0.00000000000E+00  0.00000000000E+00  0.11159904806E+04  0.21536019561E+04  0.18418921338E+04 0.  0.
        4    1    3    3  502    0  0.42376408536E+03 -0.63521581279E+03 -0.43978252919E+02  0.76486000581E+03  0.12699999809E+01 0. -1.
       -4    1    3    3    0  502 -0.42376408536E+03  0.63521581279E+03  0.11599687335E+04  0.13887419503E+04  0.12699999809E+01 0.  1.
</event>
<event>
 5   0  0.6771967E-04  0.1787836E+04  0.7818609E-02  0.8712795E-01
        2   -1    0    0  501    0  0.00000000000E+00  0.00000000000E+00  0.13855691858E+04  0.13855691858E+04  0.25500000920E-02 0. -1.
       -2   -1    0    0    0  501  0.00000000000E+00  0.00000000000E+00 -0.57672265513E+03  0.57672265514E+03  0.25500000920E-02 0.  1.
    10030    2    1    2    0    0  0.00000000000E+00  0.00000000000E+00  0.80884653063E+03  0.19622918409E+04  0.17878357192E+04 0.  0.
        1    1    3    3  502    0  0.88989894010E+03  0.34556667828E+01  0.31156859435E+03  0.94287170614E+03  0.50400001928E-02 0.  1.
       -1    1    3    3    0  502 -0.88989894010E+03 -0.34556667828E+01  0.49727793628E+03  0.10194201348E+04  0.50400001928E-02 0. -1.
</event>
<event>
 5   0  0.6853162E-04  0.1754966E+04  0.7818609E-02  0.8730621E-01
       -2   -1    0    0    0  501  0.00000000000E+00  0.00000000000E+00  0.54365909647E+03  0.54365909647E+03  0.25500000920E-02 0. -1.
        2   -1    0    0  501    0  0.00000000000E+00  0.00000000000E+00 -0.14162860276E+04  0.14162860276E+04  0.25500000920E-02 0.  1.
    10030    2    1    2    0    0  0.00000000000E+00  0.00000000000E+00 -0.87262693109E+03  0.19599451240E+04  0.17549664180E+04 0.  0.
        2    1    3    3  502    0 -0.83042783752E+03 -0.26176069942E+03 -0.31475293587E+03  0.92585013244E+03  0.25500000920E-02 0. -1.
       -2    1    3    3    0  502  0.83042783752E+03  0.26176069942E+03 -0.55787399522E+03  0.10340949916E+04  0.25500000920E-02 0.  1.
</event>
<event>
 5   0  0.3308275E-04  0.1814657E+04  0.7818609E-02  0.8698544E-01
       -1   -1    0    0    0  501  0.00000000000E+00  0.00000000000E+00  0.17030514067E+04  0.17030514067E+04  0.50400001928E-02 0.  1.
        1   -1    0    0  501    0  0.00000000000E+00  0.00000000000E+00 -0.48339389244E+03  0.48339389247E+03  0.50400001928E-02 0. -1.
    10030    2    1    2    0    0  0.00000000000E+00  0.00000000000E+00  0.12196575143E+04  0.21864452992E+04  0.18146566051E+04 0.  0.
        3    1    3    3  502    0 -0.63103959778E+03  0.23453650486E+03 -0.12309779395E+03  0.68437666760E+03  0.10100000352E+00 0. -1.
       -3    1    3    3    0  502  0.63103959778E+03 -0.23453650486E+03  0.13427553082E+04  0.15020686316E+04  0.10100000352E+00 0.  1.
</event>
<event>
 5   0  0.2467375E-04  0.1845934E+04  0.7818609E-02  0.8682247E-01
        3   -1    0    0  501    0  0.00000000000E+00  0.00000000000E+00  0.63320112052E+03  0.63320112858E+03  0.10100000352E+00 0. -1.
       -3   -1    0    0    0  501  0.00000000000E+00  0.00000000000E+00 -0.13453355179E+04  0.13453355216E+04  0.10100000352E+00 0.  1.
    10030    2    1    2    0    0  0.00000000000E+00  0.00000000000E+00 -0.71213439733E+03  0.19785366502E+04  0.18459338765E+04 0.  0.
        5    1    3    3  502    0  0.37097998577E+03 -0.74949218613E+03 -0.77460635922E+03  0.11399130619E+04  0.46999998093E+01 0.  1.
       -5    1    3    3    0  502 -0.37097998577E+03  0.74949218613E+03  0.62471961885E+02  0.83862358834E+03  0.46999998093E+01 0. -1.
</event>
<event>
 5   0  0.3404261E-04  0.1739443E+04  0.7818609E-02  0.8739183E-01
       -1   -1    0    0    0  501  0.00000000000E+00  0.00000000000E+00  0.92282048261E+03  0.92282048262E+03  0.50400001928E-02 0.  1.
        1   -1    0    0  501    0  0.00000000000E+00  0.00000000000E+00 -0.81967817248E+03  0.81967817250E+03  0.50400001928E-02 0. -1.
    10030    2    1    2    0    0  0.00000000000E+00  0.00000000000E+00  0.10314231013E+03  0.17424986551E+04  0.17394433670E+04 0.  0.
        1    1    3    3  502    0  0.36701687528E+03 -0.45555865170E+03  0.69627031635E+03  0.90941048231E+03  0.50400001928E-02 0.  1.
       -1    1    3    3    0  502 -0.36701687528E+03  0.45555865170E+03 -0.59312800622E+03  0.83308817281E+03  0.50400001928E-02 0. -1.
</event>
<event>
 5   0  0.3377273E-04  0.1740940E+04  0.7818609E-02  0.8738353E-01
       -1   -1    0    0    0  501  0.00000000000E+00  0.00000000000E+00  0.53543762628E+03  0.53543762630E+03  0.50400001928E-02 0.  1.
        1   -1    0    0  501    0  0.00000000000E+00  0.00000000000E+00 -0.14151376001E+04  0.14151376001E+04  0.50400001928E-02 0. -1.
    10030    2    1    2    0    0  0.00000000000E+00  0.00000000000E+00 -0.87969997381E+03  0.19505752264E+04  0.17409398812E+04 0.  0.
        2    1    3    3  502    0  0.86710213439E+02  0.42496929093E+03  0.40574822662E+03  0.59392691702E+03  0.25500000920E-02 0.  1.
       -2    1    3    3    0  502 -0.86710213439E+02 -0.42496929093E+03 -0.12854482004E+04  0.13566483094E+04  0.25500000920E-02 0. -1.
</event>
<event>
 5   0  0.6853162E-04  0.1807268E+04  0.7818609E-02  0.8702444E-01
       -2   -1    0    0    0  501  0.00000000000E+00  0.00000000000E+00  0.62943384664E+03  0.62943384665E+03  0.25500000920E-02 0.  1.
        2   -1    0    0  501    0  0.00000000000E+00  0.00000000000E+00 -0.12972833979E+04  0.12972833979E+04  0.25500000920E-02 0. -1.
    10030    2    1    2    0    0  0.00000000000E+00  0.00000000000E+00 -0.66784955121E+03  0.19267172445E+04  0.18072676385E+04 0.  0.
        2    1    3    3  502    0 -0.76834394670E+03 -0.24606276414E+03  0.99983059027E+02  0.81295505190E+03  0.25500000920E-02 0.  1.
       -2    1    3    3    0  502  0.76834394670E+03  0.24606276414E+03 -0.76783261024E+03  0.11137621926E+04  0.25500000920E-02 0. -1.
</event>
<event>
 5   0  0.6547153E-04  0.1698376E+04  0.7818609E-02  0.8762291E-01
        2   -1    0    0  501    0  0.00000000000E+00  0.00000000000E+00  0.44704689938E+03  0.44704689938E+03  0.25500000920E-02 0. -1.
       -2   -1    0    0    0  501  0.00000000000E+00  0.00000000000E+00 -0.16130746308E+04  0.16130746308E+04  0.25500000920E-02 0.  1.
    10030    2    1    2    0    0  0.00000000000E+00  0.00000000000E+00 -0.11660277314E+04  0.20601215302E+04  0.16983757089E+04 0.  0.
        5    1    3    3  502    0 -0.39336414212E+03  0.50400226699E+01  0.32983021797E+03  0.51339148105E+03  0.46999998093E+01 0. -1.
       -5    1    3    3    0  502  0.39336414212E+03 -0.50400226699E+01 -0.14958579494E+04  0.15467300491E+04  0.46999998093E+01 0.  1.
</event>
<event>
 5   0  0.3404261E-04  0.1752835E+04  0.7818609E-02  0.8731791E-01
        1   -1    0    0  501    0  0.00000000000E+00  0.00000000000E+00  0.14042748043E+04  0.14042748043E+04  0.50400001928E-02 0.  1.
       -1   -1    0    0    0  501  0.00000000000E+00  0.00000000000E+00 -0.54697843102E+03  0.54697843104E+03  0.50400001928E-02 0. -1.
    10030    2    1    2    0    0  0.00000000000E+00  0.00000000000E+00  0.85729637330E+03  0.19512532354E+04  0.17528354506E+04 0.  0.
        1    1    3    3  502    0  0.34253991046E+03  0.29829001900E+03 -0.40572894108E+03  0.60903735464E+03  0.50400001928E-02 0. -1.
       -1    1    3    3    0  502 -0.34253991046E+03 -0.29829001900E+03  0.12630253144E+04  0.13422158807E+04  0.50400001928E-02 0.  1.
</event>
<event>
 5   0  0.6771967E-04  0.1718797E+04  0.7818609E-02  0.8750716E-01
        2   -1    0    0  501    0  0.00000000000E+00  0.00000000000E+00  0.11613223271E+04  0.11613223271E+04  0.25500000920E-02 0.  1.
       -2   -1    0    0    0  501  0.00000000000E+00  0.00000000000E+00 -0.63596968264E+03  0.63596968265E+03  0.25500000920E-02 0. -1.
    10030    2    1    2    0    0  0.00000000000E+00  0.00000000000E+00  0.52535264446E+03  0.17972920098E+04  0.17187970117E+04 0.  0.
        1    1    3    3  502    0 -0.33117988886E+03 -0.78385800684E+03  0.13696844014E+03  0.86190129788E+03  0.50400001928E-02 0. -1.
       -1    1    3    3    0  502  0.33117988886E+03  0.78385800684E+03  0.38838420432E+03  0.93539071187E+03  0.50400001928E-02 0.  1.
</event>
<event>
 5   0  0.3404261E-04  0.9973408E+03  0.7818609E-02  0.9311466E-01
        1   -1    0    0  501    0  0.00000000000E+00  0.00000000000E+00  0.41372510242E+03  0.41372510245E+03  0.50400001928E-02 0. -1.
       -1   -1    0    0    0  501  0.00000000000E+00  0.00000000000E+00 -0.60105651403E+03  0.60105651405E+03  0.50400001928E-02 0.  1.
    10030    2    1    2    0    0  0.00000000000E+00  0.00000000000E+00 -0.18733141161E+03  0.10147816165E+04  0.99734080003E+03 0.  0.
        1    1    3    3  502    0 -0.24898308745E+03 -0.27115466043E+03  0.24860157216E+03  0.44420734957E+03  0.50400001928E-02 0. -1.
       -1    1    3    3    0  502  0.24898308745E+03  0.27115466043E+03 -0.43593298378E+03  0.57057426692E+03  0.50400001928E-02 0.  1.
</event>
<event>
 5   0  0.6547153E-04  0.1784131E+04  0.7818609E-02  0.8714784E-01
       -2   -1    0    0    0  501  0.00000000000E+00  0.00000000000E+00  0.46579484415E+03  0.46579484416E+03  0.25500000920E-02 0. -1.
        2   -1    0    0  501    0  0.00000000000E+00  0.00000000000E+00 -0.17084367254E+04  0.17084367254E+04  0.25500000920E-02 0.  1.
    10030    2    1    2    0    0  0.00000000000E+00  0.00000000000E+00 -0.12426418813E+04  0.21742315696E+04  0.17841311816E+04 0.  0.
        5    1    3    3  502    0  0.41592336501E+03 -0.14575892734E+03  0.32383706486E+03  0.54692819002E+03  0.46999998093E+01 0. -1.
       -5    1    3    3    0  502 -0.41592336501E+03  0.14575892734E+03 -0.15664789461E+04  0.16273033795E+04  0.46999998093E+01 0.  1.
</event>
<event>
 5   0  0.6771967E-04  0.1788119E+04  0.7818609E-02  0.8712643E-01
       -2   -1    0    0    0  501  0.00000000000E+00  0.00000000000E+00  0.55567770485E+03  0.55567770485E+03  0.25500000920E-02 0.  1.
        2   -1    0    0  501    0  0.00000000000E+00  0.00000000000E+00 -0.14385004072E+04  0.14385004072E+04  0.25500000920E-02 0. -1.
    10030    2    1    2    0    0  0.00000000000E+00  0.00000000000E+00 -0.88282270235E+03  0.19941781121E+04  0.17881192407E+04 0.  0.
        1    1    3    3  502    0 -0.51864626519E+03  0.22316093077E+03 -0.12145115598E+04  0.13393405386E+04  0.50400001928E-02 0. -1.
       -1    1    3    3    0  502  0.51864626519E+03 -0.22316093077E+03  0.33168885746E+03  0.65483757345E+03  0.50400001928E-02 0.  1.
</event>
<event>
 5   0  0.6547153E-04  0.1792623E+04  0.7818609E-02  0.8710232E-01
        2   -1    0    0  501    0  0.00000000000E+00  0.00000000000E+00  0.25424907572E+04  0.25424907572E+04  0.25500000920E-02 0.  1.
       -2   -1    0    0    0  501  0.00000000000E+00  0.00000000000E+00 -0.31597940521E+03  0.31597940522E+03  0.25500000920E-02 0. -1.
    10030    2    1    2    0    0  0.00000000000E+00  0.00000000000E+00  0.22265113520E+04  0.28584701625E+04  0.17926234599E+04 0.  0.
        5    1    3    3  502    0 -0.40927554250E+03  0.43796958724E+02  0.23828487641E+04  0.24181428754E+04  0.46999998093E+01 0.  1.
       -5    1    3    3    0  502  0.40927554250E+03 -0.43796958724E+02 -0.15633741210E+03  0.44032728703E+03  0.46999998093E+01 0. -1.
</event>
<event>
 5   0  0.6547153E-04  0.1775309E+04  0.7818609E-02  0.8719541E-01
       -2   -1    0    0    0  501  0.00000000000E+00  0.00000000000E+00  0.74756948897E+03  0.74756948897E+03  0.25500000920E-02 0. -1.
        2   -1    0    0  501    0  0.00000000000E+00  0.00000000000E+00 -0.10539896776E+04  0.10539896776E+04  0.25500000920E-02 0.  1.
    10030    2    1    2    0    0  0.00000000000E+00  0.00000000000E+00 -0.30642018863E+03  0.18015591666E+04  0.17753090150E+04 0.  0.
        5    1    3    3  502    0 -0.11774011700E+03  0.24508456613E+03 -0.10106770014E+04  0.10466227930E+04  0.46999998093E+01 0.  1.
       -5    1    3    3    0  502  0.11774011700E+03 -0.24508456613E+03  0.70425681280E+03  0.75493637353E+03  0.46999998093E+01 0. -1.
</event>
<event>
 5   0  0.2467375E-04  0.1762158E+04  0.7818609E-02  0.8726686E-01
        4   -1    0    0  501    0  0.00000000000E+00  0.00000000000E+00  0.12795110490E+04  0.12795116793E+04  0.12699999809E+01 0.  1.
       -4   -1    0    0    0  501  0.00000000000E+00  0.00000000000E+00 -0.60671507449E+03  0.60671640369E+03  0.12699999809E+01 0. -1.
    10030    2    1    2    0    0  0.00000000000E+00  0.00000000000E+00  0.67279597449E+03  0.18862280830E+04  0.17621583237E+04 0.  0.
        3    1    3    3  502    0  0.67037307424E+03  0.40579772696E+03 -0.94736758795E+02  0.78933321071E+03  0.10100000352E+00 0.  1.
       -3    1    3    3    0  502 -0.67037307424E+03 -0.40579772696E+03  0.76753273329E+03  0.10968948722E+04  0.10100000352E+00 0. -1.
</event>
<event>
 5   0  0.6771967E-04  0.1798132E+04  0.7818609E-02  0.8707293E-01
       -2   -1    0    0    0  501  0.00000000000E+00  0.00000000000E+00  0.12774357188E+04  0.12774357188E+04  0.25500000920E-02 0. -1.
        2   -1    0    0  501    0  0.00000000000E+00  0.00000000000E+00 -0.63276767143E+03  0.63276767144E+03  0.25500000920E-02 0.  1.
    10030    2    1    2    0    0  0.00000000000E+00  0.00000000000E+00  0.64466804738E+03  0.19102033903E+04  0.17981323925E+04 0.  0.
        1    1    3    3  502    0 -0.40204174395E+03 -0.73014385335E+03  0.68034337991E+03  0.10759250555E+04  0.50400001928E-02 0.  1.
       -1    1    3    3    0  502  0.40204174395E+03  0.73014385335E+03 -0.35675332527E+02  0.83427833475E+03  0.50400001928E-02 0. -1.
</event>
<event>
 5   0  0.3377273E-04  0.1808956E+04  0.7818609E-02  0.8701551E-01
       -1   -1    0    0    0  501  0.00000000000E+00  0.00000000000E+00  0.60665015131E+03  0.60665015133E+03  0.50400001928E-02 0.  1.
        1   -1    0    0  501    0  0.00000000000E+00  0.00000000000E+00 -0.13485206897E+04  0.13485206897E+04  0.50400001928E-02 0. -1.
    10030    2    1    2    0    0  0.00000000000E+00  0.00000000000E+00 -0.74187053840E+03  0.19551708410E+04  0.18089558098E+04 0.  0.
        2    1    3    3  502    0 -0.55659708337E+02  0.88610381305E+03 -0.18434812547E+03  0.90678674561E+03  0.25500000920E-02 0.  1.
       -2    1    3    3    0  502  0.55659708337E+02 -0.88610381305E+03 -0.55752241292E+03  0.10483840954E+04  0.25500000920E-02 0. -1.
</event>
<event>
 5   0  0.6774451E-04  0.1762437E+04  0.7818609E-02  0.8726534E-01
       -2   -1    0    0    0  501  0.00000000000E+00  0.00000000000E+00  0.99780095774E+03  0.99780095775E+03  0.25500000920E-02 0.  1.
        2   -1    0    0  501    0  0.00000000000E+00  0.00000000000E+00 -0.77825763736E+03  0.77825763736E+03  0.25500000920E-02 0. -1.
    10030    2    1    2    0    0  0.00000000000E+00  0.00000000000E+00  0.21954332038E+03  0.17760585951E+04  0.17624371943E+04 0.  0.
        4    1    3    3  502    0 -0.42004447632E+03 -0.59664809059E+03 -0.38813026552E+03  0.82648231802E+03  0.12699999809E+01 0. -1.
       -4    1    3    3    0  502  0.42004447632E+03  0.59664809059E+03  0.60767358591E+03  0.94957627708E+03  0.12699999809E+01 0.  1.
</event>
<event>
 5   0  0.3308275E-04  0.1144138E+04  0.7818609E-02  0.9163209E-01
       -1   -1    0    0    0  501  0.00000000000E+00  0.00000000000E+00  0.60104179617E+03  0.60104179619E+03  0.50400001928E-02 0. -1.
        1   -1    0    0  501    0  0.00000000000E+00  0.00000000000E+00 -0.54449282050E+03  0.54449282052E+03  0.50400001928E-02 0.  1.
    10030    2    1    2    0    0  0.00000000000E+00  0.00000000000E+00  0.56548975668E+02  0.11455346167E+04  0.11441380037E+04 0.  0.
        3    1    3    3  502    0 -0.37300208019E+03 -0.31131570608E+03 -0.27411224171E+03  0.55784007738E+03  0.10100000352E+00 0.  1.
       -3    1    3    3    0  502  0.37300208019E+03  0.31131570608E+03  0.33066121738E+03  0.58769453933E+03  0.10100000352E+00 0. -1.
</event>
<event>
 5   0  0.6929121E-04  0.1806336E+04  0.7818609E-02  0.8702937E-01
       -2   -1    0    0    0  501  0.00000000000E+00  0.00000000000E+00  0.85619044703E+03  0.85619044703E+03  0.25500000920E-02 0.  1.
        2   -1    0    0  501    0  0.00000000000E+00  0.00000000000E+00 -0.95272309874E+03  0.95272309874E+03  0.25500000920E-02 0. -1.
    10030    2    1    2    0    0  0.00000000000E+00  0.00000000000E+00 -0.96532651712E+02  0.18089135458E+04  0.18063359774E+04 0.  0.
        3    1    3    3  502    0 -0.10793224702E+03 -0.63846352332E+03 -0.67878955611E+03  0.93810463822E+03  0.10100000352E+00 0. -1.
       -3    1    3    3    0  502  0.10793224702E+03  0.63846352332E+03  0.58225690440E+03  0.87080890755E+03  0.10100000352E+00 0.  1.
</event>
<event>
 5   0  0.3470962E-04  0.1902058E+04  0.7818609E-02  0.8653833E-01
        1   -1    0    0  501    0  0.00000000000E+00  0.00000000000E+00  0.10156985945E+04  0.10156985945E+04  0.50400001928E-02 0. -1.
       -1   -1    0    0    0  501  0.00000000000E+00  0.00000000000E+00 -0.89047659236E+03  0.89047659238E+03  0.50400001928E-02 0.  1.
    10030    2    1    2    0    0  0.00000000000E+00  0.00000000000E+00  0.12522200214E+03  0.19061751869E+04  0.19020576472E+04 0.  0.
        4    1    3    3  502    0  0.93221230084E+01  0.74508401631E+03 -0.52961421901E+03  0.91418265528E+03  0.12699999809E+01 0.  1.
       -4    1    3    3    0  502 -0.93221230084E+01 -0.74508401631E+03  0.65483622114E+03  0.99199253161E+03  0.12699999809E+01 0. -1.
</event>
<event>
 5   0  0.6771967E-04  0.1576984E+04  0.7818609E-02  0.8834813E-01
       -2   -1    0    0    0  501  0.00000000000E+00  0.00000000000E+00  0.29599825093E+03  0.29599825094E+03  0.25500000920E-02 0.  1.
        2   -1    0    0  501    0  0.00000000000E+00  0.00000000000E+00 -0.21004174413E+04  0.21004174413E+04  0.25500000920E-02 0. -1.
    10030    2    1    2    0    0  0.00000000000E+00  0.00000000000E+00 -0.18044191904E+04  0.23964156923E+04  0.15769843232E+04 0.  0.
        1    1    3    3  502    0  0.59754639494E+03  0.25318338888E+03 -0.22167061645E+03  0.68578523222E+03  0.50400001928E-02 0.  1.
       -1    1    3    3    0  502 -0.59754639494E+03 -0.25318338888E+03 -0.15827485740E+04  0.17106304601E+04  0.50400001928E-02 0. -1.
</event>
<event>
 5   0  0.3413839E-04  0.1804483E+04  0.7818609E-02  0.8703919E-01
       -1   -1    0    0    0  501  0.00000000000E+00  0.00000000000E+00  0.55985694523E+03  0.55985694525E+03  0.50400001928E-02 0.  1.
        1   -1    0    0  501    0  0.00000000000E+00  0.00000000000E+00 -0.14540143362E+04  0.14540143362E+04  0.50400001928E-02 0. -1.
    10030    2    1    2    0    0  0.00000000000E+00  0.00000000000E+00 -0.89415739097E+03  0.20138712815E+04  0.18044833328E+04 0.  0.
        5    1    3    3  502    0 -0.42111090482E+03  0.23135547602E+03  0.40518113865E+03  0.62853289139E+03  0.46999998093E+01 0.  1.
       -5    1    3    3    0  502  0.42111090482E+03 -0.23135547602E+03 -0.12993385296E+04  0.13853383901E+04  0.46999998093E+01 0. -1.
</event>
<event>
 5   0  0.3470962E-04  0.1561857E+04  0.7818609E-02  0.8844329E-01
       -1   -1    0    0    0  501  0.00000000000E+00  0.00000000000E+00  0.10436224395E+04  0.10436224395E+04  0.50400001928E-02 0.  1.
        1   -1    0    0  501    0  0.00000000000E+00  0.00000000000E+00 -0.58435828194E+03  0.58435828196E+03  0.50400001928E-02 0. -1.
    10030    2    1    2    0    0  0.00000000000E+00  0.00000000000E+00  0.45926415756E+03  0.16279807215E+04  0.15618571199E+04 0.  0.
        4    1    3    3  502    0  0.42314363336E+03 -0.52969922277E+03 -0.17435367952E+03  0.70002329927E+03  0.12699999809E+01 0. -1.
       -4    1    3    3    0  502 -0.42314363336E+03  0.52969922277E+03  0.63361783708E+03  0.92795742220E+03  0.12699999809E+01 0.  1.
</event>
<event>
 5   0  0.6929121E-04  0.1673006E+04  0.7818609E-02  0.8776912E-01
       -2   -1    0    0    0  501  0.00000000000E+00  0.00000000000E+00  0.21821766922E+04  0.21821766922E+04  0.25500000920E-02 0. -1.
        2   -1    0    0  501    0  0.00000000000E+00  0.00000000000E+00 -0.32066024033E+03  0.32066024034E+03  0.25500000920E-02 0.  1.
    10030    2    1    2    0    0  0.00000000000E+00  0.00000000000E+00  0.18615164519E+04  0.25028369326E+04  0.16730060401E+04 0.  0.
        3    1    3    3  502    0  0.66356612211E+03  0.56046589681E+01  0.16926761896E+04  0.18181045359E+04  0.10100000352E+00 0. -1.
       -3    1    3    3    0  502 -0.66356612211E+03 -0.56046589681E+01  0.16884026233E+03  0.68473239664E+03  0.10100000352E+00 0.  1.
</event>
<event>
 5   0  0.3413839E-04  0.1780495E+04  0.7818609E-02  0.8716741E-01
        1   -1    0    0  501    0  0.00000000000E+00  0.00000000000E+00  0.60152903494E+03  0.60152903496E+03  0.50400001928E-02 0. -1.
       -1   -1    0    0    0  501  0.00000000000E+00  0.00000000000E+00 -0.13175439320E+04  0.13175439320E+04  0.50400001928E-02 0.  1.
    10030    2    1    2    0    0  0.00000000000E+00  0.00000000000E+00 -0.71601489710E+03  0.19190729670E+04  0.17804953580E+04 0.  0.
        5    1    3    3  502    0  0.65419736614E+03  0.59803622365E+03 -0.26849346789E+03  0.92613840810E+03  0.46999998093E+01 0.  1.
       -5    1    3    3    0  502 -0.65419736614E+03 -0.59803622365E+03 -0.44752142921E+03  0.99293455890E+03  0.46999998093E+01 0. -1.
</event>
<event>
 5   0  0.3308275E-04  0.1937713E+04  0.7818609E-02  0.8636309E-01
        1   -1    0    0  501    0  0.00000000000E+00  0.00000000000E+00  0.84513976319E+03  0.84513976321E+03  0.50400001928E-02 0.  1.
       -1   -1    0    0    0  501  0.00000000000E+00  0.00000000000E+00 -0.11106835207E+04  0.11106835207E+04  0.50400001928E-02 0. -1.
    10030    2    1    2    0    0  0.00000000000E+00  0.00000000000E+00 -0.26554375746E+03  0.19558232839E+04  0.19377128865E+04 0.  0.
        3    1    3    3  502    0  0.52836818474E+03 -0.42868824588E+03 -0.82895470463E+03  0.10724329645E+04  0.10100000352E+00 0. -1.
       -3    1    3    3    0  502 -0.52836818474E+03  0.42868824588E+03  0.56341094716E+03  0.88339031939E+03  0.10100000352E+00 0.  1.
</event>
<event>
 5   0  0.3377273E-04  0.1765543E+04  0.7818609E-02  0.8724841E-01
       -1   -1    0    0    0  501  0.00000000000E+00  0.00000000000E+00  0.14193106256E+04  0.14193106256E+04  0.50400001928E-02 0.  1.
        1   -1    0    0  501    0  0.00000000000E+00  0.00000000000E+00 -0.54905937192E+03  0.54905937194E+03  0.50400001928E-02 0. -1.
    10030    2    1    2    0    0  0.00000000000E+00  0.00000000000E+00  0.87025125370E+03  0.19683699976E+04  0.17655433166E+04 0.  0.
        2    1    3    3  502    0 -0.45453274303E+03 -0.61328007284E+02  0.12760476753E+04  0.13559715368E+04  0.25500000920E-02 0.  1.
       -2    1    3    3    0  502  0.45453274303E+03  0.61328007284E+02 -0.40579642160E+03  0.61239846077E+03  0.25500000920E-02 0. -1.
</event>
<event>
 5   0  0.6853162E-04  0.1809777E+04  0.7818609E-02  0.8701117E-01
       -2   -1    0    0    0  501  0.00000000000E+00  0.00000000000E+00  0.11037289588E+04  0.11037289588E+04  0.25500000920E-02 0. -1.
        2   -1    0    0  501    0  0.00000000000E+00  0.00000000000E+00 -0.74186988242E+03  0.74186988242E+03  0.25500000920E-02 0.  1.
    10030    2    1    2    0    0  0.00000000000E+00  0.00000000000E+00  0.36185907639E+03  0.18455988412E+04  0.18097770834E+04 0.  0.
        2    1    3    3  502    0  0.19726718111E+03  0.59894369606E+03 -0.48089629186E+03  0.79303791544E+03  0.25500000920E-02 0.  1.
       -2    1    3    3    0  502 -0.19726718111E+03 -0.59894369606E+03  0.84275536825E+03  0.10525609258E+04  0.25500000920E-02 0. -1.
</event>
<event>
 5   0  0.3377273E-04  0.1779479E+04  0.7818609E-02  0.8717289E-01
       -1   -1    0    0    0  501  0.00000000000E+00  0.00000000000E+00  0.11976111171E+04  0.11976111171E+04  0.50400001928E-02 0.  1.
        1   -1    0    0  501    0  0.00000000000E+00  0.00000000000E+00 -0.66101305045E+03  0.66101305046E+03  0.50400001928E-02 0. -1.
    10030    2    1    2    0    0  0.00000000000E+00  0.00000000000E+00  0.53659806665E+03  0.18586241676E+04  0.17794792247E+04 0.  0.
        2    1    3    3  502    0  0.30372699044E+03 -0.81243360006E+03  0.47545887037E+03  0.98912060774E+03  0.25500000920E-02 0. -1.
       -2    1    3    3    0  502 -0.30372699044E+03  0.81243360006E+03  0.61139196278E+02  0.86950355983E+03  0.25500000920E-02 0.  1.
</event>
<event>
 5   0  0.3377273E-04  0.1773371E+04  0.7818609E-02  0.8720590E-01
       -1   -1    0    0    0  501  0.00000000000E+00  0.00000000000E+00  0.12218518379E+04  0.12218518379E+04  0.50400001928E-02 0. -1.
        1   -1    0    0  501    0  0.00000000000E+00  0.00000000000E+00 -0.64345838187E+03  0.64345838189E+03  0.50400001928E-02 0.  1.
    10030    2    1    2    0    0  0.00000000000E+00  0.00000000000E+00  0.57839345601E+03  0.18653102198E+04  0.17733705834E+04 0.  0.
        2    1    3    3  502    0  0.31551245622E+03 -0.39104047376E+03  0.10576554277E+04  0.11709379855E+04  0.25500000920E-02 0. -1.
       -2    1    3    3    0  502 -0.31551245622E+03  0.39104047376E+03 -0.47926197172E+03  0.69437223424E+03  0.25500000920E-02 0.  1.
</event>
<event>
 5   0  0.3308275E-04  0.1784187E+04  0.7818609E-02  0.8714754E-01
       -1   -1    0    0    0  501  0.00000000000E+00  0.00000000000E+00  0.71043366502E+03  0.71043366504E+03  0.50400001928E-02 0.  1.
        1   -1    0    0  501    0  0.00000000000E+00  0.00000000000E+00 -0.11202040948E+04  0.11202040948E+04  0.50400001928E-02 0. -1.
    10030    2    1    2    0    0  0.00000000000E+00  0.00000000000E+00 -0.40977042973E+03  0.18306377598E+04  0.17841868743E+04 0.  0.
        3    1    3    3  502    0  0.42656998663E+03  0.52011118229E+02  0.59723748940E+03  0.73577152627E+03  0.10100000352E+00 0.  1.
       -3    1    3    3    0  502 -0.42656998663E+03 -0.52011118229E+02 -0.10070079191E+04  0.10948662335E+04  0.10100000352E+00 0. -1.
</event>
<event>
 5   0  0.6771967E-04  0.1781123E+04  0.7818609E-02  0.8716403E-01
        2   -1    0    0  501    0  0.00000000000E+00  0.00000000000E+00  0.10777373146E+04  0.10777373146E+04  0.25500000920E-02 0. -1.
       -2   -1    0    0    0  501  0.00000000000E+00  0.00000000000E+00 -0.73589308778E+03  0.73589308779E+03  0.25500000920E-02 0.  1.
    10030    2    1    2    0    0  0.00000000000E+00  0.00000000000E+00  0.34184422680E+03  0.18136304024E+04  0.17811226126E+04 0.  0.
        1    1    3    3  502    0 -0.38638649578E+03  0.31280002294E+02 -0.64547572922E+03  0.75293550833E+03  0.50400001928E-02 0.  1.
       -1    1    3    3    0  502  0.38638649578E+03 -0.31280002294E+02  0.98731995601E+03  0.10606948940E+04  0.50400001928E-02 0. -1.
</event>
<event>
 5   0  0.6774451E-04  0.1919054E+04  0.7818609E-02  0.8645430E-01
       -2   -1    0    0    0  501  0.00000000000E+00  0.00000000000E+00  0.46876320698E+03  0.46876320699E+03  0.25500000920E-02 0.  1.
        2   -1    0    0  501    0  0.00000000000E+00  0.00000000000E+00 -0.19640874651E+04  0.19640874651E+04  0.25500000920E-02 0. -1.
    10030    2    1    2    0    0  0.00000000000E+00  0.00000000000E+00 -0.14953242581E+04  0.24328506721E+04  0.19190538699E+04 0.  0.
        4    1    3    3  502    0 -0.20765831237E+02 -0.92440348724E+03 -0.10727001874E+04  0.14162063168E+04  0.12699999809E+01 0. -1.
       -4    1    3    3    0  502  0.20765831237E+02  0.92440348724E+03 -0.42262407072E+03  0.10166443552E+04  0.12699999809E+01 0.  1.
</event>
<event>
 5   0  0.3404261E-04  0.1803757E+04  0.7818609E-02  0.8704304E-01
        1   -1    0    0  501    0  0.00000000000E+00  0.00000000000E+00  0.25102742906E+04  0.25102742906E+04  0.50400001928E-02 0.  1.
       -1   -1    0    0    0  501  0.00000000000E+00  0.00000000000E+00 -0.32402240991E+03  0.32402240995E+03  0.50400001928E-02 0. -1.
    10030    2    1    2    0    0  0.00000000000E+00  0.00000000000E+00  0.21862518807E+04  0.28342967006E+04  0.18037573288E+04 0.  0.
        1    1    3    3  502    0 -0.38537978736E+03 -0.33528184467E+02 -0.18704307704E+03  0.42968224579E+03  0.50400001928E-02 0. -1.
       -1    1    3    3    0  502  0.38537978736E+03  0.33528184467E+02  0.23732949578E+04  0.24046144548E+04  0.50400001928E-02 0.  1.
</event>
<event>
 5   0  0.6771967E-04  0.1817464E+04  0.7818609E-02  0.8697067E-01
       -2   -1    0    0    0  501  0.00000000000E+00  0.00000000000E+00  0.54334817326E+03  0.54334817327E+03  0.25500000920E-02 0.  1.
        2   -1    0    0  501    0  0.00000000000E+00  0.00000000000E+00 -0.15198240996E+04  0.15198240996E+04  0.25500000920E-02 0. -1.
    10030    2    1    2    0    0  0.00000000000E+00  0.00000000000E+00 -0.97647592635E+03  0.20631722729E+04  0.18174637803E+04 0.  0.
        1    1    3    3  502    0 -0.31958218704E+02  0.44005035084E+02 -0.15179750103E+04  0.15189489467E+04  0.50400001928E-02 0. -1.
       -1    1    3    3    0  502  0.31958218704E+02 -0.44005035084E+02  0.54149908392E+03  0.54422332619E+03  0.50400001928E-02 0.  1.
</event>
<event>
 5   0  0.6774451E-04  0.1894330E+04  0.7818609E-02  0.8657684E-01
        2   -1    0    0  501    0  0.00000000000E+00  0.00000000000E+00  0.10141454094E+04  0.10141454094E+04  0.25500000920E-02 0.  1.
       -2   -1    0    0    0  501  0.00000000000E+00  0.00000000000E+00 -0.88460800573E+03  0.88460800573E+03  0.25500000920E-02 0. -1.
    10030    2    1    2    0    0  0.00000000000E+00  0.00000000000E+00  0.12953740367E+03  0.18987534151E+04  0.18943295892E+04 0.  0.
        4    1    3    3  502    0  0.76805809302E+03  0.51214727842E+03 -0.14764945772E+03  0.93488504337E+03  0.12699999809E+01 0.  1.
       -4    1    3    3    0  502 -0.76805809302E+03 -0.51214727842E+03  0.27718686139E+03  0.96386837176E+03  0.12699999809E+01 0. -1.
</event>
<event>
 5   0  0.6547153E-04  0.1781081E+04  0.7818609E-02  0.8716426E-01
       -2   -1    0    0    0  501  0.00000000000E+00  0.00000000000E+00  0.40535747593E+03  0.40535747594E+03  0.25500000920E-02 0. -1.
        2   -1    0    0  501    0  0.00000000000E+00  0.00000000000E+00 -0.19564513963E+04  0.19564513963E+04  0.25500000920E-02 0.  1.
    10030    2    1    2    0    0  0.00000000000E+00  0.00000000000E+00 -0.15510939203E+04  0.23618088722E+04  0.17810807952E+04 0.  0.
        5    1    3    3  502    0  0.62634759622E+02  0.64965186647E+03 -0.15789532896E+04  0.17085333598E+04  0.46999998093E+01 0.  1.
       -5    1    3    3    0  502 -0.62634759622E+02 -0.64965186647E+03  0.27859369251E+02  0.65327551245E+03  0.46999998093E+01 0. -1.
</event>
<event>
 5   0  0.6771967E-04  0.1812437E+04  0.7818609E-02  0.8699714E-01
       -2   -1    0    0    0  501  0.00000000000E+00  0.00000000000E+00  0.40264674661E+03  0.40264674662E+03  0.25500000920E-02 0.  1.
        2   -1    0    0  501    0  0.00000000000E+00  0.00000000000E+00 -0.20395831941E+04  0.20395831941E+04  0.25500000920E-02 0. -1.
    10030    2    1    2    0    0  0.00000000000E+00  0.00000000000E+00 -0.16369364474E+04  0.24422299407E+04  0.18124365231E+04 0.  0.
        1    1    3    3  502    0 -0.13506207752E+03  0.86289826453E+03 -0.11440923883E+04  0.14393688105E+04  0.50400001928E-02 0. -1.
       -1    1    3    3    0  502  0.13506207752E+03 -0.86289826453E+03 -0.49284405914E+03  0.10028611302E+04  0.50400001928E-02 0.  1.
</event>
<event>
 5   0  0.6547153E-04  0.1789638E+04  0.7818609E-02  0.8711830E-01
       -2   -1    0    0    0  501  0.00000000000E+00  0.00000000000E+00  0.13849549303E+04  0.13849549303E+04  0.25500000920E-02 0.  1.
        2   -1    0    0  501    0  0.00000000000E+00  0.00000000000E+00 -0.57814203114E+03  0.57814203114E+03  0.25500000920E-02 0. -1.
    10030    2    1    2    0    0  0.00000000000E+00  0.00000000000E+00  0.80681289914E+03  0.19630969614E+04  0.17896375683E+04 0.  0.
        5    1    3    3  502    0  0.68840614484E+03  0.56965765995E+03  0.35119358220E+03  0.96008952289E+03  0.46999998093E+01 0.  1.
       -5    1    3    3    0  502 -0.68840614484E+03 -0.56965765995E+03  0.45561931694E+03  0.10030074385E+04  0.46999998093E+01 0. -1.
</event>
<event>
 5   0  0.6771967E-04  0.1256384E+04  0.7818609E-02  0.9064887E-01
        2   -1    0    0  501    0  0.00000000000E+00  0.00000000000E+00  0.17659017560E+04  0.17659017560E+04  0.25500000920E-02 0.  1.
       -2   -1    0    0    0  501  0.00000000000E+00  0.00000000000E+00 -0.22346942171E+03  0.22346942173E+03  0.25500000920E-02 0. -1.
    10030    2    1    2    0    0  0.00000000000E+00  0.00000000000E+00  0.15424323343E+04  0.19893711777E+04  0.12563837698E+04 0.  0.
        1    1    3    3  502    0 -0.35544615359E+03  0.29282077722E+02 -0.47616240481E+02  0.35981483371E+03  0.50400001928E-02 0. -1.
       -1    1    3    3    0  502  0.35544615359E+03 -0.29282077722E+02  0.15900485748E+04  0.16295563440E+04  0.50400001928E-02 0.  1.
</event>
<event>
 5   0  0.3470962E-04  0.1776199E+04  0.7818609E-02  0.8719060E-01
        1   -1    0    0  501    0  0.00000000000E+00  0.00000000000E+00  0.88284565870E+03  0.88284565872E+03  0.50400001928E-02 0.  1.
       -1   -1    0    0    0  501  0.00000000000E+00  0.00000000000E+00 -0.89338499731E+03  0.89338499733E+03  0.50400001928E-02 0. -1.
    10030    2    1    2    0    0  0.00000000000E+00  0.00000000000E+00 -0.10539338607E+02  0.17762306560E+04  0.17761993880E+04 0.  0.
        4    1    3    3  502    0  0.63148219540E+03  0.27957000174E+03  0.55312202309E+03  0.88480208765E+03  0.12699999809E+01 0.  1.
       -4    1    3    3    0  502 -0.63148219540E+03 -0.27957000174E+03 -0.56366136169E+03  0.89142856840E+03  0.12699999809E+01 0. -1.
</event>
<event>
 5   0  0.3308275E-04  0.1788454E+04  0.7818609E-02  0.8712463E-01
       -1   -1    0    0    0  501  0.00000000000E+00  0.00000000000E+00  0.15706754516E+04  0.15706754516E+04  0.50400001928E-02 0.  1.
        1   -1    0    0  501    0  0.00000000000E+00  0.00000000000E+00 -0.50910726310E+03  0.50910726313E+03  0.50400001928E-02 0. -1.
    10030    2    1    2    0    0  0.00000000000E+00  0.00000000000E+00  0.10615681885E+04  0.20797827147E+04  0.17884543946E+04 0.  0.
        3    1    3    3  502    0  0.34497139756E+03  0.12916828188E+03 -0.41678005098E+03  0.55623316269E+03  0.10100000352E+00 0. -1.
       -3    1    3    3    0  502 -0.34497139756E+03 -0.12916828188E+03  0.14783482394E+04  0.15235495520E+04  0.10100000352E+00 0.  1.
</event>
<event>
 5   0  0.6771967E-04  0.1789095E+04  0.7818609E-02  0.8712120E-01
       -2   -1    0    0    0  501  0.00000000000E+00  0.00000000000E+00  0.31109865547E+03  0.31109865549E+03  0.25500000920E-02 0. -1.
        2   -1    0    0  501    0  0.00000000000E+00  0.00000000000E+00 -0.25722236721E+04  0.25722236721E+04  0.25500000920E-02 0.  1.
    10030    2    1    2    0    0  0.00000000000E+00  0.00000000000E+00 -0.22611250166E+04  0.28833223276E+04  0.17890951076E+04 0.  0.
        1    1    3    3  502    0  0.44391887943E+02  0.37425417329E+03 -0.24380321470E+04  0.24669895776E+04  0.50400001928E-02 0.  1.
       -1    1    3    3    0  502 -0.44391887943E+02 -0.37425417329E+03  0.17690713038E+03  0.41633275002E+03  0.50400001928E-02 0. -1.
</event>
<event>
 5   0  0.3377273E-04  0.1391760E+04  0.7818609E-02  0.8959805E-01
       -1   -1    0    0    0  501  0.00000000000E+00  0.00000000000E+00  0.63994741663E+03  0.63994741665E+03  0.50400001928E-02 0.  1.
        1   -1    0    0  501    0  0.00000000000E+00  0.00000000000E+00 -0.75670138628E+03  0.75670138630E+03  0.50400001928E-02 0. -1.
    10030    2    1    2    0    0  0.00000000000E+00  0.00000000000E+00 -0.11675396965E+03  0.13966488029E+04  0.13917601767E+04 0.  0.
        2    1    3    3  502    0 -0.52903096165E+02 -0.65173260152E+03 -0.29732041571E+03  0.71829906799E+03  0.25500000920E-02 0.  1.
       -2    1    3    3    0  502  0.52903096165E+02  0.65173260152E+03  0.18056644606E+03  0.67834973496E+03  0.25500000920E-02 0. -1.
</event>
<event>
 5   0  0.6853162E-04  0.1626962E+04  0.7818609E-02  0.8804153E-01
       -2   -1    0    0    0  501  0.00000000000E+00  0.00000000000E+00  0.92462797213E+03  0.92462797214E+03  0.25500000920E-02 0.  1.
        2   -1    0    0  501    0  0.00000000000E+00  0.00000000000E+00 -0.71569466968E+03  0.71569466969E+03  0.25500000920E-02 0. -1.
    10030    2    1    2    0    0  0.00000000000E+00  0.00000000000E+00  0.20893330245E+03  0.16403226418E+04  0.16269619677E+04 0.  0.
        2    1    3    3  502    0 -0.39962308634E+03 -0.61096744948E+03  0.46626094674E+03  0.86624425304E+03  0.25500000920E-02 0.  1.
       -2    1    3    3    0  502  0.39962308634E+03  0.61096744948E+03 -0.25732764428E+03  0.77407838878E+03  0.25500000920E-02 0. -1.
</event>
<event>
 5   0  0.3470962E-04  0.1855595E+04  0.7818609E-02  0.8677281E-01
        1   -1    0    0  501    0  0.00000000000E+00  0.00000000000E+00  0.10902661318E+04  0.10902661318E+04  0.50400001928E-02 0. -1.
       -1   -1    0    0    0  501  0.00000000000E+00  0.00000000000E+00 -0.78953963934E+03  0.78953963936E+03  0.50400001928E-02 0.  1.
    10030    2    1    2    0    0  0.00000000000E+00  0.00000000000E+00  0.30072649244E+03  0.18798057712E+04  0.18555951374E+04 0.  0.
        4    1    3    3  502    0  0.53116297123E+03  0.52845164019E+03  0.70468762000E+03  0.10285822732E+04  0.12699999809E+01 0. -1.
       -4    1    3    3    0  502 -0.53116297123E+03 -0.52845164019E+03 -0.40396112756E+03  0.85122349798E+03  0.12699999809E+01 0.  1.
</event>
<event>
 5   0  0.6547153E-04  0.1537791E+04  0.7818609E-02  0.8859704E-01
        2   -1    0    0  501    0  0.00000000000E+00  0.00000000000E+00  0.12829381894E+04  0.12829381894E+04  0.25500000920E-02 0. -1.
       -2   -1    0    0    0  501  0.00000000000E+00  0.00000000000E+00 -0.46081739743E+03  0.46081739744E+03  0.25500000920E-02 0.  1.
    10030    2    1    2    0    0  0.00000000000E+00  0.00000000000E+00  0.82212079192E+03  0.17437555868E+04  0.15377909318E+04 0.  0.
        5    1    3    3  502    0 -0.73443778784E+03 -0.20626770231E+03  0.30210272478E+03  0.82050799846E+03  0.46999998093E+01 0.  1.
       -5    1    3    3    0  502  0.73443778784E+03  0.20626770231E+03  0.52001806714E+03  0.92324758834E+03  0.46999998093E+01 0. -1.
</event>
<event>
 5   0  0.3470962E-04  0.1800757E+04  0.7818609E-02  0.8705897E-01
        1   -1    0    0  501    0  0.00000000000E+00  0.00000000000E+00  0.16138679294E+04  0.16138679294E+04  0.50400001928E-02 0.  1.
       -1   -1    0    0    0  501  0.00000000000E+00  0.00000000000E+00 -0.50232218799E+03  0.50232218802E+03  0.50400001928E-02 0. -1.
    10030    2    1    2    0    0  0.00000000000E+00  0.00000000000E+00  0.11115457414E+04  0.21161901174E+04  0.18007572512E+04 0.  0.
        4    1    3    3  502    0 -0.35205698581E+03 -0.55351275524E+02 -0.41590757046E+03  0.54771215526E+03  0.12699999809E+01 0. -1.
       -4    1    3    3    0  502  0.35205698581E+03  0.55351275524E+02  0.15274533118E+04  0.15684779621E+04  0.12699999809E+01 0.  1.
</event>
<event>
 5   0  0.6771967E-04  0.1811610E+04  0.7818609E-02  0.8700150E-01
        2   -1    0    0  501    0  0.00000000000E+00  0.00000000000E+00  0.12482730994E+04  0.12482730994E+04  0.25500000920E-02 0. -1.
       -2   -1    0    0    0  501  0.00000000000E+00  0.00000000000E+00 -0.65729407149E+03  0.65729407150E+03  0.25500000920E-02 0.  1.
    10030    2    1    2    0    0  0.00000000000E+00  0.00000000000E+00  0.59097902787E+03  0.19055671709E+04  0.18116097900E+04 0.  0.
        1    1    3    3  502    0  0.45746140284E+03  0.32382221876E+03  0.10439783535E+04  0.11849145822E+04  0.50400001928E-02 0. -1.
       -1    1    3    3    0  502 -0.45746140284E+03 -0.32382221876E+03 -0.45299932567E+03  0.72065258865E+03  0.50400001928E-02 0.  1.
</event>
<event>
 5   0  0.3377273E-04  0.1384761E+04  0.7818609E-02  0.8964924E-01
        1   -1    0    0  501    0  0.00000000000E+00  0.00000000000E+00  0.34491571951E+03  0.34491571955E+03  0.50400001928E-02 0.  1.
       -1   -1    0    0    0  501  0.00000000000E+00  0.00000000000E+00 -0.13898779750E+04  0.13898779750E+04  0.50400001928E-02 0. -1.
    10030    2    1    2    0    0  0.00000000000E+00  0.00000000000E+00 -0.10449622555E+04  0.17347936945E+04  0.13847610073E+04 0.  0.
        2    1    3    3  502    0  0.54277121516E+03 -0.37558706957E+03 -0.26052078557E+03  0.70960363482E+03  0.25500000920E-02 0.  1.
       -2    1    3    3    0  502 -0.54277121516E+03  0.37558706957E+03 -0.78444146991E+03  0.10251900597E+04  0.25500000920E-02 0. -1.
</event>
<event>
 5   0  0.3377273E-04  0.1464027E+04  0.7818609E-02  0.8908733E-01
        1   -1    0    0  501    0  0.00000000000E+00  0.00000000000E+00  0.65968999218E+03  0.65968999220E+03  0.50400001928E-02 0. -1.
       -1   -1    0    0    0  501  0.00000000000E+00  0.00000000000E+00 -0.81226615931E+03  0.81226615933E+03  0.50400001928E-02 0.  1.
    10030    2    1    2    0    0  0.00000000000E+00  0.00000000000E+00 -0.15257616713E+03  0.14719561515E+04  0.14640271259E+04 0.  0.
        2    1    3    3  502    0  0.34346962589E+03  0.38139585719E+03 -0.60104359840E+03  0.79037180553E+03  0.25500000920E-02 0. -1.
       -2    1    3    3    0  502 -0.34346962589E+03 -0.38139585719E+03  0.44846743127E+03  0.68158434600E+03  0.25500000920E-02 0.  1.
</event>
<event>
 5   0  0.3308275E-04  0.1723370E+04  0.7818609E-02  0.8748147E-01
       -1   -1    0    0    0  501  0.00000000000E+00  0.00000000000E+00  0.75599228355E+03  0.75599228357E+03  0.50400001928E-02 0. -1.
        1   -1    0    0  501    0  0.00000000000E+00  0.00000000000E+00 -0.98215439656E+03  0.98215439657E+03  0.50400001928E-02 0.  1.
    10030    2    1    2    0    0  0.00000000000E+00  0.00000000000E+00 -0.22616211301E+03  0.17381466801E+04  0.17233701228E+04 0.  0.
        3    1    3    3  502    0  0.34347789940E+03 -0.22577451611E+03 -0.87690537509E+03  0.96845972894E+03  0.10100000352E+00 0.  1.
       -3    1    3    3    0  502 -0.34347789940E+03  0.22577451611E+03  0.65074326208E+03  0.76968695120E+03  0.10100000352E+00 0. -1.
</event>
<event>
 5   0  0.3413839E-04  0.1514322E+04  0.7818609E-02  0.8874985E-01
       -1   -1    0    0    0  501  0.00000000000E+00  0.00000000000E+00  0.10688673466E+04  0.10688673466E+04  0.50400001928E-02 0.  1.
        1   -1    0    0  501    0  0.00000000000E+00  0.00000000000E+00 -0.53635505452E+03  0.53635505455E+03  0.50400001928E-02 0. -1.
    10030    2    1    2    0    0  0.00000000000E+00  0.00000000000E+00  0.53251229209E+03  0.16052224012E+04  0.15143215035E+04 0.  0.
        5    1    3    3  502    0  0.42393051736E+03  0.61588702115E+03  0.39273482761E+03  0.84456890849E+03  0.46999998093E+01 0. -1.
       -5    1    3    3    0  502 -0.42393051736E+03 -0.61588702115E+03  0.13977746448E+03  0.76065349269E+03  0.46999998093E+01 0.  1.
</event>
<event>
 5   0  0.3470962E-04  0.1798189E+04  0.7818609E-02  0.8707263E-01
       -1   -1    0    0    0  501  0.00000000000E+00  0.00000000000E+00  0.88998877810E+03  0.88998877811E+03  0.50400001928E-02 0. -1.
        1   -1    0    0  501    0  0.00000000000E+00  0.00000000000E+00 -0.90829330316E+03  0.90829330318E+03  0.50400001928E-02 0.  1.
    10030    2    1    2    0    0  0.00000000000E+00  0.00000000000E+00 -0.18304525065E+02  0.17982820813E+04  0.17981889190E+04 0.  0.
        4    1    3    3  502    0  0.71980597774E+03  0.38537297332E+03  0.36734600680E+03  0.89530870417E+03  0.12699999809E+01 0. -1.
       -4    1    3    3    0  502 -0.71980597774E+03 -0.38537297332E+03 -0.38565053187E+03  0.90297337712E+03  0.12699999809E+01 0.  1.
</event>
<event>
 5   0  0.6774451E-04  0.1813433E+04  0.7818609E-02  0.8699188E-01
        2   -1    0    0  501    0  0.00000000000E+00  0.00000000000E+00  0.60027140814E+03  0.60027140814E+03  0.25500000920E-02 0. -1.
       -2   -1    0    0    0  501  0.00000000000E+00  0.00000000000E+00 -0.13696050668E+04  0.13696050668E+04  0.25500000920E-02 0.  1.
    10030    2    1    2    0    0  0.00000000000E+00  0.00000000000E+00 -0.76933365864E+03  0.19698764749E+04  0.18134329456E+04 0.  0.
        4    1    3    3  502    0  0.10249912488E+03 -0.18062766997E+02  0.59376021488E+03  0.60281434938E+03  0.12699999809E+01 0. -1.
       -4    1    3    3    0  502 -0.10249912488E+03  0.18062766997E+02 -0.13630938735E+04  0.13670621255E+04  0.12699999809E+01 0.  1.
</event>
<event>
 5   0  0.6771967E-04  0.1735381E+04  0.7818609E-02  0.8741439E-01
       -2   -1    0    0    0  501  0.00000000000E+00  0.00000000000E+00  0.10133828826E+04  0.10133828826E+04  0.25500000920E-02 0.  1.
        2   -1    0    0  501    0  0.00000000000E+00  0.00000000000E+00 -0.74294398041E+03  0.74294398042E+03  0.25500000920E-02 0. -1.
    10030    2    1    2    0    0  0.00000000000E+00  0.00000000000E+00  0.27043890222E+03  0.17563268631E+04  0.17353808948E+04 0.  0.
        1    1    3    3  502    0 -0.12281683937E+03 -0.85752335905E+03  0.85058900039E+02  0.87043971867E+03  0.50400001928E-02 0. -1.
       -1    1    3    3    0  502  0.12281683937E+03  0.85752335905E+03  0.18538000218E+03  0.88588714438E+03  0.50400001928E-02 0.  1.
</event>
<event>
 5   0  0.6547153E-04  0.1802480E+04  0.7818609E-02  0.8704982E-01
       -2   -1    0    0    0  501  0.00000000000E+00  0.00000000000E+00  0.74000522181E+03  0.74000522181E+03  0.25500000920E-02 0.  1.
        2   -1    0    0  501    0  0.00000000000E+00  0.00000000000E+00 -0.10976047087E+04  0.10976047087E+04  0.25500000920E-02 0. -1.
    10030    2    1    2    0    0  0.00000000000E+00  0.00000000000E+00 -0.35759948686E+03  0.18376099305E+04  0.18024796431E+04 0.  0.
        5    1    3    3  502    0  0.50667313460E+02 -0.89105983512E+02 -0.10916299555E+04  0.10964420198E+04  0.46999998093E+01 0. -1.
       -5    1    3    3    0  502 -0.50667313460E+02  0.89105983512E+02  0.73403046866E+03  0.74116791071E+03  0.46999998093E+01 0.  1.
</event>
<event>
 5   0  0.6853162E-04  0.1833876E+04  0.7818609E-02  0.8688489E-01
       -2   -1    0    0    0  501  0.00000000000E+00  0.00000000000E+00  0.63078868599E+03  0.63078868599E+03  0.25500000920E-02 0. -1.
        2   -1    0    0  501    0  0.00000000000E+00  0.00000000000E+00 -0.13328946286E+04  0.13328946286E+04  0.25500000920E-02 0.  1.
    10030    2    1    2    0    0  0.00000000000E+00  0.00000000000E+00 -0.70210594262E+03  0.19636833146E+04  0.18338755152E+04 0.  0.
        2    1    3    3  502    0 -0.11369442936E+03  0.82156652958E+03 -0.76972358855E+03  0.11315354120E+04  0.25500000920E-02 0.  1.
       -2    1    3    3    0  502  0.11369442936E+03 -0.82156652958E+03  0.67617645930E+02  0.83214790262E+03  0.25500000920E-02 0. -1.
</event>
<event>
 5   0  0.3377273E-04  0.1802557E+04  0.7818609E-02  0.8704941E-01
       -1   -1    0    0    0  501  0.00000000000E+00  0.00000000000E+00  0.48132562488E+03  0.48132562491E+03  0.50400001928E-02 0.  1.
        1   -1    0    0  501    0  0.00000000000E+00  0.00000000000E+00 -0.16876371797E+04  0.16876371797E+04  0.50400001928E-02 0. -1.
    10030    2    1    2    0    0  0.00000000000E+00  0.00000000000E+00 -0.12063115549E+04  0.21689628046E+04  0.18025570950E+04 0.  0.
        2    1    3    3  502    0  0.77626994835E+03  0.37966391707E+03 -0.29505452133E+03  0.91312479607E+03  0.25500000920E-02 0. -1.
       -2    1    3    3    0  502 -0.77626994835E+03 -0.37966391707E+03 -0.91125703352E+03  0.12558380086E+04  0.25500000920E-02 0.  1.
</event>
<event>
 5   0  0.3404261E-04  0.1829136E+04  0.7818609E-02  0.8690957E-01
       -1   -1    0    0    0  501  0.00000000000E+00  0.00000000000E+00  0.14931528708E+04  0.14931528708E+04  0.50400001928E-02 0. -1.
        1   -1    0    0  501    0  0.00000000000E+00  0.00000000000E+00 -0.56018035642E+03  0.56018035644E+03  0.50400001928E-02 0.  1.
    10030    2    1    2    0    0  0.00000000000E+00  0.00000000000E+00  0.93297251437E+03  0.20533332272E+04  0.18291363070E+04 0.  0.
        1    1    3    3  502    0  0.52857391995E+03  0.65342612782E+01 -0.37131628268E+03  0.64599447926E+03  0.50400001928E-02 0.  1.
       -1    1    3    3    0  502 -0.52857391995E+03 -0.65342612782E+01  0.13042887970E+04  0.14073387480E+04  0.50400001928E-02 0. -1.
</event>
<event>
 5   0  0.6547153E-04  0.1867487E+04  0.7818609E-02  0.8671211E-01
        2   -1    0    0  501    0  0.00000000000E+00  0.00000000000E+00  0.19290493359E+04  0.19290493359E+04  0.25500000920E-02 0. -1.
       -2   -1    0    0    0  501  0.00000000000E+00  0.00000000000E+00 -0.45197242727E+03  0.45197242728E+03  0.25500000920E-02 0.  1.
    10030    2    1    2    0    0  0.00000000000E+00  0.00000000000E+00  0.14770769087E+04  0.23810217632E+04  0.18674872002E+04 0.  0.
        5    1    3    3  502    0 -0.18348833898E+03  0.83690299026E+03  0.12117981358E+04  0.14840995241E+04  0.46999998093E+01 0. -1.
       -5    1    3    3    0  502  0.18348833898E+03 -0.83690299026E+03  0.26527877290E+03  0.89692223910E+03  0.46999998093E+01 0.  1.
</event>
<event>
 5   0  0.6771967E-04  0.1790446E+04  0.7818609E-02  0.8711397E-01
       -2   -1    0    0    0  501  0.00000000000E+00  0.00000000000E+00  0.88028807234E+03  0.88028807235E+03  0.25500000920E-02 0.  1.
        2   -1    0    0  501    0  0.00000000000E+00  0.00000000000E+00 -0.91041156739E+03  0.91041156740E+03  0.25500000920E-02 0. -1.
    10030    2    1    2    0    0  0.00000000000E+00  0.00000000000E+00 -0.30123495051E+02  0.17906996397E+04  0.17904462502E+04 0.  0.
        1    1    3    3  502    0 -0.75548729420E+03  0.28712695612E+03 -0.40011169178E+03  0.90182720437E+03  0.50400001928E-02 0. -1.
       -1    1    3    3    0  502  0.75548729420E+03 -0.28712695612E+03  0.36998819673E+03  0.88887243537E+03  0.50400001928E-02 0.  1.
</event>
<event>
 5   0  0.3413839E-04  0.1468151E+04  0.7818609E-02  0.8905913E-01
        1   -1    0    0  501    0  0.00000000000E+00  0.00000000000E+00  0.18188932545E+04  0.18188932545E+04  0.50400001928E-02 0.  1.
       -1   -1    0    0    0  501  0.00000000000E+00  0.00000000000E+00 -0.29626081553E+03  0.29626081557E+03  0.50400001928E-02 0. -1.
    10030    2    1    2    0    0  0.00000000000E+00  0.00000000000E+00  0.15226324390E+04  0.21151540701E+04  0.14681509445E+04 0.  0.
        5    1    3    3  502    0 -0.28354046514E+02  0.43619857241E+03  0.16109237082E+04  0.16691825634E+04  0.46999998093E+01 0. -1.
       -5    1    3    3    0  502  0.28354046514E+02 -0.43619857241E+03 -0.88291269200E+02  0.44597150665E+03  0.46999998093E+01 0.  1.
</event>
<event>
 5   0  0.3308275E-04  0.1823839E+04  0.7818609E-02  0.8693724E-01
       -1   -1    0    0    0  501  0.00000000000E+00  0.00000000000E+00  0.28800077075E+04  0.28800077075E+04  0.50400001928E-02 0.  1.
        1   -1    0    0  501    0  0.00000000000E+00  0.00000000000E+00 -0.28874824659E+03  0.28874824663E+03  0.50400001928E-02 0. -1.
    10030    2    1    2    0    0  0.00000000000E+00  0.00000000000E+00  0.25912594609E+04  0.31687559541E+04  0.18238390014E+04 0.  0.
        3    1    3    3  502    0 -0.24558040723E+03 -0.12043604269E+03  0.28070591106E+04  0.28203537787E+04  0.10100000352E+00 0.  1.
       -3    1    3    3    0  502  0.24558040723E+03  0.12043604269E+03 -0.21579964969E+03  0.34840217537E+03  0.10100000352E+00 0. -1.
</event>
<event>
 5   0  0.6547153E-04  0.1809213E+04  0.7818609E-02  0.8701415E-01
       -2   -1    0    0    0  501  0.00000000000E+00  0.00000000000E+00  0.32201907736E+03  0.32201907737E+03  0.25500000920E-02 0. -1.
        2   -1    0    0  501    0  0.00000000000E+00  0.00000000000E+00 -0.25411952623E+04  0.25411952623E+04  0.25500000920E-02 0.  1.
    10030    2    1    2    0    0  0.00000000000E+00  0.00000000000E+00 -0.22191761849E+04  0.28632143397E+04  0.18092134797E+04 0.  0.
        5    1    3    3  502    0 -0.57303578506E+03  0.69351684968E+03 -0.12593537254E+04  0.15476852158E+04  0.46999998093E+01 0.  1.
       -5    1    3    3    0  502  0.57303578506E+03 -0.69351684968E+03 -0.95982245960E+03  0.13155291238E+04  0.46999998093E+01 0. -1.
</event>
<event>
 5   0  0.3308275E-04  0.9402617E+03  0.7818609E-02  0.9376606E-01
       -1   -1    0    0    0  501  0.00000000000E+00  0.00000000000E+00  0.13925110603E+03  0.13925110612E+03  0.50400001928E-02 0.  1.
        1   -1    0    0  501    0  0.00000000000E+00  0.00000000000E+00 -0.15872261650E+04  0.15872261650E+04  0.50400001928E-02 0. -1.
    10030    2    1    2    0    0  0.00000000000E+00  0.00000000000E+00 -0.14479750589E+04  0.17264772711E+04  0.94026166374E+03 0.  0.
        3    1    3    3  502    0  0.42661025744E+02 -0.24084714539E+03 -0.14611934814E+04  0.14815241175E+04  0.10100000352E+00 0. -1.
       -3    1    3    3    0  502 -0.42661025744E+02  0.24084714539E+03  0.13218422427E+02  0.24495315359E+03  0.10100000352E+00 0.  1.
</event>
<event>
 5   0  0.6547153E-04  0.1789388E+04  0.7818609E-02  0.8711963E-01
        2   -1    0    0  501    0  0.00000000000E+00  0.00000000000E+00  0.11084904599E+04  0.11084904599E+04  0.25500000920E-02 0.  1.
       -2   -1    0    0    0  501  0.00000000000E+00  0.00000000000E+00 -0.72213282460E+03  0.72213282461E+03  0.25500000920E-02 0. -1.
    10030    2    1    2    0    0  0.00000000000E+00  0.00000000000E+00  0.38635763528E+03  0.18306232845E+04  0.17893879924E+04 0.  0.
        5    1    3    3  502    0 -0.75266986720E+03 -0.35239203112E+03  0.53211880751E+03  0.98684577715E+03  0.46999998093E+01 0.  1.
       -5    1    3    3    0  502  0.75266986720E+03  0.35239203112E+03 -0.14576117222E+03  0.84377750735E+03  0.46999998093E+01 0. -1.
</event>
<event>
 5   0  0.3377273E-04  0.1764126E+04  0.7818609E-02  0.8725613E-01
       -1   -1    0    0    0  501  0.00000000000E+00  0.00000000000E+00  0.77119147798E+03  0.77119147800E+03  0.50400001928E-02 0.  1.
        1   -1    0    0  501    0  0.00000000000E+00  0.00000000000E+00 -0.10088737696E+04  0.10088737696E+04  0.50400001928E-02 0. -1.
    10030    2    1    2    0    0  0.00000000000E+00  0.00000000000E+00 -0.23768229158E+03  0.17800652476E+04  0.17641256797E+04 0.  0.
        2    1    3    3  502    0 -0.15669979520E+02  0.86492288101E+03  0.55046175779E+02  0.86681440910E+03  0.25500000920E-02 0. -1.
       -2    1    3    3    0  502  0.15669979520E+02 -0.86492288101E+03 -0.29272846736E+03  0.91325083847E+03  0.25500000920E-02 0.  1.
</event>
<event>
 5   0  0.6771967E-04  0.1806376E+04  0.7818609E-02  0.8702916E-01
       -2   -1    0    0    0  501  0.00000000000E+00  0.00000000000E+00  0.50133188955E+03  0.50133188956E+03  0.25500000920E-02 0. -1.
        2   -1    0    0  501    0  0.00000000000E+00  0.00000000000E+00 -0.16271622457E+04  0.16271622457E+04  0.25500000920E-02 0.  1.
    10030    2    1    2    0    0  0.00000000000E+00  0.00000000000E+00 -0.11258303562E+04  0.21284941353E+04  0.18063757342E+04 0.  0.
        1    1    3    3  502    0 -0.50244207490E+03  0.73789254228E+03 -0.40128773555E+03  0.97875701240E+03  0.50400001928E-02 0. -1.
       -1    1    3    3    0  502  0.50244207490E+03 -0.73789254228E+03 -0.72454262062E+03  0.11497371229E+04  0.50400001928E-02 0.  1.
</event>
<event>
 5   0  0.3377273E-04  0.1627100E+04  0.7818609E-02  0.8804070E-01
       -1   -1    0    0    0  501  0.00000000000E+00  0.00000000000E+00  0.37355343937E+03  0.37355343940E+03  0.50400001928E-02 0.  1.
        1   -1    0    0  501    0  0.00000000000E+00  0.00000000000E+00 -0.17718054015E+04  0.17718054015E+04  0.50400001928E-02 0. -1.
    10030    2    1    2    0    0  0.00000000000E+00  0.00000000000E+00 -0.13982519621E+04  0.21453588409E+04  0.16271004906E+04 0.  0.
        2    1    3    3  502    0  0.42690619013E+03 -0.53237248861E+03 -0.11510407504E+03  0.69203924015E+03  0.25500000920E-02 0.  1.
       -2    1    3    3    0  502 -0.42690619013E+03  0.53237248861E+03 -0.12831478871E+04  0.14533196008E+04  0.25500000920E-02 0. -1.
</event>
<event>
 5   0  0.6774451E-04  0.1818015E+04  0.7818609E-02  0.8696777E-01
        2   -1    0    0  501    0  0.00000000000E+00  0.00000000000E+00  0.11354260776E+04  0.11354260776E+04  0.25500000920E-02 0.  1.
       -2   -1    0    0    0  501  0.00000000000E+00  0.00000000000E+00 -0.72773987204E+03  0.72773987204E+03  0.25500000920E-02 0. -1.
    10030    2    1    2    0    0  0.00000000000E+00  0.00000000000E+00  0.40768620558E+03  0.18631659497E+04  0.18180152128E+04 0.  0.
        4    1    3    3  502    0 -0.85883123747E+03  0.91767726895E+02  0.49421854625E+03  0.99512109540E+03  0.12699999809E+01 0.  1.
       -4    1    3    3    0  502  0.85883123747E+03 -0.91767726895E+02 -0.86532340661E+02  0.86804485427E+03  0.12699999809E+01 0. -1.
</event>
<event>
 5   0  0.3470962E-04  0.1742761E+04  0.7818609E-02  0.8737345E-01
        1   -1    0    0  501    0  0.00000000000E+00  0.00000000000E+00  0.11801968896E+04  0.11801968897E+04  0.50400001928E-02 0. -1.
       -1   -1    0    0    0  501  0.00000000000E+00  0.00000000000E+00 -0.64337072095E+03  0.64337072097E+03  0.50400001928E-02 0.  1.
    10030    2    1    2    0    0  0.00000000000E+00  0.00000000000E+00  0.53682616869E+03  0.18235676106E+04  0.17427611698E+04 0.  0.
        4    1    3    3  502    0 -0.44169874897E+03  0.53097353594E+03  0.82434008091E+03  0.10754389163E+04  0.12699999809E+01 0. -1.
       -4    1    3    3    0  502  0.44169874897E+03 -0.53097353594E+03 -0.28751391223E+03  0.74812869436E+03  0.12699999809E+01 0.  1.
</event>
<event>
 5   0  0.2467375E-04  0.1774323E+04  0.7818609E-02  0.8720074E-01
        4   -1    0    0  501    0  0.00000000000E+00  0.00000000000E+00  0.13011309862E+04  0.13011316060E+04  0.12699999809E+01 0. -1.
       -4   -1    0    0    0  501  0.00000000000E+00  0.00000000000E+00 -0.60489981522E+03  0.60490114842E+03  0.12699999809E+01 0.  1.
    10030    2    1    2    0    0  0.00000000000E+00  0.00000000000E+00  0.69623117095E+03  0.19060327544E+04  0.17743232562E+04 0.  0.
        5    1    3    3  502    0 -0.76338078001E+03 -0.29304042576E+02  0.83262194331E+03  0.11299957224E+04  0.46999998093E+01 0. -1.
       -5    1    3    3    0  502  0.76338078001E+03  0.29304042576E+02 -0.13639077237E+03  0.77603703197E+03  0.46999998093E+01 0.  1.
</event>
<event>
 5   0  0.3413839E-04  0.1751272E+04  0.7818609E-02  0.8732650E-01
       -1   -1    0    0    0  501  0.00000000000E+00  0.00000000000E+00  0.48996873630E+03  0.48996873633E+03  0.50400001928E-02 0.  1.
        1   -1    0    0  501    0  0.00000000000E+00  0.00000000000E+00 -0.15648719890E+04  0.15648719890E+04  0.50400001928E-02 0. -1.
    10030    2    1    2    0    0  0.00000000000E+00  0.00000000000E+00 -0.10749032527E+04  0.20548407253E+04  0.17512719389E+04 0.  0.
        5    1    3    3  502    0  0.18639391510E+03  0.15903636131E+03  0.44891026491E+03  0.51144674380E+03  0.46999998093E+01 0.  1.
       -5    1    3    3    0  502 -0.18639391510E+03 -0.15903636131E+03 -0.15238135176E+04  0.15433939815E+04  0.46999998093E+01 0. -1.
</event>
<event>
 5   0  0.3377273E-04  0.1865404E+04  0.7818609E-02  0.8672271E-01
       -1   -1    0    0    0  501  0.00000000000E+00  0.00000000000E+00  0.81572403888E+03  0.81572403890E+03  0.50400001928E-02 0.  1.
        1   -1    0    0  501    0  0.00000000000E+00  0.00000000000E+00 -0.10664552201E+04  0.10664552202E+04  0.50400001928E-02 0. -1.
    10030    2    1    2    0    0  0.00000000000E+00  0.00000000000E+00 -0.25073118126E+03  0.18821792590E+04  0.18654041487E+04 0.  0.
        2    1    3    3  502    0 -0.11174030623E+03  0.86065920268E+03  0.21933947189E+03  0.89517035425E+03  0.25500000920E-02 0. -1.
       -2    1    3    3    0  502  0.11174030623E+03 -0.86065920268E+03 -0.47007065314E+03  0.98700890480E+03  0.25500000920E-02 0.  1.
</event>
<event>
 5   0  0.3308275E-04  0.1633409E+04  0.7818609E-02  0.8800283E-01
        1   -1    0    0  501    0  0.00000000000E+00  0.00000000000E+00  0.11224505795E+04  0.11224505795E+04  0.50400001928E-02 0.  1.
       -1   -1    0    0    0  501  0.00000000000E+00  0.00000000000E+00 -0.59424083407E+03  0.59424083409E+03  0.50400001928E-02 0. -1.
    10030    2    1    2    0    0  0.00000000000E+00  0.00000000000E+00  0.52820974543E+03  0.17166914136E+04  0.16334086673E+04 0.  0.
        3    1    3    3  502    0 -0.54059346688E+03  0.39582105113E+03  0.75491736881E+03  0.10093640794E+04  0.10100000352E+00 0.  1.
       -3    1    3    3    0  502  0.54059346688E+03 -0.39582105113E+03 -0.22670762338E+03  0.70732733416E+03  0.10100000352E+00 0. -1.
</event>
<event>
 5   0  0.3413839E-04  0.1671532E+04  0.7818609E-02  0.8777769E-01
       -1   -1    0    0    0  501  0.00000000000E+00  0.00000000000E+00  0.11837309229E+04  0.11837309229E+04  0.50400001928E-02 0.  1.
        1   -1    0    0  501    0  0.00000000000E+00  0.00000000000E+00 -0.59008780902E+03  0.59008780904E+03  0.50400001928E-02 0. -1.
    10030    2    1    2    0    0  0.00000000000E+00  0.00000000000E+00  0.59364311390E+03  0.17738187320E+04  0.16715324547E+04 0.  0.
        5    1    3    3  502    0  0.28408060776E+03 -0.62469096015E+03  0.80302569980E+03  0.10563204779E+04  0.46999998093E+01 0.  1.
       -5    1    3    3    0  502 -0.28408060776E+03  0.62469096015E+03 -0.20938258590E+03  0.71749825412E+03  0.46999998093E+01 0. -1.
</event>
<event>
 5   0  0.3413839E-04  0.1872608E+04  0.7818609E-02  0.8668612E-01
       -1   -1    0    0    0  501  0.00000000000E+00  0.00000000000E+00  0.60035036064E+03  0.60035036066E+03  0.50400001928E-02 0. -1.
        1   -1    0    0  501    0  0.00000000000E+00  0.00000000000E+00 -0.14602565891E+04  0.14602565891E+04  0.50400001928E-02 0.  1.
    10030    2    1    2    0    0  0.00000000000E+00  0.00000000000E+00 -0.85990622849E+03  0.20606069498E+04  0.18726084160E+04 0.  0.
        5    1    3    3  502    0 -0.69447155196E+03 -0.54290900416E+03 -0.82670187798E+02  0.88537979039E+03  0.46999998093E+01 0. -1.
       -5    1    3    3    0  502  0.69447155196E+03  0.54290900416E+03 -0.77723604070E+03  0.11752271594E+04  0.46999998093E+01 0.  1.
</event>
<event>
 5   0  0.3413839E-04  0.1586638E+04  0.7818609E-02  0.8828799E-01
        1   -1    0    0  501    0  0.00000000000E+00  0.00000000000E+00  0.19269502920E+04  0.19269502920E+04  0.50400001928E-02 0. -1.
       -1   -1    0    0    0  501  0.00000000000E+00  0.00000000000E+00 -0.32660684080E+03  0.32660684084E+03  0.50400001928E-02 0.  1.
    10030    2    1    2    0    0  0.00000000000E+00  0.00000000000E+00  0.16003434512E+04  0.22535571328E+04  0.15866381406E+04 0.  0.
        5    1    3    3  502    0 -0.25625577773E+03  0.44403074454E+03 -0.59691332416E+02  0.51615450291E+03  0.46999998093E+01 0.  1.
       -5    1    3    3    0  502  0.25625577773E+03 -0.44403074454E+03  0.16600347836E+04  0.17374026299E+04  0.46999998093E+01 0. -1.
</event>
<event>
 5   0  0.6774451E-04  0.1778297E+04  0.7818609E-02  0.8717927E-01
        2   -1    0    0  501    0  0.00000000000E+00  0.00000000000E+00  0.15653695644E+04  0.15653695644E+04  0.25500000920E-02 0.  1.
       -2   -1    0    0    0  501  0.00000000000E+00  0.00000000000E+00 -0.50504694878E+03  0.50504694879E+03  0.25500000920E-02 0. -1.
    10030    2    1    2    0    0  0.00000000000E+00  0.00000000000E+00  0.10603226156E+04  0.20704165131E+04  0.17782970755E+04 0.  0.
        4    1    3    3  502    0 -0.54862984301E+03  0.18140262787E+03  0.13169539756E+04  0.14381484641E+04  0.12699999809E+01 0.  1.
       -4    1    3    3    0  502  0.54862984301E+03 -0.18140262787E+03 -0.25663136000E+03  0.63226804907E+03  0.12699999809E+01 0. -1.
</event>
<event>
 5   0  0.3470962E-04  0.1424240E+04  0.7818609E-02  0.8936457E-01
       -1   -1    0    0    0  501  0.00000000000E+00  0.00000000000E+00  0.62944346995E+03  0.62944346997E+03  0.50400001928E-02 0.  1.
        1   -1    0    0  501    0  0.00000000000E+00  0.00000000000E+00 -0.80565610005E+03  0.80565610006E+03  0.50400001928E-02 0. -1.
    10030    2    1    2    0    0  0.00000000000E+00  0.00000000000E+00 -0.17621263010E+03  0.14350995700E+04  0.14242401079E+04 0.  0.
        4    1    3    3  502    0  0.25191437905E+03  0.65566422070E+03  0.30077945943E+02  0.70303820693E+03  0.12699999809E+01 0.  1.
       -4    1    3    3    0  502 -0.25191437905E+03 -0.65566422070E+03 -0.20629057604E+03  0.73206136310E+03  0.12699999809E+01 0. -1.
</event>
<event>
 5   0  0.6929121E-04  0.1801725E+04  0.7818609E-02  0.8705383E-01
        2   -1    0    0  501    0  0.00000000000E+00  0.00000000000E+00  0.23657773966E+04  0.23657773966E+04  0.25500000920E-02 0. -1.
       -2   -1    0    0    0  501  0.00000000000E+00  0.00000000000E+00 -0.34303871724E+03  0.34303871725E+03  0.25500000920E-02 0.  1.
    10030    2    1    2    0    0  0.00000000000E+00  0.00000000000E+00  0.20227386794E+04  0.27088161139E+04  0.18017249995E+04 0.  0.
        3    1    3    3  502    0 -0.37785243961E+03 -0.75789758825E+03  0.54950691760E+03  0.10095241865E+04  0.10100000352E+00 0.  1.
       -3    1    3    3    0  502  0.37785243961E+03  0.75789758825E+03  0.14732317618E+04  0.16992919274E+04  0.10100000352E+00 0. -1.
</event>
<event>
 5   0  0.6771967E-04  0.1815413E+04  0.7818609E-02  0.8698146E-01
        2   -1    0    0  501    0  0.00000000000E+00  0.00000000000E+00  0.63736898597E+03  0.63736898598E+03  0.25500000920E-02 0.  1.
       -2   -1    0    0    0  501  0.00000000000E+00  0.00000000000E+00 -0.12927060805E+04  0.12927060805E+04  0.25500000920E-02 0. -1.
    10030    2    1    2    0    0  0.00000000000E+00  0.00000000000E+00 -0.65533709451E+03  0.19300750665E+04  0.18154126403E+04 0.  0.
        1    1    3    3  502    0  0.13415746393E+03 -0.55724349125E+03  0.42064258686E+03  0.71095620088E+03  0.50400001928E-02 0.  1.
       -1    1    3    3    0  502 -0.13415746393E+03  0.55724349125E+03 -0.10759796814E+04  0.12191188656E+04  0.50400001928E-02 0. -1.
</event>
<event>
 5   0  0.3470962E-04  0.1991502E+04  0.7818609E-02  0.8610604E-01
       -1   -1    0    0    0  501  0.00000000000E+00  0.00000000000E+00  0.60494406353E+03  0.60494406355E+03  0.50400001928E-02 0. -1.
        1   -1    0    0  501    0  0.00000000000E+00  0.00000000000E+00 -0.16390278377E+04  0.16390278377E+04  0.50400001928E-02 0.  1.
    10030    2    1    2    0    0  0.00000000000E+00  0.00000000000E+00 -0.10340837742E+04  0.22439719012E+04  0.19915021068E+04 0.  0.
        4    1    3    3  502    0 -0.20195152838E+03  0.89587429295E+03 -0.95073024825E+03  0.13218414377E+04  0.12699999809E+01 0.  1.
       -4    1    3    3    0  502  0.20195152838E+03 -0.89587429295E+03 -0.83353525900E+02  0.92213046353E+03  0.12699999809E+01 0. -1.
</event>
<event>
 5   0  0.6771967E-04  0.1720426E+04  0.7818609E-02  0.8749800E-01
        2   -1    0    0  501    0  0.00000000000E+00  0.00000000000E+00  0.96224321929E+03  0.96224321929E+03  0.25500000920E-02 0.  1.
       -2   -1    0    0    0  501  0.00000000000E+00  0.00000000000E+00 -0.76900125656E+03  0.76900125657E+03  0.25500000920E-02 0. -1.
    10030    2    1    2    0    0  0.00000000000E+00  0.00000000000E+00  0.19324196273E+03  0.17312444759E+04  0.17204258133E+04 0.  0.
        1    1    3    3  502    0 -0.47051966641E+03 -0.16334916767E+03 -0.60914131009E+03  0.78684486575E+03  0.50400001928E-02 0. -1.
       -1    1    3    3    0  502  0.47051966641E+03  0.16334916767E+03  0.80238327282E+03  0.94439961012E+03  0.50400001928E-02 0.  1.
</event>
<event>
 5   0  0.6929121E-04  0.1815193E+04  0.7818609E-02  0.8698261E-01
        2   -1    0    0  501    0  0.00000000000E+00  0.00000000000E+00  0.12711862241E+04  0.12711862241E+04  0.25500000920E-02 0. -1.
       -2   -1    0    0    0  501  0.00000000000E+00  0.00000000000E+00 -0.64800217822E+03  0.64800217822E+03  0.25500000920E-02 0.  1.
    10030    2    1    2    0    0  0.00000000000E+00  0.00000000000E+00  0.62318404587E+03  0.19191884023E+04  0.18151930389E+04 0.  0.
        3    1    3    3  502    0  0.10440108139E+03 -0.84053916374E+03 -0.33165730227E+02  0.84764712436E+03  0.10100000352E+00 0.  1.
       -3    1    3    3    0  502 -0.10440108139E+03  0.84053916374E+03  0.65634977610E+03  0.10715412780E+04  0.10100000352E+00 0. -1.
</event>
<event>
 5   0  0.3377273E-04  0.1769601E+04  0.7818609E-02  0.8722635E-01
        1   -1    0    0  501    0  0.00000000000E+00  0.00000000000E+00  0.66261852653E+03  0.66261852655E+03  0.50400001928E-02 0. -1.
       -1   -1    0    0    0  501  0.00000000000E+00  0.00000000000E+00 -0.11814818689E+04  0.11814818689E+04  0.50400001928E-02 0.  1.
    10030    2    1    2    0    0  0.00000000000E+00  0.00000000000E+00 -0.51886334241E+03  0.18441003955E+04  0.17696008309E+04 0.  0.
        2    1    3    3  502    0  0.24667750021E+03  0.18123738892E+03 -0.11245469921E+04  0.11654624480E+04  0.25500000920E-02 0.  1.
       -2    1    3    3    0  502 -0.24667750021E+03 -0.18123738892E+03  0.60568364970E+03  0.67863794749E+03  0.25500000920E-02 0. -1.
</event>
<event>
 5   0  0.6929121E-04  0.1804313E+04  0.7818609E-02  0.8704009E-01
       -2   -1    0    0    0  501  0.00000000000E+00  0.00000000000E+00  0.73632351337E+03  0.73632351338E+03  0.25500000920E-02 0. -1.
        2   -1    0    0  501    0  0.00000000000E+00  0.00000000000E+00 -0.11053385001E+04  0.11053385001E+04  0.25500000920E-02 0.  1.
    10030    2    1    2    0    0  0.00000000000E+00  0.00000000000E+00 -0.36901498669E+03  0.18416620134E+04  0.18043134183E+04 0.  0.
        3    1    3    3  502    0  0.40009752716E+03 -0.58205994767E+03 -0.75738728407E+03  0.10356192940E+04  0.10100000352E+00 0.  1.
       -3    1    3    3    0  502 -0.40009752716E+03  0.58205994767E+03  0.38837229738E+03  0.80604271940E+03  0.10100000352E+00 0. -1.
</event>
<event>
 5   0  0.3470962E-04  0.1234560E+04  0.7818609E-02  0.9083133E-01
       -1   -1    0    0    0  501  0.00000000000E+00  0.00000000000E+00  0.31976990355E+03  0.31976990359E+03  0.50400001928E-02 0.  1.
        1   -1    0    0  501    0  0.00000000000E+00  0.00000000000E+00 -0.11915900202E+04  0.11915900202E+04  0.50400001928E-02 0. -1.
    10030    2    1    2    0    0  0.00000000000E+00  0.00000000000E+00 -0.87182011664E+03  0.15113599238E+04  0.12345600445E+04 0.  0.
        4    1    3    3  502    0  0.11435887856E+03  0.20080168685E+03  0.26481878788E+03  0.35146816906E+03  0.12699999809E+01 0.  1.
       -4    1    3    3    0  502 -0.11435887856E+03 -0.20080168685E+03 -0.11366389045E+04  0.11598917547E+04  0.12699999809E+01 0. -1.
</event>
<event>
 5   0  0.3377273E-04  0.1843754E+04  0.7818609E-02  0.8683371E-01
        1   -1    0    0  501    0  0.00000000000E+00  0.00000000000E+00  0.22603492726E+04  0.22603492726E+04  0.50400001928E-02 0. -1.
       -1   -1    0    0    0  501  0.00000000000E+00  0.00000000000E+00 -0.37598496340E+03  0.37598496344E+03  0.50400001928E-02 0.  1.
    10030    2    1    2    0    0  0.00000000000E+00  0.00000000000E+00  0.18843643092E+04  0.26363342360E+04  0.18437541469E+04 0.  0.
        2    1    3    3  502    0 -0.74423385764E+03  0.53464224994E+03  0.79826156235E+03  0.12152974501E+04  0.25500000920E-02 0.  1.
       -2    1    3    3    0  502  0.74423385764E+03 -0.53464224994E+03  0.10861027468E+04  0.14210367859E+04  0.25500000920E-02 0. -1.
</event>
<event>
 5   0  0.3404261E-04  0.1764549E+04  0.7818609E-02  0.8725382E-01
        1   -1    0    0  501    0  0.00000000000E+00  0.00000000000E+00  0.14965043424E+04  0.14965043424E+04  0.50400001928E-02 0.  1.
       -1   -1    0    0    0  501  0.00000000000E+00  0.00000000000E+00 -0.52015119820E+03  0.52015119823E+03  0.50400001928E-02 0. -1.
    10030    2    1    2    0    0  0.00000000000E+00  0.00000000000E+00  0.97635314417E+03  0.20166555406E+04  0.17645492646E+04 0.  0.
        1    1    3    3  502    0 -0.39761701694E+03 -0.78757334636E+03  0.49517135996E+03  0.10117142600E+04  0.50400001928E-02 0.  1.
       -1    1    3    3    0  502  0.39761701694E+03  0.78757334636E+03  0.48118178422E+03  0.10049412806E+04  0.50400001928E-02 0. -1.
</event>
<event>
 5   0  0.6771967E-04  0.1827184E+04  0.7818609E-02  0.8691976E-01
       -2   -1    0    0    0  501  0.00000000000E+00  0.00000000000E+00  0.47958654886E+03  0.47958654887E+03  0.25500000920E-02 0.  1.
        2   -1    0    0  501    0  0.00000000000E+00  0.00000000000E+00 -0.17403532022E+04  0.17403532022E+04  0.25500000920E-02 0. -1.
    10030    2    1    2    0    0  0.00000000000E+00  0.00000000000E+00 -0.12607666534E+04  0.22199397511E+04  0.18271836099E+04 0.  0.
        1    1    3    3  502    0 -0.86303190603E+03 -0.28667194920E+03 -0.73661421931E+03  0.11703014079E+04  0.50400001928E-02 0.  1.
       -1    1    3    3    0  502  0.86303190603E+03  0.28667194920E+03 -0.52415243405E+03  0.10496383432E+04  0.50400001928E-02 0. -1.
</event>
<event>
 5   0  0.3404261E-04  0.1792233E+04  0.7818609E-02  0.8710441E-01
       -1   -1    0    0    0  501  0.00000000000E+00  0.00000000000E+00  0.92513258845E+03  0.92513258846E+03  0.50400001928E-02 0. -1.
        1   -1    0    0  501    0  0.00000000000E+00  0.00000000000E+00 -0.86801087401E+03  0.86801087403E+03  0.50400001928E-02 0.  1.
    10030    2    1    2    0    0  0.00000000000E+00  0.00000000000E+00  0.57121714437E+02  0.17931434625E+04  0.17922334075E+04 0.  0.
        1    1    3    3  502    0 -0.30137160279E+02 -0.87593443535E+03 -0.15823092558E+03  0.89062136135E+03  0.50400001928E-02 0.  1.
       -1    1    3    3    0  502  0.30137160279E+02  0.87593443535E+03  0.21535264002E+03  0.90252210114E+03  0.50400001928E-02 0. -1.
</event>
<event>
 5   0  0.3470962E-04  0.1804690E+04  0.7818609E-02  0.8703809E-01
        1   -1    0    0  501    0  0.00000000000E+00  0.00000000000E+00  0.30170826658E+03  0.30170826662E+03  0.50400001928E-02 0.  1.
       -1   -1    0    0    0  501  0.00000000000E+00  0.00000000000E+00 -0.26987209192E+04  0.26987209192E+04  0.50400001928E-02 0. -1.
    10030    2    1    2    0    0  0.00000000000E+00  0.00000000000E+00 -0.23970126526E+04  0.30004291858E+04  0.18046899020E+04 0.  0.
        4    1    3    3  502    0 -0.42701947554E+03  0.79490819931E+03 -0.11990818912E+04  0.15006744059E+04  0.12699999809E+01 0.  1.
       -4    1    3    3    0  502  0.42701947554E+03 -0.79490819931E+03 -0.11979307615E+04  0.14997547800E+04  0.12699999809E+01 0. -1.
</event>
<event>
 5   0  0.6853162E-04  0.1588963E+04  0.7818609E-02  0.8827357E-01
       -2   -1    0    0    0  501  0.00000000000E+00  0.00000000000E+00  0.70865896904E+03  0.70865896905E+03  0.25500000920E-02 0. -1.
        2   -1    0    0  501    0  0.00000000000E+00  0.00000000000E+00 -0.89069742162E+03  0.89069742163E+03  0.25500000920E-02 0.  1.
    10030    2    1    2    0    0  0.00000000000E+00  0.00000000000E+00 -0.18203845258E+03  0.15993563907E+04  0.15889628272E+04 0.  0.
        2    1    3    3  502    0 -0.34150147223E+03  0.70970853751E+03 -0.19606302817E+03  0.81163426170E+03  0.25500000920E-02 0. -1.
       -2    1    3    3    0  502  0.34150147223E+03 -0.70970853751E+03  0.14024575587E+02  0.78772212897E+03  0.25500000920E-02 0.  1.
</event>
<event>
 5   0  0.6853162E-04  0.1794984E+04  0.7818609E-02  0.8708971E-01
        2   -1    0    0  501    0  0.00000000000E+00  0.00000000000E+00  0.10003403351E+04  0.10003403351E+04  0.25500000920E-02 0. -1.
       -2   -1    0    0    0  501  0.00000000000E+00  0.00000000000E+00 -0.80521799533E+03  0.80521799534E+03  0.25500000920E-02 0.  1.
    10030    2    1    2    0    0  0.00000000000E+00  0.00000000000E+00  0.19512233975E+03  0.18055583304E+04  0.17949841663E+04 0.  0.
        2    1    3    3  502    0 -0.60718659853E+03 -0.31159017602E+03  0.68385671677E+03  0.96613871276E+03  0.25500000920E-02 0. -1.
       -2    1    3    3    0  502  0.60718659853E+03  0.31159017602E+03 -0.48873437702E+03  0.83941961766E+03  0.25500000920E-02 0.  1.
</event>
<event>
 5   0  0.2467375E-04  0.1856430E+04  0.7818609E-02  0.8676853E-01
        4   -1    0    0  501    0  0.00000000000E+00  0.00000000000E+00  0.59579919492E+03  0.59580054848E+03  0.12699999809E+01 0.  1.
       -4   -1    0    0    0  501  0.00000000000E+00  0.00000000000E+00 -0.14460932783E+04  0.14460938359E+04  0.12699999809E+01 0. -1.
    10030    2    1    2    0    0  0.00000000000E+00  0.00000000000E+00 -0.85029408334E+03  0.20418943844E+04  0.18564300819E+04 0.  0.
        2    1    3    3  502    0 -0.26442196428E+02 -0.36130300656E+02  0.59461177386E+03  0.59629501926E+03  0.25500000920E-02 0.  1.
       -2    1    3    3    0  502  0.26442196428E+02  0.36130300656E+02 -0.14449058572E+04  0.14455993652E+04  0.25500000920E-02 0. -1.
</event>
<event>
 5   0  0.6771967E-04  0.1835672E+04  0.7818609E-02  0.8687556E-01
        2   -1    0    0  501    0  0.00000000000E+00  0.00000000000E+00  0.20169018441E+04  0.20169018441E+04  0.25500000920E-02 0. -1.
       -2   -1    0    0    0  501  0.00000000000E+00  0.00000000000E+00 -0.41768168891E+03  0.41768168892E+03  0.25500000920E-02 0.  1.
    10030    2    1    2    0    0  0.00000000000E+00  0.00000000000E+00  0.15992201551E+04  0.24345835330E+04  0.18356720498E+04 0.  0.
        1    1    3    3  502    0 -0.56334189763E+03  0.23098698437E+03  0.17105063320E+04  0.18156379023E+04  0.50400001928E-02 0. -1.
       -1    1    3    3    0  502  0.56334189763E+03 -0.23098698437E+03 -0.11128617681E+03  0.61894563069E+03  0.50400001928E-02 0.  1.
</event>
<event>
 5   0  0.3308275E-04  0.1750256E+04  0.7818609E-02  0.8733210E-01
        1   -1    0    0  501    0  0.00000000000E+00  0.00000000000E+00  0.14836076870E+04  0.14836076870E+04  0.50400001928E-02 0.  1.
       -1   -1    0    0    0  501  0.00000000000E+00  0.00000000000E+00 -0.51620706564E+03  0.51620706567E+03  0.50400001928E-02 0. -1.
    10030    2    1    2    0    0  0.00000000000E+00  0.00000000000E+00  0.96740062132E+03  0.19998147526E+04  0.17502557192E+04 0.  0.
        3    1    3    3  502    0  0.86834290255E+03  0.96326811031E+02  0.54140375535E+03  0.10278211359E+04  0.10100000352E+00 0.  1.
       -3    1    3    3    0  502 -0.86834290255E+03 -0.96326811031E+02  0.42599686597E+03  0.97199361672E+03  0.10100000352E+00 0. -1.
</event>
<event>
 5   0  0.6774451E-04  0.1770656E+04  0.7818609E-02  0.8722062E-01
       -2   -1    0    0    0  501  0.00000000000E+00  0.00000000000E+00  0.10867038204E+04  0.10867038204E+04  0.25500000920E-02 0.  1.
        2   -1    0    0  501    0  0.00000000000E+00  0.00000000000E+00 -0.72126872909E+03  0.72126872909E+03  0.25500000920E-02 0. -1.
    10030    2    1    2    0    0  0.00000000000E+00  0.00000000000E+00  0.36543509132E+03  0.18079725495E+04  0.17706557920E+04 0.  0.
        4    1    3    3  502    0  0.58523918903E+03 -0.48438738010E+02 -0.49378046828E+03  0.76724962266E+03  0.12699999809E+01 0. -1.
       -4    1    3    3    0  502 -0.58523918903E+03  0.48438738010E+02  0.85921555959E+03  0.10407229268E+04  0.12699999809E+01 0.  1.
</event>
<event>
 5   0  0.6547153E-04  0.1786498E+04  0.7818609E-02  0.8713513E-01
       -2   -1    0    0    0  501  0.00000000000E+00  0.00000000000E+00  0.92114802447E+03  0.92114802447E+03  0.25500000920E-02 0. -1.
        2   -1    0    0  501    0  0.00000000000E+00  0.00000000000E+00 -0.86619495783E+03  0.86619495783E+03  0.25500000920E-02 0.  1.
    10030    2    1    2    0    0  0.00000000000E+00  0.00000000000E+00  0.54953066641E+02  0.17873429823E+04  0.17864979980E+04 0.  0.
        5    1    3    3  502    0 -0.31000057688E+03  0.73606870170E+03  0.42763345137E+03  0.90597458575E+03  0.46999998093E+01 0. -1.
       -5    1    3    3    0  502  0.31000057688E+03 -0.73606870170E+03 -0.37268038473E+03  0.88136839656E+03  0.46999998093E+01 0.  1.
</event>
<event>
 5   0  0.6929121E-04  0.1790020E+04  0.7818609E-02  0.8711625E-01
        2   -1    0    0  501    0  0.00000000000E+00  0.00000000000E+00  0.73531209478E+03  0.73531209478E+03  0.25500000920E-02 0. -1.
       -2   -1    0    0    0  501  0.00000000000E+00  0.00000000000E+00 -0.10893918054E+04  0.10893918054E+04  0.25500000920E-02 0.  1.
    10030    2    1    2    0    0  0.00000000000E+00  0.00000000000E+00 -0.35407971057E+03  0.18247039001E+04  0.17900200786E+04 0.  0.
        3    1    3    3  502    0 -0.19430464924E+02  0.51938830018E+03 -0.91978762396E+03  0.10564804933E+04  0.10100000352E+00 0.  1.
       -3    1    3    3    0  502  0.19430464924E+02 -0.51938830018E+03  0.56570791339E+03  0.76822340683E+03  0.10100000352E+00 0. -1.
</event>
<event>
 5   0  0.3404261E-04  0.1804384E+04  0.7818609E-02  0.8703972E-01
        1   -1    0    0  501    0  0.00000000000E+00  0.00000000000E+00  0.17439308940E+04  0.17439308940E+04  0.50400001928E-02 0.  1.
       -1   -1    0    0    0  501  0.00000000000E+00  0.00000000000E+00 -0.46673313323E+03  0.46673313325E+03  0.50400001928E-02 0. -1.
    10030    2    1    2    0    0  0.00000000000E+00  0.00000000000E+00  0.12771977608E+04  0.22106640272E+04  0.18043839174E+04 0.  0.
        1    1    3    3  502    0  0.50095164504E+03 -0.22323500030E+01 -0.28067562476E+03  0.57422673258E+03  0.50400001928E-02 0. -1.
       -1    1    3    3    0  502 -0.50095164504E+03  0.22323500030E+01  0.15578733855E+04  0.16364372947E+04  0.50400001928E-02 0.  1.
</event>
<event>
 5   0  0.2467375E-04  0.9263799E+03  0.7818609E-02  0.9393193E-01
        4   -1    0    0  501    0  0.00000000000E+00  0.00000000000E+00  0.67036162597E+03  0.67036282898E+03  0.12699999809E+01 0.  1.
       -4   -1    0    0    0  501  0.00000000000E+00  0.00000000000E+00 -0.32004078823E+03  0.32004330806E+03  0.12699999809E+01 0. -1.
    10030    2    1    2    0    0  0.00000000000E+00  0.00000000000E+00  0.35032083774E+03  0.99040613704E+03  0.92637985023E+03 0.  0.
        5    1    3    3  502    0 -0.54988503511E+02  0.18268496946E+03 -0.27605819445E+03  0.33560058150E+03  0.46999998093E+01 0. -1.
       -5    1    3    3    0  502  0.54988503511E+02 -0.18268496946E+03  0.62637903219E+03  0.65480555553E+03  0.46999998093E+01 0.  1.
</event>
<event>
 5   0  0.3377273E-04  0.1785791E+04  0.7818609E-02  0.8713892E-01
        1   -1    0    0  501    0  0.00000000000E+00  0.00000000000E+00  0.98372534873E+03  0.98372534874E+03  0.50400001928E-02 0. -1.
       -1   -1    0    0    0  501  0.00000000000E+00  0.00000000000E+00 -0.81045237319E+03  0.81045237321E+03  0.50400001928E-02 0.  1.
    10030    2    1    2    0    0  0.00000000000E+00  0.00000000000E+00  0.17327297553E+03  0.17941777219E+04  0.17857911899E+04 0.  0.
        2    1    3    3  502    0  0.61724957719E+03  0.64360368079E+03  0.41260184760E+02  0.89270663788E+03  0.25500000920E-02 0. -1.
       -2    1    3    3    0  502 -0.61724957719E+03 -0.64360368079E+03  0.13201279077E+03  0.90147108406E+03  0.25500000920E-02 0.  1.
</event>
<event>
 5   0  0.6853162E-04  0.1743390E+04  0.7818609E-02  0.8736997E-01
        2   -1    0    0  501    0  0.00000000000E+00  0.00000000000E+00  0.14895148039E+04  0.14895148039E+04  0.25500000920E-02 0. -1.
       -2   -1    0    0    0  501  0.00000000000E+00  0.00000000000E+00 -0.51013429925E+03  0.51013429926E+03  0.25500000920E-02 0.  1.
    10030    2    1    2    0    0  0.00000000000E+00  0.00000000000E+00  0.97938050468E+03  0.19996491032E+04  0.17433904792E+04 0.  0.
        2    1    3    3  502    0 -0.54812607000E+03  0.30338517999E+03  0.11848901300E+04  0.13403168939E+04  0.25500000920E-02 0.  1.
       -2    1    3    3    0  502  0.54812607000E+03 -0.30338517999E+03 -0.20550962530E+03  0.65933220925E+03  0.25500000920E-02 0. -1.
</event>
<event>
 5   0  0.6774451E-04  0.1701218E+04  0.7818609E-02  0.8760670E-01
        2   -1    0    0  501    0  0.00000000000E+00  0.00000000000E+00  0.70124125485E+03  0.70124125486E+03  0.25500000920E-02 0.  1.
       -2   -1    0    0    0  501  0.00000000000E+00  0.00000000000E+00 -0.10317928013E+04  0.10317928013E+04  0.25500000920E-02 0. -1.
    10030    2    1    2    0    0  0.00000000000E+00  0.00000000000E+00 -0.33055154641E+03  0.17330340561E+04  0.17012180092E+04 0.  0.
        4    1    3    3  502    0  0.19166428998E+03  0.71598465279E+03  0.25985972713E+03  0.78542849055E+03  0.12699999809E+01 0.  1.
       -4    1    3    3    0  502 -0.19166428998E+03 -0.71598465279E+03 -0.59041127354E+03  0.94760556557E+03  0.12699999809E+01 0. -1.
</event>
<event>
 5   0  0.6547153E-04  0.1947129E+04  0.7818609E-02  0.8631747E-01
        2   -1    0    0  501    0  0.00000000000E+00  0.00000000000E+00  0.21022152255E+04  0.21022152255E+04  0.25500000920E-02 0. -1.
       -2   -1    0    0    0  501  0.00000000000E+00  0.00000000000E+00 -0.45087081466E+03  0.45087081467E+03  0.25500000920E-02 0.  1.
    10030    2    1    2    0    0  0.00000000000E+00  0.00000000000E+00  0.16513444108E+04  0.25530860401E+04  0.19471286463E+04 0.  0.
        5    1    3    3  502    0 -0.23547684201E+03 -0.39107498501E+03 -0.30182467359E+03  0.54727434676E+03  0.46999998093E+01 0.  1.
       -5    1    3    3    0  502  0.23547684201E+03  0.39107498501E+03  0.19531690844E+04  0.20058116934E+04  0.46999998093E+01 0. -1.
</event>
<event>
 5   0  0.3404261E-04  0.1448968E+04  0.7818609E-02  0.8919116E-01
       -1   -1    0    0    0  501  0.00000000000E+00  0.00000000000E+00  0.53681774582E+03  0.53681774585E+03  0.50400001928E-02 0.  1.
        1   -1    0    0  501    0  0.00000000000E+00  0.00000000000E+00 -0.97775697728E+03  0.97775697729E+03  0.50400001928E-02 0. -1.
    10030    2    1    2    0    0  0.00000000000E+00  0.00000000000E+00 -0.44093923145E+03  0.15145747231E+04  0.14489683178E+04 0.  0.
        1    1    3    3  502    0 -0.31331526141E+03  0.64187131678E+03 -0.93684432613E+02  0.72037629977E+03  0.50400001928E-02 0. -1.
       -1    1    3    3    0  502  0.31331526141E+03 -0.64187131678E+03 -0.34725479884E+03  0.79419842337E+03  0.50400001928E-02 0.  1.
</event>
<event>
 5   0  0.3470962E-04  0.1750468E+04  0.7818609E-02  0.8733093E-01
        1   -1    0    0  501    0  0.00000000000E+00  0.00000000000E+00  0.96338346979E+03  0.96338346981E+03  0.50400001928E-02 0.  1.
       -1   -1    0    0    0  501  0.00000000000E+00  0.00000000000E+00 -0.79514974936E+03  0.79514974937E+03  0.50400001928E-02 0. -1.
    10030    2    1    2    0    0  0.00000000000E+00  0.00000000000E+00  0.16823372043E+03  0.17585332192E+04  0.17504675085E+04 0.  0.
        4    1    3    3  502    0 -0.30315442262E+03 -0.96940570550E+02 -0.73495113687E+03  0.80090877424E+03  0.12699999809E+01 0. -1.
       -4    1    3    3    0  502  0.30315442262E+03  0.96940570550E+02  0.90318485731E+03  0.95762444494E+03  0.12699999809E+01 0.  1.
</event>
<event>
 5   0  0.6853162E-04  0.1836438E+04  0.7818609E-02  0.8687159E-01
       -2   -1    0    0    0  501  0.00000000000E+00  0.00000000000E+00  0.87264401814E+03  0.87264401814E+03  0.25500000920E-02 0.  1.
        2   -1    0    0  501    0  0.00000000000E+00  0.00000000000E+00 -0.96617407871E+03  0.96617407871E+03  0.25500000920E-02 0. -1.
    10030    2    1    2    0    0  0.00000000000E+00  0.00000000000E+00 -0.93530060571E+02  0.18388180969E+04  0.18364378893E+04 0.  0.
        2    1    3    3  502    0  0.78491222361E+03  0.33675608925E+03 -0.38429861569E+03  0.93657743324E+03  0.25500000920E-02 0.  1.
       -2    1    3    3    0  502 -0.78491222361E+03 -0.33675608925E+03  0.29076855512E+03  0.90224066361E+03  0.25500000920E-02 0. -1.
</event>
<event>
 5   0  0.6771967E-04  0.1775116E+04  0.7818609E-02  0.8719645E-01
        2   -1    0    0  501    0  0.00000000000E+00  0.00000000000E+00  0.15876746699E+04  0.15876746699E+04  0.25500000920E-02 0. -1.
       -2   -1    0    0    0  501  0.00000000000E+00  0.00000000000E+00 -0.49617181936E+03  0.49617181936E+03  0.25500000920E-02 0.  1.
    10030    2    1    2    0    0  0.00000000000E+00  0.00000000000E+00  0.10915028505E+04  0.20838464892E+04  0.17751162548E+04 0.  0.
        1    1    3    3  502    0 -0.51490546513E+03  0.23197084064E+03  0.13495414250E+04  0.14629422978E+04  0.50400001928E-02 0. -1.
       -1    1    3    3    0  502  0.51490546513E+03 -0.23197084064E+03 -0.25803857451E+03  0.62090419139E+03  0.50400001928E-02 0.  1.
</event>
<event>
 5   0  0.6771967E-04  0.1759510E+04  0.7818609E-02  0.8728133E-01
        2   -1    0    0  501    0  0.00000000000E+00  0.00000000000E+00  0.98844860426E+03  0.98844860427E+03  0.25500000920E-02 0.  1.
       -2   -1    0    0    0  501  0.00000000000E+00  0.00000000000E+00 -0.78301376310E+03  0.78301376310E+03  0.25500000920E-02 0. -1.
    10030    2    1    2    0    0  0.00000000000E+00  0.00000000000E+00  0.20543484117E+03  0.17714623674E+04  0.17595100014E+04 0.  0.
        1    1    3    3  502    0 -0.16510814238E+03 -0.66451687808E+03 -0.45341655709E+03  0.82123684416E+03  0.50400001928E-02 0. -1.
       -1    1    3    3    0  502  0.16510814238E+03  0.66451687808E+03  0.65885139826E+03  0.95022552321E+03  0.50400001928E-02 0.  1.
</event>
<event>
 5   0  0.3377273E-04  0.1820030E+04  0.7818609E-02  0.8695720E-01
        1   -1    0    0  501    0  0.00000000000E+00  0.00000000000E+00  0.15483750698E+04  0.15483750698E+04  0.50400001928E-02 0.  1.
       -1   -1    0    0    0  501  0.00000000000E+00  0.00000000000E+00 -0.53483640114E+03  0.53483640116E+03  0.50400001928E-02 0. -1.
    10030    2    1    2    0    0  0.00000000000E+00  0.00000000000E+00  0.10135386686E+04  0.20832114710E+04  0.18200300547E+04 0.  0.
        2    1    3    3  502    0 -0.66114964248E+03  0.15385974891E+03 -0.18695408250E+03  0.70409054890E+03  0.25500000920E-02 0. -1.
       -2    1    3    3    0  502  0.66114964248E+03 -0.15385974891E+03  0.12004927511E+04  0.13791209221E+04  0.25500000920E-02 0.  1.
</event>
<event>
 5   0  0.6547153E-04  0.1004987E+04  0.7818609E-02  0.9303092E-01
        2   -1    0    0  501    0  0.00000000000E+00  0.00000000000E+00  0.38406579675E+03  0.38406579676E+03  0.25500000920E-02 0. -1.
       -2   -1    0    0    0  501  0.00000000000E+00  0.00000000000E+00 -0.65743882848E+03  0.65743882849E+03  0.25500000920E-02 0.  1.
    10030    2    1    2    0    0  0.00000000000E+00  0.00000000000E+00 -0.27337303173E+03  0.10415046252E+04  0.10049870994E+04 0.  0.
        5    1    3    3  502    0 -0.24979876830E+03  0.42406265537E+03 -0.24160305226E+03  0.54829069405E+03  0.46999998093E+01 0.  1.
       -5    1    3    3    0  502  0.24979876830E+03 -0.42406265537E+03 -0.31769979466E+02  0.49321393119E+03  0.46999998093E+01 0. -1.
</event>
<event>
 5   0  0.3470962E-04  0.1793298E+04  0.7818609E-02  0.8709871E-01
       -1   -1    0    0    0  501  0.00000000000E+00  0.00000000000E+00  0.69664500697E+03  0.69664500699E+03  0.50400001928E-02 0.  1.
        1   -1    0    0  501    0  0.00000000000E+00  0.00000000000E+00 -0.11540739302E+04  0.11540739303E+04  0.50400001928E-02 0. -1.
    10030    2    1    2    0    0  0.00000000000E+00  0.00000000000E+00 -0.45742892328E+03  0.18507189372E+04  0.17932984595E+04 0.  0.
        4    1    3    3  502    0 -0.60015619504E+03  0.60289237320E+03  0.63752567828E+02  0.85307249101E+03  0.12699999809E+01 0.  1.
       -4    1    3    3    0  502  0.60015619504E+03 -0.60289237320E+03 -0.52118149111E+03  0.99764644623E+03  0.12699999809E+01 0. -1.
</event>
<event>
 5   0  0.3404261E-04  0.1822190E+04  0.7818609E-02  0.8694587E-01
        1   -1    0    0  501    0  0.00000000000E+00  0.00000000000E+00  0.87345387255E+03  0.87345387257E+03  0.50400001928E-02 0. -1.
       -1   -1    0    0    0  501  0.00000000000E+00  0.00000000000E+00 -0.95035806193E+03  0.95035806194E+03  0.50400001928E-02 0.  1.
    10030    2    1    2    0    0  0.00000000000E+00  0.00000000000E+00 -0.76904189378E+02  0.18238119345E+04  0.18221898140E+04 0.  0.
        1    1    3    3  502    0 -0.87291869010E+03 -0.14222133387E+03 -0.25746183421E+03  0.92114089228E+03  0.50400001928E-02 0.  1.
       -1    1    3    3    0  502  0.87291869010E+03  0.14222133387E+03  0.18055764483E+03  0.90267104223E+03  0.50400001928E-02 0. -1.
</event>
<event>
 5   0  0.3404261E-04  0.1793255E+04  0.7818609E-02  0.8709895E-01
       -1   -1    0    0    0  501  0.00000000000E+00  0.00000000000E+00  0.11811147560E+04  0.11811147560E+04  0.50400001928E-02 0.  1.
        1   -1    0    0  501    0  0.00000000000E+00  0.00000000000E+00 -0.68066252520E+03  0.68066252522E+03  0.50400001928E-02 0. -1.
    10030    2    1    2    0    0  0.00000000000E+00  0.00000000000E+00  0.50045223080E+03  0.18617772812E+04  0.17932546416E+04 0.  0.
        1    1    3    3  502    0  0.67147339878E+03 -0.29854634499E+02  0.86634372740E+03  0.10965032050E+04  0.50400001928E-02 0.  1.
       -1    1    3    3    0  502 -0.67147339878E+03  0.29854634499E+02 -0.36589149661E+03  0.76527407626E+03  0.50400001928E-02 0. -1.
</event>
<event>
 5   0  0.3377273E-04  0.2162066E+04  0.7818609E-02  0.8534385E-01
        1   -1    0    0  501    0  0.00000000000E+00  0.00000000000E+00  0.93729499992E+03  0.93729499993E+03  0.50400001928E-02 0.  1.
       -1   -1    0    0    0  501  0.00000000000E+00  0.00000000000E+00 -0.12468135734E+04  0.12468135734E+04  0.50400001928E-02 0. -1.
    10030    2    1    2    0    0  0.00000000000E+00  0.00000000000E+00 -0.30951857351E+03  0.21841085734E+04  0.21620657975E+04 0.  0.
        2    1    3    3  502    0 -0.32488945267E+03  0.50888139088E+02 -0.11950589949E+04  0.12394792296E+04  0.25500000920E-02 0. -1.
       -2    1    3    3    0  502  0.32488945267E+03 -0.50888139088E+02  0.88554042143E+03  0.94462934379E+03  0.25500000920E-02 0.  1.
</event>
<event>
 5   0  0.3308275E-04  0.1706997E+04  0.7818609E-02  0.8757384E-01
        1   -1    0    0  501    0  0.00000000000E+00  0.00000000000E+00  0.11734475125E+04  0.11734475125E+04  0.50400001928E-02 0.  1.
       -1   -1    0    0    0  501  0.00000000000E+00  0.00000000000E+00 -0.62078574009E+03  0.62078574011E+03  0.50400001928E-02 0. -1.
    10030    2    1    2    0    0  0.00000000000E+00  0.00000000000E+00  0.55266177237E+03  0.17942332526E+04  0.17069967575E+04 0.  0.
        3    1    3    3  502    0 -0.30680611222E+03 -0.56073054215E+03  0.87084287353E+03  0.10802388865E+04  0.10100000352E+00 0.  1.
       -3    1    3    3    0  502  0.30680611222E+03  0.56073054215E+03 -0.31818110116E+03  0.71399436604E+03  0.10100000352E+00 0. -1.
</event>
<event>
 5   0  0.6929121E-04  0.1822646E+04  0.7818609E-02  0.8694349E-01
       -2   -1    0    0    0  501  0.00000000000E+00  0.00000000000E+00  0.61952979685E+03  0.61952979685E+03  0.25500000920E-02 0. -1.
        2   -1    0    0  501    0  0.00000000000E+00  0.00000000000E+00 -0.13405478030E+04  0.13405478030E+04  0.25500000920E-02 0.  1.
    10030    2    1    2    0    0  0.00000000000E+00  0.00000000000E+00 -0.72101800613E+03  0.19600775998E+04  0.18226456683E+04 0.  0.
        3    1    3    3  502    0 -0.41186477253E+03  0.71214962907E+03  0.61125030071E+02  0.82493997632E+03  0.10100000352E+00 0.  1.
       -3    1    3    3    0  502  0.41186477253E+03 -0.71214962907E+03 -0.78214303620E+03  0.11351376235E+04  0.10100000352E+00 0. -1.
</event>
<event>
 5   0  0.3308275E-04  0.1670265E+04  0.7818609E-02  0.8778507E-01
        1   -1    0    0  501    0  0.00000000000E+00  0.00000000000E+00  0.70056794661E+03  0.70056794663E+03  0.50400001928E-02 0. -1.
       -1   -1    0    0    0  501  0.00000000000E+00  0.00000000000E+00 -0.99554440591E+03  0.99554440592E+03  0.50400001928E-02 0.  1.
    10030    2    1    2    0    0  0.00000000000E+00  0.00000000000E+00 -0.29497645930E+03  0.16961123525E+04  0.16702652487E+04 0.  0.
        3    1    3    3  502    0 -0.32220291047E+03  0.58693900255E+03  0.35936941954E+03  0.75990690096E+03  0.10100000352E+00 0. -1.
       -3    1    3    3    0  502  0.32220291047E+03 -0.58693900255E+03 -0.65434587884E+03  0.93620545159E+03  0.10100000352E+00 0.  1.
</event>
<event>
 5   0  0.6774451E-04  0.1815912E+04  0.7818609E-02  0.8697883E-01
       -2   -1    0    0    0  501  0.00000000000E+00  0.00000000000E+00  0.93629010070E+03  0.93629010070E+03  0.25500000920E-02 0. -1.
        2   -1    0    0  501    0  0.00000000000E+00  0.00000000000E+00 -0.88047932546E+03  0.88047932546E+03  0.25500000920E-02 0.  1.
    10030    2    1    2    0    0  0.00000000000E+00  0.00000000000E+00  0.55810775243E+02  0.18167694262E+04  0.18159119762E+04 0.  0.
        4    1    3    3  502    0 -0.17047135168E+03  0.60965534854E+03  0.67909085191E+03  0.92838899379E+03  0.12699999809E+01 0. -1.
       -4    1    3    3    0  502  0.17047135168E+03 -0.60965534854E+03 -0.62328007666E+03  0.88838043237E+03  0.12699999809E+01 0.  1.
</event>
<event>
 5   0  0.6929121E-04  0.1734531E+04  0.7818609E-02  0.8741911E-01
       -2   -1    0    0    0  501  0.00000000000E+00  0.00000000000E+00  0.14454289829E+04  0.14454289829E+04  0.25500000920E-02 0. -1.
        2   -1    0    0  501    0  0.00000000000E+00  0.00000000000E+00 -0.52036436616E+03  0.52036436617E+03  0.25500000920E-02 0.  1.
    10030    2    1    2    0    0  0.00000000000E+00  0.00000000000E+00  0.92506461670E+03  0.19657933490E+04  0.17345313333E+04 0.  0.
        3    1    3    3  502    0  0.17284073478E+02  0.11434001154E+03 -0.51158777565E+03  0.52449446120E+03  0.10100000352E+00 0.  1.
       -3    1    3    3    0  502 -0.17284073478E+02 -0.11434001154E+03  0.14366523923E+04  0.14412988878E+04  0.10100000352E+00 0. -1.
</event>
<event>
 5   0  0.6853162E-04  0.1814618E+04  0.7818609E-02  0.8698564E-01
       -2   -1    0    0    0  501  0.00000000000E+00  0.00000000000E+00  0.10252676498E+04  0.10252676498E+04  0.25500000920E-02 0.  1.
        2   -1    0    0  501    0  0.00000000000E+00  0.00000000000E+00 -0.80292174245E+03  0.80292174245E+03  0.25500000920E-02 0. -1.
    10030    2    1    2    0    0  0.00000000000E+00  0.00000000000E+00  0.22234590736E+03  0.18281893923E+04  0.18146180732E+04 0.  0.
        2    1    3    3  502    0  0.15289403253E+03  0.10518308989E+03 -0.78359627521E+03  0.80527212177E+03  0.25500000920E-02 0. -1.
       -2    1    3    3    0  502 -0.15289403253E+03 -0.10518308989E+03  0.10059421826E+04  0.10229172705E+04  0.25500000920E-02 0.  1.
</event>
<event>
 5   0  0.3413839E-04  0.1783169E+04  0.7818609E-02  0.8715302E-01
       -1   -1    0    0    0  501  0.00000000000E+00  0.00000000000E+00  0.79185731533E+03  0.79185731534E+03  0.50400001928E-02 0.  1.
        1   -1    0    0  501    0  0.00000000000E+00  0.00000000000E+00 -0.10038710296E+04  0.10038710296E+04  0.50400001928E-02 0. -1.
    10030    2    1    2    0    0  0.00000000000E+00  0.00000000000E+00 -0.21201371427E+03  0.17957283450E+04  0.17831686611E+04 0.  0.
        5    1    3    3  502    0  0.69945336717E+03 -0.37254428902E+03  0.30537535083E+03  0.84929409218E+03  0.46999998093E+01 0.  1.
       -5    1    3    3    0  502 -0.69945336717E+03  0.37254428902E+03 -0.51738906510E+03  0.94643425277E+03  0.46999998093E+01 0. -1.
</event>
<event>
 5   0  0.3404261E-04  0.1799413E+04  0.7818609E-02  0.8706612E-01
        1   -1    0    0  501    0  0.00000000000E+00  0.00000000000E+00  0.93522619160E+03  0.93522619161E+03  0.50400001928E-02 0.  1.
       -1   -1    0    0    0  501  0.00000000000E+00  0.00000000000E+00 -0.86553591058E+03  0.86553591059E+03  0.50400001928E-02 0. -1.
    10030    2    1    2    0    0  0.00000000000E+00  0.00000000000E+00  0.69690281022E+02  0.18007621022E+04  0.17994130747E+04 0.  0.
        1    1    3    3  502    0 -0.75849178467E+01  0.10045345474E+03 -0.85987402619E+03  0.86575502799E+03  0.50400001928E-02 0. -1.
       -1    1    3    3    0  502  0.75849178467E+01 -0.10045345474E+03  0.92956430722E+03  0.93500707421E+03  0.50400001928E-02 0.  1.
</event>
<event>
 5   0  0.6774451E-04  0.9368614E+03  0.7818609E-02  0.9380641E-01
       -2   -1    0    0    0  501  0.00000000000E+00  0.00000000000E+00  0.85987431008E+03  0.85987431009E+03  0.25500000920E-02 0. -1.
        2   -1    0    0  501    0  0.00000000000E+00  0.00000000000E+00 -0.25518536582E+03  0.25518536583E+03  0.25500000920E-02 0.  1.
    10030    2    1    2    0    0  0.00000000000E+00  0.00000000000E+00  0.60468894427E+03  0.11150596759E+04  0.93686144202E+03 0.  0.
        4    1    3    3  502    0 -0.25403313776E+03 -0.62191780064E+02 -0.16019337566E+03  0.30669884756E+03  0.12699999809E+01 0.  1.
       -4    1    3    3    0  502  0.25403313776E+03  0.62191780064E+02  0.76488231993E+03  0.80836082836E+03  0.12699999809E+01 0. -1.
</event>
<event>
 5   0  0.6774451E-04  0.1809770E+04  0.7818609E-02  0.8701121E-01
        2   -1    0    0  501    0  0.00000000000E+00  0.00000000000E+00  0.15164764839E+04  0.15164764839E+04  0.25500000920E-02 0. -1.
       -2   -1    0    0    0  501  0.00000000000E+00  0.00000000000E+00 -0.53994713014E+03  0.53994713014E+03  0.25500000920E-02 0.  1.
    10030    2    1    2    0    0  0.00000000000E+00  0.00000000000E+00  0.97652935381E+03  0.20564236141E+04  0.18097702898E+04 0.  0.
        4    1    3    3  502    0 -0.23244240423E+03 -0.20568397203E+03 -0.47756842564E+03  0.56956876820E+03  0.12699999809E+01 0.  1.
       -4    1    3    3    0  502  0.23244240423E+03  0.20568397203E+03  0.14540977795E+04  0.14868548459E+04  0.12699999809E+01 0. -1.
</event>
<event>
 5   0  0.6547153E-04  0.1774088E+04  0.7818609E-02  0.8720202E-01
        2   -1    0    0  501    0  0.00000000000E+00  0.00000000000E+00  0.85310930587E+03  0.85310930587E+03  0.25500000920E-02 0.  1.
       -2   -1    0    0    0  501  0.00000000000E+00  0.00000000000E+00 -0.92232830113E+03  0.92232830114E+03  0.25500000920E-02 0. -1.
    10030    2    1    2    0    0  0.00000000000E+00  0.00000000000E+00 -0.69218995266E+02  0.17754376070E+04  0.17740877732E+04 0.  0.
        5    1    3    3  502    0  0.82968766490E+03  0.24597464287E+03  0.16031965884E+03  0.88011909946E+03  0.46999998093E+01 0.  1.
       -5    1    3    3    0  502 -0.82968766490E+03 -0.24597464287E+03 -0.22953865410E+03  0.89531850755E+03  0.46999998093E+01 0. -1.
</event>
<event>
 5   0  0.6929121E-04  0.1659311E+04  0.7818609E-02  0.8784917E-01
        2   -1    0    0  501    0  0.00000000000E+00  0.00000000000E+00  0.18778576662E+04  0.18778576662E+04  0.25500000920E-02 0.  1.
       -2   -1    0    0    0  501  0.00000000000E+00  0.00000000000E+00 -0.36654989803E+03  0.36654989804E+03  0.25500000920E-02 0. -1.
    10030    2    1    2    0    0  0.00000000000E+00  0.00000000000E+00  0.15113077682E+04  0.22444075643E+04  0.16593113464E+04 0.  0.
        3    1    3    3  502    0  0.54766560895E+03 -0.39961842237E+03  0.10880453253E+03  0.68663741467E+03  0.10100000352E+00 0. -1.
       -3    1    3    3    0  502 -0.54766560895E+03  0.39961842237E+03  0.14025032357E+04  0.15577701496E+04  0.10100000352E+00 0.  1.
</event>
<event>
 5   0  0.6774451E-04  0.1801747E+04  0.7818609E-02  0.8705371E-01
        2   -1    0    0  501    0  0.00000000000E+00  0.00000000000E+00  0.12389230075E+04  0.12389230075E+04  0.25500000920E-02 0. -1.
       -2   -1    0    0    0  501  0.00000000000E+00  0.00000000000E+00 -0.65506299865E+03  0.65506299866E+03  0.25500000920E-02 0.  1.
    10030    2    1    2    0    0  0.00000000000E+00  0.00000000000E+00  0.58386000883E+03  0.18939860061E+04  0.18017465087E+04 0.  0.
        4    1    3    3  502    0 -0.65650393676E+02  0.11368799049E+03  0.12288127048E+04  0.12358062994E+04  0.12699999809E+01 0. -1.
       -4    1    3    3    0  502  0.65650393676E+02 -0.11368799049E+03 -0.64495269597E+03  0.65817970670E+03  0.12699999809E+01 0.  1.
</event>
<event>
 5   0  0.3413839E-04  0.1802780E+04  0.7818609E-02  0.8704822E-01
        1   -1    0    0  501    0  0.00000000000E+00  0.00000000000E+00  0.20390012895E+04  0.20390012895E+04  0.50400001928E-02 0. -1.
       -1   -1    0    0    0  501  0.00000000000E+00  0.00000000000E+00 -0.39848137296E+03  0.39848137300E+03  0.50400001928E-02 0.  1.
    10030    2    1    2    0    0  0.00000000000E+00  0.00000000000E+00  0.16405199166E+04  0.24374826625E+04  0.18027801124E+04 0.  0.
        5    1    3    3  502    0 -0.74375605901E+03  0.33680501513E+03  0.13366568612E+04  0.15662963794E+04  0.46999998093E+01 0. -1.
       -5    1    3    3    0  502  0.74375605901E+03 -0.33680501513E+03  0.30386305540E+03  0.87118628316E+03  0.46999998093E+01 0.  1.
</event>
<event>
 5   0  0.3377273E-04  0.1667739E+04  0.7818609E-02  0.8779981E-01
       -1   -1    0    0    0  501  0.00000000000E+00  0.00000000000E+00  0.43023993120E+03  0.43023993123E+03  0.50400001928E-02 0.  1.
        1   -1    0    0  501    0  0.00000000000E+00  0.00000000000E+00 -0.16161637817E+04  0.16161637817E+04  0.50400001928E-02 0. -1.
    10030    2    1    2    0    0  0.00000000000E+00  0.00000000000E+00 -0.11859238504E+04  0.20464037129E+04  0.16677388216E+04 0.  0.
        2    1    3    3  502    0 -0.51224157797E+03  0.12738102514E+03  0.19914878190E+03  0.56416096737E+03  0.25500000920E-02 0.  1.
       -2    1    3    3    0  502  0.51224157797E+03 -0.12738102514E+03 -0.13850726324E+04  0.14822427455E+04  0.25500000920E-02 0. -1.
</event>
<event>
 5   0  0.6774451E-04  0.1610771E+04  0.7818609E-02  0.8813958E-01
       -2   -1    0    0    0  501  0.00000000000E+00  0.00000000000E+00  0.40774860163E+03  0.40774860164E+03  0.25500000920E-02 0. -1.
        2   -1    0    0  501    0  0.00000000000E+00  0.00000000000E+00 -0.15907975878E+04  0.15907975878E+04  0.25500000920E-02 0.  1.
    10030    2    1    2    0    0  0.00000000000E+00  0.00000000000E+00 -0.11830489861E+04  0.19985461894E+04  0.16107706130E+04 0.  0.
        4    1    3    3  502    0  0.20902399348E+03  0.77773571363E+03 -0.60262261904E+03  0.10058426835E+04  0.12699999809E+01 0.  1.
       -4    1    3    3    0  502 -0.20902399348E+03 -0.77773571363E+03 -0.58042636710E+03  0.99270350590E+03  0.12699999809E+01 0. -1.
</event>
<event>
 5   0  0.6929121E-04  0.1761986E+04  0.7818609E-02  0.8726780E-01
        2   -1    0    0  501    0  0.00000000000E+00  0.00000000000E+00  0.12579862111E+04  0.12579862111E+04  0.25500000920E-02 0.  1.
       -2   -1    0    0    0  501  0.00000000000E+00  0.00000000000E+00 -0.61697713604E+03  0.61697713604E+03  0.25500000920E-02 0. -1.
    10030    2    1    2    0    0  0.00000000000E+00  0.00000000000E+00  0.64100907504E+03  0.18749633471E+04  0.17619860722E+04 0.  0.
        3    1    3    3  502    0  0.26120473747E+03 -0.16229137467E+03 -0.55801104182E+03  0.63713635759E+03  0.10100000352E+00 0. -1.
       -3    1    3    3    0  502 -0.26120473747E+03  0.16229137467E+03  0.11990201169E+04  0.12378269895E+04  0.10100000352E+00 0.  1.
</event>
<event>
 5   0  0.2467375E-04  0.1853827E+04  0.7818609E-02  0.8678187E-01
        3   -1    0    0  501    0  0.00000000000E+00  0.00000000000E+00  0.12896486183E+04  0.12896486222E+04  0.10100000352E+00 0. -1.
       -3   -1    0    0    0  501  0.00000000000E+00  0.00000000000E+00 -0.66620368193E+03  0.66620368958E+03  0.10100000352E+00 0.  1.
    10030    2    1    2    0    0  0.00000000000E+00  0.00000000000E+00  0.62344493633E+03  0.19558523118E+04  0.18538270353E+04 0.  0.
        2    1    3    3  502    0 -0.45996118502E+03 -0.50434466382E+03 -0.34987853115E+03  0.76703508278E+03  0.25500000920E-02 0.  1.
       -2    1    3    3    0  502  0.45996118502E+03  0.50434466382E+03  0.97332346748E+03  0.11888172290E+04  0.25500000920E-02 0. -1.
</event>
<event>
 5   0  0.6853162E-04  0.1756948E+04  0.7818609E-02  0.8729535E-01
       -2   -1    0    0    0  501  0.00000000000E+00  0.00000000000E+00  0.64586402031E+03  0.64586402031E+03  0.25500000920E-02 0. -1.
        2   -1    0    0  501    0  0.00000000000E+00  0.00000000000E+00 -0.11948597082E+04  0.11948597082E+04  0.25500000920E-02 0.  1.
    10030    2    1    2    0    0  0.00000000000E+00  0.00000000000E+00 -0.54899568785E+03  0.18407237285E+04  0.17569483713E+04 0.  0.
        2    1    3    3  502    0  0.49092152228E+03 -0.27951031348E+03 -0.97932173887E+03  0.11305755280E+04  0.25500000920E-02 0. -1.
       -2    1    3    3    0  502 -0.49092152228E+03  0.27951031348E+03  0.43032605102E+03  0.71014820043E+03  0.25500000920E-02 0.  1.
</event>
<event>
 5   0  0.6774451E-04  0.1789426E+04  0.7818609E-02  0.8711943E-01
       -2   -1    0    0    0  501  0.00000000000E+00  0.00000000000E+00  0.67748667339E+03  0.67748667339E+03  0.25500000920E-02 0.  1.
        2   -1    0    0  501    0  0.00000000000E+00  0.00000000000E+00 -0.11815904656E+04  0.11815904656E+04  0.25500000920E-02 0. -1.
    10030    2    1    2    0    0  0.00000000000E+00  0.00000000000E+00 -0.50410379225E+03  0.18590771390E+04  0.17894264935E+04 0.  0.
        4    1    3    3  502    0 -0.69462748182E+03  0.29375122614E+03  0.24805034791E+03  0.79393180397E+03  0.12699999809E+01 0.  1.
       -4    1    3    3    0  502  0.69462748182E+03 -0.29375122614E+03 -0.75215414016E+03  0.10651453351E+04  0.12699999809E+01 0. -1.
</event>
<event>
 5   0  0.3404261E-04  0.1822875E+04  0.7818609E-02  0.8694229E-01
       -1   -1    0    0    0  501  0.00000000000E+00  0.00000000000E+00  0.18884596786E+04  0.18884596786E+04  0.50400001928E-02 0.  1.
        1   -1    0    0  501    0  0.00000000000E+00  0.00000000000E+00 -0.43989183084E+03  0.43989183087E+03  0.50400001928E-02 0. -1.
    10030    2    1    2    0    0  0.00000000000E+00  0.00000000000E+00  0.14485678477E+04  0.23283515094E+04  0.18228746370E+04 0.  0.
        1    1    3    3  502    0 -0.66328958752E+03 -0.57329675468E+03  0.10425736687E+04  0.13621975262E+04  0.50400001928E-02 0.  1.
       -1    1    3    3    0  502  0.66328958752E+03  0.57329675468E+03  0.40599417905E+03  0.96615398321E+03  0.50400001928E-02 0. -1.
</event>
<event>
 5   0  0.6853162E-04  0.1661226E+04  0.7818609E-02  0.8783793E-01
        2   -1    0    0  501    0  0.00000000000E+00  0.00000000000E+00  0.10793680131E+04  0.10793680131E+04  0.25500000920E-02 0. -1.
       -2   -1    0    0    0  501  0.00000000000E+00  0.00000000000E+00 -0.63918720964E+03  0.63918720964E+03  0.25500000920E-02 0.  1.
    10030    2    1    2    0    0  0.00000000000E+00  0.00000000000E+00  0.44018080350E+03  0.17185552228E+04  0.16612263283E+04 0.  0.
        2    1    3    3  502    0 -0.73898500175E+03 -0.21127895350E+02 -0.17162295862E+03  0.75894641491E+03  0.25500000920E-02 0. -1.
       -2    1    3    3    0  502  0.73898500175E+03  0.21127895350E+02  0.61180376211E+03  0.95960880786E+03  0.25500000920E-02 0.  1.
</event>
<event>
 5   0  0.3413839E-04  0.1850783E+04  0.7818609E-02  0.8679750E-01
       -1   -1    0    0    0  501  0.00000000000E+00  0.00000000000E+00  0.46680434338E+03  0.46680434341E+03  0.50400001928E-02 0. -1.
        1   -1    0    0  501    0  0.00000000000E+00  0.00000000000E+00 -0.18344936512E+04  0.18344936512E+04  0.50400001928E-02 0.  1.
    10030    2    1    2    0    0  0.00000000000E+00  0.00000000000E+00 -0.13676893078E+04  0.23012979946E+04  0.18507831902E+04 0.  0.
        5    1    3    3  502    0 -0.73614794118E+03  0.50151816763E+03 -0.99567568681E+03  0.13359739620E+04  0.46999998093E+01 0.  1.
       -5    1    3    3    0  502  0.73614794118E+03 -0.50151816763E+03 -0.37201362098E+03  0.96532403262E+03  0.46999998093E+01 0. -1.
</event>
<event>
 5   0  0.3308275E-04  0.1768714E+04  0.7818609E-02  0.8723116E-01
        1   -1    0    0  501    0  0.00000000000E+00  0.00000000000E+00  0.77776699645E+03  0.77776699646E+03  0.50400001928E-02 0. -1.
       -1   -1    0    0    0  501  0.00000000000E+00  0.00000000000E+00 -0.10055544558E+04  0.10055544558E+04  0.50400001928E-02 0.  1.
    10030    2    1    2    0    0  0.00000000000E+00  0.00000000000E+00 -0.22778745931E+03  0.17833214522E+04  0.17687137347E+04 0.  0.
        3    1    3    3  502    0 -0.42856079405E+03 -0.66698857801E+03  0.28119578019E+03  0.84119509888E+03  0.10100000352E+00 0. -1.
       -3    1    3    3    0  502  0.42856079405E+03  0.66698857801E+03 -0.50898323950E+03  0.94212635335E+03  0.10100000352E+00 0.  1.
</event>
<event>
 5   0  0.6547153E-04  0.1802211E+04  0.7818609E-02  0.8705125E-01
        2   -1    0    0  501    0  0.00000000000E+00  0.00000000000E+00  0.27149165067E+04  0.27149165067E+04  0.25500000920E-02 0.  1.
       -2   -1    0    0    0  501  0.00000000000E+00  0.00000000000E+00 -0.29908505845E+03  0.29908505846E+03  0.25500000920E-02 0. -1.
    10030    2    1    2    0    0  0.00000000000E+00  0.00000000000E+00  0.24158314482E+04  0.30140015651E+04  0.18022108224E+04 0.  0.
        5    1    3    3  502    0 -0.74102411441E+03  0.26237200726E+03  0.19445524497E+04  0.20974418056E+04  0.46999998093E+01 0.  1.
       -5    1    3    3    0  502  0.74102411441E+03 -0.26237200726E+03  0.47127899855E+03  0.91655975953E+03  0.46999998093E+01 0. -1.
</event>
<event>
 5   0  0.3413839E-04  0.1746350E+04  0.7818609E-02  0.8735362E-01
       -1   -1    0    0    0  501  0.00000000000E+00  0.00000000000E+00  0.18724118995E+04  0.18724118995E+04  0.50400001928E-02 0.  1.
        1   -1    0    0  501    0  0.00000000000E+00  0.00000000000E+00 -0.40719360863E+03  0.40719360867E+03  0.50400001928E-02 0. -1.
    10030    2    1    2    0    0  0.00000000000E+00  0.00000000000E+00  0.14652182908E+04  0.22796055081E+04  0.17463495163E+04 0.  0.
        5    1    3    3  502    0  0.47003649630E+03 -0.73145677021E+03  0.62778377048E+03  0.10724261592E+04  0.46999998093E+01 0.  1.
       -5    1    3    3    0  502 -0.47003649630E+03  0.73145677021E+03  0.83743452036E+03  0.12071793489E+04  0.46999998093E+01 0. -1.
</event>
<event>
 5   0  0.6929121E-04  0.1730000E+04  0.7818609E-02  0.8744437E-01
       -2   -1    0    0    0  501  0.00000000000E+00  0.00000000000E+00  0.12263570360E+04  0.12263570360E+04  0.25500000920E-02 0. -1.
        2   -1    0    0  501    0  0.00000000000E+00  0.00000000000E+00 -0.61011981820E+03  0.61011981821E+03  0.25500000920E-02 0.  1.
    10030    2    1    2    0    0  0.00000000000E+00  0.00000000000E+00  0.61623721780E+03  0.18364768542E+04  0.17299996900E+04 0.  0.
        3    1    3    3  502    0 -0.33306206752E+03 -0.14164565202E+03  0.11421132503E+04  0.11980886938E+04  0.10100000352E+00 0. -1.
       -3    1    3    3    0  502  0.33306206752E+03  0.14164565202E+03 -0.52587603251E+03  0.63838816039E+03  0.10100000352E+00 0.  1.
</event>
<event>
 5   0  0.3404261E-04  0.1854808E+04  0.7818609E-02  0.8677684E-01
        1   -1    0    0  501    0  0.00000000000E+00  0.00000000000E+00  0.17493859475E+04  0.17493859476E+04  0.50400001928E-02 0. -1.
       -1   -1    0    0    0  501  0.00000000000E+00  0.00000000000E+00 -0.49164577367E+03  0.49164577369E+03  0.50400001928E-02 0.  1.
    10030    2    1    2    0    0  0.00000000000E+00  0.00000000000E+00  0.12577401739E+04  0.22410317212E+04  0.18548080307E+04 0.  0.
        1    1    3    3  502    0 -0.29789813280E+03 -0.84438810548E+03  0.33702943475E+03  0.95672535773E+03  0.50400001928E-02 0.  1.
       -1    1    3    3    0  502  0.29789813280E+03  0.84438810548E+03  0.92071073913E+03  0.12843063635E+04  0.50400001928E-02 0. -1.
</event>
<event>
 5   0  0.3413839E-04  0.1788632E+04  0.7818609E-02  0.8712368E-01
        1   -1    0    0  501    0  0.00000000000E+00  0.00000000000E+00  0.22729904578E+04  0.22729904578E+04  0.50400001928E-02 0. -1.
       -1   -1    0    0    0  501  0.00000000000E+00  0.00000000000E+00 -0.35187169076E+03  0.35187169080E+03  0.50400001928E-02 0.  1.
    10030    2    1    2    0    0  0.00000000000E+00  0.00000000000E+00  0.19211187670E+04  0.26248621486E+04  0.17886318744E+04 0.  0.
        5    1    3    3  502    0 -0.74965358882E+03  0.60900288325E+02  0.16705891475E+04  0.18320970329E+04  0.46999998093E+01 0. -1.
       -5    1    3    3    0  502  0.74965358882E+03 -0.60900288325E+02  0.25052961953E+03  0.79276511566E+03  0.46999998093E+01 0.  1.
</event>
<event>
 5   0  0.6929121E-04  0.1760255E+04  0.7818609E-02  0.8727726E-01
       -2   -1    0    0    0  501  0.00000000000E+00  0.00000000000E+00  0.88602801361E+03  0.88602801361E+03  0.25500000920E-02 0.  1.
        2   -1    0    0  501    0  0.00000000000E+00  0.00000000000E+00 -0.87426581660E+03  0.87426581661E+03  0.25500000920E-02 0. -1.
    10030    2    1    2    0    0  0.00000000000E+00  0.00000000000E+00  0.11762197004E+02  0.17602938302E+04  0.17602545326E+04 0.  0.
        3    1    3    3  502    0 -0.42951352000E+03 -0.72460192278E+03 -0.24926021680E+03  0.87844207336E+03  0.10100000352E+00 0. -1.
       -3    1    3    3    0  502  0.42951352000E+03  0.72460192278E+03  0.26102241380E+03  0.88185175686E+03  0.10100000352E+00 0.  1.
</event>
<event>
 5   0  0.6547153E-04  0.1789379E+04  0.7818609E-02  0.8711968E-01
        2   -1    0    0  501    0  0.00000000000E+00  0.00000000000E+00  0.18309300594E+04  0.18309300594E+04  0.25500000920E-02 0. -1.
       -2   -1    0    0    0  501  0.00000000000E+00  0.00000000000E+00 -0.43719278645E+03  0.43719278645E+03  0.25500000920E-02 0.  1.
    10030    2    1    2    0    0  0.00000000000E+00  0.00000000000E+00  0.13937372729E+04  0.22681228458E+04  0.17893791263E+04 0.  0.
        5    1    3    3  502    0  0.44384363746E+03 -0.15609192979E+03  0.16614426029E+04  0.17267818269E+04  0.46999998093E+01 0. -1.
       -5    1    3    3    0  502 -0.44384363746E+03  0.15609192979E+03 -0.26770532997E+03  0.54134101891E+03  0.46999998093E+01 0.  1.
</event>
<event>
 5   0  0.6547153E-04  0.1776539E+04  0.7818609E-02  0.8718876E-01
        2   -1    0    0  501    0  0.00000000000E+00  0.00000000000E+00  0.12295806258E+04  0.12295806258E+04  0.25500000920E-02 0.  1.
       -2   -1    0    0    0  501  0.00000000000E+00  0.00000000000E+00 -0.64170075053E+03  0.64170075053E+03  0.25500000920E-02 0. -1.
    10030    2    1    2    0    0  0.00000000000E+00  0.00000000000E+00  0.58787987523E+03  0.18712813763E+04  0.17765391191E+04 0.  0.
        5    1    3    3  502    0  0.22741868356E+03  0.71684354320E+03  0.79181712940E+03  0.10920532860E+04  0.46999998093E+01 0. -1.
       -5    1    3    3    0  502 -0.22741868356E+03 -0.71684354320E+03 -0.20393725417E+03  0.77922809029E+03  0.46999998093E+01 0.  1.
</event>
<event>
 5   0  0.3470962E-04  0.1823336E+04  0.7818609E-02  0.8693987E-01
       -1   -1    0    0    0  501  0.00000000000E+00  0.00000000000E+00  0.54107240656E+03  0.54107240659E+03  0.50400001928E-02 0.  1.
        1   -1    0    0  501    0  0.00000000000E+00  0.00000000000E+00 -0.15360954691E+04  0.15360954691E+04  0.50400001928E-02 0. -1.
    10030    2    1    2    0    0  0.00000000000E+00  0.00000000000E+00 -0.99502306253E+03  0.20771678757E+04  0.18233363620E+04 0.  0.
        4    1    3    3  502    0  0.49449194783E+03  0.35237003010E+03  0.27719524284E+03  0.66747714578E+03  0.12699999809E+01 0.  1.
       -4    1    3    3    0  502 -0.49449194783E+03 -0.35237003010E+03 -0.12722183054E+04  0.14096907299E+04  0.12699999809E+01 0. -1.
</event>
<event>
 5   0  0.3413839E-04  0.1762301E+04  0.7818609E-02  0.8726608E-01
        1   -1    0    0  501    0  0.00000000000E+00  0.00000000000E+00  0.12440815990E+04  0.12440815990E+04  0.50400001928E-02 0. -1.
       -1   -1    0    0    0  501  0.00000000000E+00  0.00000000000E+00 -0.62409570942E+03  0.62409570944E+03  0.50400001928E-02 0.  1.
    10030    2    1    2    0    0  0.00000000000E+00  0.00000000000E+00  0.61998588957E+03  0.18681773084E+04  0.17623007554E+04 0.  0.
        5    1    3    3  502    0 -0.78971671357E+03  0.38400176330E+03  0.38712454467E+03  0.95968606586E+03  0.46999998093E+01 0. -1.
       -5    1    3    3    0  502  0.78971671357E+03 -0.38400176330E+03  0.23286134489E+03  0.90849124259E+03  0.46999998093E+01 0.  1.
</event>
<event>
 5   0  0.3470962E-04  0.1789454E+04  0.7818609E-02  0.8711928E-01
        1   -1    0    0  501    0  0.00000000000E+00  0.00000000000E+00  0.18612352837E+04  0.18612352837E+04  0.50400001928E-02 0. -1.
       -1   -1    0    0    0  501  0.00000000000E+00  0.00000000000E+00 -0.43011040286E+03  0.43011040289E+03  0.50400001928E-02 0.  1.
    10030    2    1    2    0    0  0.00000000000E+00  0.00000000000E+00  0.14311248808E+04  0.22913456865E+04  0.17894542830E+04 0.  0.
        4    1    3    3  502    0  0.35445661211E+03 -0.67777690188E+03  0.13100021005E+04  0.15169469783E+04  0.12699999809E+01 0. -1.
       -4    1    3    3    0  502 -0.35445661211E+03  0.67777690188E+03  0.12112278028E+03  0.77439870829E+03  0.12699999809E+01 0.  1.
</event>
<event>
 5   0  0.3308275E-04  0.1797136E+04  0.7818609E-02  0.8707824E-01
        1   -1    0    0  501    0  0.00000000000E+00  0.00000000000E+00  0.18360730182E+04  0.18360730182E+04  0.50400001928E-02 0. -1.
       -1   -1    0    0    0  501  0.00000000000E+00  0.00000000000E+00 -0.43975597078E+03  0.43975597081E+03  0.50400001928E-02 0.  1.
    10030    2    1    2    0    0  0.00000000000E+00  0.00000000000E+00  0.13963170474E+04  0.22758289890E+04  0.17971355793E+04 0.  0.
        3    1    3    3  502    0  0.19932142260E+02 -0.50642914983E+03  0.16377945216E+04  0.17144207999E+04  0.10100000352E+00 0. -1.
       -3    1    3    3    0  502 -0.19932142260E+02  0.50642914983E+03 -0.24147747414E+03  0.56140818912E+03  0.10100000352E+00 0.  1.
</event>
<event>
 5   0  0.3470962E-04  0.1817883E+04  0.7818609E-02  0.8696847E-01
        1   -1    0    0  501    0  0.00000000000E+00  0.00000000000E+00  0.90591668566E+03  0.90591668567E+03  0.50400001928E-02 0. -1.
       -1   -1    0    0    0  501  0.00000000000E+00  0.00000000000E+00 -0.91197601008E+03  0.91197601009E+03  0.50400001928E-02 0.  1.
    10030    2    1    2    0    0  0.00000000000E+00  0.00000000000E+00 -0.60593244217E+01  0.18178926958E+04  0.18178825974E+04 0.  0.
        4    1    3    3  502    0 -0.22212019151E+03  0.10255501887E+03  0.87237097409E+03  0.90602849884E+03  0.12699999809E+01 0. -1.
       -4    1    3    3    0  502  0.22212019151E+03 -0.10255501887E+03 -0.87843029852E+03  0.91186419692E+03  0.12699999809E+01 0.  1.
</event>
<event>
 5   0  0.6929121E-04  0.1762008E+04  0.7818609E-02  0.8726768E-01
        2   -1    0    0  501    0  0.00000000000E+00  0.00000000000E+00  0.89884931630E+03  0.89884931630E+03  0.25500000920E-02 0.  1.
       -2   -1    0    0    0  501  0.00000000000E+00  0.00000000000E+00 -0.86351308920E+03  0.86351308920E+03  0.25500000920E-02 0. -1.
    10030    2    1    2    0    0  0.00000000000E+00  0.00000000000E+00  0.35336227104E+02  0.17623624055E+04  0.17620081156E+04 0.  0.
        3    1    3    3  502    0  0.41539762041E+03 -0.58360864501E+03  0.53062004698E+03  0.89146613958E+03  0.10100000352E+00 0.  1.
       -3    1    3    3    0  502 -0.41539762041E+03  0.58360864501E+03 -0.49528381987E+03  0.87089626592E+03  0.10100000352E+00 0. -1.
</event>
<event>
 5   0  0.6547153E-04  0.1837106E+04  0.7818609E-02  0.8686812E-01
        2   -1    0    0  501    0  0.00000000000E+00  0.00000000000E+00  0.14013667749E+04  0.14013667749E+04  0.25500000920E-02 0.  1.
       -2   -1    0    0    0  501  0.00000000000E+00  0.00000000000E+00 -0.60208307592E+03  0.60208307593E+03  0.25500000920E-02 0. -1.
    10030    2    1    2    0    0  0.00000000000E+00  0.00000000000E+00  0.79928369895E+03  0.20034498508E+04  0.18371055694E+04 0.  0.
        5    1    3    3  502    0  0.25598814145E+03  0.69860268123E+03 -0.18777890026E+03  0.76737125316E+03  0.46999998093E+01 0. -1.
       -5    1    3    3    0  502 -0.25598814145E+03 -0.69860268123E+03  0.98706259921E+03  0.12360785976E+04  0.46999998093E+01 0.  1.
</event>
<event>
 5   0  0.6547153E-04  0.1803370E+04  0.7818609E-02  0.8704510E-01
       -2   -1    0    0    0  501  0.00000000000E+00  0.00000000000E+00  0.54663677790E+03  0.54663677791E+03  0.25500000920E-02 0.  1.
        2   -1    0    0  501    0  0.00000000000E+00  0.00000000000E+00 -0.14873412037E+04  0.14873412037E+04  0.25500000920E-02 0. -1.
    10030    2    1    2    0    0  0.00000000000E+00  0.00000000000E+00 -0.94070442581E+03  0.20339779816E+04  0.18033695165E+04 0.  0.
        5    1    3    3  502    0 -0.30231627199E+03  0.29295384150E+02  0.48718762346E+03  0.57413170814E+03  0.46999998093E+01 0.  1.
       -5    1    3    3    0  502  0.30231627199E+03 -0.29295384150E+02 -0.14278920493E+04  0.14598462735E+04  0.46999998093E+01 0. -1.
</event>
<event>
 5   0  0.3404261E-04  0.1746624E+04  0.7818609E-02  0.8735211E-01
       -1   -1    0    0    0  501  0.00000000000E+00  0.00000000000E+00  0.76524920005E+03  0.76524920007E+03  0.50400001928E-02 0.  1.
        1   -1    0    0  501    0  0.00000000000E+00  0.00000000000E+00 -0.99663517280E+03  0.99663517282E+03  0.50400001928E-02 0. -1.
    10030    2    1    2    0    0  0.00000000000E+00  0.00000000000E+00 -0.23138597275E+03  0.17618843729E+04  0.17466244803E+04 0.  0.
        1    1    3    3  502    0  0.39501473149E+03 -0.10918790193E+03  0.66222271622E+03  0.77877953358E+03  0.50400001928E-02 0.  1.
       -1    1    3    3    0  502 -0.39501473149E+03  0.10918790193E+03 -0.89360868898E+03  0.98310483930E+03  0.50400001928E-02 0. -1.
</event>
<event>
 5   0  0.6771967E-04  0.1797259E+04  0.7818609E-02  0.8707758E-01
       -2   -1    0    0    0  501  0.00000000000E+00  0.00000000000E+00  0.78622196902E+03  0.78622196902E+03  0.25500000920E-02 0.  1.
        2   -1    0    0  501    0  0.00000000000E+00  0.00000000000E+00 -0.10271086322E+04  0.10271086322E+04  0.25500000920E-02 0. -1.
    10030    2    1    2    0    0  0.00000000000E+00  0.00000000000E+00 -0.24088666319E+03  0.18133306012E+04  0.17972594373E+04 0.  0.
        1    1    3    3  502    0 -0.33341528513E+03  0.82334733464E+03 -0.25755846324E+03  0.92487996402E+03  0.50400001928E-02 0. -1.
       -1    1    3    3    0  502  0.33341528513E+03 -0.82334733464E+03  0.16671800053E+02  0.88845063722E+03  0.50400001928E-02 0.  1.
</event>
<event>
 5   0  0.6771967E-04  0.1744594E+04  0.7818609E-02  0.8736331E-01
       -2   -1    0    0    0  501  0.00000000000E+00  0.00000000000E+00  0.95117749793E+03  0.95117749794E+03  0.25500000920E-02 0.  1.
        2   -1    0    0  501    0  0.00000000000E+00  0.00000000000E+00 -0.79995832819E+03  0.79995832819E+03  0.25500000920E-02 0. -1.
    10030    2    1    2    0    0  0.00000000000E+00  0.00000000000E+00  0.15121916974E+03  0.17511358261E+04  0.17445943495E+04 0.  0.
        1    1    3    3  502    0  0.53265953759E+02 -0.12950611918E+03 -0.78860262669E+03  0.80093894873E+03  0.50400001928E-02 0. -1.
       -1    1    3    3    0  502 -0.53265953759E+02  0.12950611918E+03  0.93982179644E+03  0.95019687740E+03  0.50400001928E-02 0.  1.
</event>
<event>
 5   0  0.3308275E-04  0.1958799E+04  0.7818609E-02  0.8626129E-01
        1   -1    0    0  501    0  0.00000000000E+00  0.00000000000E+00  0.13076539032E+04  0.13076539032E+04  0.50400001928E-02 0.  1.
       -1   -1    0    0    0  501  0.00000000000E+00  0.00000000000E+00 -0.73354550350E+03  0.73354550351E+03  0.50400001928E-02 0. -1.
    10030    2    1    2    0    0  0.00000000000E+00  0.00000000000E+00  0.57410839971E+03  0.20411994067E+04  0.19587992657E+04 0.  0.
        3    1    3    3  502    0  0.64869238250E+02 -0.10770515161E+03 -0.72510059878E+03  0.73592072012E+03  0.10100000352E+00 0. -1.
       -3    1    3    3    0  502 -0.64869238250E+02  0.10770515161E+03  0.12992089985E+04  0.13052786866E+04  0.10100000352E+00 0.  1.
</event>
<event>
 5   0  0.6774451E-04  0.1834221E+04  0.7818609E-02  0.8688310E-01
        2   -1    0    0  501    0  0.00000000000E+00  0.00000000000E+00  0.64327671613E+03  0.64327671614E+03  0.25500000920E-02 0.  1.
       -2   -1    0    0    0  501  0.00000000000E+00  0.00000000000E+00 -0.13075109567E+04  0.13075109567E+04  0.25500000920E-02 0. -1.
    10030    2    1    2    0    0  0.00000000000E+00  0.00000000000E+00 -0.66423424052E+03  0.19507876728E+04  0.18342206569E+04 0.  0.
        4    1    3    3  502    0 -0.46103196200E+03  0.64908632391E+03 -0.81626805040E+03  0.11402450039E+04  0.12699999809E+01 0. -1.
       -4    1    3    3    0  502  0.46103196200E+03 -0.64908632391E+03  0.15203380988E+03  0.81054266891E+03  0.12699999809E+01 0.  1.
</event>
<event>
 5   0  0.3377273E-04  0.2134161E+04  0.7818609E-02  0.8546343E-01
        1   -1    0    0  501    0  0.00000000000E+00  0.00000000000E+00  0.25354064941E+04  0.25354064941E+04  0.50400001928E-02 0. -1.
       -1   -1    0    0    0  501  0.00000000000E+00  0.00000000000E+00 -0.44910390642E+03  0.44910390645E+03  0.50400001928E-02 0.  1.
    10030    2    1    2    0    0  0.00000000000E+00  0.00000000000E+00  0.20863025877E+04  0.29845104006E+04  0.21341611569E+04 0.  0.
        2    1    3    3  502    0 -0.17849088848E+03  0.63825097772E+03  0.22127055926E+04  0.23098245274E+04  0.25500000920E-02 0. -1.
       -2    1    3    3    0  502  0.17849088848E+03 -0.63825097772E+03 -0.12640300490E+03  0.67468587319E+03  0.25500000920E-02 0.  1.
</event>
<event>
 5   0  0.6853162E-04  0.1562990E+04  0.7818609E-02  0.8843613E-01
       -2   -1    0    0    0  501  0.00000000000E+00  0.00000000000E+00  0.19238089413E+04  0.19238089413E+04  0.25500000920E-02 0.  1.
        2   -1    0    0  501    0  0.00000000000E+00  0.00000000000E+00 -0.31746113621E+03  0.31746113622E+03  0.25500000920E-02 0. -1.
    10030    2    1    2    0    0  0.00000000000E+00  0.00000000000E+00  0.16063478051E+04  0.22412700775E+04  0.15629901758E+04 0.  0.
        2    1    3    3  502    0 -0.33773226129E+03 -0.44153423083E+03  0.15908347991E+04  0.16851619849E+04  0.25500000920E-02 0.  1.
       -2    1    3    3    0  502  0.33773226129E+03  0.44153423083E+03  0.15513005972E+02  0.55610809262E+03  0.25500000920E-02 0. -1.
</event>
<event>
 5   0  0.3404261E-04  0.1818152E+04  0.7818609E-02  0.8696706E-01
       -1   -1    0    0    0  501  0.00000000000E+00  0.00000000000E+00  0.71140484215E+03  0.71140484217E+03  0.50400001928E-02 0. -1.
        1   -1    0    0  501    0  0.00000000000E+00  0.00000000000E+00 -0.11616716911E+04  0.11616716911E+04  0.50400001928E-02 0.  1.
    10030    2    1    2    0    0  0.00000000000E+00  0.00000000000E+00 -0.45026684890E+03  0.18730765332E+04  0.18181516615E+04 0.  0.
        1    1    3    3  502    0 -0.30864142179E+03 -0.69418623856E+03 -0.73948005238E+03  0.10601814981E+04  0.50400001928E-02 0.  1.
       -1    1    3    3    0  502  0.30864142179E+03  0.69418623856E+03  0.28921320348E+03  0.81289503513E+03  0.50400001928E-02 0. -1.
</event>
<event>
 5   0  0.6853162E-04  0.1841729E+04  0.7818609E-02  0.8684418E-01
        2   -1    0    0  501    0  0.00000000000E+00  0.00000000000E+00  0.83176947601E+03  0.83176947602E+03  0.25500000920E-02 0. -1.
       -2   -1    0    0    0  501  0.00000000000E+00  0.00000000000E+00 -0.10195032143E+04  0.10195032143E+04  0.25500000920E-02 0.  1.
    10030    2    1    2    0    0  0.00000000000E+00  0.00000000000E+00 -0.18773373827E+03  0.18512726903E+04  0.18417292465E+04 0.  0.
        2    1    3    3  502    0 -0.62998903280E+03 -0.65224436820E+03  0.67221962457E+02  0.90930065959E+03  0.25500000920E-02 0. -1.
       -2    1    3    3    0  502  0.62998903280E+03  0.65224436820E+03 -0.25495570072E+03  0.94197203071E+03  0.25500000920E-02 0.  1.
</event>
<event>
 5   0  0.6547153E-04  0.1789592E+04  0.7818609E-02  0.8711854E-01
        2   -1    0    0  501    0  0.00000000000E+00  0.00000000000E+00  0.10953474164E+04  0.10953474164E+04  0.25500000920E-02 0.  1.
       -2   -1    0    0    0  501  0.00000000000E+00  0.00000000000E+00 -0.73096399590E+03  0.73096399591E+03  0.25500000920E-02 0. -1.
    10030    2    1    2    0    0  0.00000000000E+00  0.00000000000E+00  0.36438342050E+03  0.18263114123E+04  0.17895916008E+04 0.  0.
        5    1    3    3  502    0  0.62874184385E+03 -0.61868313536E+03  0.28936100613E+02  0.88257833426E+03  0.46999998093E+01 0. -1.
       -5    1    3    3    0  502 -0.62874184385E+03  0.61868313536E+03  0.33544731989E+03  0.94373307805E+03  0.46999998093E+01 0.  1.
</event>
<event>
 5   0  0.6547153E-04  0.1859873E+04  0.7818609E-02  0.8675092E-01
        2   -1    0    0  501    0  0.00000000000E+00  0.00000000000E+00  0.90155635688E+03  0.90155635688E+03  0.25500000920E-02 0. -1.
       -2   -1    0    0    0  501  0.00000000000E+00  0.00000000000E+00 -0.95920990416E+03  0.95920990416E+03  0.25500000920E-02 0.  1.
    10030    2    1    2    0    0  0.00000000000E+00  0.00000000000E+00 -0.57653547282E+02  0.18607662610E+04  0.18598728846E+04 0.  0.
        5    1    3    3  502    0  0.38552733803E+03  0.66084041795E+03  0.50002746707E+03  0.91399723423E+03  0.46999998093E+01 0. -1.
       -5    1    3    3    0  502 -0.38552733803E+03 -0.66084041795E+03 -0.55768101435E+03  0.94676902681E+03  0.46999998093E+01 0.  1.
</event>
<event>
 5   0  0.6547153E-04  0.1755747E+04  0.7818609E-02  0.8730193E-01
       -2   -1    0    0    0  501  0.00000000000E+00  0.00000000000E+00  0.60617626683E+03  0.60617626684E+03  0.25500000920E-02 0. -1.
        2   -1    0    0  501    0  0.00000000000E+00  0.00000000000E+00 -0.12713491637E+04  0.12713491637E+04  0.25500000920E-02 0.  1.
    10030    2    1    2    0    0  0.00000000000E+00  0.00000000000E+00 -0.66517289686E+03  0.18775254305E+04  0.17557467812E+04 0.  0.
        5    1    3    3  502    0  0.79817684650E+03  0.34166246038E+03 -0.19389871924E+03  0.88962819113E+03  0.46999998093E+01 0. -1.
       -5    1    3    3    0  502 -0.79817684650E+03 -0.34166246038E+03 -0.47127417761E+03  0.98789723940E+03  0.46999998093E+01 0.  1.
</event>
<event>
 5   0  0.3404261E-04  0.1780101E+04  0.7818609E-02  0.8716954E-01
        1   -1    0    0  501    0  0.00000000000E+00  0.00000000000E+00  0.48699090619E+03  0.48699090622E+03  0.50400001928E-02 0. -1.
       -1   -1    0    0    0  501  0.00000000000E+00  0.00000000000E+00 -0.16267036866E+04  0.16267036866E+04  0.50400001928E-02 0.  1.
    10030    2    1    2    0    0  0.00000000000E+00  0.00000000000E+00 -0.11397127804E+04  0.21136945928E+04  0.17801010111E+04 0.  0.
        1    1    3    3  502    0  0.18801493001E+03  0.19421647795E+03 -0.15767842293E+04  0.15997869108E+04  0.50400001928E-02 0.  1.
       -1    1    3    3    0  502 -0.18801493001E+03 -0.19421647795E+03  0.43707144887E+03  0.51390768203E+03  0.50400001928E-02 0. -1.
</event>
<event>
 5   0  0.3308275E-04  0.1188637E+04  0.7818609E-02  0.9122861E-01
       -1   -1    0    0    0  501  0.00000000000E+00  0.00000000000E+00  0.72682723239E+03  0.72682723241E+03  0.50400001928E-02 0. -1.
        1   -1    0    0  501    0  0.00000000000E+00  0.00000000000E+00 -0.48596739993E+03  0.48596739996E+03  0.50400001928E-02 0.  1.
    10030    2    1    2    0    0  0.00000000000E+00  0.00000000000E+00  0.24085983246E+03  0.12127946324E+04  0.11886367660E+04 0.  0.
        3    1    3    3  502    0 -0.28907081270E+03  0.79680718571E+02  0.64398975177E+03  0.71037578946E+03  0.10100000352E+00 0. -1.
       -3    1    3    3    0  502  0.28907081270E+03 -0.79680718571E+02 -0.40312991931E+03  0.50241884291E+03  0.10100000352E+00 0.  1.
</event>
<event>
 5   0  0.3308275E-04  0.1744059E+04  0.7818609E-02  0.8736627E-01
        1   -1    0    0  501    0  0.00000000000E+00  0.00000000000E+00  0.18316896518E+04  0.18316896518E+04  0.50400001928E-02 0.  1.
       -1   -1    0    0    0  501  0.00000000000E+00  0.00000000000E+00 -0.41515523902E+03  0.41515523906E+03  0.50400001928E-02 0. -1.
    10030    2    1    2    0    0  0.00000000000E+00  0.00000000000E+00  0.14165344128E+04  0.22468448909E+04  0.17440591220E+04 0.  0.
        3    1    3    3  502    0  0.44695487257E+03  0.70801776564E+03  0.39434380861E+03  0.92550789525E+03  0.10100000352E+00 0. -1.
       -3    1    3    3    0  502 -0.44695487257E+03 -0.70801776564E+03  0.10221906042E+04  0.13213369957E+04  0.10100000352E+00 0.  1.
</event>
<event>
 5   0  0.6771967E-04  0.1798242E+04  0.7818609E-02  0.8707235E-01
       -2   -1    0    0    0  501  0.00000000000E+00  0.00000000000E+00  0.62492196958E+03  0.62492196959E+03  0.25500000920E-02 0. -1.
        2   -1    0    0  501    0  0.00000000000E+00  0.00000000000E+00 -0.12936306813E+04  0.12936306813E+04  0.25500000920E-02 0.  1.
    10030    2    1    2    0    0  0.00000000000E+00  0.00000000000E+00 -0.66870871167E+03  0.19185526508E+04  0.17982416225E+04 0.  0.
        1    1    3    3  502    0 -0.37587251585E+03  0.71266607663E+03  0.91399687480E+02  0.81088037827E+03  0.50400001928E-02 0. -1.
       -1    1    3    3    0  502  0.37587251585E+03 -0.71266607663E+03 -0.76010839915E+03  0.11076722726E+04  0.50400001928E-02 0.  1.
</event>
<event>
 5   0  0.3413839E-04  0.1805576E+04  0.7818609E-02  0.8703340E-01
        1   -1    0    0  501    0  0.00000000000E+00  0.00000000000E+00  0.99581198297E+03  0.99581198298E+03  0.50400001928E-02 0.  1.
       -1   -1    0    0    0  501  0.00000000000E+00  0.00000000000E+00 -0.81845379080E+03  0.81845379081E+03  0.50400001928E-02 0. -1.
    10030    2    1    2    0    0  0.00000000000E+00  0.00000000000E+00  0.17735819217E+03  0.18142657738E+04  0.18055759108E+04 0.  0.
        5    1    3    3  502    0 -0.28512272760E+03  0.80596230112E+03 -0.20277516741E+03  0.87864102974E+03  0.46999998093E+01 0. -1.
       -5    1    3    3    0  502  0.28512272760E+03 -0.80596230112E+03  0.38013335958E+03  0.93562474406E+03  0.46999998093E+01 0.  1.
</event>
<event>
 5   0  0.6771967E-04  0.1757796E+04  0.7818609E-02  0.8729071E-01
        2   -1    0    0  501    0  0.00000000000E+00  0.00000000000E+00  0.17528230917E+04  0.17528230917E+04  0.25500000920E-02 0. -1.
       -2   -1    0    0    0  501  0.00000000000E+00  0.00000000000E+00 -0.44069563358E+03  0.44069563359E+03  0.25500000920E-02 0.  1.
    10030    2    1    2    0    0  0.00000000000E+00  0.00000000000E+00  0.13121274581E+04  0.21935187253E+04  0.17577957594E+04 0.  0.
        1    1    3    3  502    0 -0.15324209127E+03  0.47562715270E+03 -0.24617803636E+03  0.55705291718E+03  0.50400001928E-02 0.  1.
       -1    1    3    3    0  502  0.15324209127E+03 -0.47562715270E+03  0.15583054945E+04  0.16364658081E+04  0.50400001928E-02 0. -1.
</event>
<event>
 5   0  0.6929121E-04  0.1887867E+04  0.7818609E-02  0.8660919E-01
        2   -1    0    0  501    0  0.00000000000E+00  0.00000000000E+00  0.22738506498E+04  0.22738506498E+04  0.25500000920E-02 0. -1.
       -2   -1    0    0    0  501  0.00000000000E+00  0.00000000000E+00 -0.39185104902E+03  0.39185104903E+03  0.25500000920E-02 0.  1.
    10030    2    1    2    0    0  0.00000000000E+00  0.00000000000E+00  0.18819996008E+04  0.26657016988E+04  0.18878673285E+04 0.  0.
        3    1    3    3  502    0  0.32434434483E+03  0.80144502236E+03  0.14758868160E+04  0.17104839320E+04  0.10100000352E+00 0.  1.
       -3    1    3    3    0  502 -0.32434434483E+03 -0.80144502236E+03  0.40611278480E+03  0.95521776683E+03  0.10100000352E+00 0. -1.
</event>
<event>
 5   0  0.6853162E-04  0.1805304E+04  0.7818609E-02  0.8703484E-01
        2   -1    0    0  501    0  0.00000000000E+00  0.00000000000E+00  0.13053833203E+04  0.13053833203E+04  0.25500000920E-02 0. -1.
       -2   -1    0    0    0  501  0.00000000000E+00  0.00000000000E+00 -0.62416991384E+03  0.62416991385E+03  0.25500000920E-02 0.  1.
    10030    2    1    2    0    0  0.00000000000E+00  0.00000000000E+00  0.68121340644E+03  0.19295532341E+04  0.18053044004E+04 0.  0.
        2    1    3    3  502    0  0.29511162428E+03 -0.40634578398E+03  0.11422771140E+04  0.12477999728E+04  0.25500000920E-02 0. -1.
       -2    1    3    3    0  502 -0.29511162428E+03  0.40634578398E+03 -0.46106370754E+03  0.68175326135E+03  0.25500000920E-02 0.  1.
</event>
<event>
 5   0  0.3377273E-04  0.1821687E+04  0.7818609E-02  0.8694851E-01
       -1   -1    0    0    0  501  0.00000000000E+00  0.00000000000E+00  0.71370692666E+03  0.71370692668E+03  0.50400001928E-02 0. -1.
        1   -1    0    0  501    0  0.00000000000E+00  0.00000000000E+00 -0.11624319609E+04  0.11624319609E+04  0.50400001928E-02 0.  1.
    10030    2    1    2    0    0  0.00000000000E+00  0.00000000000E+00 -0.44872503427E+03  0.18761388876E+04  0.18216868472E+04 0.  0.
        2    1    3    3  502    0  0.17724376476E+03 -0.27554248289E+02  0.69533715360E+03  0.71810051241E+03  0.25500000920E-02 0. -1.
       -2    1    3    3    0  502 -0.17724376476E+03  0.27554248289E+02 -0.11440621879E+04  0.11580383752E+04  0.25500000920E-02 0.  1.
</event>
<event>
 5   0  0.6547153E-04  0.1799600E+04  0.7818609E-02  0.8706512E-01
       -2   -1    0    0    0  501  0.00000000000E+00  0.00000000000E+00  0.44676507525E+03  0.44676507526E+03  0.25500000920E-02 0. -1.
        2   -1    0    0  501    0  0.00000000000E+00  0.00000000000E+00 -0.18122279012E+04  0.18122279012E+04  0.25500000920E-02 0.  1.
    10030    2    1    2    0    0  0.00000000000E+00  0.00000000000E+00 -0.13654628259E+04  0.22589929764E+04  0.17996001052E+04 0.  0.
        5    1    3    3  502    0  0.59874036915E+03  0.43239245555E+02  0.15863847603E+03  0.62092505029E+03  0.46999998093E+01 0. -1.
       -5    1    3    3    0  502 -0.59874036915E+03 -0.43239245555E+02 -0.15241013019E+04  0.16380679261E+04  0.46999998093E+01 0.  1.
</event>
<event>
 5   0  0.2467375E-04  0.1787659E+04  0.7818609E-02  0.8712890E-01
        3   -1    0    0  501    0  0.00000000000E+00  0.00000000000E+00  0.14033110502E+04  0.14033110538E+04  0.10100000352E+00 0.  1.
       -3   -1    0    0    0  501  0.00000000000E+00  0.00000000000E+00 -0.56931836137E+03  0.56931837032E+03  0.10100000352E+00 0. -1.
    10030    2    1    2    0    0  0.00000000000E+00  0.00000000000E+00  0.83399268879E+03  0.19726294241E+04  0.17876585356E+04 0.  0.
        1    1    3    3  502    0 -0.29628058173E+03  0.94703527846E+02 -0.50767012976E+03  0.59538214784E+03  0.50400001928E-02 0. -1.
       -1    1    3    3    0  502  0.29628058173E+03 -0.94703527846E+02  0.13416628186E+04  0.13772472763E+04  0.50400001928E-02 0.  1.
</event>
<event>
 5   0  0.6547153E-04  0.1731619E+04  0.7818609E-02  0.8743533E-01
        2   -1    0    0  501    0  0.00000000000E+00  0.00000000000E+00  0.97924316589E+03  0.97924316589E+03  0.25500000920E-02 0. -1.
       -2   -1    0    0    0  501  0.00000000000E+00  0.00000000000E+00 -0.76551592170E+03  0.76551592170E+03  0.25500000920E-02 0.  1.
    10030    2    1    2    0    0  0.00000000000E+00  0.00000000000E+00  0.21372724419E+03  0.17447590876E+04  0.17316191668E+04 0.  0.
        5    1    3    3  502    0 -0.82555470127E+03 -0.24046171739E+03  0.48941880725E+01  0.85988862383E+03  0.46999998093E+01 0.  1.
       -5    1    3    3    0  502  0.82555470127E+03  0.24046171739E+03  0.20883305612E+03  0.88487046376E+03  0.46999998093E+01 0. -1.
</event>
<event>
 5   0  0.6771967E-04  0.1762314E+04  0.7818609E-02  0.8726601E-01
       -2   -1    0    0    0  501  0.00000000000E+00  0.00000000000E+00  0.65748307131E+03  0.65748307131E+03  0.25500000920E-02 0. -1.
        2   -1    0    0  501    0  0.00000000000E+00  0.00000000000E+00 -0.11809241015E+04  0.11809241015E+04  0.25500000920E-02 0.  1.
    10030    2    1    2    0    0  0.00000000000E+00  0.00000000000E+00 -0.52344103019E+03  0.18384071728E+04  0.17623139394E+04 0.  0.
        1    1    3    3  502    0 -0.73446273264E+03  0.41909082612E+03 -0.52013611329E+03  0.99278104462E+03  0.50400001928E-02 0. -1.
       -1    1    3    3    0  502  0.73446273264E+03 -0.41909082612E+03 -0.33049168992E+01  0.84562612819E+03  0.50400001928E-02 0.  1.
</event>
<event>
 5   0  0.6774451E-04  0.1768461E+04  0.7818609E-02  0.8723254E-01
       -2   -1    0    0    0  501  0.00000000000E+00  0.00000000000E+00  0.17224107025E+04  0.17224107025E+04  0.25500000920E-02 0.  1.
        2   -1    0    0  501    0  0.00000000000E+00  0.00000000000E+00 -0.45393552268E+03  0.45393552269E+03  0.25500000920E-02 0. -1.
    10030    2    1    2    0    0  0.00000000000E+00  0.00000000000E+00  0.12684751799E+04  0.21763462252E+04  0.17684608025E+04 0.  0.
        4    1    3    3  502    0  0.28972803139E+02 -0.83078186895E+03  0.10051168161E+04  0.13043386692E+04  0.12699999809E+01 0. -1.
       -4    1    3    3    0  502 -0.28972803139E+02  0.83078186895E+03  0.26335836378E+03  0.87200755603E+03  0.12699999809E+01 0.  1.
</event>
<event>
 5   0  0.3377273E-04  0.1788062E+04  0.7818609E-02  0.8712674E-01
       -1   -1    0    0    0  501  0.00000000000E+00  0.00000000000E+00  0.38482494529E+03  0.38482494532E+03  0.50400001928E-02 0.  1.
        1   -1    0    0  501    0  0.00000000000E+00  0.00000000000E+00 -0.20770249773E+04  0.20770249773E+04  0.50400001928E-02 0. -1.
    10030    2    1    2    0    0  0.00000000000E+00  0.00000000000E+00 -0.16922000320E+04  0.24618499226E+04  0.17880615463E+04 0.  0.
        2    1    3    3  502    0 -0.33248026188E+03  0.82043147698E+03 -0.10182863738E+04  0.13492805757E+04  0.25500000920E-02 0. -1.
       -2    1    3    3    0  502  0.33248026188E+03 -0.82043147698E+03 -0.67391365821E+03  0.11125693469E+04  0.25500000920E-02 0.  1.
</event>
<event>
 5   0  0.3377273E-04  0.1840950E+04  0.7818609E-02  0.8684821E-01
       -1   -1    0    0    0  501  0.00000000000E+00  0.00000000000E+00  0.18402444564E+04  0.18402444564E+04  0.50400001928E-02 0. -1.
        1   -1    0    0  501    0  0.00000000000E+00  0.00000000000E+00 -0.46041385956E+03  0.46041385959E+03  0.50400001928E-02 0.  1.
    10030    2    1    2    0    0  0.00000000000E+00  0.00000000000E+00  0.13798305968E+04  0.23006583160E+04  0.18409498122E+04 0.  0.
        2    1    3    3  502    0  0.38310616062E+03  0.83401016065E+03  0.77766946355E+03  0.12029601294E+04  0.25500000920E-02 0.  1.
       -2    1    3    3    0  502 -0.38310616062E+03 -0.83401016065E+03  0.60216113327E+03  0.10976981866E+04  0.25500000920E-02 0. -1.
</event>
<event>
 5   0  0.6547153E-04  0.1629611E+04  0.7818609E-02  0.8802560E-01
       -2   -1    0    0    0  501  0.00000000000E+00  0.00000000000E+00  0.64903720928E+03  0.64903720928E+03  0.25500000920E-02 0.  1.
        2   -1    0    0  501    0  0.00000000000E+00  0.00000000000E+00 -0.10229122433E+04  0.10229122433E+04  0.25500000920E-02 0. -1.
    10030    2    1    2    0    0  0.00000000000E+00  0.00000000000E+00 -0.37387503400E+03  0.16719494526E+04  0.16296111287E+04 0.  0.
        5    1    3    3  502    0  0.47878194274E+03  0.63649218324E+03 -0.10625291458E+02  0.79654845103E+03  0.46999998093E+01 0. -1.
       -5    1    3    3    0  502 -0.47878194274E+03 -0.63649218324E+03 -0.36324974254E+03  0.87540100153E+03  0.46999998093E+01 0.  1.
</event>
<event>
 5   0  0.6929121E-04  0.1781454E+04  0.7818609E-02  0.8716225E-01
        2   -1    0    0  501    0  0.00000000000E+00  0.00000000000E+00  0.13500064372E+04  0.13500064372E+04  0.25500000920E-02 0. -1.
       -2   -1    0    0    0  501  0.00000000000E+00  0.00000000000E+00 -0.58769703543E+03  0.58769703544E+03  0.25500000920E-02 0.  1.
    10030    2    1    2    0    0  0.00000000000E+00  0.00000000000E+00  0.76230940181E+03  0.19377034727E+04  0.17814542161E+04 0.  0.
        3    1    3    3  502    0  0.49638965765E+03 -0.64512933381E+03 -0.12229479818E+02  0.81409097768E+03  0.10100000352E+00 0.  1.
       -3    1    3    3    0  502 -0.49638965765E+03  0.64512933381E+03  0.77453888162E+03  0.11236124950E+04  0.10100000352E+00 0. -1.
</event>
<event>
 5   0  0.3377273E-04  0.1802037E+04  0.7818609E-02  0.8705217E-01
        1   -1    0    0  501    0  0.00000000000E+00  0.00000000000E+00  0.12710468359E+04  0.12710468359E+04  0.50400001928E-02 0.  1.
       -1   -1    0    0    0  501  0.00000000000E+00  0.00000000000E+00 -0.63871330998E+03  0.63871331000E+03  0.50400001928E-02 0. -1.
    10030    2    1    2    0    0  0.00000000000E+00  0.00000000000E+00  0.63233352594E+03  0.19097601459E+04  0.18020372158E+04 0.  0.
        2    1    3    3  502    0  0.16160085130E+03 -0.83293575935E+03 -0.51711203767E+01  0.84848309048E+03  0.25500000920E-02 0. -1.
       -2    1    3    3    0  502 -0.16160085130E+03  0.83293575935E+03  0.63750464632E+03  0.10612770555E+04  0.25500000920E-02 0.  1.
</event>
<event>
 5   0  0.6774451E-04  0.1701416E+04  0.7818609E-02  0.8760557E-01
        2   -1    0    0  501    0  0.00000000000E+00  0.00000000000E+00  0.18359088040E+04  0.18359088040E+04  0.25500000920E-02 0.  1.
       -2   -1    0    0    0  501  0.00000000000E+00  0.00000000000E+00 -0.39419409542E+03  0.39419409543E+03  0.25500000920E-02 0. -1.
    10030    2    1    2    0    0  0.00000000000E+00  0.00000000000E+00  0.14417147086E+04  0.22301028994E+04  0.17014163632E+04 0.  0.
        4    1    3    3  502    0  0.45194099198E+03 -0.63471103783E+03  0.27329611852E+03  0.82571250631E+03  0.12699999809E+01 0. -1.
       -4    1    3    3    0  502 -0.45194099198E+03  0.63471103783E+03  0.11684185900E+04  0.14043903931E+04  0.12699999809E+01 0.  1.
</event>
<event>
 5   0  0.3470962E-04  0.1807504E+04  0.7818609E-02  0.8702319E-01
        1   -1    0    0  501    0  0.00000000000E+00  0.00000000000E+00  0.11454430661E+04  0.11454430661E+04  0.50400001928E-02 0.  1.
       -1   -1    0    0    0  501  0.00000000000E+00  0.00000000000E+00 -0.71305807642E+03  0.71305807644E+03  0.50400001928E-02 0. -1.
    10030    2    1    2    0    0  0.00000000000E+00  0.00000000000E+00  0.43238498966E+03  0.18585011425E+04  0.18075037254E+04 0.  0.
        4    1    3    3  502    0 -0.89674104776E+03  0.54610276265E+02  0.31714108083E+03  0.95273651502E+03  0.12699999809E+01 0.  1.
       -4    1    3    3    0  502  0.89674104776E+03 -0.54610276265E+02  0.11524390883E+03  0.90576462750E+03  0.12699999809E+01 0. -1.
</event>
<event>
 5   0  0.3308275E-04  0.1776874E+04  0.7818609E-02  0.8718695E-01
       -1   -1    0    0    0  501  0.00000000000E+00  0.00000000000E+00  0.51499731250E+03  0.51499731252E+03  0.50400001928E-02 0.  1.
        1   -1    0    0  501    0  0.00000000000E+00  0.00000000000E+00 -0.15326680043E+04  0.15326680043E+04  0.50400001928E-02 0. -1.
    10030    2    1    2    0    0  0.00000000000E+00  0.00000000000E+00 -0.10176706918E+04  0.20476653168E+04  0.17768735500E+04 0.  0.
        3    1    3    3  502    0 -0.12536258305E+03  0.35615214814E+03  0.41793888216E+03  0.56323445320E+03  0.10100000352E+00 0.  1.
       -3    1    3    3    0  502  0.12536258305E+03 -0.35615214814E+03 -0.14356095739E+04  0.14844308636E+04  0.10100000352E+00 0. -1.
</event>
<event>
 5   0  0.6771967E-04  0.1920212E+04  0.7818609E-02  0.8644860E-01
       -2   -1    0    0    0  501  0.00000000000E+00  0.00000000000E+00  0.71037962517E+03  0.71037962517E+03  0.25500000920E-02 0.  1.
        2   -1    0    0  501    0  0.00000000000E+00  0.00000000000E+00 -0.12976210488E+04  0.12976210488E+04  0.25500000920E-02 0. -1.
    10030    2    1    2    0    0  0.00000000000E+00  0.00000000000E+00 -0.58724142359E+03  0.20080006739E+04  0.19202120240E+04 0.  0.
        1    1    3    3  502    0  0.62262951007E+03 -0.68570445012E+03 -0.29185363658E+02  0.92666600521E+03  0.50400001928E-02 0.  1.
       -1    1    3    3    0  502 -0.62262951007E+03  0.68570445012E+03 -0.55805605993E+03  0.10813346687E+04  0.50400001928E-02 0. -1.
</event>
<event>
 5   0  0.3377273E-04  0.1788399E+04  0.7818609E-02  0.8712493E-01
        1   -1    0    0  501    0  0.00000000000E+00  0.00000000000E+00  0.10168981878E+04  0.10168981878E+04  0.50400001928E-02 0.  1.
       -1   -1    0    0    0  501  0.00000000000E+00  0.00000000000E+00 -0.78630522215E+03  0.78630522217E+03  0.50400001928E-02 0. -1.
    10030    2    1    2    0    0  0.00000000000E+00  0.00000000000E+00  0.23059296562E+03  0.18032034099E+04  0.17883985635E+04 0.  0.
        2    1    3    3  502    0  0.37338572548E+03  0.19357279641E+03 -0.68035265009E+03  0.79985439675E+03  0.25500000920E-02 0. -1.
       -2    1    3    3    0  502 -0.37338572548E+03 -0.19357279641E+03  0.91094561571E+03  0.10033490132E+04  0.25500000920E-02 0.  1.
</event>
<event>
 5   0  0.6771967E-04  0.1572624E+04  0.7818609E-02  0.8837545E-01
        2   -1    0    0  501    0  0.00000000000E+00  0.00000000000E+00  0.17171678625E+04  0.17171678625E+04  0.25500000920E-02 0. -1.
       -2   -1    0    0    0  501  0.00000000000E+00  0.00000000000E+00 -0.36006170826E+03  0.36006170827E+03  0.25500000920E-02 0.  1.
    10030    2    1    2    0    0  0.00000000000E+00  0.00000000000E+00  0.13571061542E+04  0.20772295707E+04  0.15726237871E+04 0.  0.
        1    1    3    3  502    0  0.43102978337E+03 -0.30725049819E+03 -0.89480521153E+02  0.53683918121E+03  0.50400001928E-02 0.  1.
       -1    1    3    3    0  502 -0.43102978337E+03  0.30725049819E+03  0.14465866754E+04  0.15403903895E+04  0.50400001928E-02 0. -1.
</event>
<event>
 5   0  0.6929121E-04  0.1751639E+04  0.7818609E-02  0.8732449E-01
       -2   -1    0    0    0  501  0.00000000000E+00  0.00000000000E+00  0.49043609650E+03  0.49043609650E+03  0.25500000920E-02 0. -1.
        2   -1    0    0  501    0  0.00000000000E+00  0.00000000000E+00 -0.15640359902E+04  0.15640359902E+04  0.25500000920E-02 0.  1.
    10030    2    1    2    0    0  0.00000000000E+00  0.00000000000E+00 -0.10735998937E+04  0.20544720867E+04  0.17516388964E+04 0.  0.
        3    1    3    3  502    0 -0.31028152712E+03 -0.27038616216E+03 -0.14435523511E+04  0.15010751824E+04  0.10100000352E+00 0.  1.
       -3    1    3    3    0  502  0.31028152712E+03  0.27038616216E+03  0.36995245738E+03  0.55339690429E+03  0.10100000352E+00 0. -1.
</event>
<event>
 5   0  0.3404261E-04  0.1800961E+04  0.7818609E-02  0.8705789E-01
       -1   -1    0    0    0  501  0.00000000000E+00  0.00000000000E+00  0.99701208447E+03  0.99701208448E+03  0.50400001928E-02 0. -1.
        1   -1    0    0  501    0  0.00000000000E+00  0.00000000000E+00 -0.81329487279E+03  0.81329487280E+03  0.50400001928E-02 0.  1.
    10030    2    1    2    0    0  0.00000000000E+00  0.00000000000E+00  0.18371721168E+03  0.18103069573E+04  0.18009606508E+04 0.  0.
        1    1    3    3  502    0  0.48354764451E+03  0.62464475909E+03  0.52638129983E+03  0.94925058462E+03  0.50400001928E-02 0. -1.
       -1    1    3    3    0  502 -0.48354764451E+03 -0.62464475909E+03 -0.34266408815E+03  0.86105637266E+03  0.50400001928E-02 0.  1.
</event>
<event>
 5   0  0.3404261E-04  0.1891476E+04  0.7818609E-02  0.8659111E-01
        1   -1    0    0  501    0  0.00000000000E+00  0.00000000000E+00  0.10836589459E+04  0.10836589459E+04  0.50400001928E-02 0.  1.
       -1   -1    0    0    0  501  0.00000000000E+00  0.00000000000E+00 -0.82537079016E+03  0.82537079018E+03  0.50400001928E-02 0. -1.
    10030    2    1    2    0    0  0.00000000000E+00  0.00000000000E+00  0.25828815573E+03  0.19090297361E+04  0.18914760802E+04 0.  0.
        1    1    3    3  502    0  0.27914156583E+03 -0.76835165670E+03 -0.35080686004E+03  0.88957840307E+03  0.50400001928E-02 0. -1.
       -1    1    3    3    0  502 -0.27914156583E+03  0.76835165670E+03  0.60909501577E+03  0.10194513330E+04  0.50400001928E-02 0.  1.
</event>
<event>
 5   0  0.6771967E-04  0.1799767E+04  0.7818609E-02  0.8706423E-01
       -2   -1    0    0    0  501  0.00000000000E+00  0.00000000000E+00  0.55024825496E+03  0.55024825497E+03  0.25500000920E-02 0.  1.
        2   -1    0    0  501    0  0.00000000000E+00  0.00000000000E+00 -0.14716816190E+04  0.14716816190E+04  0.25500000920E-02 0. -1.
    10030    2    1    2    0    0  0.00000000000E+00  0.00000000000E+00 -0.92143336400E+03  0.20219298739E+04  0.17997669212E+04 0.  0.
        1    1    3    3  502    0 -0.45437830304E+03 -0.46378653673E+03 -0.11607131538E+04  0.13299671497E+04  0.50400001928E-02 0. -1.
       -1    1    3    3    0  502  0.45437830304E+03  0.46378653673E+03  0.23927978976E+03  0.69196272424E+03  0.50400001928E-02 0.  1.
</event>
<event>
 5   0  0.3377273E-04  0.1799442E+04  0.7818609E-02  0.8706596E-01
       -1   -1    0    0    0  501  0.00000000000E+00  0.00000000000E+00  0.12872534300E+04  0.12872534300E+04  0.50400001928E-02 0.  1.
        1   -1    0    0  501    0  0.00000000000E+00  0.00000000000E+00 -0.62885688744E+03  0.62885688746E+03  0.50400001928E-02 0. -1.
    10030    2    1    2    0    0  0.00000000000E+00  0.00000000000E+00  0.65839654256E+03  0.19161103175E+04  0.17994423418E+04 0.  0.
        2    1    3    3  502    0  0.74165993554E+02  0.89621489633E+03  0.29914706365E+03  0.94772923385E+03  0.25500000920E-02 0.  1.
       -2    1    3    3    0  502 -0.74165993554E+02 -0.89621489633E+03  0.35924947891E+03  0.96838108362E+03  0.25500000920E-02 0. -1.
</event>
<event>
 5   0  0.3404261E-04  0.1723721E+04  0.7818609E-02  0.8747950E-01
        1   -1    0    0  501    0  0.00000000000E+00  0.00000000000E+00  0.84267246906E+03  0.84267246907E+03  0.50400001928E-02 0.  1.
       -1   -1    0    0    0  501  0.00000000000E+00  0.00000000000E+00 -0.88148543288E+03  0.88148543290E+03  0.50400001928E-02 0. -1.
    10030    2    1    2    0    0  0.00000000000E+00  0.00000000000E+00 -0.38812963824E+02  0.17241579020E+04  0.17237209823E+04 0.  0.
        1    1    3    3  502    0 -0.12141808564E+03 -0.76624519879E+03 -0.39490735161E+03  0.87053194804E+03  0.50400001928E-02 0. -1.
       -1    1    3    3    0  502  0.12141808564E+03  0.76624519879E+03  0.35609438779E+03  0.85362595393E+03  0.50400001928E-02 0.  1.
</event>
<event>
 5   0  0.6929121E-04  0.9970092E+03  0.7818609E-02  0.9311831E-01
        2   -1    0    0  501    0  0.00000000000E+00  0.00000000000E+00  0.95259709231E+03  0.95259709231E+03  0.25500000920E-02 0.  1.
       -2   -1    0    0    0  501  0.00000000000E+00  0.00000000000E+00 -0.26087295087E+03  0.26087295088E+03  0.25500000920E-02 0. -1.
    10030    2    1    2    0    0  0.00000000000E+00  0.00000000000E+00  0.69172414144E+03  0.12134700432E+04  0.99700915637E+03 0.  0.
        3    1    3    3  502    0 -0.32695367421E+03  0.33826713603E+03  0.14519220920E+03  0.49234555772E+03  0.10100000352E+00 0. -1.
       -3    1    3    3    0  502  0.32695367421E+03 -0.33826713603E+03  0.54653193224E+03  0.72112448548E+03  0.10100000352E+00 0.  1.
</event>
<event>
 5   0  0.3470962E-04  0.1842607E+04  0.7818609E-02  0.8683964E-01
       -1   -1    0    0    0  501  0.00000000000E+00  0.00000000000E+00  0.93293535675E+03  0.93293535677E+03  0.50400001928E-02 0.  1.
        1   -1    0    0  501    0  0.00000000000E+00  0.00000000000E+00 -0.90981711280E+03  0.90981711281E+03  0.50400001928E-02 0. -1.
    10030    2    1    2    0    0  0.00000000000E+00  0.00000000000E+00  0.23118243957E+02  0.18427524696E+04  0.18426074490E+04 0.  0.
        4    1    3    3  502    0 -0.45314386044E+03  0.35189559030E+03 -0.70935063114E+03  0.91233206428E+03  0.12699999809E+01 0. -1.
       -4    1    3    3    0  502  0.45314386044E+03 -0.35189559030E+03  0.73246887509E+03  0.93042040530E+03  0.12699999809E+01 0.  1.
</event>
<event>
 5   0  0.3404261E-04  0.1877694E+04  0.7818609E-02  0.8666040E-01
        1   -1    0    0  501    0  0.00000000000E+00  0.00000000000E+00  0.15801025709E+04  0.15801025709E+04  0.50400001928E-02 0. -1.
       -1   -1    0    0    0  501  0.00000000000E+00  0.00000000000E+00 -0.55783339028E+03  0.55783339030E+03  0.50400001928E-02 0.  1.
    10030    2    1    2    0    0  0.00000000000E+00  0.00000000000E+00  0.10222691806E+04  0.21379359612E+04  0.18776943033E+04 0.  0.
        1    1    3    3  502    0  0.11629813913E+03 -0.12284337147E+02  0.15717771989E+04  0.15761217355E+04  0.50400001928E-02 0. -1.
       -1    1    3    3    0  502 -0.11629813913E+03  0.12284337147E+02 -0.54950801824E+03  0.56181422574E+03  0.50400001928E-02 0.  1.
</event>
<event>
 5   0  0.3470962E-04  0.1807880E+04  0.7818609E-02  0.8702120E-01
       -1   -1    0    0    0  501  0.00000000000E+00  0.00000000000E+00  0.65785881541E+03  0.65785881543E+03  0.50400001928E-02 0. -1.
        1   -1    0    0  501    0  0.00000000000E+00  0.00000000000E+00 -0.12420714621E+04  0.12420714621E+04  0.50400001928E-02 0.  1.
    10030    2    1    2    0    0  0.00000000000E+00  0.00000000000E+00 -0.58421264665E+03  0.18999302775E+04  0.18078801517E+04 0.  0.
        4    1    3    3  502    0  0.79623018871E+02  0.82746619404E+03 -0.66524208694E+03  0.10647012607E+04  0.12699999809E+01 0.  1.
       -4    1    3    3    0  502 -0.79623018871E+02 -0.82746619404E+03  0.81029440296E+02  0.83522901680E+03  0.12699999809E+01 0. -1.
</event>
<event>
 5   0  0.6853162E-04  0.2101843E+04  0.7818609E-02  0.8560432E-01
       -2   -1    0    0    0  501  0.00000000000E+00  0.00000000000E+00  0.92983543298E+03  0.92983543298E+03  0.25500000920E-02 0.  1.
        2   -1    0    0  501    0  0.00000000000E+00  0.00000000000E+00 -0.11877756554E+04  0.11877756554E+04  0.25500000920E-02 0. -1.
    10030    2    1    2    0    0  0.00000000000E+00  0.00000000000E+00 -0.25794022242E+03  0.21176110884E+04  0.21018428969E+04 0.  0.
        2    1    3    3  502    0 -0.58286056354E+03  0.87327213996E+03 -0.82743176793E+02  0.10531747719E+04  0.25500000920E-02 0. -1.
       -2    1    3    3    0  502  0.58286056354E+03 -0.87327213996E+03 -0.17519704563E+03  0.10644363164E+04  0.25500000920E-02 0.  1.
</event>
<event>
 5   0  0.6774451E-04  0.1732976E+04  0.7818609E-02  0.8742777E-01
       -2   -1    0    0    0  501  0.00000000000E+00  0.00000000000E+00  0.46051394174E+03  0.46051394175E+03  0.25500000920E-02 0. -1.
        2   -1    0    0  501    0  0.00000000000E+00  0.00000000000E+00 -0.16303555832E+04  0.16303555832E+04  0.25500000920E-02 0.  1.
    10030    2    1    2    0    0  0.00000000000E+00  0.00000000000E+00 -0.11698416415E+04  0.20908695250E+04  0.17329760253E+04 0.  0.
        4    1    3    3  502    0  0.57901841347E+03  0.63879070005E+02  0.18900013813E+03  0.61242593335E+03  0.12699999809E+01 0. -1.
       -4    1    3    3    0  502 -0.57901841347E+03 -0.63879070005E+02 -0.13588417796E+04  0.14784435916E+04  0.12699999809E+01 0.  1.
</event>
<event>
 5   0  0.6929121E-04  0.1796058E+04  0.7818609E-02  0.8708398E-01
        2   -1    0    0  501    0  0.00000000000E+00  0.00000000000E+00  0.87962601002E+03  0.87962601002E+03  0.25500000920E-02 0.  1.
       -2   -1    0    0    0  501  0.00000000000E+00  0.00000000000E+00 -0.91681746193E+03  0.91681746193E+03  0.25500000920E-02 0. -1.
    10030    2    1    2    0    0  0.00000000000E+00  0.00000000000E+00 -0.37191451915E+02  0.17964434720E+04  0.17960584467E+04 0.  0.
        3    1    3    3  502    0 -0.68630370011E+03 -0.18046324912E+03 -0.56905607276E+03  0.90961781932E+03  0.10100000352E+00 0. -1.
       -3    1    3    3    0  502  0.68630370011E+03  0.18046324912E+03  0.53186462085E+03  0.88682565264E+03  0.10100000352E+00 0.  1.
</event>
<event>
 5   0  0.3308275E-04  0.1777415E+04  0.7818609E-02  0.8718403E-01
        1   -1    0    0  501    0  0.00000000000E+00  0.00000000000E+00  0.11051963279E+04  0.11051963279E+04  0.50400001928E-02 0.  1.
       -1   -1    0    0    0  501  0.00000000000E+00  0.00000000000E+00 -0.71462537463E+03  0.71462537465E+03  0.50400001928E-02 0. -1.
    10030    2    1    2    0    0  0.00000000000E+00  0.00000000000E+00  0.39057095323E+03  0.18198217025E+04  0.17774153593E+04 0.  0.
        3    1    3    3  502    0 -0.13210846610E+03  0.86347276185E+03  0.27786892177E+02  0.87396222965E+03  0.10100000352E+00 0. -1.
       -3    1    3    3    0  502  0.13210846610E+03 -0.86347276185E+03  0.36278406105E+03  0.94585947288E+03  0.10100000352E+00 0.  1.
</event>
<event>
 5   0  0.6547153E-04  0.1805355E+04  0.7818609E-02  0.8703457E-01
        2   -1    0    0  501    0  0.00000000000E+00  0.00000000000E+00  0.11046834389E+04  0.11046834389E+04  0.25500000920E-02 0. -1.
       -2   -1    0    0    0  501  0.00000000000E+00  0.00000000000E+00 -0.73761061722E+03  0.73761061722E+03  0.25500000920E-02 0.  1.
    10030    2    1    2    0    0  0.00000000000E+00  0.00000000000E+00  0.36707282171E+03  0.18422940561E+04  0.18053545172E+04 0.  0.
        5    1    3    3  502    0  0.20688608561E+03 -0.70930842380E+03  0.71268642675E+03  0.10265789426E+04  0.46999998093E+01 0. -1.
       -5    1    3    3    0  502 -0.20688608561E+03  0.70930842380E+03 -0.34561360504E+03  0.81571511356E+03  0.46999998093E+01 0.  1.
</event>
<event>
 5   0  0.6853162E-04  0.1744313E+04  0.7818609E-02  0.8736487E-01
        2   -1    0    0  501    0  0.00000000000E+00  0.00000000000E+00  0.15470590755E+04  0.15470590755E+04  0.25500000920E-02 0.  1.
       -2   -1    0    0    0  501  0.00000000000E+00  0.00000000000E+00 -0.49167946582E+03  0.49167946582E+03  0.25500000920E-02 0. -1.
    10030    2    1    2    0    0  0.00000000000E+00  0.00000000000E+00  0.10553796097E+04  0.20387385413E+04  0.17443132515E+04 0.  0.
        2    1    3    3  502    0 -0.78561612228E+03  0.16590772680E+02  0.96996464751E+03  0.12483186143E+04  0.25500000920E-02 0.  1.
       -2    1    3    3    0  502  0.78561612228E+03 -0.16590772680E+02  0.85414962182E+02  0.79041992706E+03  0.25500000920E-02 0. -1.
</event>
<event>
 5   0  0.3308275E-04  0.1830110E+04  0.7818609E-02  0.8690449E-01
       -1   -1    0    0    0  501  0.00000000000E+00  0.00000000000E+00  0.58210741430E+03  0.58210741432E+03  0.50400001928E-02 0. -1.
        1   -1    0    0  501    0  0.00000000000E+00  0.00000000000E+00 -0.14384379666E+04  0.14384379666E+04  0.50400001928E-02 0.  1.
    10030    2    1    2    0    0  0.00000000000E+00  0.00000000000E+00 -0.85633055231E+03  0.20205453809E+04  0.18301097294E+04 0.  0.
        3    1    3    3  502    0  0.28975904494E+03 -0.10723078018E+03  0.52277754346E+03  0.60725210127E+03  0.10100000352E+00 0. -1.
       -3    1    3    3    0  502 -0.28975904494E+03  0.10723078018E+03 -0.13791080958E+04  0.14132932797E+04  0.10100000352E+00 0.  1.
</event>
<event>
 5   0  0.6547153E-04  0.1768379E+04  0.7818609E-02  0.8723298E-01
        2   -1    0    0  501    0  0.00000000000E+00  0.00000000000E+00  0.10577582071E+04  0.10577582071E+04  0.25500000920E-02 0.  1.
       -2   -1    0    0    0  501  0.00000000000E+00  0.00000000000E+00 -0.73910202483E+03  0.73910202483E+03  0.25500000920E-02 0. -1.
    10030    2    1    2    0    0  0.00000000000E+00  0.00000000000E+00  0.31865618223E+03  0.17968602319E+04  0.17683791818E+04 0.  0.
        5    1    3    3  502    0 -0.62417922688E+03 -0.53839779755E+03 -0.16566256635E+03  0.84079609393E+03  0.46999998093E+01 0.  1.
       -5    1    3    3    0  502  0.62417922688E+03  0.53839779755E+03  0.48431874858E+03  0.95606413796E+03  0.46999998093E+01 0. -1.
</event>
<event>
 5   0  0.3413839E-04  0.1789087E+04  0.7818609E-02  0.8712124E-01
        1   -1    0    0  501    0  0.00000000000E+00  0.00000000000E+00  0.15486203158E+04  0.15486203158E+04  0.50400001928E-02 0. -1.
       -1   -1    0    0    0  501  0.00000000000E+00  0.00000000000E+00 -0.51672334314E+03  0.51672334316E+03  0.50400001928E-02 0.  1.
    10030    2    1    2    0    0  0.00000000000E+00  0.00000000000E+00  0.10318969727E+04  0.20653436590E+04  0.17890872163E+04 0.  0.
        5    1    3    3  502    0 -0.26498657225E+03  0.48693533320E+03 -0.29449661516E+03  0.62775333415E+03  0.46999998093E+01 0.  1.
       -5    1    3    3    0  502  0.26498657225E+03 -0.48693533320E+03  0.13263935879E+04  0.14375903248E+04  0.46999998093E+01 0. -1.
</event>
<event>
 5   0  0.6547153E-04  0.1802078E+04  0.7818609E-02  0.8705195E-01
       -2   -1    0    0    0  501  0.00000000000E+00  0.00000000000E+00  0.81329721710E+03  0.81329721711E+03  0.25500000920E-02 0.  1.
        2   -1    0    0  501    0  0.00000000000E+00  0.00000000000E+00 -0.99824727087E+03  0.99824727088E+03  0.25500000920E-02 0. -1.
    10030    2    1    2    0    0  0.00000000000E+00  0.00000000000E+00 -0.18495005377E+03  0.18115444880E+04  0.18020784971E+04 0.  0.
        5    1    3    3  502    0  0.13665260626E+03  0.31135547817E+03  0.74631401404E+03  0.82013588273E+03  0.46999998093E+01 0.  1.
       -5    1    3    3    0  502 -0.13665260626E+03 -0.31135547817E+03 -0.93126406781E+03  0.99140860526E+03  0.46999998093E+01 0. -1.
</event>
<event>
 5   0  0.6771967E-04  0.1313174E+04  0.7818609E-02  0.9019183E-01
       -2   -1    0    0    0  501  0.00000000000E+00  0.00000000000E+00  0.35153287320E+03  0.35153287321E+03  0.25500000920E-02 0. -1.
        2   -1    0    0  501    0  0.00000000000E+00  0.00000000000E+00 -0.12263608838E+04  0.12263608838E+04  0.25500000920E-02 0.  1.
    10030    2    1    2    0    0  0.00000000000E+00  0.00000000000E+00 -0.87482801056E+03  0.15778937570E+04  0.13131735073E+04 0.  0.
        1    1    3    3  502    0  0.18754723818E+03 -0.25393143829E+02 -0.11928751349E+04  0.12077954570E+04  0.50400001928E-02 0.  1.
       -1    1    3    3    0  502 -0.18754723818E+03  0.25393143829E+02  0.31804712439E+03  0.37009830000E+03  0.50400001928E-02 0. -1.
</event>
<event>
 5   0  0.6774451E-04  0.1717027E+04  0.7818609E-02  0.8751713E-01
        2   -1    0    0  501    0  0.00000000000E+00  0.00000000000E+00  0.10832210810E+04  0.10832210810E+04  0.25500000920E-02 0. -1.
       -2   -1    0    0    0  501  0.00000000000E+00  0.00000000000E+00 -0.68041982321E+03  0.68041982322E+03  0.25500000920E-02 0.  1.
    10030    2    1    2    0    0  0.00000000000E+00  0.00000000000E+00  0.40280125783E+03  0.17636409043E+04  0.17170266119E+04 0.  0.
        4    1    3    3  502    0  0.10251074835E+03  0.71818760020E+01 -0.67407890774E+03  0.68186803681E+03  0.12699999809E+01 0.  1.
       -4    1    3    3    0  502 -0.10251074835E+03 -0.71818760020E+01  0.10768801656E+04  0.10817728674E+04  0.12699999809E+01 0. -1.
</event>
<event>
 5   0  0.3308275E-04  0.1828614E+04  0.7818609E-02  0.8691229E-01
        1   -1    0    0  501    0  0.00000000000E+00  0.00000000000E+00  0.23259733223E+04  0.23259733223E+04  0.50400001928E-02 0. -1.
       -1   -1    0    0    0  501  0.00000000000E+00  0.00000000000E+00 -0.35940091265E+03  0.35940091268E+03  0.50400001928E-02 0.  1.
    10030    2    1    2    0    0  0.00000000000E+00  0.00000000000E+00  0.19665724097E+04  0.26853742350E+04  0.18286136113E+04 0.  0.
        3    1    3    3  502    0 -0.10819102202E+03  0.12470925890E+03  0.23039016856E+04  0.23098096639E+04  0.10100000352E+00 0. -1.
       -3    1    3    3    0  502  0.10819102202E+03 -0.12470925890E+03 -0.33732927589E+03  0.37556457111E+03  0.10100000352E+00 0.  1.
</event>
<event>
 5   0  0.3470962E-04  0.1813482E+04  0.7818609E-02  0.8699162E-01
       -1   -1    0    0    0  501  0.00000000000E+00  0.00000000000E+00  0.96189988053E+03  0.96189988054E+03  0.50400001928E-02 0. -1.
        1   -1    0    0  501    0  0.00000000000E+00  0.00000000000E+00 -0.85474554003E+03  0.85474554004E+03  0.50400001928E-02 0.  1.
    10030    2    1    2    0    0  0.00000000000E+00  0.00000000000E+00  0.10715434050E+03  0.18166454206E+04  0.18134824321E+04 0.  0.
        4    1    3    3  502    0  0.76130313640E+03  0.14492970347E+03 -0.41797832599E+03  0.88050813644E+03  0.12699999809E+01 0.  1.
       -4    1    3    3    0  502 -0.76130313640E+03 -0.14492970347E+03  0.52513266649E+03  0.93613728414E+03  0.12699999809E+01 0. -1.
</event>
<event>
 5   0  0.6771967E-04  0.1859704E+04  0.7818609E-02  0.8675178E-01
        2   -1    0    0  501    0  0.00000000000E+00  0.00000000000E+00  0.14935173268E+04  0.14935173268E+04  0.25500000920E-02 0.  1.
       -2   -1    0    0    0  501  0.00000000000E+00  0.00000000000E+00 -0.57891847267E+03  0.57891847268E+03  0.25500000920E-02 0. -1.
    10030    2    1    2    0    0  0.00000000000E+00  0.00000000000E+00  0.91459885413E+03  0.20724357995E+04  0.18597040299E+04 0.  0.
        1    1    3    3  502    0  0.34213163346E+03  0.76757240471E+03  0.13773112690E+02  0.84048268854E+03  0.50400001928E-02 0.  1.
       -1    1    3    3    0  502 -0.34213163346E+03 -0.76757240471E+03  0.90082574144E+03  0.12319531109E+04  0.50400001928E-02 0. -1.
</event>
<event>
 5   0  0.3404261E-04  0.1654700E+04  0.7818609E-02  0.8787631E-01
        1   -1    0    0  501    0  0.00000000000E+00  0.00000000000E+00  0.93670149119E+03  0.93670149120E+03  0.50400001928E-02 0.  1.
       -1   -1    0    0    0  501  0.00000000000E+00  0.00000000000E+00 -0.73076465538E+03  0.73076465540E+03  0.50400001928E-02 0. -1.
    10030    2    1    2    0    0  0.00000000000E+00  0.00000000000E+00  0.20593683580E+03  0.16674661466E+04  0.16547003867E+04 0.  0.
        1    1    3    3  502    0 -0.71087978830E+03  0.38772943130E+03 -0.68118170060E+02  0.81260339061E+03  0.50400001928E-02 0. -1.
       -1    1    3    3    0  502  0.71087978830E+03 -0.38772943130E+03  0.27405500586E+03  0.85486275599E+03  0.50400001928E-02 0.  1.
</event>
<event>
 5   0  0.6774451E-04  0.1684551E+04  0.7818609E-02  0.8770225E-01
        2   -1    0    0  501    0  0.00000000000E+00  0.00000000000E+00  0.10772076135E+04  0.10772076135E+04  0.25500000920E-02 0. -1.
       -2   -1    0    0    0  501  0.00000000000E+00  0.00000000000E+00 -0.65858024613E+03  0.65858024613E+03  0.25500000920E-02 0.  1.
    10030    2    1    2    0    0  0.00000000000E+00  0.00000000000E+00  0.41862736740E+03  0.17357878597E+04  0.16845505694E+04 0.  0.
        4    1    3    3  502    0  0.45550155246E+02 -0.13936759454E+03  0.10639553362E+04  0.10740115052E+04  0.12699999809E+01 0. -1.
       -4    1    3    3    0  502 -0.45550155246E+02  0.13936759454E+03 -0.64532796881E+03  0.66177635442E+03  0.12699999809E+01 0.  1.
</event>
<event>
 5   0  0.6547153E-04  0.1804120E+04  0.7818609E-02  0.8704112E-01
       -2   -1    0    0    0  501  0.00000000000E+00  0.00000000000E+00  0.45864487833E+03  0.45864487833E+03  0.25500000920E-02 0. -1.
        2   -1    0    0  501    0  0.00000000000E+00  0.00000000000E+00 -0.17741664283E+04  0.17741664283E+04  0.25500000920E-02 0.  1.
    10030    2    1    2    0    0  0.00000000000E+00  0.00000000000E+00 -0.13155215500E+04  0.22328113066E+04  0.18041201131E+04 0.  0.
        5    1    3    3  502    0 -0.13330891025E+03  0.25479751048E+02  0.44592085028E+03  0.46614158576E+03  0.46999998093E+01 0. -1.
       -5    1    3    3    0  502  0.13330891025E+03 -0.25479751048E+02 -0.17614424002E+04  0.17666697209E+04  0.46999998093E+01 0.  1.
</event>
<event>
 5   0  0.6547153E-04  0.1820796E+04  0.7818609E-02  0.8695318E-01
        2   -1    0    0  501    0  0.00000000000E+00  0.00000000000E+00  0.20546230637E+04  0.20546230637E+04  0.25500000920E-02 0. -1.
       -2   -1    0    0    0  501  0.00000000000E+00  0.00000000000E+00 -0.40339511173E+03  0.40339511174E+03  0.25500000920E-02 0.  1.
    10030    2    1    2    0    0  0.00000000000E+00  0.00000000000E+00  0.16512279519E+04  0.24580181754E+04  0.18207964195E+04 0.  0.
        5    1    3    3  502    0  0.32143974319E+03 -0.61114710324E+03  0.24707547347E+02  0.69098252018E+03  0.46999998093E+01 0. -1.
       -5    1    3    3    0  502 -0.32143974319E+03  0.61114710324E+03  0.16265204046E+04  0.17670356552E+04  0.46999998093E+01 0.  1.
</event>
<event>
 5   0  0.3470962E-04  0.1666688E+04  0.7818609E-02  0.8780595E-01
        1   -1    0    0  501    0  0.00000000000E+00  0.00000000000E+00  0.98143943777E+03  0.98143943778E+03  0.50400001928E-02 0.  1.
       -1   -1    0    0    0  501  0.00000000000E+00  0.00000000000E+00 -0.70759534890E+03  0.70759534892E+03  0.50400001928E-02 0. -1.
    10030    2    1    2    0    0  0.00000000000E+00  0.00000000000E+00  0.27384408886E+03  0.16890347867E+04  0.16666877109E+04 0.  0.
        4    1    3    3  502    0  0.64713716420E+03  0.47808305104E+03 -0.83037601974E+02  0.80885522142E+03  0.12699999809E+01 0. -1.
       -4    1    3    3    0  502 -0.64713716420E+03 -0.47808305104E+03  0.35688169084E+03  0.88017956528E+03  0.12699999809E+01 0.  1.
</event>
<event>
 5   0  0.3470962E-04  0.1805501E+04  0.7818609E-02  0.8703380E-01
        1   -1    0    0  501    0  0.00000000000E+00  0.00000000000E+00  0.11186391972E+04  0.11186391973E+04  0.50400001928E-02 0.  1.
       -1   -1    0    0    0  501  0.00000000000E+00  0.00000000000E+00 -0.72852629966E+03  0.72852629968E+03  0.50400001928E-02 0. -1.
    10030    2    1    2    0    0  0.00000000000E+00  0.00000000000E+00  0.39011289758E+03  0.18471654969E+04  0.18055005678E+04 0.  0.
        4    1    3    3  502    0 -0.46410106417E+03 -0.56003083412E+02  0.98516731514E+03  0.10904505467E+04  0.12699999809E+01 0.  1.
       -4    1    3    3    0  502  0.46410106417E+03  0.56003083412E+02 -0.59505441756E+03  0.75671495021E+03  0.12699999809E+01 0. -1.
</event>
<event>
 5   0  0.3404261E-04  0.1770148E+04  0.7818609E-02  0.8722337E-01
       -1   -1    0    0    0  501  0.00000000000E+00  0.00000000000E+00  0.74081604637E+03  0.74081604639E+03  0.50400001928E-02 0. -1.
        1   -1    0    0  501    0  0.00000000000E+00  0.00000000000E+00 -0.10574235169E+04  0.10574235169E+04  0.50400001928E-02 0.  1.
    10030    2    1    2    0    0  0.00000000000E+00  0.00000000000E+00 -0.31660747056E+03  0.17982395633E+04  0.17701483657E+04 0.  0.
        1    1    3    3  502    0 -0.49174736486E+03 -0.52321290994E+03  0.36739183682E+03  0.80656306744E+03  0.50400001928E-02 0. -1.
       -1    1    3    3    0  502  0.49174736486E+03  0.52321290994E+03 -0.68399930738E+03  0.99167649589E+03  0.50400001928E-02 0.  1.
</event>
<event>
 5   0  0.6547153E-04  0.1782468E+04  0.7818609E-02  0.8715679E-01
       -2   -1    0    0    0  501  0.00000000000E+00  0.00000000000E+00  0.49204426741E+03  0.49204426742E+03  0.25500000920E-02 0.  1.
        2   -1    0    0  501    0  0.00000000000E+00  0.00000000000E+00 -0.16142811997E+04  0.16142811997E+04  0.25500000920E-02 0. -1.
    10030    2    1    2    0    0  0.00000000000E+00  0.00000000000E+00 -0.11222369323E+04  0.21063254671E+04  0.17824677392E+04 0.  0.
        5    1    3    3  502    0  0.21200649986E+03 -0.78921025761E+03 -0.98136882293E+03  0.12770694747E+04  0.46999998093E+01 0. -1.
       -5    1    3    3    0  502 -0.21200649986E+03  0.78921025761E+03 -0.14086810938E+03  0.82925599240E+03  0.46999998093E+01 0.  1.
</event>
<event>
 5   0  0.6774451E-04  0.1792720E+04  0.7818609E-02  0.8710180E-01
       -2   -1    0    0    0  501  0.00000000000E+00  0.00000000000E+00  0.58208574558E+03  0.58208574558E+03  0.25500000920E-02 0.  1.
        2   -1    0    0  501    0  0.00000000000E+00  0.00000000000E+00 -0.13803150045E+04  0.13803150045E+04  0.25500000920E-02 0. -1.
    10030    2    1    2    0    0  0.00000000000E+00  0.00000000000E+00 -0.79822925896E+03  0.19624007501E+04  0.17927204897E+04 0.  0.
        4    1    3    3  502    0 -0.61868187756E+03  0.64421112562E+03 -0.48164885422E+03  0.10147721280E+04  0.12699999809E+01 0.  1.
       -4    1    3    3    0  502  0.61868187756E+03 -0.64421112562E+03 -0.31658040473E+03  0.94762862217E+03  0.12699999809E+01 0. -1.
</event>
<event>
 5   0  0.6771967E-04  0.1812994E+04  0.7818609E-02  0.8699420E-01
       -2   -1    0    0    0  501  0.00000000000E+00  0.00000000000E+00  0.11307328083E+04  0.11307328083E+04  0.25500000920E-02 0. -1.
        2   -1    0    0  501    0  0.00000000000E+00  0.00000000000E+00 -0.72672907372E+03  0.72672907372E+03  0.25500000920E-02 0.  1.
    10030    2    1    2    0    0  0.00000000000E+00  0.00000000000E+00  0.40400373454E+03  0.18574618820E+04  0.18129935536E+04 0.  0.
        1    1    3    3  502    0 -0.86432235616E+03  0.26926041209E+03  0.15414314259E+03  0.91832151957E+03  0.50400001928E-02 0.  1.
       -1    1    3    3    0  502  0.86432235616E+03 -0.26926041209E+03  0.24986059195E+03  0.93914036241E+03  0.50400001928E-02 0. -1.
</event>
<event>
 5   0  0.6771967E-04  0.1773143E+04  0.7818609E-02  0.8720713E-01
        2   -1    0    0  501    0  0.00000000000E+00  0.00000000000E+00  0.98485934455E+03  0.98485934455E+03  0.25500000920E-02 0. -1.
       -2   -1    0    0    0  501  0.00000000000E+00  0.00000000000E+00 -0.79809287444E+03  0.79809287444E+03  0.25500000920E-02 0.  1.
    10030    2    1    2    0    0  0.00000000000E+00  0.00000000000E+00  0.18676647011E+03  0.17829522190E+04  0.17731432263E+04 0.  0.
        1    1    3    3  502    0 -0.62500903763E+03  0.12093545152E+03 -0.52707770015E+03  0.82648205218E+03  0.50400001928E-02 0.  1.
       -1    1    3    3    0  502  0.62500903763E+03 -0.12093545152E+03  0.71384417026E+03  0.95647016681E+03  0.50400001928E-02 0. -1.
</event>
<event>
 5   0  0.3377273E-04  0.1813870E+04  0.7818609E-02  0.8698958E-01
       -1   -1    0    0    0  501  0.00000000000E+00  0.00000000000E+00  0.49307968809E+03  0.49307968811E+03  0.50400001928E-02 0. -1.
        1   -1    0    0  501    0  0.00000000000E+00  0.00000000000E+00 -0.16681511705E+04  0.16681511705E+04  0.50400001928E-02 0.  1.
    10030    2    1    2    0    0  0.00000000000E+00  0.00000000000E+00 -0.11750714824E+04  0.21612308586E+04  0.18138704021E+04 0.  0.
        2    1    3    3  502    0  0.50782192987E+03  0.74790072795E+03 -0.67421987188E+03  0.11277460029E+04  0.25500000920E-02 0.  1.
       -2    1    3    3    0  502 -0.50782192987E+03 -0.74790072795E+03 -0.50085161055E+03  0.10334848558E+04  0.25500000920E-02 0. -1.
</event>
<event>
 5   0  0.3413839E-04  0.1844636E+04  0.7818609E-02  0.8682916E-01
       -1   -1    0    0    0  501  0.00000000000E+00  0.00000000000E+00  0.90543389402E+03  0.90543389403E+03  0.50400001928E-02 0.  1.
        1   -1    0    0  501    0  0.00000000000E+00  0.00000000000E+00 -0.93951691454E+03  0.93951691456E+03  0.50400001928E-02 0. -1.
    10030    2    1    2    0    0  0.00000000000E+00  0.00000000000E+00 -0.34083020523E+02  0.18449508086E+04  0.18446359624E+04 0.  0.
        5    1    3    3  502    0  0.69747439705E+03 -0.59459612337E+03 -0.12017692664E+03  0.92438069440E+03  0.46999998093E+01 0. -1.
       -5    1    3    3    0  502 -0.69747439705E+03  0.59459612337E+03  0.86093906117E+02  0.92057011419E+03  0.46999998093E+01 0.  1.
</event>
<event>
 5   0  0.6547153E-04  0.1515475E+04  0.7818609E-02  0.8874227E-01
        2   -1    0    0  501    0  0.00000000000E+00  0.00000000000E+00  0.35570052822E+03  0.35570052823E+03  0.25500000920E-02 0.  1.
       -2   -1    0    0    0  501  0.00000000000E+00  0.00000000000E+00 -0.16141847450E+04  0.16141847450E+04  0.25500000920E-02 0. -1.
    10030    2    1    2    0    0  0.00000000000E+00  0.00000000000E+00 -0.12584842167E+04  0.19698852732E+04  0.15154753267E+04 0.  0.
        5    1    3    3  502    0  0.35924212115E+02 -0.70767218834E+03 -0.28032640798E+03  0.76203376577E+03  0.46999998093E+01 0.  1.
       -5    1    3    3    0  502 -0.35924212115E+02  0.70767218834E+03 -0.97815780876E+03  0.12078515074E+04  0.46999998093E+01 0. -1.
</event>
<event>
 5   0  0.3470962E-04  0.1941395E+04  0.7818609E-02  0.8634521E-01
        1   -1    0    0  501    0  0.00000000000E+00  0.00000000000E+00  0.18860496620E+04  0.18860496620E+04  0.50400001928E-02 0. -1.
       -1   -1    0    0    0  501  0.00000000000E+00  0.00000000000E+00 -0.49959131290E+03  0.49959131292E+03  0.50400001928E-02 0.  1.
    10030    2    1    2    0    0  0.00000000000E+00  0.00000000000E+00  0.13864583491E+04  0.23856409749E+04  0.19413954021E+04 0.  0.
        4    1    3    3  502    0  0.65388687132E+03  0.56636099047E+03  0.12343595889E+04  0.15073082033E+04  0.12699999809E+01 0. -1.
       -4    1    3    3    0  502 -0.65388687132E+03 -0.56636099047E+03  0.15209876018E+03  0.87833277165E+03  0.12699999809E+01 0.  1.
</event>
<event>
 5   0  0.6853162E-04  0.1817016E+04  0.7818609E-02  0.8697303E-01
       -2   -1    0    0    0  501  0.00000000000E+00  0.00000000000E+00  0.13468828625E+04  0.13468828625E+04  0.25500000920E-02 0.  1.
        2   -1    0    0  501    0  0.00000000000E+00  0.00000000000E+00 -0.61281228742E+03  0.61281228743E+03  0.25500000920E-02 0. -1.
    10030    2    1    2    0    0  0.00000000000E+00  0.00000000000E+00  0.73407057507E+03  0.19596951499E+04  0.18170155397E+04 0.  0.
        2    1    3    3  502    0 -0.19851507422E+03  0.88449209907E+03  0.43221117098E+03  0.10042614223E+04  0.25500000920E-02 0.  1.
       -2    1    3    3    0  502  0.19851507422E+03 -0.88449209907E+03  0.30185940409E+03  0.95543372761E+03  0.25500000920E-02 0. -1.
</event>
<event>
 5   0  0.3404261E-04  0.1905827E+04  0.7818609E-02  0.8651961E-01
       -1   -1    0    0    0  501  0.00000000000E+00  0.00000000000E+00  0.77695978454E+03  0.77695978456E+03  0.50400001928E-02 0. -1.
        1   -1    0    0  501    0  0.00000000000E+00  0.00000000000E+00 -0.11687141891E+04  0.11687141891E+04  0.50400001928E-02 0.  1.
    10030    2    1    2    0    0  0.00000000000E+00  0.00000000000E+00 -0.39175440459E+03  0.19456739737E+04  0.19058267756E+04 0.  0.
        1    1    3    3  502    0  0.86789366984E+03 -0.39312948574E+03 -0.17961589994E+03  0.96956283254E+03  0.50400001928E-02 0. -1.
       -1    1    3    3    0  502 -0.86789366984E+03  0.39312948574E+03 -0.21213850465E+03  0.97611114116E+03  0.50400001928E-02 0.  1.
</event>
<event>
 5   0  0.6929121E-04  0.1812383E+04  0.7818609E-02  0.8699742E-01
        2   -1    0    0  501    0  0.00000000000E+00  0.00000000000E+00  0.81313854612E+03  0.81313854612E+03  0.25500000920E-02 0.  1.
       -2   -1    0    0    0  501  0.00000000000E+00  0.00000000000E+00 -0.10098930631E+04  0.10098930631E+04  0.25500000920E-02 0. -1.
    10030    2    1    2    0    0  0.00000000000E+00  0.00000000000E+00 -0.19675451702E+03  0.18230316093E+04  0.18123829365E+04 0.  0.
        3    1    3    3  502    0  0.93728521069E+02  0.10098454666E+03 -0.99929590830E+03  0.10087493429E+04  0.10100000352E+00 0. -1.
       -3    1    3    3    0  502 -0.93728521069E+02 -0.10098454666E+03  0.80254139128E+03  0.81428226632E+03  0.10100000352E+00 0.  1.
</event>
<event>
 5   0  0.6547153E-04  0.1694696E+04  0.7818609E-02  0.8764395E-01
       -2   -1    0    0    0  501  0.00000000000E+00  0.00000000000E+00  0.50117833491E+03  0.50117833492E+03  0.25500000920E-02 0. -1.
        2   -1    0    0  501    0  0.00000000000E+00  0.00000000000E+00 -0.14326202168E+04  0.14326202168E+04  0.25500000920E-02 0.  1.
    10030    2    1    2    0    0  0.00000000000E+00  0.00000000000E+00 -0.93144188184E+03  0.19337985517E+04  0.16946955063E+04 0.  0.
        5    1    3    3  502    0  0.79645373708E+03  0.98971159832E+02 -0.77579975812E+03  0.11162531973E+04  0.46999998093E+01 0.  1.
       -5    1    3    3    0  502 -0.79645373708E+03 -0.98971159832E+02 -0.15564212372E+03  0.81754535438E+03  0.46999998093E+01 0. -1.
</event>
<event>
 5   0  0.3404261E-04  0.1814044E+04  0.7818609E-02  0.8698866E-01
        1   -1    0    0  501    0  0.00000000000E+00  0.00000000000E+00  0.17378009345E+04  0.17378009345E+04  0.50400001928E-02 0.  1.
       -1   -1    0    0    0  501  0.00000000000E+00  0.00000000000E+00 -0.47340824370E+03  0.47340824372E+03  0.50400001928E-02 0. -1.
    10030    2    1    2    0    0  0.00000000000E+00  0.00000000000E+00  0.12643926908E+04  0.22112091783E+04  0.18140444188E+04 0.  0.
        1    1    3    3  502    0 -0.45269357842E+02 -0.75740334932E+03  0.26419139733E+02  0.75921480445E+03  0.50400001928E-02 0. -1.
       -1    1    3    3    0  502  0.45269357842E+02  0.75740334932E+03  0.12379735511E+04  0.14519943738E+04  0.50400001928E-02 0.  1.
</event>
<event>
 5   0  0.3470962E-04  0.1815780E+04  0.7818609E-02  0.8697953E-01
        1   -1    0    0  501    0  0.00000000000E+00  0.00000000000E+00  0.93799789075E+03  0.93799789077E+03  0.50400001928E-02 0.  1.
       -1   -1    0    0    0  501  0.00000000000E+00  0.00000000000E+00 -0.87874856237E+03  0.87874856238E+03  0.50400001928E-02 0. -1.
    10030    2    1    2    0    0  0.00000000000E+00  0.00000000000E+00  0.59249328386E+02  0.18167464531E+04  0.18157800506E+04 0.  0.
        4    1    3    3  502    0  0.69044303494E+03 -0.36669623152E+03  0.49148162565E+03  0.92343571079E+03  0.12699999809E+01 0.  1.
       -4    1    3    3    0  502 -0.69044303494E+03  0.36669623152E+03 -0.43223229727E+03  0.89331074236E+03  0.12699999809E+01 0. -1.
</event>
<event>
 5   0  0.3413839E-04  0.1783168E+04  0.7818609E-02  0.8715302E-01
        1   -1    0    0  501    0  0.00000000000E+00  0.00000000000E+00  0.97733866739E+03  0.97733866740E+03  0.50400001928E-02 0. -1.
       -1   -1    0    0    0  501  0.00000000000E+00  0.00000000000E+00 -0.81335363906E+03  0.81335363908E+03  0.50400001928E-02 0.  1.
    10030    2    1    2    0    0  0.00000000000E+00  0.00000000000E+00  0.16398502833E+03  0.17906923065E+04  0.17831679245E+04 0.  0.
        5    1    3    3  502    0  0.44205986016E+03  0.10375466651E+03  0.85250974001E+03  0.96590729244E+03  0.46999998093E+01 0. -1.
       -5    1    3    3    0  502 -0.44205986016E+03 -0.10375466651E+03 -0.68852471168E+03  0.82478501404E+03  0.46999998093E+01 0.  1.
</event>
<event>
 5   0  0.3413839E-04  0.1790948E+04  0.7818609E-02  0.8711128E-01
       -1   -1    0    0    0  501  0.00000000000E+00  0.00000000000E+00  0.51531606777E+03  0.51531606779E+03  0.50400001928E-02 0. -1.
        1   -1    0    0  501    0  0.00000000000E+00  0.00000000000E+00 -0.15560820603E+04  0.15560820603E+04  0.50400001928E-02 0.  1.
    10030    2    1    2    0    0  0.00000000000E+00  0.00000000000E+00 -0.10407659925E+04  0.20713981281E+04  0.17909484509E+04 0.  0.
        5    1    3    3  502    0  0.55342279374E+03 -0.47332542457E+03 -0.11230757959E+04  0.13385197344E+04  0.46999998093E+01 0.  1.
       -5    1    3    3    0  502 -0.55342279374E+03  0.47332542457E+03  0.82309803346E+02  0.73287839366E+03  0.46999998093E+01 0. -1.
</event>
<event>
 5   0  0.6547153E-04  0.1745392E+04  0.7818609E-02  0.8735891E-01
        2   -1    0    0  501    0  0.00000000000E+00  0.00000000000E+00  0.16148165696E+04  0.16148165696E+04  0.25500000920E-02 0. -1.
       -2   -1    0    0    0  501  0.00000000000E+00  0.00000000000E+00 -0.47163138678E+03  0.47163138679E+03  0.25500000920E-02 0.  1.
    10030    2    1    2    0    0  0.00000000000E+00  0.00000000000E+00  0.11431851828E+04  0.20864479564E+04  0.17453918507E+04 0.  0.
        5    1    3    3  502    0 -0.55791959271E+03 -0.65309867295E+03  0.38731444626E+03  0.94225618534E+03  0.46999998093E+01 0.  1.
       -5    1    3    3    0  502  0.55791959271E+03  0.65309867295E+03  0.75587073653E+03  0.11441917710E+04  0.46999998093E+01 0. -1.
</event>
<event>
 5   0  0.6547153E-04  0.1669347E+04  0.7818609E-02  0.8779043E-01
        2   -1    0    0  501    0  0.00000000000E+00  0.00000000000E+00  0.11875862408E+04  0.11875862408E+04  0.25500000920E-02 0. -1.
       -2   -1    0    0    0  501  0.00000000000E+00  0.00000000000E+00 -0.58663494105E+03  0.58663494105E+03  0.25500000920E-02 0.  1.
    10030    2    1    2    0    0  0.00000000000E+00  0.00000000000E+00  0.60095129975E+03  0.17742211819E+04  0.16693466798E+04 0.  0.
        5    1    3    3  502    0  0.45895742103E+03  0.64826475849E+03  0.57304047206E+03  0.97943176590E+03  0.46999998093E+01 0. -1.
       -5    1    3    3    0  502 -0.45895742103E+03 -0.64826475849E+03  0.27910827688E+02  0.79478941596E+03  0.46999998093E+01 0.  1.
</event>
<event>
 5   0  0.6929121E-04  0.1820206E+04  0.7818609E-02  0.8695628E-01
        2   -1    0    0  501    0  0.00000000000E+00  0.00000000000E+00  0.10833250764E+04  0.10833250764E+04  0.25500000920E-02 0.  1.
       -2   -1    0    0    0  501  0.00000000000E+00  0.00000000000E+00 -0.76457854478E+03  0.76457854478E+03  0.25500000920E-02 0. -1.
    10030    2    1    2    0    0  0.00000000000E+00  0.00000000000E+00  0.31874653167E+03  0.18479036212E+04  0.18202056043E+04 0.  0.
        3    1    3    3  502    0  0.99483485995E+02 -0.78942277479E+03  0.60791287410E+03  0.10013208048E+04  0.10100000352E+00 0.  1.
       -3    1    3    3    0  502 -0.99483485995E+02  0.78942277479E+03 -0.28916634243E+03  0.84658281647E+03  0.10100000352E+00 0. -1.
</event>
<event>
 5   0  0.6547153E-04  0.1705514E+04  0.7818609E-02  0.8758226E-01
       -2   -1    0    0    0  501  0.00000000000E+00  0.00000000000E+00  0.41539337114E+03  0.41539337115E+03  0.25500000920E-02 0.  1.
        2   -1    0    0  501    0  0.00000000000E+00  0.00000000000E+00 -0.17506158708E+04  0.17506158708E+04  0.25500000920E-02 0. -1.
    10030    2    1    2    0    0  0.00000000000E+00  0.00000000000E+00 -0.13352224997E+04  0.21660092419E+04  0.17055136800E+04 0.  0.
        5    1    3    3  502    0 -0.83204654035E+03  0.18363205881E+03 -0.62454407017E+03  0.10564561344E+04  0.46999998093E+01 0.  1.
       -5    1    3    3    0  502  0.83204654035E+03 -0.18363205881E+03 -0.71067842948E+03  0.11095531075E+04  0.46999998093E+01 0. -1.
</event>
<event>
 5   0  0.3377273E-04  0.1850962E+04  0.7818609E-02  0.8679658E-01
       -1   -1    0    0    0  501  0.00000000000E+00  0.00000000000E+00  0.12409844179E+04  0.12409844179E+04  0.50400001928E-02 0. -1.
        1   -1    0    0  501    0  0.00000000000E+00  0.00000000000E+00 -0.69018971414E+03  0.69018971416E+03  0.50400001928E-02 0.  1.
    10030    2    1    2    0    0  0.00000000000E+00  0.00000000000E+00  0.55079470378E+03  0.19311741321E+04  0.18509615671E+04 0.  0.
        2    1    3    3  502    0  0.59309700556E+03 -0.19335880396E+02 -0.46557424721E+03  0.75425281832E+03  0.25500000920E-02 0.  1.
       -2    1    3    3    0  502 -0.59309700556E+03  0.19335880396E+02  0.10163689510E+04  0.11769213138E+04  0.25500000920E-02 0. -1.
</event>
<event>
 5   0  0.6929121E-04  0.1848053E+04  0.7818609E-02  0.8681155E-01
        2   -1    0    0  501    0  0.00000000000E+00  0.00000000000E+00  0.86530379934E+03  0.86530379934E+03  0.25500000920E-02 0. -1.
       -2   -1    0    0    0  501  0.00000000000E+00  0.00000000000E+00 -0.98673416842E+03  0.98673416842E+03  0.25500000920E-02 0.  1.
    10030    2    1    2    0    0  0.00000000000E+00  0.00000000000E+00 -0.12143036908E+03  0.18520379678E+04  0.18480528400E+04 0.  0.
        3    1    3    3  502    0 -0.68567408011E+03 -0.42380880397E+03 -0.51342148295E+03  0.95570103892E+03  0.10100000352E+00 0.  1.
       -3    1    3    3    0  502  0.68567408011E+03  0.42380880397E+03  0.39199111387E+03  0.89633692884E+03  0.10100000352E+00 0. -1.
</event>
<event>
 5   0  0.6774451E-04  0.1865602E+04  0.7818609E-02  0.8672171E-01
       -2   -1    0    0    0  501  0.00000000000E+00  0.00000000000E+00  0.10250549690E+04  0.10250549690E+04  0.25500000920E-02 0. -1.
        2   -1    0    0  501    0  0.00000000000E+00  0.00000000000E+00 -0.84884953762E+03  0.84884953762E+03  0.25500000920E-02 0.  1.
    10030    2    1    2    0    0  0.00000000000E+00  0.00000000000E+00  0.17620543141E+03  0.18739045067E+04  0.18656017115E+04 0.  0.
        4    1    3    3  502    0  0.38399422416E+03  0.50647482828E+03 -0.59768579899E+03  0.87246675758E+03  0.12699999809E+01 0.  1.
       -4    1    3    3    0  502 -0.38399422416E+03 -0.50647482828E+03  0.77389123040E+03  0.10014377491E+04  0.12699999809E+01 0. -1.
</event>
<event>
 5   0  0.6929121E-04  0.1778331E+04  0.7818609E-02  0.8717908E-01
        2   -1    0    0  501    0  0.00000000000E+00  0.00000000000E+00  0.10705865132E+04  0.10705865132E+04  0.25500000920E-02 0. -1.
       -2   -1    0    0    0  501  0.00000000000E+00  0.00000000000E+00 -0.73848815602E+03  0.73848815602E+03  0.25500000920E-02 0.  1.
    10030    2    1    2    0    0  0.00000000000E+00  0.00000000000E+00  0.33209835717E+03  0.18090746692E+04  0.17783311952E+04 0.  0.
        3    1    3    3  502    0 -0.64566940294E+02  0.16203195137E+03 -0.72091392115E+03  0.74171432166E+03  0.10100000352E+00 0.  1.
       -3    1    3    3    0  502  0.64566940294E+02 -0.16203195137E+03  0.10530122783E+04  0.10673603476E+04  0.10100000352E+00 0. -1.
</event>
<event>
 5   0  0.3377273E-04  0.1778817E+04  0.7818609E-02  0.8717646E-01
       -1   -1    0    0    0  501  0.00000000000E+00  0.00000000000E+00  0.52828268358E+03  0.52828268360E+03  0.50400001928E-02 0. -1.
        1   -1    0    0  501    0  0.00000000000E+00  0.00000000000E+00 -0.14973944627E+04  0.14973944628E+04  0.50400001928E-02 0.  1.
    10030    2    1    2    0    0  0.00000000000E+00  0.00000000000E+00 -0.96911177917E+03  0.20256771464E+04  0.17788170959E+04 0.  0.
        2    1    3    3  502    0  0.73714722541E+03  0.18006840924E+03 -0.10128761907E+04  0.12655942643E+04  0.25500000920E-02 0.  1.
       -2    1    3    3    0  502 -0.73714722541E+03 -0.18006840924E+03  0.43764411575E+02  0.76008288210E+03  0.25500000920E-02 0. -1.
</event>
<event>
 5   0  0.6853162E-04  0.1873271E+04  0.7818609E-02  0.8668277E-01
        2   -1    0    0  501    0  0.00000000000E+00  0.00000000000E+00  0.16414546584E+04  0.16414546584E+04  0.25500000920E-02 0. -1.
       -2   -1    0    0    0  501  0.00000000000E+00  0.00000000000E+00 -0.53445640797E+03  0.53445640797E+03  0.25500000920E-02 0.  1.
    10030    2    1    2    0    0  0.00000000000E+00  0.00000000000E+00  0.11069982504E+04  0.21759110664E+04  0.18732708940E+04 0.  0.
        2    1    3    3  502    0  0.40032144894E+03 -0.81129510631E+03  0.27176717677E+03  0.94462395184E+03  0.25500000920E-02 0.  1.
       -2    1    3    3    0  502 -0.40032144894E+03  0.81129510631E+03  0.83523107368E+03  0.12312871145E+04  0.25500000920E-02 0. -1.
</event>
<event>
 5   0  0.3470962E-04  0.1623236E+04  0.7818609E-02  0.8806399E-01
       -1   -1    0    0    0  501  0.00000000000E+00  0.00000000000E+00  0.72837552224E+03  0.72837552226E+03  0.50400001928E-02 0. -1.
        1   -1    0    0  501    0  0.00000000000E+00  0.00000000000E+00 -0.90437415965E+03  0.90437415966E+03  0.50400001928E-02 0.  1.
    10030    2    1    2    0    0  0.00000000000E+00  0.00000000000E+00 -0.17599863741E+03  0.16327496819E+04  0.16232362747E+04 0.  0.
        4    1    3    3  502    0  0.37804212476E+03 -0.24277199373E+03  0.59188242666E+03  0.74308849333E+03  0.12699999809E+01 0. -1.
       -4    1    3    3    0  502 -0.37804212476E+03  0.24277199373E+03 -0.76788106407E+03  0.88966118859E+03  0.12699999809E+01 0.  1.
</event>
<event>
 5   0  0.3470962E-04  0.1667731E+04  0.7818609E-02  0.8779985E-01
       -1   -1    0    0    0  501  0.00000000000E+00  0.00000000000E+00  0.83520840651E+03  0.83520840652E+03  0.50400001928E-02 0.  1.
        1   -1    0    0  501    0  0.00000000000E+00  0.00000000000E+00 -0.83252517955E+03  0.83252517957E+03  0.50400001928E-02 0. -1.
    10030    2    1    2    0    0  0.00000000000E+00  0.00000000000E+00  0.26832269538E+01  0.16677335861E+04  0.16677314276E+04 0.  0.
        4    1    3    3  502    0  0.26398281833E+03  0.14344987519E+03  0.77920226097E+03  0.83511829788E+03  0.12699999809E+01 0.  1.
       -4    1    3    3    0  502 -0.26398281833E+03 -0.14344987519E+03 -0.77651903401E+03  0.83261528820E+03  0.12699999809E+01 0. -1.
</event>
<event>
 5   0  0.6774451E-04  0.1829817E+04  0.7818609E-02  0.8690602E-01
       -2   -1    0    0    0  501  0.00000000000E+00  0.00000000000E+00  0.41636238959E+03  0.41636238959E+03  0.25500000920E-02 0.  1.
        2   -1    0    0  501    0  0.00000000000E+00  0.00000000000E+00 -0.20104053662E+04  0.20104053662E+04  0.25500000920E-02 0. -1.
    10030    2    1    2    0    0  0.00000000000E+00  0.00000000000E+00 -0.15940429766E+04  0.24267677557E+04  0.18298165835E+04 0.  0.
        4    1    3    3  502    0  0.23229912341E+02 -0.90642469853E+03 -0.95896460197E+03  0.13197575852E+04  0.12699999809E+01 0.  1.
       -4    1    3    3    0  502 -0.23229912341E+02  0.90642469853E+03 -0.63507837459E+03  0.11070101706E+04  0.12699999809E+01 0. -1.
</event>
<event>
 5   0  0.3308275E-04  0.1620248E+04  0.7818609E-02  0.8808205E-01
       -1   -1    0    0    0  501  0.00000000000E+00  0.00000000000E+00  0.10564809062E+04  0.10564809062E+04  0.50400001928E-02 0. -1.
        1   -1    0    0  501    0  0.00000000000E+00  0.00000000000E+00 -0.62121405921E+03  0.62121405923E+03  0.50400001928E-02 0.  1.
    10030    2    1    2    0    0  0.00000000000E+00  0.00000000000E+00  0.43526684697E+03  0.16776949654E+04  0.16202478727E+04 0.  0.
        3    1    3    3  502    0  0.76494587933E+03 -0.17404336594E+03  0.83086998173E+01  0.78453956957E+03  0.10100000352E+00 0. -1.
       -3    1    3    3    0  502 -0.76494587933E+03  0.17404336594E+03  0.42695814716E+03  0.89315539586E+03  0.10100000352E+00 0.  1.
</event>
<event>
 5   0  0.3377273E-04  0.1857496E+04  0.7818609E-02  0.8676308E-01
        1   -1    0    0  501    0  0.00000000000E+00  0.00000000000E+00  0.16904876513E+04  0.16904876513E+04  0.50400001928E-02 0. -1.
       -1   -1    0    0    0  501  0.00000000000E+00  0.00000000000E+00 -0.51025070995E+03  0.51025070998E+03  0.50400001928E-02 0.  1.
    10030    2    1    2    0    0  0.00000000000E+00  0.00000000000E+00  0.11802369414E+04  0.22007383613E+04  0.18574956520E+04 0.  0.
        2    1    3    3  502    0  0.31900487969E+03  0.49088604365E+03 -0.26411220659E+03  0.64225265963E+03  0.25500000920E-02 0.  1.
       -2    1    3    3    0  502 -0.31900487969E+03 -0.49088604365E+03  0.14443491479E+04  0.15584857017E+04  0.25500000920E-02 0. -1.
</event>
<event>
 5   0  0.6929121E-04  0.1881297E+04  0.7818609E-02  0.8664223E-01
       -2   -1    0    0    0  501  0.00000000000E+00  0.00000000000E+00  0.44021526220E+03  0.44021526221E+03  0.25500000920E-02 0.  1.
        2   -1    0    0  501    0  0.00000000000E+00  0.00000000000E+00 -0.20099694215E+04  0.20099694215E+04  0.25500000920E-02 0. -1.
    10030    2    1    2    0    0  0.00000000000E+00  0.00000000000E+00 -0.15697541593E+04  0.24501846837E+04  0.18812965911E+04 0.  0.
        3    1    3    3  502    0  0.51299771932E+03  0.72789375615E+03 -0.11795322748E+04  0.14779351737E+04  0.10100000352E+00 0.  1.
       -3    1    3    3    0  502 -0.51299771932E+03 -0.72789375615E+03 -0.39022188448E+03  0.97224950995E+03  0.10100000352E+00 0. -1.
</event>
<event>
 5   0  0.6929121E-04  0.1801776E+04  0.7818609E-02  0.8705356E-01
        2   -1    0    0  501    0  0.00000000000E+00  0.00000000000E+00  0.79326544294E+03  0.79326544294E+03  0.25500000920E-02 0.  1.
       -2   -1    0    0    0  501  0.00000000000E+00  0.00000000000E+00 -0.10231117525E+04  0.10231117525E+04  0.25500000920E-02 0. -1.
    10030    2    1    2    0    0  0.00000000000E+00  0.00000000000E+00 -0.22984630956E+03  0.18163771954E+04  0.18017760100E+04 0.  0.
        3    1    3    3  502    0 -0.14816446529E+03  0.32318924661E+03  0.71955004480E+03  0.80259346813E+03  0.10100000352E+00 0.  1.
       -3    1    3    3    0  502  0.14816446529E+03 -0.32318924661E+03 -0.94939635436E+03  0.10137837273E+04  0.10100000352E+00 0. -1.
</event>
<event>
 5   0  0.6774451E-04  0.1862323E+04  0.7818609E-02  0.8673841E-01
        2   -1    0    0  501    0  0.00000000000E+00  0.00000000000E+00  0.18949851719E+04  0.18949851719E+04  0.25500000920E-02 0. -1.
       -2   -1    0    0    0  501  0.00000000000E+00  0.00000000000E+00 -0.45755598715E+03  0.45755598715E+03  0.25500000920E-02 0.  1.
    10030    2    1    2    0    0  0.00000000000E+00  0.00000000000E+00  0.14374291848E+04  0.23525411591E+04  0.18623230772E+04 0.  0.
        4    1    3    3  502    0 -0.86615751058E+03 -0.30226896879E+03  0.92029700686E+03  0.12994397086E+04  0.12699999809E+01 0. -1.
       -4    1    3    3    0  502  0.86615751058E+03  0.30226896879E+03  0.51713217793E+03  0.10531014505E+04  0.12699999809E+01 0.  1.
</event>
<event>
 5   0  0.3404261E-04  0.1789647E+04  0.7818609E-02  0.8711824E-01
       -1   -1    0    0    0  501  0.00000000000E+00  0.00000000000E+00  0.10671858374E+04  0.10671858374E+04  0.50400001928E-02 0. -1.
        1   -1    0    0  501    0  0.00000000000E+00  0.00000000000E+00 -0.75029972910E+03  0.75029972911E+03  0.50400001928E-02 0.  1.
    10030    2    1    2    0    0  0.00000000000E+00  0.00000000000E+00  0.31688610829E+03  0.18174855665E+04  0.17896471660E+04 0.  0.
        1    1    3    3  502    0  0.70344365752E+03 -0.54219092976E+03  0.47634569632E+02  0.88942286674E+03  0.50400001928E-02 0.  1.
       -1    1    3    3    0  502 -0.70344365752E+03  0.54219092976E+03  0.26925153866E+03  0.92806269978E+03  0.50400001928E-02 0. -1.
</event>
<event>
 5   0  0.6774451E-04  0.1851080E+04  0.7818609E-02  0.8679598E-01
       -2   -1    0    0    0  501  0.00000000000E+00  0.00000000000E+00  0.51897254433E+03  0.51897254434E+03  0.25500000920E-02 0.  1.
        2   -1    0    0  501    0  0.00000000000E+00  0.00000000000E+00 -0.16506153879E+04  0.16506153879E+04  0.25500000920E-02 0. -1.
    10030    2    1    2    0    0  0.00000000000E+00  0.00000000000E+00 -0.11316428436E+04  0.21695879322E+04  0.18510797580E+04 0.  0.
        4    1    3    3  502    0  0.68665711433E+02  0.86594935764E+03 -0.94022122768E+03  0.12800784506E+04  0.12699999809E+01 0. -1.
       -4    1    3    3    0  502 -0.68665711433E+02 -0.86594935764E+03 -0.19142161589E+03  0.88950948160E+03  0.12699999809E+01 0.  1.
</event>
<event>
 5   0  0.3308275E-04  0.1856303E+04  0.7818609E-02  0.8676918E-01
        1   -1    0    0  501    0  0.00000000000E+00  0.00000000000E+00  0.15435347475E+04  0.15435347475E+04  0.50400001928E-02 0. -1.
       -1   -1    0    0    0  501  0.00000000000E+00  0.00000000000E+00 -0.55811200516E+03  0.55811200519E+03  0.50400001928E-02 0.  1.
    10030    2    1    2    0    0  0.00000000000E+00  0.00000000000E+00  0.98542274234E+03  0.21016467527E+04  0.18563030712E+04 0.  0.
        3    1    3    3  502    0 -0.62052731691E+03 -0.22859464874E+03  0.12300609553E+04  0.13965527661E+04  0.10100000352E+00 0. -1.
       -3    1    3    3    0  502  0.62052731691E+03  0.22859464874E+03 -0.24463821300E+03  0.70509398659E+03  0.10100000352E+00 0.  1.
</event>
<event>
 5   0  0.6929121E-04  0.1781236E+04  0.7818609E-02  0.8716342E-01
        2   -1    0    0  501    0  0.00000000000E+00  0.00000000000E+00  0.69312375446E+03  0.69312375446E+03  0.25500000920E-02 0.  1.
       -2   -1    0    0    0  501  0.00000000000E+00  0.00000000000E+00 -0.11443856087E+04  0.11443856087E+04  0.25500000920E-02 0. -1.
    10030    2    1    2    0    0  0.00000000000E+00  0.00000000000E+00 -0.45126185420E+03  0.18375093631E+04  0.17812364802E+04 0.  0.
        3    1    3    3  502    0  0.37451420158E+03  0.66384100414E+03 -0.70089722603E+03  0.10354722100E+04  0.10100000352E+00 0. -1.
       -3    1    3    3    0  502 -0.37451420158E+03 -0.66384100414E+03  0.24963537183E+03  0.80203715315E+03  0.10100000352E+00 0.  1.
</event>
<event>
 5   0  0.6929121E-04  0.1782463E+04  0.7818609E-02  0.8715682E-01
       -2   -1    0    0    0  501  0.00000000000E+00  0.00000000000E+00  0.38400549468E+03  0.38400549469E+03  0.25500000920E-02 0. -1.
        2   -1    0    0  501    0  0.00000000000E+00  0.00000000000E+00 -0.20684423228E+04  0.20684423228E+04  0.25500000920E-02 0.  1.
    10030    2    1    2    0    0  0.00000000000E+00  0.00000000000E+00 -0.16844368281E+04  0.24524478175E+04  0.17824625857E+04 0.  0.
        3    1    3    3  502    0 -0.16617633055E+02  0.61715944782E+03 -0.17265668063E+04  0.18336288819E+04  0.10100000352E+00 0.  1.
       -3    1    3    3    0  502  0.16617633055E+02 -0.61715944782E+03  0.42129978183E+02  0.61881893557E+03  0.10100000352E+00 0. -1.
</event>
<event>
 5   0  0.3470962E-04  0.1780788E+04  0.7818609E-02  0.8716583E-01
        1   -1    0    0  501    0  0.00000000000E+00  0.00000000000E+00  0.12646725008E+04  0.12646725008E+04  0.50400001928E-02 0.  1.
       -1   -1    0    0    0  501  0.00000000000E+00  0.00000000000E+00 -0.62688296198E+03  0.62688296200E+03  0.50400001928E-02 0. -1.
    10030    2    1    2    0    0  0.00000000000E+00  0.00000000000E+00  0.63778953884E+03  0.18915554628E+04  0.17807881887E+04 0.  0.
        4    1    3    3  502    0 -0.20782118493E+02  0.59542075566E+03  0.10217496269E+04  0.11827644253E+04  0.12699999809E+01 0.  1.
       -4    1    3    3    0  502  0.20782118493E+02 -0.59542075566E+03 -0.38396008811E+03  0.70879103753E+03  0.12699999809E+01 0. -1.
</event>
<event>
 5   0  0.3404261E-04  0.1170877E+04  0.7818609E-02  0.9138737E-01
       -1   -1    0    0    0  501  0.00000000000E+00  0.00000000000E+00  0.36289383874E+03  0.36289383878E+03  0.50400001928E-02 0. -1.
        1   -1    0    0  501    0  0.00000000000E+00  0.00000000000E+00 -0.94445851242E+03  0.94445851243E+03  0.50400001928E-02 0.  1.
    10030    2    1    2    0    0  0.00000000000E+00  0.00000000000E+00 -0.58156467368E+03  0.13073523512E+04  0.11708768938E+04 0.  0.
        1    1    3    3  502    0 -0.50904657500E+03  0.11962117589E+03 -0.58471625693E+03  0.78443020237E+03  0.50400001928E-02 0.  1.
       -1    1    3    3    0  502  0.50904657500E+03 -0.11962117589E+03  0.31515832532E+01  0.52292214884E+03  0.50400001928E-02 0. -1.
</event>
<event>
 5   0  0.6771967E-04  0.1794785E+04  0.7818609E-02  0.8709078E-01
        2   -1    0    0  501    0  0.00000000000E+00  0.00000000000E+00  0.20913493530E+04  0.20913493530E+04  0.25500000920E-02 0.  1.
       -2   -1    0    0    0  501  0.00000000000E+00  0.00000000000E+00 -0.38506884641E+03  0.38506884642E+03  0.25500000920E-02 0. -1.
    10030    2    1    2    0    0  0.00000000000E+00  0.00000000000E+00  0.17062805066E+04  0.24764181994E+04  0.17947852048E+04 0.  0.
        1    1    3    3  502    0  0.81184363369E+03 -0.18320469981E+03  0.13162621243E+04  0.15573053738E+04  0.50400001928E-02 0.  1.
       -1    1    3    3    0  502 -0.81184363369E+03  0.18320469981E+03  0.39001838235E+03  0.91911282560E+03  0.50400001928E-02 0. -1.
</event>
<event>
 5   0  0.3470962E-04  0.1842838E+04  0.7818609E-02  0.8683845E-01
        1   -1    0    0  501    0  0.00000000000E+00  0.00000000000E+00  0.12151997857E+04  0.12151997857E+04  0.50400001928E-02 0. -1.
       -1   -1    0    0    0  501  0.00000000000E+00  0.00000000000E+00 -0.69866093264E+03  0.69866093265E+03  0.50400001928E-02 0.  1.
    10030    2    1    2    0    0  0.00000000000E+00  0.00000000000E+00  0.51653885303E+03  0.19138607183E+04  0.18428376115E+04 0.  0.
        4    1    3    3  502    0  0.49194510474E+03 -0.48133041682E+03 -0.37797691647E+03  0.78521151197E+03  0.12699999809E+01 0.  1.
       -4    1    3    3    0  502 -0.49194510474E+03  0.48133041682E+03  0.89451576950E+03  0.11286492064E+04  0.12699999809E+01 0. -1.
</event>
<event>
 5   0  0.6547153E-04  0.1798497E+04  0.7818609E-02  0.8707099E-01
       -2   -1    0    0    0  501  0.00000000000E+00  0.00000000000E+00  0.12917531737E+04  0.12917531737E+04  0.25500000920E-02 0.  1.
        2   -1    0    0  501    0  0.00000000000E+00  0.00000000000E+00 -0.62600799709E+03  0.62600799709E+03  0.25500000920E-02 0. -1.
    10030    2    1    2    0    0  0.00000000000E+00  0.00000000000E+00  0.66574517665E+03  0.19177611708E+04  0.17984969469E+04 0.  0.
        5    1    3    3  502    0  0.25840064672E+03  0.58272328056E+02 -0.58344929789E+03  0.64078212494E+03  0.46999998093E+01 0. -1.
       -5    1    3    3    0  502 -0.25840064672E+03 -0.58272328056E+02  0.12491944745E+04  0.12769790459E+04  0.46999998093E+01 0.  1.
</event>
<event>
 5   0  0.3377273E-04  0.1753636E+04  0.7818609E-02  0.8731352E-01
        1   -1    0    0  501    0  0.00000000000E+00  0.00000000000E+00  0.66270933408E+03  0.66270933410E+03  0.50400001928E-02 0.  1.
       -1   -1    0    0    0  501  0.00000000000E+00  0.00000000000E+00 -0.11601004835E+04  0.11601004835E+04  0.50400001928E-02 0. -1.
    10030    2    1    2    0    0  0.00000000000E+00  0.00000000000E+00 -0.49739114940E+03  0.18228098176E+04  0.17536355595E+04 0.  0.
        2    1    3    3  502    0 -0.11031261605E+03 -0.14645313951E+03 -0.11399514564E+04  0.11546024070E+04  0.25500000920E-02 0. -1.
       -2    1    3    3    0  502  0.11031261605E+03  0.14645313951E+03  0.64256030703E+03  0.66820741055E+03  0.25500000920E-02 0.  1.
</event>
<event>
 5   0  0.3413839E-04  0.1783640E+04  0.7818609E-02  0.8715048E-01
       -1   -1    0    0    0  501  0.00000000000E+00  0.00000000000E+00  0.52544473704E+03  0.52544473706E+03  0.50400001928E-02 0. -1.
        1   -1    0    0  501    0  0.00000000000E+00  0.00000000000E+00 -0.15136571112E+04  0.15136571112E+04  0.50400001928E-02 0.  1.
    10030    2    1    2    0    0  0.00000000000E+00  0.00000000000E+00 -0.98821237416E+03  0.20391018483E+04  0.17836402808E+04 0.  0.
        5    1    3    3  502    0 -0.60334280930E+03 -0.40255383468E+03  0.99104061747E+02  0.73206272983E+03  0.46999998093E+01 0. -1.
       -5    1    3    3    0  502  0.60334280930E+03  0.40255383468E+03 -0.10873164359E+04  0.13070391184E+04  0.46999998093E+01 0.  1.
</event>
<event>
 5   0  0.3404261E-04  0.1732020E+04  0.7818609E-02  0.8743310E-01
       -1   -1    0    0    0  501  0.00000000000E+00  0.00000000000E+00  0.55768738795E+03  0.55768738797E+03  0.50400001928E-02 0. -1.
        1   -1    0    0  501    0  0.00000000000E+00  0.00000000000E+00 -0.13447920993E+04  0.13447920993E+04  0.50400001928E-02 0.  1.
    10030    2    1    2    0    0  0.00000000000E+00  0.00000000000E+00 -0.78710471136E+03  0.19024794873E+04  0.17320203154E+04 0.  0.
        1    1    3    3  502    0 -0.47231096333E+03  0.71804359146E+03 -0.51036390468E+03  0.99956768682E+03  0.50400001928E-02 0.  1.
       -1    1    3    3    0  502  0.47231096333E+03 -0.71804359146E+03 -0.27674080669E+03  0.90291180047E+03  0.50400001928E-02 0. -1.
</event>
<event>
 5   0  0.6547153E-04  0.1278649E+04  0.7818609E-02  0.9046670E-01
       -2   -1    0    0    0  501  0.00000000000E+00  0.00000000000E+00  0.53038820582E+03  0.53038820582E+03  0.25500000920E-02 0. -1.
        2   -1    0    0  501    0  0.00000000000E+00  0.00000000000E+00 -0.77063545753E+03  0.77063545754E+03  0.25500000920E-02 0.  1.
    10030    2    1    2    0    0  0.00000000000E+00  0.00000000000E+00 -0.24024725172E+03  0.13010236634E+04  0.12786492211E+04 0.  0.
        5    1    3    3  502    0 -0.20984311584E+03  0.86055600859E+02  0.48805980685E+03  0.53820457520E+03  0.46999998093E+01 0. -1.
       -5    1    3    3    0  502  0.20984311584E+03 -0.86055600859E+02 -0.72830705857E+03  0.76281908816E+03  0.46999998093E+01 0.  1.
</event>
<event>
 5   0  0.3377273E-04  0.1748817E+04  0.7818609E-02  0.8734002E-01
       -1   -1    0    0    0  501  0.00000000000E+00  0.00000000000E+00  0.82627326756E+03  0.82627326758E+03  0.50400001928E-02 0.  1.
        1   -1    0    0  501    0  0.00000000000E+00  0.00000000000E+00 -0.92534745637E+03  0.92534745638E+03  0.50400001928E-02 0. -1.
    10030    2    1    2    0    0  0.00000000000E+00  0.00000000000E+00 -0.99074188807E+02  0.17516207240E+04  0.17488165901E+04 0.  0.
        2    1    3    3  502    0 -0.36900874092E+03 -0.36760838384E+03 -0.75300683573E+03  0.91559962287E+03  0.25500000920E-02 0. -1.
       -2    1    3    3    0  502  0.36900874092E+03  0.36760838384E+03  0.65393264693E+03  0.83602110109E+03  0.25500000920E-02 0.  1.
</event>
<event>
 5   0  0.3308275E-04  0.1765171E+04  0.7818609E-02  0.8725044E-01
       -1   -1    0    0    0  501  0.00000000000E+00  0.00000000000E+00  0.57394363873E+03  0.57394363875E+03  0.50400001928E-02 0. -1.
        1   -1    0    0  501    0  0.00000000000E+00  0.00000000000E+00 -0.13572009363E+04  0.13572009363E+04  0.50400001928E-02 0.  1.
    10030    2    1    2    0    0  0.00000000000E+00  0.00000000000E+00 -0.78325729759E+03  0.19311445751E+04  0.17651706364E+04 0.  0.
        3    1    3    3  502    0 -0.41860883467E+03 -0.48730812209E+02  0.45675309236E+03  0.62147521760E+03  0.10100000352E+00 0. -1.
       -3    1    3    3    0  502  0.41860883467E+03  0.48730812209E+02 -0.12400103899E+04  0.13096693575E+04  0.10100000352E+00 0.  1.
</event>
<event>
 5   0  0.6929121E-04  0.1759177E+04  0.7818609E-02  0.8728315E-01
       -2   -1    0    0    0  501  0.00000000000E+00  0.00000000000E+00  0.88872947763E+03  0.88872947764E+03  0.25500000920E-02 0.  1.
        2   -1    0    0  501    0  0.00000000000E+00  0.00000000000E+00 -0.87054202586E+03  0.87054202586E+03  0.25500000920E-02 0. -1.
    10030    2    1    2    0    0  0.00000000000E+00  0.00000000000E+00  0.18187451772E+02  0.17592715035E+04  0.17591774895E+04 0.  0.
        3    1    3    3  502    0  0.41830051871E+02  0.83573289208E+03  0.28017486374E+03  0.88243820442E+03  0.10100000352E+00 0.  1.
       -3    1    3    3    0  502 -0.41830051871E+02 -0.83573289208E+03 -0.26198741196E+03  0.87683329908E+03  0.10100000352E+00 0. -1.
</event>
<event>
 5   0  0.6547153E-04  0.1836319E+04  0.7818609E-02  0.8687220E-01
        2   -1    0    0  501    0  0.00000000000E+00  0.00000000000E+00  0.90651085478E+03  0.90651085478E+03  0.25500000920E-02 0.  1.
       -2   -1    0    0    0  501  0.00000000000E+00  0.00000000000E+00 -0.92995817441E+03  0.92995817441E+03  0.25500000920E-02 0. -1.
    10030    2    1    2    0    0  0.00000000000E+00  0.00000000000E+00 -0.23447319630E+02  0.18364690292E+04  0.18363193400E+04 0.  0.
        5    1    3    3  502    0 -0.23820140656E+03 -0.67453339616E+03  0.56387505897E+03  0.91088549486E+03  0.46999998093E+01 0.  1.
       -5    1    3    3    0  502  0.23820140656E+03  0.67453339616E+03 -0.58732237860E+03  0.92558353433E+03  0.46999998093E+01 0. -1.
</event>
<event>
 5   0  0.6771967E-04  0.1698145E+04  0.7818609E-02  0.8762423E-01
        2   -1    0    0  501    0  0.00000000000E+00  0.00000000000E+00  0.10952487281E+04  0.10952487281E+04  0.25500000920E-02 0.  1.
       -2   -1    0    0    0  501  0.00000000000E+00  0.00000000000E+00 -0.65822881523E+03  0.65822881523E+03  0.25500000920E-02 0. -1.
    10030    2    1    2    0    0  0.00000000000E+00  0.00000000000E+00  0.43701991289E+03  0.17534775434E+04  0.16981451913E+04 0.  0.
        1    1    3    3  502    0  0.75276009277E+03 -0.89402055741E+02 -0.17642310089E+03  0.77830944706E+03  0.50400001928E-02 0. -1.
       -1    1    3    3    0  502 -0.75276009277E+03  0.89402055741E+02  0.61344301378E+03  0.97516809629E+03  0.50400001928E-02 0.  1.
</event>
<event>
 5   0  0.3470962E-04  0.1773078E+04  0.7818609E-02  0.8720749E-01
        1   -1    0    0  501    0  0.00000000000E+00  0.00000000000E+00  0.11352208201E+04  0.11352208201E+04  0.50400001928E-02 0.  1.
       -1   -1    0    0    0  501  0.00000000000E+00  0.00000000000E+00 -0.69233360846E+03  0.69233360848E+03  0.50400001928E-02 0. -1.
    10030    2    1    2    0    0  0.00000000000E+00  0.00000000000E+00  0.44288721160E+03  0.18275544286E+04  0.17730781447E+04 0.  0.
        4    1    3    3  502    0  0.37986434061E+03 -0.62983062292E+03 -0.28870380683E+03  0.79014874031E+03  0.12699999809E+01 0. -1.
       -4    1    3    3    0  502 -0.37986434061E+03  0.62983062292E+03  0.73159101843E+03  0.10374056882E+04  0.12699999809E+01 0.  1.
</event>
<event>
 5   0  0.3308275E-04  0.1797386E+04  0.7818609E-02  0.8707691E-01
        1   -1    0    0  501    0  0.00000000000E+00  0.00000000000E+00  0.18499588175E+04  0.18499588175E+04  0.50400001928E-02 0. -1.
       -1   -1    0    0    0  501  0.00000000000E+00  0.00000000000E+00 -0.43657683162E+03  0.43657683165E+03  0.50400001928E-02 0.  1.
    10030    2    1    2    0    0  0.00000000000E+00  0.00000000000E+00  0.14133819859E+04  0.22865356492E+04  0.17973860567E+04 0.  0.
        3    1    3    3  502    0  0.34359354981E+03  0.82314822405E+03  0.56722059893E+03  0.10570566419E+04  0.10100000352E+00 0. -1.
       -3    1    3    3    0  502 -0.34359354981E+03 -0.82314822405E+03  0.84616138699E+03  0.12294790072E+04  0.10100000352E+00 0.  1.
</event>
<event>
 5   0  0.3404261E-04  0.1833502E+04  0.7818609E-02  0.8688684E-01
       -1   -1    0    0    0  501  0.00000000000E+00  0.00000000000E+00  0.14183760240E+04  0.14183760240E+04  0.50400001928E-02 0. -1.
        1   -1    0    0  501    0  0.00000000000E+00  0.00000000000E+00 -0.59253155143E+03  0.59253155145E+03  0.50400001928E-02 0.  1.
    10030    2    1    2    0    0  0.00000000000E+00  0.00000000000E+00  0.82584447259E+03  0.20109075755E+04  0.18335021637E+04 0.  0.
        1    1    3    3  502    0 -0.75077739619E+02 -0.33848720008E+03  0.13436956372E+04  0.13877060990E+04  0.50400001928E-02 0. -1.
       -1    1    3    3    0  502  0.75077739619E+02  0.33848720008E+03 -0.51785116463E+03  0.62320147652E+03  0.50400001928E-02 0.  1.
</event>
<event>
 5   0  0.6853162E-04  0.1799624E+04  0.7818609E-02  0.8706499E-01
       -2   -1    0    0    0  501  0.00000000000E+00  0.00000000000E+00  0.13057059731E+04  0.13057059731E+04  0.25500000920E-02 0. -1.
        2   -1    0    0  501    0  0.00000000000E+00  0.00000000000E+00 -0.62009498021E+03  0.62009498022E+03  0.25500000920E-02 0.  1.
    10030    2    1    2    0    0  0.00000000000E+00  0.00000000000E+00  0.68561099287E+03  0.19258009533E+04  0.17996240936E+04 0.  0.
        2    1    3    3  502    0  0.81818542095E+02 -0.82956907521E+03  0.70535525335E+03  0.10919730573E+04  0.25500000920E-02 0. -1.
       -2    1    3    3    0  502 -0.81818542095E+02  0.82956907521E+03 -0.19744260475E+02  0.83382789603E+03  0.25500000920E-02 0.  1.
</event>
<event>
 5   0  0.3404261E-04  0.1809216E+04  0.7818609E-02  0.8701414E-01
       -1   -1    0    0    0  501  0.00000000000E+00  0.00000000000E+00  0.35530442990E+03  0.35530442994E+03  0.50400001928E-02 0. -1.
        1   -1    0    0  501    0  0.00000000000E+00  0.00000000000E+00 -0.23031383043E+04  0.23031383043E+04  0.50400001928E-02 0.  1.
    10030    2    1    2    0    0  0.00000000000E+00  0.00000000000E+00 -0.19478338744E+04  0.26584427342E+04  0.18092155673E+04 0.  0.
        1    1    3    3  502    0 -0.13014519955E+03 -0.26231803699E+03  0.28373535063E+03  0.40774290272E+03  0.50400001928E-02 0. -1.
       -1    1    3    3    0  502  0.13014519955E+03  0.26231803699E+03 -0.22315692250E+04  0.22506998315E+04  0.50400001928E-02 0.  1.
</event>
<event>
 5   0  0.2467375E-04  0.1738773E+04  0.7818609E-02  0.8739555E-01
        4   -1    0    0  501    0  0.00000000000E+00  0.00000000000E+00  0.82783064859E+03  0.82783162276E+03  0.12699999809E+01 0. -1.
       -4   -1    0    0    0  501  0.00000000000E+00  0.00000000000E+00 -0.91302599946E+03  0.91302688273E+03  0.12699999809E+01 0.  1.
    10030    2    1    2    0    0  0.00000000000E+00  0.00000000000E+00 -0.85195350869E+02  0.17408585055E+04  0.17387725810E+04 0.  0.
        5    1    3    3  502    0 -0.32242357265E+03  0.11261365271E+03  0.75784353159E+03  0.83125670124E+03  0.46999998093E+01 0. -1.
       -5    1    3    3    0  502  0.32242357265E+03 -0.11261365271E+03 -0.84303888246E+03  0.90960180426E+03  0.46999998093E+01 0.  1.
</event>
<event>
 5   0  0.3470962E-04  0.1813590E+04  0.7818609E-02  0.8699106E-01
        1   -1    0    0  501    0  0.00000000000E+00  0.00000000000E+00  0.13622508615E+04  0.13622508615E+04  0.50400001928E-02 0. -1.
       -1   -1    0    0    0  501  0.00000000000E+00  0.00000000000E+00 -0.60361673181E+03  0.60361673183E+03  0.50400001928E-02 0.  1.
    10030    2    1    2    0    0  0.00000000000E+00  0.00000000000E+00  0.75863412970E+03  0.19658675933E+04  0.18135902657E+04 0.  0.
        4    1    3    3  502    0  0.28952949511E+03  0.52442541899E+02  0.13090644152E+04  0.13417260543E+04  0.12699999809E+01 0. -1.
       -4    1    3    3    0  502 -0.28952949511E+03 -0.52442541899E+02 -0.55043028547E+03  0.62414153908E+03  0.12699999809E+01 0.  1.
</event>
<event>
 5   0  0.6771967E-04  0.1798961E+04  0.7818609E-02  0.8706852E-01
        2   -1    0    0  501    0  0.00000000000E+00  0.00000000000E+00  0.15491264668E+04  0.15491264668E+04  0.25500000920E-02 0.  1.
       -2   -1    0    0    0  501  0.00000000000E+00  0.00000000000E+00 -0.52227202590E+03  0.52227202590E+03  0.25500000920E-02 0. -1.
    10030    2    1    2    0    0  0.00000000000E+00  0.00000000000E+00  0.10268544409E+04  0.20713984927E+04  0.17989612760E+04 0.  0.
        1    1    3    3  502    0  0.72032008155E+03  0.60988421854E+01 -0.10682167884E+03  0.72822323971E+03  0.50400001928E-02 0. -1.
       -1    1    3    3    0  502 -0.72032008155E+03 -0.60988421854E+01  0.11336761197E+04  0.13431752530E+04  0.50400001928E-02 0.  1.
</event>
<event>
 5   0  0.6929121E-04  0.1764106E+04  0.7818609E-02  0.8725624E-01
        2   -1    0    0  501    0  0.00000000000E+00  0.00000000000E+00  0.13758815839E+04  0.13758815839E+04  0.25500000920E-02 0.  1.
       -2   -1    0    0    0  501  0.00000000000E+00  0.00000000000E+00 -0.56546818531E+03  0.56546818532E+03  0.25500000920E-02 0. -1.
    10030    2    1    2    0    0  0.00000000000E+00  0.00000000000E+00  0.81041339855E+03  0.19413497692E+04  0.17641057366E+04 0.  0.
        3    1    3    3  502    0  0.59953340515E+03  0.22739780307E+03 -0.26134464920E+03  0.69242407569E+03  0.10100000352E+00 0. -1.
       -3    1    3    3    0  502 -0.59953340515E+03 -0.22739780307E+03  0.10717580478E+04  0.12489256935E+04  0.10100000352E+00 0.  1.
</event>
<event>
 5   0  0.3377273E-04  0.1831339E+04  0.7818609E-02  0.8689809E-01
       -1   -1    0    0    0  501  0.00000000000E+00  0.00000000000E+00  0.16074074830E+04  0.16074074830E+04  0.50400001928E-02 0. -1.
        1   -1    0    0  501    0  0.00000000000E+00  0.00000000000E+00 -0.52161697318E+03  0.52161697320E+03  0.50400001928E-02 0.  1.
    10030    2    1    2    0    0  0.00000000000E+00  0.00000000000E+00  0.10857905098E+04  0.21290244562E+04  0.18313394289E+04 0.  0.
        2    1    3    3  502    0 -0.71709771777E+03  0.48280034825E+03  0.19195573816E+03  0.88553504647E+03  0.25500000920E-02 0.  1.
       -2    1    3    3    0  502  0.71709771777E+03 -0.48280034825E+03  0.89383477167E+03  0.12434894097E+04  0.25500000920E-02 0. -1.
</event>
<event>
 5   0  0.2467375E-04  0.1829909E+04  0.7818609E-02  0.8690554E-01
        3   -1    0    0  501    0  0.00000000000E+00  0.00000000000E+00  0.15928539662E+04  0.15928539694E+04  0.10100000352E+00 0. -1.
       -3   -1    0    0    0  501  0.00000000000E+00  0.00000000000E+00 -0.52556107888E+03  0.52556108859E+03  0.10100000352E+00 0.  1.
    10030    2    1    2    0    0  0.00000000000E+00  0.00000000000E+00  0.10672928873E+04  0.21184150580E+04  0.18299093558E+04 0.  0.
        3    1    3    3  502    0 -0.30284644542E+02 -0.32957029455E+03  0.15211309802E+04  0.15567187312E+04  0.10100000352E+00 0. -1.
       -3    1    3    3    0  502  0.30284644542E+02  0.32957029455E+03 -0.45383809294E+03  0.56169632680E+03  0.10100000352E+00 0.  1.
</event>
<event>
 5   0  0.3413839E-04  0.1799113E+04  0.7818609E-02  0.8706772E-01
       -1   -1    0    0    0  501  0.00000000000E+00  0.00000000000E+00  0.95954491372E+03  0.95954491374E+03  0.50400001928E-02 0. -1.
        1   -1    0    0  501    0  0.00000000000E+00  0.00000000000E+00 -0.84331802695E+03  0.84331802696E+03  0.50400001928E-02 0.  1.
    10030    2    1    2    0    0  0.00000000000E+00  0.00000000000E+00  0.11622688677E+03  0.18028629407E+04  0.17991125851E+04 0.  0.
        5    1    3    3  502    0  0.65545752995E+03 -0.53598441029E+03 -0.24628872552E+03  0.88180728505E+03  0.46999998093E+01 0.  1.
       -5    1    3    3    0  502 -0.65545752995E+03  0.53598441029E+03  0.36251561229E+03  0.92105565565E+03  0.46999998093E+01 0. -1.
</event>
<event>
 5   0  0.6547153E-04  0.1297477E+04  0.7818609E-02  0.9031568E-01
        2   -1    0    0  501    0  0.00000000000E+00  0.00000000000E+00  0.12111435264E+04  0.12111435264E+04  0.25500000920E-02 0.  1.
       -2   -1    0    0    0  501  0.00000000000E+00  0.00000000000E+00 -0.34749114689E+03  0.34749114690E+03  0.25500000920E-02 0. -1.
    10030    2    1    2    0    0  0.00000000000E+00  0.00000000000E+00  0.86365237947E+03  0.15586346733E+04  0.12974770180E+04 0.  0.
        5    1    3    3  502    0  0.52111649072E+03  0.28689736737E+03  0.74269367323E+03  0.95157158352E+03  0.46999998093E+01 0.  1.
       -5    1    3    3    0  502 -0.52111649072E+03 -0.28689736737E+03  0.12095870624E+03  0.60706308974E+03  0.46999998093E+01 0. -1.
</event>
<event>
 5   0  0.6771967E-04  0.1810564E+04  0.7818609E-02  0.8700702E-01
       -2   -1    0    0    0  501  0.00000000000E+00  0.00000000000E+00  0.14991214018E+04  0.14991214018E+04  0.25500000920E-02 0. -1.
        2   -1    0    0  501    0  0.00000000000E+00  0.00000000000E+00 -0.54667721025E+03  0.54667721026E+03  0.25500000920E-02 0.  1.
    10030    2    1    2    0    0  0.00000000000E+00  0.00000000000E+00  0.95244419155E+03  0.20457986121E+04  0.18105640069E+04 0.  0.
        1    1    3    3  502    0 -0.69050541133E+03 -0.83418164033E+02 -0.17852847742E+03  0.71807292836E+03  0.50400001928E-02 0.  1.
       -1    1    3    3    0  502  0.69050541133E+03  0.83418164033E+02  0.11309726690E+04  0.13277256837E+04  0.50400001928E-02 0. -1.
</event>
<event>
 5   0  0.3413839E-04  0.1757341E+04  0.7818609E-02  0.8729320E-01
        1   -1    0    0  501    0  0.00000000000E+00  0.00000000000E+00  0.90428056376E+03  0.90428056377E+03  0.50400001928E-02 0.  1.
       -1   -1    0    0    0  501  0.00000000000E+00  0.00000000000E+00 -0.85378586900E+03  0.85378586902E+03  0.50400001928E-02 0. -1.
    10030    2    1    2    0    0  0.00000000000E+00  0.00000000000E+00  0.50494694754E+02  0.17580664328E+04  0.17573411359E+04 0.  0.
        5    1    3    3  502    0 -0.76625752831E+02 -0.73210680303E+02  0.89785075374E+03  0.90409588856E+03  0.46999998093E+01 0.  1.
       -5    1    3    3    0  502  0.76625752831E+02  0.73210680303E+02 -0.84735605899E+03  0.85397054423E+03  0.46999998093E+01 0. -1.
</event>
<event>
 5   0  0.3470962E-04  0.1877659E+04  0.7818609E-02  0.8666057E-01
       -1   -1    0    0    0  501  0.00000000000E+00  0.00000000000E+00  0.46373626452E+03  0.46373626454E+03  0.50400001928E-02 0. -1.
        1   -1    0    0  501    0  0.00000000000E+00  0.00000000000E+00 -0.19006515597E+04  0.19006515597E+04  0.50400001928E-02 0.  1.
    10030    2    1    2    0    0  0.00000000000E+00  0.00000000000E+00 -0.14369152952E+04  0.23643878242E+04  0.18776592390E+04 0.  0.
        4    1    3    3  502    0  0.79259143853E+03 -0.28230075567E+03 -0.12429719716E+04  0.15009583073E+04  0.12699999809E+01 0.  1.
       -4    1    3    3    0  502 -0.79259143853E+03  0.28230075567E+03 -0.19394332355E+03  0.86342951695E+03  0.12699999809E+01 0. -1.
</event>
<event>
 5   0  0.6774451E-04  0.1971918E+04  0.7818609E-02  0.8619864E-01
       -2   -1    0    0    0  501  0.00000000000E+00  0.00000000000E+00  0.62416911507E+03  0.62416911508E+03  0.25500000920E-02 0. -1.
        2   -1    0    0  501    0  0.00000000000E+00  0.00000000000E+00 -0.15574541284E+04  0.15574541284E+04  0.25500000920E-02 0.  1.
    10030    2    1    2    0    0  0.00000000000E+00  0.00000000000E+00 -0.93328501331E+03  0.21816232435E+04  0.19719176099E+04 0.  0.
        4    1    3    3  502    0  0.14032924616E+03  0.96705961937E+03 -0.32147680473E+03  0.10287106268E+04  0.12699999809E+01 0. -1.
       -4    1    3    3    0  502 -0.14032924616E+03 -0.96705961937E+03 -0.61180820858E+03  0.11529126167E+04  0.12699999809E+01 0.  1.
</event>
<event>
 5   0  0.6929121E-04  0.1827576E+04  0.7818609E-02  0.8691771E-01
       -2   -1    0    0    0  501  0.00000000000E+00  0.00000000000E+00  0.48662492782E+03  0.48662492783E+03  0.25500000920E-02 0. -1.
        2   -1    0    0  501    0  0.00000000000E+00  0.00000000000E+00 -0.17159184871E+04  0.17159184871E+04  0.25500000920E-02 0.  1.
    10030    2    1    2    0    0  0.00000000000E+00  0.00000000000E+00 -0.12292935593E+04  0.22025434150E+04  0.18275762200E+04 0.  0.
        3    1    3    3  502    0  0.10163209396E+03  0.89902695790E+03 -0.76912586641E+03  0.11874902788E+04  0.10100000352E+00 0. -1.
       -3    1    3    3    0  502 -0.10163209396E+03 -0.89902695790E+03 -0.46016769291E+03  0.10150531362E+04  0.10100000352E+00 0.  1.
</event>
<event>
 5   0  0.6547153E-04  0.1802171E+04  0.7818609E-02  0.8705146E-01
       -2   -1    0    0    0  501  0.00000000000E+00  0.00000000000E+00  0.89350596183E+03  0.89350596183E+03  0.25500000920E-02 0.  1.
        2   -1    0    0  501    0  0.00000000000E+00  0.00000000000E+00 -0.90872924029E+03  0.90872924029E+03  0.25500000920E-02 0. -1.
    10030    2    1    2    0    0  0.00000000000E+00  0.00000000000E+00 -0.15223278455E+02  0.18022352021E+04  0.18021709063E+04 0.  0.
        5    1    3    3  502    0 -0.43021194047E+03 -0.57924543140E+03  0.53215322429E+03  0.89655826785E+03  0.46999998093E+01 0.  1.
       -5    1    3    3    0  502  0.43021194047E+03  0.57924543140E+03 -0.54737650274E+03  0.90567693428E+03  0.46999998093E+01 0. -1.
</event>
<event>
 5   0  0.6547153E-04  0.1814982E+04  0.7818609E-02  0.8698372E-01
        2   -1    0    0  501    0  0.00000000000E+00  0.00000000000E+00  0.14134310747E+04  0.14134310747E+04  0.25500000920E-02 0.  1.
       -2   -1    0    0    0  501  0.00000000000E+00  0.00000000000E+00 -0.58265319795E+03  0.58265319796E+03  0.25500000920E-02 0. -1.
    10030    2    1    2    0    0  0.00000000000E+00  0.00000000000E+00  0.83077787670E+03  0.19960842726E+04  0.18149822431E+04 0.  0.
        5    1    3    3  502    0  0.50132769593E+03  0.63296420821E+02  0.12443808348E+04  0.13430717210E+04  0.46999998093E+01 0.  1.
       -5    1    3    3    0  502 -0.50132769593E+03 -0.63296420821E+02 -0.41360295814E+03  0.65301255162E+03  0.46999998093E+01 0. -1.
</event>
<event>
 5   0  0.6547153E-04  0.1787925E+04  0.7818609E-02  0.8712747E-01
       -2   -1    0    0    0  501  0.00000000000E+00  0.00000000000E+00  0.70794448849E+03  0.70794448850E+03  0.25500000920E-02 0.  1.
        2   -1    0    0  501    0  0.00000000000E+00  0.00000000000E+00 -0.11288584630E+04  0.11288584630E+04  0.25500000920E-02 0. -1.
    10030    2    1    2    0    0  0.00000000000E+00  0.00000000000E+00 -0.42091397451E+03  0.18368029515E+04  0.17879251966E+04 0.  0.
        5    1    3    3  502    0 -0.46359826287E+02  0.54206567673E+02  0.70500377267E+03  0.70861837046E+03  0.46999998093E+01 0.  1.
       -5    1    3    3    0  502  0.46359826287E+02 -0.54206567673E+02 -0.11259177472E+04  0.11281845810E+04  0.46999998093E+01 0. -1.
</event>
<event>
 5   0  0.3413839E-04  0.1351035E+04  0.7818609E-02  0.8990045E-01
        1   -1    0    0  501    0  0.00000000000E+00  0.00000000000E+00  0.10391057910E+04  0.10391057910E+04  0.50400001928E-02 0. -1.
       -1   -1    0    0    0  501  0.00000000000E+00  0.00000000000E+00 -0.43915079384E+03  0.43915079387E+03  0.50400001928E-02 0.  1.
    10030    2    1    2    0    0  0.00000000000E+00  0.00000000000E+00  0.59995499720E+03  0.14782565849E+04  0.13510353556E+04 0.  0.
        5    1    3    3  502    0  0.53150293196E+03  0.22236965418E+03  0.68582944375E+03  0.89572749522E+03  0.46999998093E+01 0. -1.
       -5    1    3    3    0  502 -0.53150293196E+03 -0.22236965418E+03 -0.85874446549E+02  0.58252908970E+03  0.46999998093E+01 0.  1.
</event>
<event>
 5   0  0.6771967E-04  0.1789222E+04  0.7818609E-02  0.8712052E-01
       -2   -1    0    0    0  501  0.00000000000E+00  0.00000000000E+00  0.75797855992E+03  0.75797855993E+03  0.25500000920E-02 0.  1.
        2   -1    0    0  501    0  0.00000000000E+00  0.00000000000E+00 -0.10558726963E+04  0.10558726963E+04  0.25500000920E-02 0. -1.
    10030    2    1    2    0    0  0.00000000000E+00  0.00000000000E+00 -0.29789413638E+03  0.18138512562E+04  0.17892220274E+04 0.  0.
        1    1    3    3  502    0  0.46973877353E+03 -0.16797819565E+03  0.60387705525E+03  0.78328710410E+03  0.50400001928E-02 0.  1.
       -1    1    3    3    0  502 -0.46973877353E+03  0.16797819565E+03 -0.90177119163E+03  0.10305641521E+04  0.50400001928E-02 0. -1.
</event>
<event>
 5   0  0.3377273E-04  0.1803700E+04  0.7818609E-02  0.8704335E-01
        1   -1    0    0  501    0  0.00000000000E+00  0.00000000000E+00  0.89976360314E+03  0.89976360316E+03  0.50400001928E-02 0.  1.
       -1   -1    0    0    0  501  0.00000000000E+00  0.00000000000E+00 -0.90394087414E+03  0.90394087416E+03  0.50400001928E-02 0. -1.
    10030    2    1    2    0    0  0.00000000000E+00  0.00000000000E+00 -0.41772709993E+01  0.18037044773E+04  0.18036996402E+04 0.  0.
        2    1    3    3  502    0 -0.69684859370E+03  0.34838173251E+03 -0.45636433454E+03  0.90290431383E+03  0.25500000920E-02 0. -1.
       -2    1    3    3    0  502  0.69684859370E+03 -0.34838173251E+03  0.45218706354E+03  0.90080016348E+03  0.25500000920E-02 0.  1.
</event>
<event>
 5   0  0.3377273E-04  0.1453236E+04  0.7818609E-02  0.8916160E-01
        1   -1    0    0  501    0  0.00000000000E+00  0.00000000000E+00  0.10619120160E+04  0.10619120160E+04  0.50400001928E-02 0. -1.
       -1   -1    0    0    0  501  0.00000000000E+00  0.00000000000E+00 -0.49719159808E+03  0.49719159810E+03  0.50400001928E-02 0.  1.
    10030    2    1    2    0    0  0.00000000000E+00  0.00000000000E+00  0.56472041788E+03  0.15591036141E+04  0.14532360197E+04 0.  0.
        2    1    3    3  502    0  0.27620251193E+03 -0.63704103170E+03  0.51212197726E+03  0.86277344840E+03  0.25500000920E-02 0. -1.
       -2    1    3    3    0  502 -0.27620251193E+03  0.63704103170E+03  0.52598440621E+02  0.69633016567E+03  0.25500000920E-02 0.  1.
</event>
<event>
 5   0  0.3308275E-04  0.1835510E+04  0.7818609E-02  0.8687640E-01
        1   -1    0    0  501    0  0.00000000000E+00  0.00000000000E+00  0.10831240268E+04  0.10831240268E+04  0.50400001928E-02 0. -1.
       -1   -1    0    0    0  501  0.00000000000E+00  0.00000000000E+00 -0.77763394814E+03  0.77763394815E+03  0.50400001928E-02 0.  1.
    10030    2    1    2    0    0  0.00000000000E+00  0.00000000000E+00  0.30549007864E+03  0.18607579749E+04  0.18355097529E+04 0.  0.
        3    1    3    3  502    0 -0.44751343682E+03  0.47019695260E+03  0.81045324244E+03  0.10383582805E+04  0.10100000352E+00 0. -1.
       -3    1    3    3    0  502  0.44751343682E+03 -0.47019695260E+03 -0.50496316380E+03  0.82239969441E+03  0.10100000352E+00 0.  1.
</event>
<event>
 5   0  0.6771967E-04  0.1730291E+04  0.7818609E-02  0.8744274E-01
        2   -1    0    0  501    0  0.00000000000E+00  0.00000000000E+00  0.18895762178E+04  0.18895762178E+04  0.25500000920E-02 0. -1.
       -2   -1    0    0    0  501  0.00000000000E+00  0.00000000000E+00 -0.39610820230E+03  0.39610820231E+03  0.25500000920E-02 0.  1.
    10030    2    1    2    0    0  0.00000000000E+00  0.00000000000E+00  0.14934680155E+04  0.22856844201E+04  0.17302908874E+04 0.  0.
        1    1    3    3  502    0  0.51084874096E+03 -0.17077394209E+03 -0.14758835339E+03  0.55849126897E+03  0.50400001928E-02 0.  1.
       -1    1    3    3    0  502 -0.51084874096E+03  0.17077394209E+03  0.16410563689E+04  0.17271931511E+04  0.50400001928E-02 0. -1.
</event>
<event>
 5   0  0.3470962E-04  0.1141567E+04  0.7818609E-02  0.9165599E-01
       -1   -1    0    0    0  501  0.00000000000E+00  0.00000000000E+00  0.21726397004E+03  0.21726397010E+03  0.50400001928E-02 0.  1.
        1   -1    0    0  501    0  0.00000000000E+00  0.00000000000E+00 -0.14995302502E+04  0.14995302502E+04  0.50400001928E-02 0. -1.
    10030    2    1    2    0    0  0.00000000000E+00  0.00000000000E+00 -0.12822662802E+04  0.17167942203E+04  0.11415671604E+04 0.  0.
        4    1    3    3  502    0 -0.86105061296E+02 -0.37318056531E+03 -0.12776092509E+04  0.13337784025E+04  0.12699999809E+01 0. -1.
       -4    1    3    3    0  502  0.86105061296E+02  0.37318056531E+03 -0.46570292427E+01  0.38301581786E+03  0.12699999809E+01 0.  1.
</event>
<event>
 5   0  0.3470962E-04  0.1794124E+04  0.7818609E-02  0.8709431E-01
        1   -1    0    0  501    0  0.00000000000E+00  0.00000000000E+00  0.75609528425E+03  0.75609528427E+03  0.50400001928E-02 0. -1.
       -1   -1    0    0    0  501  0.00000000000E+00  0.00000000000E+00 -0.10643105558E+04  0.10643105558E+04  0.50400001928E-02 0.  1.
    10030    2    1    2    0    0  0.00000000000E+00  0.00000000000E+00 -0.30821527154E+03  0.18204058401E+04  0.17941239559E+04 0.  0.
        4    1    3    3  502    0 -0.78727826252E+02 -0.10604837579E+03 -0.10543901158E+04  0.10626309133E+04  0.12699999809E+01 0.  1.
       -4    1    3    3    0  502  0.78727826252E+02  0.10604837579E+03  0.74617484425E+03  0.75777492682E+03  0.12699999809E+01 0. -1.
</event>
<event>
 5   0  0.3413839E-04  0.1646797E+04  0.7818609E-02  0.8792304E-01
       -1   -1    0    0    0  501  0.00000000000E+00  0.00000000000E+00  0.11583131578E+04  0.11583131578E+04  0.50400001928E-02 0.  1.
        1   -1    0    0  501    0  0.00000000000E+00  0.00000000000E+00 -0.58532092120E+03  0.58532092122E+03  0.50400001928E-02 0. -1.
    10030    2    1    2    0    0  0.00000000000E+00  0.00000000000E+00  0.57299223662E+03  0.17436340791E+04  0.16467967994E+04 0.  0.
        5    1    3    3  502    0 -0.64462326511E+03 -0.44856547764E+02  0.82680918819E+03  0.10493744744E+04  0.46999998093E+01 0.  1.
       -5    1    3    3    0  502  0.64462326511E+03  0.44856547764E+02 -0.25381695156E+03  0.69425960469E+03  0.46999998093E+01 0. -1.
</event>
<event>
 5   0  0.6853162E-04  0.1486848E+04  0.7818609E-02  0.8893246E-01
        2   -1    0    0  501    0  0.00000000000E+00  0.00000000000E+00  0.63194520642E+03  0.63194520642E+03  0.25500000920E-02 0.  1.
       -2   -1    0    0    0  501  0.00000000000E+00  0.00000000000E+00 -0.87456872744E+03  0.87456872744E+03  0.25500000920E-02 0. -1.
    10030    2    1    2    0    0  0.00000000000E+00  0.00000000000E+00 -0.24262352102E+03  0.15065139339E+04  0.14868483648E+04 0.  0.
        2    1    3    3  502    0 -0.44904332789E+03  0.25267587093E+03 -0.66430514609E+03  0.84070585415E+03  0.25500000920E-02 0. -1.
       -2    1    3    3    0  502  0.44904332789E+03 -0.25267587093E+03  0.42168162507E+03  0.66580807971E+03  0.25500000920E-02 0.  1.
</event>
<event>
 5   0  0.6774451E-04  0.1896631E+04  0.7818609E-02  0.8656535E-01
        2   -1    0    0  501    0  0.00000000000E+00  0.00000000000E+00  0.74033939846E+03  0.74033939847E+03  0.25500000920E-02 0. -1.
       -2   -1    0    0    0  501  0.00000000000E+00  0.00000000000E+00 -0.12147163814E+04  0.12147163814E+04  0.25500000920E-02 0.  1.
    10030    2    1    2    0    0  0.00000000000E+00  0.00000000000E+00 -0.47437698292E+03  0.19550557798E+04  0.18966311134E+04 0.  0.
        4    1    3    3  502    0 -0.64168739973E+03  0.22547168096E+03 -0.91837834213E+03  0.11428125787E+04  0.12699999809E+01 0.  1.
       -4    1    3    3    0  502  0.64168739973E+03 -0.22547168096E+03  0.44400135921E+03  0.81224320113E+03  0.12699999809E+01 0. -1.
</event>
<event>
 5   0  0.6547153E-04  0.1712555E+04  0.7818609E-02  0.8754236E-01
       -2   -1    0    0    0  501  0.00000000000E+00  0.00000000000E+00  0.71117438949E+03  0.71117438949E+03  0.25500000920E-02 0.  1.
        2   -1    0    0  501    0  0.00000000000E+00  0.00000000000E+00 -0.10309863956E+04  0.10309863956E+04  0.25500000920E-02 0. -1.
    10030    2    1    2    0    0  0.00000000000E+00  0.00000000000E+00 -0.31981200609E+03  0.17421607851E+04  0.17125549573E+04 0.  0.
        5    1    3    3  502    0  0.73002683339E+02  0.66453444293E+03 -0.70418202873E+03  0.97099425188E+03  0.46999998093E+01 0. -1.
       -5    1    3    3    0  502 -0.73002683339E+02 -0.66453444293E+03  0.38437002264E+03  0.77116653319E+03  0.46999998093E+01 0.  1.
</event>
<event>
 5   0  0.6929121E-04  0.1834801E+04  0.7818609E-02  0.8688009E-01
        2   -1    0    0  501    0  0.00000000000E+00  0.00000000000E+00  0.10897835107E+04  0.10897835107E+04  0.25500000920E-02 0.  1.
       -2   -1    0    0    0  501  0.00000000000E+00  0.00000000000E+00 -0.77228512116E+03  0.77228512116E+03  0.25500000920E-02 0. -1.
    10030    2    1    2    0    0  0.00000000000E+00  0.00000000000E+00  0.31749838953E+03  0.18620686318E+04  0.18348009054E+04 0.  0.
        3    1    3    3  502    0 -0.58462954436E+03  0.31345742747E+03  0.80186737197E+03  0.10406913834E+04  0.10100000352E+00 0.  1.
       -3    1    3    3    0  502  0.58462954436E+03 -0.31345742747E+03 -0.48436898244E+03  0.82137724849E+03  0.10100000352E+00 0. -1.
</event>
<event>
 5   0  0.6547153E-04  0.1795747E+04  0.7818609E-02  0.8708565E-01
        2   -1    0    0  501    0  0.00000000000E+00  0.00000000000E+00  0.20088799580E+04  0.20088799580E+04  0.25500000920E-02 0. -1.
       -2   -1    0    0    0  501  0.00000000000E+00  0.00000000000E+00 -0.40130651914E+03  0.40130651915E+03  0.25500000920E-02 0.  1.
    10030    2    1    2    0    0  0.00000000000E+00  0.00000000000E+00  0.16075734389E+04  0.24101864772E+04  0.17957467787E+04 0.  0.
        5    1    3    3  502    0  0.16175403195E+03 -0.88073942302E+03  0.71589562973E+03  0.11464706454E+04  0.46999998093E+01 0. -1.
       -5    1    3    3    0  502 -0.16175403195E+03  0.88073942302E+03  0.89167780913E+03  0.12637158317E+04  0.46999998093E+01 0.  1.
</event>
<event>
 5   0  0.6853162E-04  0.1840162E+04  0.7818609E-02  0.8685229E-01
       -2   -1    0    0    0  501  0.00000000000E+00  0.00000000000E+00  0.67897741431E+03  0.67897741431E+03  0.25500000920E-02 0. -1.
        2   -1    0    0  501    0  0.00000000000E+00  0.00000000000E+00 -0.12467993876E+04  0.12467993876E+04  0.25500000920E-02 0.  1.
    10030    2    1    2    0    0  0.00000000000E+00  0.00000000000E+00 -0.56782197333E+03  0.19257768020E+04  0.18401615412E+04 0.  0.
        2    1    3    3  502    0 -0.47575926299E+03 -0.34773495046E+02  0.53945460280E+03  0.72011619949E+03  0.25500000920E-02 0. -1.
       -2    1    3    3    0  502  0.47575926299E+03  0.34773495046E+02 -0.11072765761E+04  0.12056606025E+04  0.25500000920E-02 0.  1.
</event>
<event>
 5   0  0.3404261E-04  0.1795286E+04  0.7818609E-02  0.8708811E-01
        1   -1    0    0  501    0  0.00000000000E+00  0.00000000000E+00  0.14991480264E+04  0.14991480264E+04  0.50400001928E-02 0. -1.
       -1   -1    0    0    0  501  0.00000000000E+00  0.00000000000E+00 -0.53748039333E+03  0.53748039335E+03  0.50400001928E-02 0.  1.
    10030    2    1    2    0    0  0.00000000000E+00  0.00000000000E+00  0.96166763304E+03  0.20366284197E+04  0.17952856830E+04 0.  0.
        1    1    3    3  502    0  0.66593920973E+03 -0.59144845161E+03  0.35412047724E+03  0.95848193223E+03  0.50400001928E-02 0. -1.
       -1    1    3    3    0  502 -0.66593920973E+03  0.59144845161E+03  0.60754715580E+03  0.10781464875E+04  0.50400001928E-02 0.  1.
</event>
<event>
 5   0  0.3470962E-04  0.1795487E+04  0.7818609E-02  0.8708703E-01
       -1   -1    0    0    0  501  0.00000000000E+00  0.00000000000E+00  0.85079530085E+03  0.85079530086E+03  0.50400001928E-02 0.  1.
        1   -1    0    0  501    0  0.00000000000E+00  0.00000000000E+00 -0.94728267623E+03  0.94728267624E+03  0.50400001928E-02 0. -1.
    10030    2    1    2    0    0  0.00000000000E+00  0.00000000000E+00 -0.96487375380E+02  0.17980779771E+04  0.17954872871E+04 0.  0.
        4    1    3    3  502    0 -0.29373501976E+03 -0.62776449740E+03  0.52317010434E+03  0.86837612645E+03  0.12699999809E+01 0.  1.
       -4    1    3    3    0  502  0.29373501976E+03  0.62776449740E+03 -0.61965747972E+03  0.92970185065E+03  0.12699999809E+01 0. -1.
</event>
<event>
 5   0  0.6774451E-04  0.2049313E+04  0.7818609E-02  0.8583906E-01
        2   -1    0    0  501    0  0.00000000000E+00  0.00000000000E+00  0.11464870171E+04  0.11464870171E+04  0.25500000920E-02 0.  1.
       -2   -1    0    0    0  501  0.00000000000E+00  0.00000000000E+00 -0.91577256119E+03  0.91577256119E+03  0.25500000920E-02 0. -1.
    10030    2    1    2    0    0  0.00000000000E+00  0.00000000000E+00  0.23071445591E+03  0.20622595783E+04  0.20493133992E+04 0.  0.
        4    1    3    3  502    0  0.84194840753E+03  0.58035726382E+03  0.49922884070E+02  0.10238093484E+04  0.12699999809E+01 0. -1.
       -4    1    3    3    0  502 -0.84194840753E+03 -0.58035726382E+03  0.18079157184E+03  0.10384502299E+04  0.12699999809E+01 0.  1.
</event>
<event>
 5   0  0.6774451E-04  0.1790240E+04  0.7818609E-02  0.8711507E-01
        2   -1    0    0  501    0  0.00000000000E+00  0.00000000000E+00  0.11681748196E+04  0.11681748196E+04  0.25500000920E-02 0.  1.
       -2   -1    0    0    0  501  0.00000000000E+00  0.00000000000E+00 -0.68589048004E+03  0.68589048004E+03  0.25500000920E-02 0. -1.
    10030    2    1    2    0    0  0.00000000000E+00  0.00000000000E+00  0.48228433957E+03  0.18540652997E+04  0.17902401937E+04 0.  0.
        4    1    3    3  502    0  0.73142997983E+03  0.17599104954E+03  0.74348738340E+03  0.10577040073E+04  0.12699999809E+01 0.  1.
       -4    1    3    3    0  502 -0.73142997983E+03 -0.17599104954E+03 -0.26120304383E+03  0.79636129233E+03  0.12699999809E+01 0. -1.
</event>
<event>
 5   0  0.3377273E-04  0.1082593E+04  0.7818609E-02  0.9222326E-01
        1   -1    0    0  501    0  0.00000000000E+00  0.00000000000E+00  0.69039461019E+03  0.69039461021E+03  0.50400001928E-02 0.  1.
       -1   -1    0    0    0  501  0.00000000000E+00  0.00000000000E+00 -0.42439767112E+03  0.42439767115E+03  0.50400001928E-02 0. -1.
    10030    2    1    2    0    0  0.00000000000E+00  0.00000000000E+00  0.26599693907E+03  0.11147922814E+04  0.10825929332E+04 0.  0.
        2    1    3    3  502    0  0.40609417132E+03  0.24581628103E+03  0.40085780063E+03  0.62130917934E+03  0.25500000920E-02 0.  1.
       -2    1    3    3    0  502 -0.40609417132E+03 -0.24581628103E+03 -0.13486086156E+03  0.49348310202E+03  0.25500000920E-02 0. -1.
</event>
<event>
 5   0  0.3377273E-04  0.1795992E+04  0.7818609E-02  0.8708434E-01
        1   -1    0    0  501    0  0.00000000000E+00  0.00000000000E+00  0.18444586737E+04  0.18444586737E+04  0.50400001928E-02 0. -1.
       -1   -1    0    0    0  501  0.00000000000E+00  0.00000000000E+00 -0.43719963747E+03  0.43719963750E+03  0.50400001928E-02 0.  1.
    10030    2    1    2    0    0  0.00000000000E+00  0.00000000000E+00  0.14072590363E+04  0.22816583113E+04  0.17959918302E+04 0.  0.
        2    1    3    3  502    0 -0.39933105034E+02 -0.24388162067E+03  0.18004075306E+04  0.18172892378E+04  0.25500000920E-02 0. -1.
       -2    1    3    3    0  502  0.39933105034E+02  0.24388162067E+03 -0.39314849430E+03  0.46436907343E+03  0.25500000920E-02 0.  1.
</event>
<event>
 5   0  0.6853162E-04  0.1767781E+04  0.7818609E-02  0.8723624E-01
       -2   -1    0    0    0  501  0.00000000000E+00  0.00000000000E+00  0.73906933506E+03  0.73906933506E+03  0.25500000920E-02 0. -1.
        2   -1    0    0  501    0  0.00000000000E+00  0.00000000000E+00 -0.10570889473E+04  0.10570889473E+04  0.25500000920E-02 0.  1.
    10030    2    1    2    0    0  0.00000000000E+00  0.00000000000E+00 -0.31801961225E+03  0.17961582824E+04  0.17677805581E+04 0.  0.
        2    1    3    3  502    0  0.34224893716E+03  0.70874958802E+03 -0.56771278965E+03  0.97044223169E+03  0.25500000920E-02 0.  1.
       -2    1    3    3    0  502 -0.34224893716E+03 -0.70874958802E+03  0.24969317740E+03  0.82571605068E+03  0.25500000920E-02 0. -1.
</event>
<event>
 5   0  0.6929121E-04  0.1806801E+04  0.7818609E-02  0.8702691E-01
       -2   -1    0    0    0  501  0.00000000000E+00  0.00000000000E+00  0.75656740078E+03  0.75656740079E+03  0.25500000920E-02 0. -1.
        2   -1    0    0  501    0  0.00000000000E+00  0.00000000000E+00 -0.10787308654E+04  0.10787308654E+04  0.25500000920E-02 0.  1.
    10030    2    1    2    0    0  0.00000000000E+00  0.00000000000E+00 -0.32216346465E+03  0.18352982662E+04  0.18068011590E+04 0.  0.
        3    1    3    3  502    0  0.24107656198E+03  0.87063486710E+03 -0.15793181134E+03  0.91709620421E+03  0.10100000352E+00 0.  1.
       -3    1    3    3    0  502 -0.24107656198E+03 -0.87063486710E+03 -0.16423165331E+03  0.91820206202E+03  0.10100000352E+00 0. -1.
</event>
<event>
 5   0  0.6853162E-04  0.1846049E+04  0.7818609E-02  0.8682187E-01
        2   -1    0    0  501    0  0.00000000000E+00  0.00000000000E+00  0.95881050824E+03  0.95881050824E+03  0.25500000920E-02 0. -1.
       -2   -1    0    0    0  501  0.00000000000E+00  0.00000000000E+00 -0.88857399249E+03  0.88857399250E+03  0.25500000920E-02 0.  1.
    10030    2    1    2    0    0  0.00000000000E+00  0.00000000000E+00  0.70236515749E+02  0.18473845007E+04  0.18460488416E+04 0.  0.
        2    1    3    3  502    0  0.81287632625E+02 -0.88493298364E+03  0.28481836263E+03  0.93318570738E+03  0.25500000920E-02 0. -1.
       -2    1    3    3    0  502 -0.81287632625E+02  0.88493298364E+03 -0.21458184689E+03  0.91419879336E+03  0.25500000920E-02 0.  1.
</event>
<event>
 5   0  0.6771967E-04  0.1783006E+04  0.7818609E-02  0.8715389E-01
        2   -1    0    0  501    0  0.00000000000E+00  0.00000000000E+00  0.21934718057E+04  0.21934718057E+04  0.25500000920E-02 0. -1.
       -2   -1    0    0    0  501  0.00000000000E+00  0.00000000000E+00 -0.36233789524E+03  0.36233789525E+03  0.25500000920E-02 0.  1.
    10030    2    1    2    0    0  0.00000000000E+00  0.00000000000E+00  0.18311339105E+04  0.25558097010E+04  0.17830064020E+04 0.  0.
        1    1    3    3  502    0  0.72540244589E+03  0.36020316918E+03  0.14496468240E+04  0.16605513981E+04  0.50400001928E-02 0.  1.
       -1    1    3    3    0  502 -0.72540244589E+03 -0.36020316918E+03  0.38148708650E+03  0.89525830283E+03  0.50400001928E-02 0. -1.
</event>
<event>
 5   0  0.3413839E-04  0.1346116E+04  0.7818609E-02  0.8993773E-01
       -1   -1    0    0    0  501  0.00000000000E+00  0.00000000000E+00  0.54839295690E+03  0.54839295693E+03  0.50400001928E-02 0. -1.
        1   -1    0    0  501    0  0.00000000000E+00  0.00000000000E+00 -0.82606303892E+03  0.82606303894E+03  0.50400001928E-02 0.  1.
    10030    2    1    2    0    0  0.00000000000E+00  0.00000000000E+00 -0.27767008202E+03  0.13744559959E+04  0.13461161206E+04 0.  0.
        5    1    3    3  502    0  0.38420828315E+03 -0.39622374203E+03 -0.53214039416E+03  0.76668425553E+03  0.46999998093E+01 0.  1.
       -5    1    3    3    0  502 -0.38420828315E+03  0.39622374203E+03  0.25447031214E+03  0.60777174033E+03  0.46999998093E+01 0. -1.
</event>
<event>
 5   0  0.6547153E-04  0.1905852E+04  0.7818609E-02  0.8651949E-01
        2   -1    0    0  501    0  0.00000000000E+00  0.00000000000E+00  0.11997019828E+04  0.11997019828E+04  0.25500000920E-02 0.  1.
       -2   -1    0    0    0  501  0.00000000000E+00  0.00000000000E+00 -0.75691093492E+03  0.75691093492E+03  0.25500000920E-02 0. -1.
    10030    2    1    2    0    0  0.00000000000E+00  0.00000000000E+00  0.44279104784E+03  0.19566129177E+04  0.19058515676E+04 0.  0.
        5    1    3    3  502    0 -0.91802336341E+03  0.87767913778E+02 -0.24944036606E+02  0.92255861462E+03  0.46999998093E+01 0.  1.
       -5    1    3    3    0  502  0.91802336341E+03 -0.87767913778E+02  0.46773508444E+03  0.10340543031E+04  0.46999998093E+01 0. -1.
</event>
<event>
 5   0  0.6774451E-04  0.1861299E+04  0.7818609E-02  0.8674364E-01
       -2   -1    0    0    0  501  0.00000000000E+00  0.00000000000E+00  0.10380261403E+04  0.10380261403E+04  0.25500000920E-02 0.  1.
        2   -1    0    0  501    0  0.00000000000E+00  0.00000000000E+00 -0.83438017996E+03  0.83438017997E+03  0.25500000920E-02 0. -1.
    10030    2    1    2    0    0  0.00000000000E+00  0.00000000000E+00  0.20364596033E+03  0.18724063203E+04  0.18612989419E+04 0.  0.
        4    1    3    3  502    0 -0.20784786530E+03 -0.39485138468E+02  0.10135132277E+04  0.10353600760E+04  0.12699999809E+01 0.  1.
       -4    1    3    3    0  502  0.20784786530E+03  0.39485138468E+02 -0.80986726742E+03  0.83704624425E+03  0.12699999809E+01 0. -1.
</event>
<event>
 5   0  0.6853162E-04  0.1726747E+04  0.7818609E-02  0.8746255E-01
       -2   -1    0    0    0  501  0.00000000000E+00  0.00000000000E+00  0.42688317717E+03  0.42688317718E+03  0.25500000920E-02 0. -1.
        2   -1    0    0  501    0  0.00000000000E+00  0.00000000000E+00 -0.17461773152E+04  0.17461773152E+04  0.25500000920E-02 0.  1.
    10030    2    1    2    0    0  0.00000000000E+00  0.00000000000E+00 -0.13192941380E+04  0.21730604923E+04  0.17267469070E+04 0.  0.
        2    1    3    3  502    0 -0.58119472785E+03  0.10310532718E+03  0.13328508791E+03  0.60513051058E+03  0.25500000920E-02 0. -1.
       -2    1    3    3    0  502  0.58119472785E+03 -0.10310532718E+03 -0.14525792259E+04  0.15679299817E+04  0.25500000920E-02 0.  1.
</event>
<event>
 5   0  0.3308275E-04  0.1713805E+04  0.7818609E-02  0.8753530E-01
        1   -1    0    0  501    0  0.00000000000E+00  0.00000000000E+00  0.18896028241E+04  0.18896028241E+04  0.50400001928E-02 0.  1.
       -1   -1    0    0    0  501  0.00000000000E+00  0.00000000000E+00 -0.38859072064E+03  0.38859072067E+03  0.50400001928E-02 0. -1.
    10030    2    1    2    0    0  0.00000000000E+00  0.00000000000E+00  0.15010121035E+04  0.22781935448E+04  0.17138052669E+04 0.  0.
        3    1    3    3  502    0 -0.22927456570E+03  0.53813751658E+03 -0.81910041859E+02  0.59065055522E+03  0.10100000352E+00 0. -1.
       -3    1    3    3    0  502  0.22927456570E+03 -0.53813751658E+03  0.15829221453E+04  0.16875429895E+04  0.10100000352E+00 0.  1.
</event>
<event>
 5   0  0.3413839E-04  0.1815434E+04  0.7818609E-02  0.8698134E-01
        1   -1    0    0  501    0  0.00000000000E+00  0.00000000000E+00  0.19820314576E+04  0.19820314576E+04  0.50400001928E-02 0. -1.
       -1   -1    0    0    0  501  0.00000000000E+00  0.00000000000E+00 -0.41571011029E+03  0.41571011032E+03  0.50400001928E-02 0.  1.
    10030    2    1    2    0    0  0.00000000000E+00  0.00000000000E+00  0.15663213473E+04  0.23977415679E+04  0.18154344008E+04 0.  0.
        5    1    3    3  502    0  0.89786439143E+03 -0.13198597290E+03  0.80778709599E+03  0.12149579601E+04  0.46999998093E+01 0.  1.
       -5    1    3    3    0  502 -0.89786439143E+03  0.13198597290E+03  0.75853425128E+03  0.11827836078E+04  0.46999998093E+01 0. -1.
</event>
<event>
 5   0  0.6771967E-04  0.1442018E+04  0.7818609E-02  0.8923953E-01
        2   -1    0    0  501    0  0.00000000000E+00  0.00000000000E+00  0.12261294544E+04  0.12261294544E+04  0.25500000920E-02 0.  1.
       -2   -1    0    0    0  501  0.00000000000E+00  0.00000000000E+00 -0.42397971170E+03  0.42397971170E+03  0.25500000920E-02 0. -1.
    10030    2    1    2    0    0  0.00000000000E+00  0.00000000000E+00  0.80214974272E+03  0.16501091661E+04  0.14420180479E+04 0.  0.
        1    1    3    3  502    0  0.15890524878E+03 -0.56061106705E+03  0.88699172493E+03  0.10612680937E+04  0.50400001928E-02 0.  1.
       -1    1    3    3    0  502 -0.15890524878E+03  0.56061106705E+03 -0.84841982219E+02  0.58884107241E+03  0.50400001928E-02 0. -1.
</event>
<event>
 5   0  0.6547153E-04  0.1871127E+04  0.7818609E-02  0.8669363E-01
        2   -1    0    0  501    0  0.00000000000E+00  0.00000000000E+00  0.46268224090E+03  0.46268224091E+03  0.25500000920E-02 0. -1.
       -2   -1    0    0    0  501  0.00000000000E+00  0.00000000000E+00 -0.18917499045E+04  0.18917499045E+04  0.25500000920E-02 0.  1.
    10030    2    1    2    0    0  0.00000000000E+00  0.00000000000E+00 -0.14290676636E+04  0.23544321454E+04  0.18711270241E+04 0.  0.
        5    1    3    3  502    0 -0.23300093181E+03 -0.33847796317E+02 -0.18538458060E+04  0.18687432863E+04  0.46999998093E+01 0.  1.
       -5    1    3    3    0  502  0.23300093181E+03  0.33847796317E+02  0.42477814245E+03  0.48568885909E+03  0.46999998093E+01 0. -1.
</event>
<event>
 5   0  0.6547153E-04  0.1802306E+04  0.7818609E-02  0.8705074E-01
       -2   -1    0    0    0  501  0.00000000000E+00  0.00000000000E+00  0.84805584239E+03  0.84805584239E+03  0.25500000920E-02 0. -1.
        2   -1    0    0  501    0  0.00000000000E+00  0.00000000000E+00 -0.95757420972E+03  0.95757420972E+03  0.25500000920E-02 0.  1.
    10030    2    1    2    0    0  0.00000000000E+00  0.00000000000E+00 -0.10951836734E+03  0.18056300521E+04  0.18023056379E+04 0.  0.
        5    1    3    3  502    0 -0.38830275830E+03  0.72786306406E+03 -0.41804442458E+03  0.92484966511E+03  0.46999998093E+01 0.  1.
       -5    1    3    3    0  502  0.38830275830E+03 -0.72786306406E+03  0.30852605725E+03  0.88078038700E+03  0.46999998093E+01 0. -1.
</event>
<event>
 5   0  0.3470962E-04  0.1770745E+04  0.7818609E-02  0.8722013E-01
       -1   -1    0    0    0  501  0.00000000000E+00  0.00000000000E+00  0.11040863125E+04  0.11040863125E+04  0.50400001928E-02 0. -1.
        1   -1    0    0  501    0  0.00000000000E+00  0.00000000000E+00 -0.70998485853E+03  0.70998485855E+03  0.50400001928E-02 0.  1.
    10030    2    1    2    0    0  0.00000000000E+00  0.00000000000E+00  0.39410145400E+03  0.18140711711E+04  0.17707451137E+04 0.  0.
        4    1    3    3  502    0 -0.25877789304E+03  0.27448417713E+03 -0.62353152191E+03  0.72876658344E+03  0.12699999809E+01 0.  1.
       -4    1    3    3    0  502  0.25877789304E+03 -0.27448417713E+03  0.10176329759E+04  0.10853045877E+04  0.12699999809E+01 0. -1.
</event>
<event>
 5   0  0.3470962E-04  0.1779468E+04  0.7818609E-02  0.8717295E-01
        1   -1    0    0  501    0  0.00000000000E+00  0.00000000000E+00  0.95660238874E+03  0.95660238876E+03  0.50400001928E-02 0. -1.
       -1   -1    0    0    0  501  0.00000000000E+00  0.00000000000E+00 -0.82753975485E+03  0.82753975487E+03  0.50400001928E-02 0.  1.
    10030    2    1    2    0    0  0.00000000000E+00  0.00000000000E+00  0.12906263389E+03  0.17841421436E+04  0.17794679051E+04 0.  0.
        4    1    3    3  502    0  0.60026487752E+03  0.65673768691E+03  0.66142025231E+02  0.89218758846E+03  0.12699999809E+01 0.  1.
       -4    1    3    3    0  502 -0.60026487752E+03 -0.65673768691E+03  0.62920608661E+02  0.89195455517E+03  0.12699999809E+01 0. -1.
</event>
<event>
 5   0  0.3377273E-04  0.1801163E+04  0.7818609E-02  0.8705681E-01
       -1   -1    0    0    0  501  0.00000000000E+00  0.00000000000E+00  0.54436484121E+03  0.54436484123E+03  0.50400001928E-02 0. -1.
        1   -1    0    0  501    0  0.00000000000E+00  0.00000000000E+00 -0.14898966572E+04  0.14898966572E+04  0.50400001928E-02 0.  1.
    10030    2    1    2    0    0  0.00000000000E+00  0.00000000000E+00 -0.94553181602E+03  0.20342614985E+04  0.18011633543E+04 0.  0.
        2    1    3    3  502    0  0.78760963927E+03 -0.39514283919E+03 -0.68279024642E+03  0.11147507918E+04  0.25500000920E-02 0.  1.
       -2    1    3    3    0  502 -0.78760963927E+03  0.39514283919E+03 -0.26274156960E+03  0.91951070665E+03  0.25500000920E-02 0. -1.
</event>
<event>
 5   0  0.6771967E-04  0.1794276E+04  0.7818609E-02  0.8709350E-01
        2   -1    0    0  501    0  0.00000000000E+00  0.00000000000E+00  0.21918838031E+04  0.21918838031E+04  0.25500000920E-02 0.  1.
       -2   -1    0    0    0  501  0.00000000000E+00  0.00000000000E+00 -0.36719842686E+03  0.36719842687E+03  0.25500000920E-02 0. -1.
    10030    2    1    2    0    0  0.00000000000E+00  0.00000000000E+00  0.18246853762E+04  0.25590822300E+04  0.17942756582E+04 0.  0.
        1    1    3    3  502    0 -0.37883891052E+03 -0.40716118669E+03  0.19163617109E+04  0.19954301188E+04  0.50400001928E-02 0.  1.
       -1    1    3    3    0  502  0.37883891052E+03  0.40716118669E+03 -0.91676334640E+02  0.56365211117E+03  0.50400001928E-02 0. -1.
</event>
<event>
 5   0  0.6547153E-04  0.1779961E+04  0.7818609E-02  0.8717029E-01
       -2   -1    0    0    0  501  0.00000000000E+00  0.00000000000E+00  0.62504645091E+03  0.62504645092E+03  0.25500000920E-02 0.  1.
        2   -1    0    0  501    0  0.00000000000E+00  0.00000000000E+00 -0.12672106660E+04  0.12672106660E+04  0.25500000920E-02 0. -1.
    10030    2    1    2    0    0  0.00000000000E+00  0.00000000000E+00 -0.64216421504E+03  0.18922571169E+04  0.17799612685E+04 0.  0.
        5    1    3    3  502    0  0.46074636786E+02  0.54321184326E+03 -0.10689116800E+04  0.11999151005E+04  0.46999998093E+01 0. -1.
       -5    1    3    3    0  502 -0.46074636786E+02 -0.54321184326E+03  0.42674746494E+03  0.69234201638E+03  0.46999998093E+01 0.  1.
</event>
<event>
 5   0  0.6929121E-04  0.1775574E+04  0.7818609E-02  0.8719398E-01
        2   -1    0    0  501    0  0.00000000000E+00  0.00000000000E+00  0.22943488514E+04  0.22943488514E+04  0.25500000920E-02 0.  1.
       -2   -1    0    0    0  501  0.00000000000E+00  0.00000000000E+00 -0.34352493323E+03  0.34352493324E+03  0.25500000920E-02 0. -1.
    10030    2    1    2    0    0  0.00000000000E+00  0.00000000000E+00  0.19508239182E+04  0.26378737847E+04  0.17755743139E+04 0.  0.
        3    1    3    3  502    0  0.22913179972E+03 -0.59900001578E+03  0.63385855064E+02  0.64445339426E+03  0.10100000352E+00 0. -1.
       -3    1    3    3    0  502 -0.22913179972E+03  0.59900001578E+03  0.18874380631E+04  0.19934203904E+04  0.10100000352E+00 0.  1.
</event>
<event>
 5   0  0.3470962E-04  0.1763909E+04  0.7818609E-02  0.8725731E-01
       -1   -1    0    0    0  501  0.00000000000E+00  0.00000000000E+00  0.11049140463E+04  0.11049140463E+04  0.50400001928E-02 0. -1.
        1   -1    0    0  501    0  0.00000000000E+00  0.00000000000E+00 -0.70398611452E+03  0.70398611453E+03  0.50400001928E-02 0.  1.
    10030    2    1    2    0    0  0.00000000000E+00  0.00000000000E+00  0.40092793181E+03  0.18089001609E+04  0.17639094607E+04 0.  0.
        4    1    3    3  502    0  0.41205607176E+03 -0.73844865310E+02  0.99653643710E+03  0.10808930353E+04  0.12699999809E+01 0. -1.
       -4    1    3    3    0  502 -0.41205607176E+03  0.73844865310E+02 -0.59560850529E+03  0.72800712557E+03  0.12699999809E+01 0.  1.
</event>
<event>
 5   0  0.6771967E-04  0.1734369E+04  0.7818609E-02  0.8742002E-01
       -2   -1    0    0    0  501  0.00000000000E+00  0.00000000000E+00  0.12578455024E+04  0.12578455024E+04  0.25500000920E-02 0. -1.
        2   -1    0    0  501    0  0.00000000000E+00  0.00000000000E+00 -0.59785466260E+03  0.59785466260E+03  0.25500000920E-02 0.  1.
    10030    2    1    2    0    0  0.00000000000E+00  0.00000000000E+00  0.65999083976E+03  0.18557001650E+04  0.17343688171E+04 0.  0.
        1    1    3    3  502    0 -0.49015958631E+03  0.36050641755E+03  0.99111071235E+03  0.11629796822E+04  0.50400001928E-02 0. -1.
       -1    1    3    3    0  502  0.49015958631E+03 -0.36050641755E+03 -0.33111987259E+03  0.69272048273E+03  0.50400001928E-02 0.  1.
</event>
<event>
 5   0  0.3470962E-04  0.1784128E+04  0.7818609E-02  0.8714786E-01
        1   -1    0    0  501    0  0.00000000000E+00  0.00000000000E+00  0.80607530706E+03  0.80607530708E+03  0.50400001928E-02 0.  1.
       -1   -1    0    0    0  501  0.00000000000E+00  0.00000000000E+00 -0.98722512681E+03  0.98722512683E+03  0.50400001928E-02 0. -1.
    10030    2    1    2    0    0  0.00000000000E+00  0.00000000000E+00 -0.18114981975E+03  0.17933004339E+04  0.17841275708E+04 0.  0.
        4    1    3    3  502    0 -0.40860104663E+03 -0.15105276400E+03  0.69189032168E+03  0.81760967640E+03  0.12699999809E+01 0.  1.
       -4    1    3    3    0  502  0.40860104663E+03  0.15105276400E+03 -0.87304014143E+03  0.97569075750E+03  0.12699999809E+01 0. -1.
</event>
<event>
 5   0  0.6929121E-04  0.1728819E+04  0.7818609E-02  0.8745097E-01
       -2   -1    0    0    0  501  0.00000000000E+00  0.00000000000E+00  0.10318266610E+04  0.10318266611E+04  0.25500000920E-02 0.  1.
        2   -1    0    0  501    0  0.00000000000E+00  0.00000000000E+00 -0.72415607545E+03  0.72415607546E+03  0.25500000920E-02 0. -1.
    10030    2    1    2    0    0  0.00000000000E+00  0.00000000000E+00  0.30767058560E+03  0.17559827365E+04  0.17288187244E+04 0.  0.
        3    1    3    3  502    0  0.17897459120E+03  0.80562594140E+03  0.41505014573E+03  0.92375954416E+03  0.10100000352E+00 0. -1.
       -3    1    3    3    0  502 -0.17897459120E+03 -0.80562594140E+03 -0.10737956013E+03  0.83222319235E+03  0.10100000352E+00 0.  1.
</event>
<event>
 5   0  0.6774451E-04  0.1695306E+04  0.7818609E-02  0.8764046E-01
        2   -1    0    0  501    0  0.00000000000E+00  0.00000000000E+00  0.87137462680E+03  0.87137462680E+03  0.25500000920E-02 0. -1.
       -2   -1    0    0    0  501  0.00000000000E+00  0.00000000000E+00 -0.82457693487E+03  0.82457693488E+03  0.25500000920E-02 0.  1.
    10030    2    1    2    0    0  0.00000000000E+00  0.00000000000E+00  0.46797691926E+02  0.16959515617E+04  0.16953057764E+04 0.  0.
        4    1    3    3  502    0 -0.71757170211E+03 -0.84361576072E+01  0.47471755963E+03  0.86042936418E+03  0.12699999809E+01 0. -1.
       -4    1    3    3    0  502  0.71757170211E+03  0.84361576072E+01 -0.42791986770E+03  0.83552219749E+03  0.12699999809E+01 0.  1.
</event>
<event>
 5   0  0.3404261E-04  0.1256218E+04  0.7818609E-02  0.9065024E-01
       -1   -1    0    0    0  501  0.00000000000E+00  0.00000000000E+00  0.88989445072E+03  0.88989445074E+03  0.50400001928E-02 0. -1.
        1   -1    0    0  501    0  0.00000000000E+00  0.00000000000E+00 -0.44333427651E+03  0.44333427654E+03  0.50400001928E-02 0.  1.
    10030    2    1    2    0    0  0.00000000000E+00  0.00000000000E+00  0.44656017421E+03  0.13332287273E+04  0.12562176762E+04 0.  0.
        1    1    3    3  502    0  0.35103557251E+03 -0.48738183151E+03  0.28295452397E+02  0.60130496048E+03  0.50400001928E-02 0. -1.
       -1    1    3    3    0  502 -0.35103557251E+03  0.48738183151E+03  0.41826472181E+03  0.73192376679E+03  0.50400001928E-02 0.  1.
</event>
<event>
 5   0  0.6771967E-04  0.1836234E+04  0.7818609E-02  0.8687264E-01
        2   -1    0    0  501    0  0.00000000000E+00  0.00000000000E+00  0.12118319376E+04  0.12118319376E+04  0.25500000920E-02 0. -1.
       -2   -1    0    0    0  501  0.00000000000E+00  0.00000000000E+00 -0.69559055990E+03  0.69559055990E+03  0.25500000920E-02 0.  1.
    10030    2    1    2    0    0  0.00000000000E+00  0.00000000000E+00  0.51624137766E+03  0.19074224975E+04  0.18362340330E+04 0.  0.
        1    1    3    3  502    0 -0.74306468488E+03  0.37495103182E+03 -0.14446813938E+03  0.84475111453E+03  0.50400001928E-02 0.  1.
       -1    1    3    3    0  502  0.74306468488E+03 -0.37495103182E+03  0.66070951704E+03  0.10626713829E+04  0.50400001928E-02 0. -1.
</event>
<event>
 5   0  0.3413839E-04  0.1744850E+04  0.7818609E-02  0.8736190E-01
        1   -1    0    0  501    0  0.00000000000E+00  0.00000000000E+00  0.14114820678E+04  0.14114820678E+04  0.50400001928E-02 0. -1.
       -1   -1    0    0    0  501  0.00000000000E+00  0.00000000000E+00 -0.53923847669E+03  0.53923847672E+03  0.50400001928E-02 0.  1.
    10030    2    1    2    0    0  0.00000000000E+00  0.00000000000E+00  0.87224359114E+03  0.19507205446E+04  0.17448500682E+04 0.  0.
        5    1    3    3  502    0  0.48138576774E+03 -0.72753616745E+03  0.44494028968E+03  0.97930336653E+03  0.46999998093E+01 0. -1.
       -5    1    3    3    0  502 -0.48138576774E+03  0.72753616745E+03  0.42730330146E+03  0.97141717802E+03  0.46999998093E+01 0.  1.
</event>
<event>
 5   0  0.3413839E-04  0.1791853E+04  0.7818609E-02  0.8710644E-01
       -1   -1    0    0    0  501  0.00000000000E+00  0.00000000000E+00  0.64688038703E+03  0.64688038705E+03  0.50400001928E-02 0.  1.
        1   -1    0    0  501    0  0.00000000000E+00  0.00000000000E+00 -0.12408547512E+04  0.12408547512E+04  0.50400001928E-02 0. -1.
    10030    2    1    2    0    0  0.00000000000E+00  0.00000000000E+00 -0.59397436416E+03  0.18877351383E+04  0.17918533441E+04 0.  0.
        5    1    3    3  502    0  0.57485056297E+03  0.15446313647E+03  0.40843224931E+03  0.72190790448E+03  0.46999998093E+01 0.  1.
       -5    1    3    3    0  502 -0.57485056297E+03 -0.15446313647E+03 -0.10024066135E+04  0.11658272338E+04  0.46999998093E+01 0. -1.
</event>
<event>
 5   0  0.3470962E-04  0.1749343E+04  0.7818609E-02  0.8733712E-01
        1   -1    0    0  501    0  0.00000000000E+00  0.00000000000E+00  0.12304031980E+04  0.12304031981E+04  0.50400001928E-02 0.  1.
       -1   -1    0    0    0  501  0.00000000000E+00  0.00000000000E+00 -0.62178829328E+03  0.62178829330E+03  0.50400001928E-02 0. -1.
    10030    2    1    2    0    0  0.00000000000E+00  0.00000000000E+00  0.60861490476E+03  0.18521914914E+04  0.17493430819E+04 0.  0.
        4    1    3    3  502    0  0.82697596863E+03  0.27771575648E+03  0.37155034855E+03  0.94819120883E+03  0.12699999809E+01 0.  1.
       -4    1    3    3    0  502 -0.82697596863E+03 -0.27771575648E+03  0.23706455621E+03  0.90400028253E+03  0.12699999809E+01 0. -1.
</event>
<event>
 5   0  0.3308275E-04  0.1818968E+04  0.7818609E-02  0.8696277E-01
       -1   -1    0    0    0  501  0.00000000000E+00  0.00000000000E+00  0.24195710699E+04  0.24195710699E+04  0.50400001928E-02 0.  1.
        1   -1    0    0  501    0  0.00000000000E+00  0.00000000000E+00 -0.34186254150E+03  0.34186254154E+03  0.50400001928E-02 0. -1.
    10030    2    1    2    0    0  0.00000000000E+00  0.00000000000E+00  0.20777085284E+04  0.27614336114E+04  0.18189675262E+04 0.  0.
        3    1    3    3  502    0 -0.87976331497E+03 -0.22204939030E+03  0.94439661686E+03  0.13096466708E+04  0.10100000352E+00 0. -1.
       -3    1    3    3    0  502  0.87976331497E+03  0.22204939030E+03  0.11333119115E+04  0.14517869407E+04  0.10100000352E+00 0.  1.
</event>
<event>
 5   0  0.3308275E-04  0.1867388E+04  0.7818609E-02  0.8671262E-01
        1   -1    0    0  501    0  0.00000000000E+00  0.00000000000E+00  0.97735166910E+03  0.97735166911E+03  0.50400001928E-02 0. -1.
       -1   -1    0    0    0  501  0.00000000000E+00  0.00000000000E+00 -0.89198642957E+03  0.89198642958E+03  0.50400001928E-02 0.  1.
    10030    2    1    2    0    0  0.00000000000E+00  0.00000000000E+00  0.85365239532E+02  0.18693380987E+04  0.18673879359E+04 0.  0.
        3    1    3    3  502    0 -0.88789240208E+03 -0.28504519784E+03  0.89429708074E+02  0.93680380303E+03  0.10100000352E+00 0. -1.
       -3    1    3    3    0  502  0.88789240208E+03  0.28504519784E+03 -0.40644685427E+01  0.93253429567E+03  0.10100000352E+00 0.  1.
</event>
<event>
 5   0  0.3470962E-04  0.1871881E+04  0.7818609E-02  0.8668981E-01
       -1   -1    0    0    0  501  0.00000000000E+00  0.00000000000E+00  0.63611384079E+03  0.63611384081E+03  0.50400001928E-02 0. -1.
        1   -1    0    0  501    0  0.00000000000E+00  0.00000000000E+00 -0.13770881570E+04  0.13770881570E+04  0.50400001928E-02 0.  1.
    10030    2    1    2    0    0  0.00000000000E+00  0.00000000000E+00 -0.74097431617E+03  0.20132019978E+04  0.18718812320E+04 0.  0.
        4    1    3    3  502    0 -0.52202147785E+03  0.74920195058E+02  0.46110460508E+03  0.70052732187E+03  0.12699999809E+01 0. -1.
       -4    1    3    3    0  502  0.52202147785E+03 -0.74920195058E+02 -0.12020789212E+04  0.13126746759E+04  0.12699999809E+01 0.  1.
</event>
<event>
 5   0  0.3308275E-04  0.1759678E+04  0.7818609E-02  0.8728041E-01
       -1   -1    0    0    0  501  0.00000000000E+00  0.00000000000E+00  0.54347868900E+03  0.54347868902E+03  0.50400001928E-02 0.  1.
        1   -1    0    0  501    0  0.00000000000E+00  0.00000000000E+00 -0.14243737419E+04  0.14243737419E+04  0.50400001928E-02 0. -1.
    10030    2    1    2    0    0  0.00000000000E+00  0.00000000000E+00 -0.88089505293E+03  0.19678524310E+04  0.17596781228E+04 0.  0.
        3    1    3    3  502    0  0.11363042371E+03 -0.17782292806E+03  0.51475818994E+03  0.55633521482E+03  0.10100000352E+00 0.  1.
       -3    1    3    3    0  502 -0.11363042371E+03  0.17782292806E+03 -0.13956532429E+04  0.14115172161E+04  0.10100000352E+00 0. -1.
</event>
<event>
 5   0  0.3404261E-04  0.1851975E+04  0.7818609E-02  0.8679138E-01
        1   -1    0    0  501    0  0.00000000000E+00  0.00000000000E+00  0.45563486423E+03  0.45563486426E+03  0.50400001928E-02 0.  1.
       -1   -1    0    0    0  501  0.00000000000E+00  0.00000000000E+00 -0.18818852394E+04  0.18818852394E+04  0.50400001928E-02 0. -1.
    10030    2    1    2    0    0  0.00000000000E+00  0.00000000000E+00 -0.14262503752E+04  0.23375201037E+04  0.18519746495E+04 0.  0.
        1    1    3    3  502    0 -0.46414142553E+03  0.44831796152E+03 -0.15513441269E+04  0.16802038143E+04  0.50400001928E-02 0. -1.
       -1    1    3    3    0  502  0.46414142553E+03 -0.44831796152E+03  0.12509375173E+03  0.65731628937E+03  0.50400001928E-02 0.  1.
</event>
<event>
 5   0  0.3413839E-04  0.1873648E+04  0.7818609E-02  0.8668086E-01
        1   -1    0    0  501    0  0.00000000000E+00  0.00000000000E+00  0.13067644879E+04  0.13067644879E+04  0.50400001928E-02 0.  1.
       -1   -1    0    0    0  501  0.00000000000E+00  0.00000000000E+00 -0.67161260211E+03  0.67161260212E+03  0.50400001928E-02 0. -1.
    10030    2    1    2    0    0  0.00000000000E+00  0.00000000000E+00  0.63515188582E+03  0.19783770901E+04  0.18736483108E+04 0.  0.
        5    1    3    3  502    0 -0.32404081094E+03 -0.51932826930E+03 -0.43122688637E+03  0.74878769753E+03  0.46999998093E+01 0. -1.
       -5    1    3    3    0  502  0.32404081094E+03  0.51932826930E+03  0.10663787722E+04  0.12295893925E+04  0.46999998093E+01 0.  1.
</event>
<event>
 5   0  0.6929121E-04  0.1820079E+04  0.7818609E-02  0.8695694E-01
       -2   -1    0    0    0  501  0.00000000000E+00  0.00000000000E+00  0.54892318122E+03  0.54892318123E+03  0.25500000920E-02 0.  1.
        2   -1    0    0  501    0  0.00000000000E+00  0.00000000000E+00 -0.15087217043E+04  0.15087217043E+04  0.25500000920E-02 0. -1.
    10030    2    1    2    0    0  0.00000000000E+00  0.00000000000E+00 -0.95979852310E+03  0.20576448856E+04  0.18200794681E+04 0.  0.
        3    1    3    3  502    0 -0.78630526442E+02 -0.50133677728E+03  0.37411546475E+03  0.63046309575E+03  0.10100000352E+00 0.  1.
       -3    1    3    3    0  502  0.78630526442E+02  0.50133677728E+03 -0.13339139879E+04  0.14271817898E+04  0.10100000352E+00 0. -1.
</event>
<event>
 5   0  0.6853162E-04  0.1781860E+04  0.7818609E-02  0.8716006E-01
       -2   -1    0    0    0  501  0.00000000000E+00  0.00000000000E+00  0.47782435147E+03  0.47782435147E+03  0.25500000920E-02 0.  1.
        2   -1    0    0  501    0  0.00000000000E+00  0.00000000000E+00 -0.16611881753E+04  0.16611881753E+04  0.25500000920E-02 0. -1.
    10030    2    1    2    0    0  0.00000000000E+00  0.00000000000E+00 -0.11833638239E+04  0.21390125268E+04  0.17818598851E+04 0.  0.
        2    1    3    3  502    0  0.70707723398E+02  0.70776859164E+03 -0.12357034821E+04  0.14257976915E+04  0.25500000920E-02 0. -1.
       -2    1    3    3    0  502 -0.70707723398E+02 -0.70776859164E+03  0.52339658217E+02  0.71321483530E+03  0.25500000920E-02 0.  1.
</event>
<event>
 5   0  0.3413839E-04  0.1785150E+04  0.7818609E-02  0.8714237E-01
        1   -1    0    0  501    0  0.00000000000E+00  0.00000000000E+00  0.84971462352E+03  0.84971462354E+03  0.50400001928E-02 0.  1.
       -1   -1    0    0    0  501  0.00000000000E+00  0.00000000000E+00 -0.93759701103E+03  0.93759701104E+03  0.50400001928E-02 0. -1.
    10030    2    1    2    0    0  0.00000000000E+00  0.00000000000E+00 -0.87882387502E+02  0.17873116346E+04  0.17851497318E+04 0.  0.
        5    1    3    3  502    0 -0.32118842636E+03 -0.37859247768E+03 -0.78657630762E+03  0.93017129986E+03  0.46999998093E+01 0. -1.
       -5    1    3    3    0  502  0.32118842636E+03  0.37859247768E+03  0.69869392012E+03  0.85714033471E+03  0.46999998093E+01 0.  1.
</event>
<event>
 5   0  0.6929121E-04  0.1802115E+04  0.7818609E-02  0.8705176E-01
        2   -1    0    0  501    0  0.00000000000E+00  0.00000000000E+00  0.17097439236E+04  0.17097439236E+04  0.25500000920E-02 0.  1.
       -2   -1    0    0    0  501  0.00000000000E+00  0.00000000000E+00 -0.47486887350E+03  0.47486887351E+03  0.25500000920E-02 0. -1.
    10030    2    1    2    0    0  0.00000000000E+00  0.00000000000E+00  0.12348750501E+04  0.21846127971E+04  0.18021145035E+04 0.  0.
        3    1    3    3  502    0 -0.44736747977E+03  0.61795560225E+03  0.36192705386E+02  0.76375173351E+03  0.10100000352E+00 0. -1.
       -3    1    3    3    0  502  0.44736747977E+03 -0.61795560225E+03  0.11986823447E+04  0.14208610636E+04  0.10100000352E+00 0.  1.
</event>
<event>
 5   0  0.6771967E-04  0.1792783E+04  0.7818609E-02  0.8710147E-01
       -2   -1    0    0    0  501  0.00000000000E+00  0.00000000000E+00  0.75567459385E+03  0.75567459385E+03  0.25500000920E-02 0. -1.
        2   -1    0    0  501    0  0.00000000000E+00  0.00000000000E+00 -0.10633121039E+04  0.10633121039E+04  0.25500000920E-02 0.  1.
    10030    2    1    2    0    0  0.00000000000E+00  0.00000000000E+00 -0.30763751004E+03  0.18189866977E+04  0.17927832465E+04 0.  0.
        1    1    3    3  502    0  0.25721216345E+03 -0.86094004401E+02  0.71303852456E+03  0.76288545153E+03  0.50400001928E-02 0. -1.
       -1    1    3    3    0  502 -0.25721216345E+03  0.86094004401E+02 -0.10206760346E+04  0.10561012462E+04  0.50400001928E-02 0.  1.
</event>
<event>
 5   0  0.6774451E-04  0.1798969E+04  0.7818609E-02  0.8706848E-01
        2   -1    0    0  501    0  0.00000000000E+00  0.00000000000E+00  0.96967008576E+03  0.96967008576E+03  0.25500000920E-02 0.  1.
       -2   -1    0    0    0  501  0.00000000000E+00  0.00000000000E+00 -0.83437907061E+03  0.83437907061E+03  0.25500000920E-02 0. -1.
    10030    2    1    2    0    0  0.00000000000E+00  0.00000000000E+00  0.13529101515E+03  0.18040491564E+04  0.17989690658E+04 0.  0.
        4    1    3    3  502    0 -0.84588972012E+03 -0.27681781916E+03 -0.62772841760E+02  0.89224411804E+03  0.12699999809E+01 0.  1.
       -4    1    3    3    0  502  0.84588972012E+03  0.27681781916E+03  0.19806385691E+03  0.91180503833E+03  0.12699999809E+01 0. -1.
</event>
<event>
 5   0  0.6853162E-04  0.1803000E+04  0.7818609E-02  0.8704706E-01
       -2   -1    0    0    0  501  0.00000000000E+00  0.00000000000E+00  0.26213598794E+03  0.26213598795E+03  0.25500000920E-02 0. -1.
        2   -1    0    0  501    0  0.00000000000E+00  0.00000000000E+00 -0.31003087908E+04  0.31003087908E+04  0.25500000920E-02 0.  1.
    10030    2    1    2    0    0  0.00000000000E+00  0.00000000000E+00 -0.28381728029E+04  0.33624447788E+04  0.18030002860E+04 0.  0.
        2    1    3    3  502    0  0.61312603104E+03  0.24743634369E+03 -0.25619534105E+04  0.26458937151E+04  0.25500000920E-02 0.  1.
       -2    1    3    3    0  502 -0.61312603104E+03 -0.24743634369E+03 -0.27621939240E+03  0.71655106368E+03  0.25500000920E-02 0. -1.
</event>
<event>
 5   0  0.3413839E-04  0.1782535E+04  0.7818609E-02  0.8715643E-01
        1   -1    0    0  501    0  0.00000000000E+00  0.00000000000E+00  0.82013470365E+03  0.82013470367E+03  0.50400001928E-02 0. -1.
       -1   -1    0    0    0  501  0.00000000000E+00  0.00000000000E+00 -0.96857015444E+03  0.96857015445E+03  0.50400001928E-02 0.  1.
    10030    2    1    2    0    0  0.00000000000E+00  0.00000000000E+00 -0.14843545078E+03  0.17887048581E+04  0.17825352693E+04 0.  0.
        5    1    3    3  502    0 -0.72112603203E+01 -0.26186967063E+03  0.78061583516E+03  0.82341417207E+03  0.46999998093E+01 0. -1.
       -5    1    3    3    0  502  0.72112603203E+01  0.26186967063E+03 -0.92905128594E+03  0.96529068605E+03  0.46999998093E+01 0.  1.
</event>
<event>
 5   0  0.6853162E-04  0.1821075E+04  0.7818609E-02  0.8695172E-01
        2   -1    0    0  501    0  0.00000000000E+00  0.00000000000E+00  0.13199350603E+04  0.13199350603E+04  0.25500000920E-02 0.  1.
       -2   -1    0    0    0  501  0.00000000000E+00  0.00000000000E+00 -0.62812039872E+03  0.62812039872E+03  0.25500000920E-02 0. -1.
    10030    2    1    2    0    0  0.00000000000E+00  0.00000000000E+00  0.69181466157E+03  0.19480554590E+04  0.18210745579E+04 0.  0.
        2    1    3    3  502    0  0.18385409958E+03  0.87952427631E+03  0.18827981042E+03  0.91804932850E+03  0.25500000920E-02 0. -1.
       -2    1    3    3    0  502 -0.18385409958E+03 -0.87952427631E+03  0.50353485114E+03  0.10300061305E+04  0.25500000920E-02 0.  1.
</event>
<event>
 5   0  0.3413839E-04  0.1726610E+04  0.7818609E-02  0.8746332E-01
        1   -1    0    0  501    0  0.00000000000E+00  0.00000000000E+00  0.11968753187E+04  0.11968753187E+04  0.50400001928E-02 0. -1.
       -1   -1    0    0    0  501  0.00000000000E+00  0.00000000000E+00 -0.62270072810E+03  0.62270072812E+03  0.50400001928E-02 0.  1.
    10030    2    1    2    0    0  0.00000000000E+00  0.00000000000E+00  0.57417459060E+03  0.18195760468E+04  0.17266095476E+04 0.  0.
        5    1    3    3  502    0 -0.13607040647E+03 -0.19455915492E+03  0.11617802376E+04  0.11858009237E+04  0.46999998093E+01 0. -1.
       -5    1    3    3    0  502  0.13607040647E+03  0.19455915492E+03 -0.58760564699E+03  0.63377512310E+03  0.46999998093E+01 0.  1.
</event>
<event>
 5   0  0.3377273E-04  0.1841156E+04  0.7818609E-02  0.8684714E-01
       -1   -1    0    0    0  501  0.00000000000E+00  0.00000000000E+00  0.97359811951E+03  0.97359811952E+03  0.50400001928E-02 0.  1.
        1   -1    0    0  501    0  0.00000000000E+00  0.00000000000E+00 -0.87044491546E+03  0.87044491548E+03  0.50400001928E-02 0. -1.
    10030    2    1    2    0    0  0.00000000000E+00  0.00000000000E+00  0.10315320404E+03  0.18440430350E+04  0.18411556511E+04 0.  0.
        2    1    3    3  502    0  0.23990202391E+03  0.82606539167E+03 -0.27685001209E+03  0.90364978924E+03  0.25500000920E-02 0. -1.
       -2    1    3    3    0  502 -0.23990202391E+03 -0.82606539167E+03  0.38000321614E+03  0.94039324576E+03  0.25500000920E-02 0.  1.
</event>
<event>
 5   0  0.3377273E-04  0.1812793E+04  0.7818609E-02  0.8699526E-01
        1   -1    0    0  501    0  0.00000000000E+00  0.00000000000E+00  0.19102727647E+04  0.19102727648E+04  0.50400001928E-02 0. -1.
       -1   -1    0    0    0  501  0.00000000000E+00  0.00000000000E+00 -0.43007194523E+03  0.43007194526E+03  0.50400001928E-02 0.  1.
    10030    2    1    2    0    0  0.00000000000E+00  0.00000000000E+00  0.14802008195E+04  0.23403447100E+04  0.18127931199E+04 0.  0.
        2    1    3    3  502    0 -0.16044594261E+03 -0.48995334615E+03 -0.22234092728E+03  0.56145584854E+03  0.25500000920E-02 0.  1.
       -2    1    3    3    0  502  0.16044594261E+03  0.48995334615E+03  0.17025417468E+04  0.17788888615E+04  0.25500000920E-02 0. -1.
</event>
<event>
 5   0  0.3470962E-04  0.1777765E+04  0.7818609E-02  0.8718214E-01
        1   -1    0    0  501    0  0.00000000000E+00  0.00000000000E+00  0.77828549362E+03  0.77828549364E+03  0.50400001928E-02 0. -1.
       -1   -1    0    0    0  501  0.00000000000E+00  0.00000000000E+00 -0.10151951606E+04  0.10151951606E+04  0.50400001928E-02 0.  1.
    10030    2    1    2    0    0  0.00000000000E+00  0.00000000000E+00 -0.23690966695E+03  0.17934806542E+04  0.17777645139E+04 0.  0.
        4    1    3    3  502    0  0.45368831576E+03 -0.76371900749E+03 -0.15052014800E+03  0.90097599197E+03  0.12699999809E+01 0. -1.
       -4    1    3    3    0  502 -0.45368831576E+03  0.76371900749E+03 -0.86389518958E+02  0.89250466225E+03  0.12699999809E+01 0.  1.
</event>
<event>
 5   0  0.6771967E-04  0.1807960E+04  0.7818609E-02  0.8702078E-01
        2   -1    0    0  501    0  0.00000000000E+00  0.00000000000E+00  0.19066657049E+04  0.19066657049E+04  0.25500000920E-02 0.  1.
       -2   -1    0    0    0  501  0.00000000000E+00  0.00000000000E+00 -0.42859123179E+03  0.42859123180E+03  0.25500000920E-02 0. -1.
    10030    2    1    2    0    0  0.00000000000E+00  0.00000000000E+00  0.14780744731E+04  0.23352569367E+04  0.18079604012E+04 0.  0.
        1    1    3    3  502    0 -0.41077746721E+03 -0.80275205268E+03  0.65702779266E+03  0.11157215181E+04  0.50400001928E-02 0.  1.
       -1    1    3    3    0  502  0.41077746721E+03  0.80275205268E+03  0.82104668042E+03  0.12195354185E+04  0.50400001928E-02 0. -1.
</event>
<event>
 5   0  0.6774451E-04  0.1860553E+04  0.7818609E-02  0.8674745E-01
       -2   -1    0    0    0  501  0.00000000000E+00  0.00000000000E+00  0.51042253652E+03  0.51042253652E+03  0.25500000920E-02 0. -1.
        2   -1    0    0  501    0  0.00000000000E+00  0.00000000000E+00 -0.16954859690E+04  0.16954859690E+04  0.25500000920E-02 0.  1.
    10030    2    1    2    0    0  0.00000000000E+00  0.00000000000E+00 -0.11850634325E+04  0.22059085055E+04  0.18605528737E+04 0.  0.
        4    1    3    3  502    0 -0.81219178233E+03  0.37593066706E+03 -0.29157738839E+03  0.94127485042E+03  0.12699999809E+01 0. -1.
       -4    1    3    3    0  502  0.81219178233E+03 -0.37593066706E+03 -0.89348604407E+03  0.12646336551E+04  0.12699999809E+01 0.  1.
</event>
<event>
 5   0  0.3308275E-04  0.1821951E+04  0.7818609E-02  0.8694713E-01
        1   -1    0    0  501    0  0.00000000000E+00  0.00000000000E+00  0.15587898691E+04  0.15587898692E+04  0.50400001928E-02 0. -1.
       -1   -1    0    0    0  501  0.00000000000E+00  0.00000000000E+00 -0.53238478257E+03  0.53238478260E+03  0.50400001928E-02 0.  1.
    10030    2    1    2    0    0  0.00000000000E+00  0.00000000000E+00  0.10264050866E+04  0.20911746518E+04  0.18219506092E+04 0.  0.
        3    1    3    3  502    0  0.26194434859E+03 -0.85667347818E+03  0.70309365409E+03  0.11387910197E+04  0.10100000352E+00 0. -1.
       -3    1    3    3    0  502 -0.26194434859E+03  0.85667347818E+03  0.32331143249E+03  0.95238363203E+03  0.10100000352E+00 0.  1.
</event>
<event>
 5   0  0.6929121E-04  0.1735569E+04  0.7818609E-02  0.8741334E-01
        2   -1    0    0  501    0  0.00000000000E+00  0.00000000000E+00  0.17612259273E+04  0.17612259273E+04  0.25500000920E-02 0. -1.
       -2   -1    0    0    0  501  0.00000000000E+00  0.00000000000E+00 -0.42757138838E+03  0.42757138839E+03  0.25500000920E-02 0.  1.
    10030    2    1    2    0    0  0.00000000000E+00  0.00000000000E+00  0.13336545389E+04  0.21887973157E+04  0.17355688577E+04 0.  0.
        3    1    3    3  502    0 -0.81403484896E+03  0.20404415499E+03  0.94531697095E+03  0.12640850202E+04  0.10100000352E+00 0. -1.
       -3    1    3    3    0  502  0.81403484896E+03 -0.20404415499E+03  0.38833756794E+03  0.92471229546E+03  0.10100000352E+00 0.  1.
</event>
<event>
 5   0  0.3308275E-04  0.1689957E+04  0.7818609E-02  0.8767113E-01
       -1   -1    0    0    0  501  0.00000000000E+00  0.00000000000E+00  0.13875685001E+04  0.13875685001E+04  0.50400001928E-02 0. -1.
        1   -1    0    0  501    0  0.00000000000E+00  0.00000000000E+00 -0.51456108202E+03  0.51456108204E+03  0.50400001928E-02 0.  1.
    10030    2    1    2    0    0  0.00000000000E+00  0.00000000000E+00  0.87300741806E+03  0.19021295821E+04  0.16899570986E+04 0.  0.
        3    1    3    3  502    0 -0.92588288892E+02  0.28441055998E+03  0.13259914220E+04  0.13593068893E+04  0.10100000352E+00 0. -1.
       -3    1    3    3    0  502  0.92588288892E+02 -0.28441055998E+03 -0.45298400392E+03  0.54282269285E+03  0.10100000352E+00 0.  1.
</event>
<event>
 5   0  0.3377273E-04  0.1772310E+04  0.7818609E-02  0.8721165E-01
       -1   -1    0    0    0  501  0.00000000000E+00  0.00000000000E+00  0.61774503120E+03  0.61774503122E+03  0.50400001928E-02 0. -1.
        1   -1    0    0  501    0  0.00000000000E+00  0.00000000000E+00 -0.12711886854E+04  0.12711886854E+04  0.50400001928E-02 0.  1.
    10030    2    1    2    0    0  0.00000000000E+00  0.00000000000E+00 -0.65344365420E+03  0.18889337166E+04  0.17723097857E+04 0.  0.
        2    1    3    3  502    0  0.55201994120E+03 -0.15791928884E+03  0.39268041926E+03  0.69560220596E+03  0.25500000920E-02 0. -1.
       -2    1    3    3    0  502 -0.55201994120E+03  0.15791928884E+03 -0.10461240735E+04  0.11933315107E+04  0.25500000920E-02 0.  1.
</event>
<event>
 5   0  0.6853162E-04  0.1800152E+04  0.7818609E-02  0.8706218E-01
       -2   -1    0    0    0  501  0.00000000000E+00  0.00000000000E+00  0.14173357793E+04  0.14173357793E+04  0.25500000920E-02 0. -1.
        2   -1    0    0  501    0  0.00000000000E+00  0.00000000000E+00 -0.57159148520E+03  0.57159148520E+03  0.25500000920E-02 0.  1.
    10030    2    1    2    0    0  0.00000000000E+00  0.00000000000E+00  0.84574429414E+03  0.19889272645E+04  0.18001522859E+04 0.  0.
        2    1    3    3  502    0  0.54650089322E+03  0.58866552112E+03 -0.25854153139E+02  0.80365338255E+03  0.25500000920E-02 0.  1.
       -2    1    3    3    0  502 -0.54650089322E+03 -0.58866552112E+03  0.87159844728E+03  0.11852738820E+04  0.25500000920E-02 0. -1.
</event>
<event>
 5   0  0.3413839E-04  0.1794693E+04  0.7818609E-02  0.8709127E-01
       -1   -1    0    0    0  501  0.00000000000E+00  0.00000000000E+00  0.96180732945E+03  0.96180732947E+03  0.50400001928E-02 0. -1.
        1   -1    0    0  501    0  0.00000000000E+00  0.00000000000E+00 -0.83720605338E+03  0.83720605340E+03  0.50400001928E-02 0.  1.
    10030    2    1    2    0    0  0.00000000000E+00  0.00000000000E+00  0.12460127607E+03  0.17990133829E+04  0.17946931977E+04 0.  0.
        5    1    3    3  502    0  0.81007911028E+03  0.37293815546E+03  0.16202779090E+03  0.90641388324E+03  0.46999998093E+01 0. -1.
       -5    1    3    3    0  502 -0.81007911028E+03 -0.37293815546E+03 -0.37426514825E+02  0.89259949962E+03  0.46999998093E+01 0.  1.
</event>
<event>
 5   0  0.3404261E-04  0.1675761E+04  0.7818609E-02  0.8775311E-01
       -1   -1    0    0    0  501  0.00000000000E+00  0.00000000000E+00  0.45877299549E+03  0.45877299552E+03  0.50400001928E-02 0.  1.
        1   -1    0    0  501    0  0.00000000000E+00  0.00000000000E+00 -0.15302645741E+04  0.15302645741E+04  0.50400001928E-02 0. -1.
    10030    2    1    2    0    0  0.00000000000E+00  0.00000000000E+00 -0.10714915786E+04  0.19890375697E+04  0.16757613942E+04 0.  0.
        1    1    3    3  502    0 -0.23372249873E+03 -0.34557738935E+03  0.32672689646E+03  0.52990603255E+03  0.50400001928E-02 0.  1.
       -1    1    3    3    0  502  0.23372249873E+03  0.34557738935E+03 -0.13982184751E+04  0.14591315371E+04  0.50400001928E-02 0. -1.
</event>
<event>
 5   0  0.6774451E-04  0.1767001E+04  0.7818609E-02  0.8724048E-01
       -2   -1    0    0    0  501  0.00000000000E+00  0.00000000000E+00  0.50888555947E+03  0.50888555948E+03  0.25500000920E-02 0. -1.
        2   -1    0    0  501    0  0.00000000000E+00  0.00000000000E+00 -0.15338872618E+04  0.15338872618E+04  0.25500000920E-02 0.  1.
    10030    2    1    2    0    0  0.00000000000E+00  0.00000000000E+00 -0.10250017024E+04  0.20427728213E+04  0.17670009365E+04 0.  0.
        4    1    3    3  502    0  0.43326878365E+03  0.76944008292E+03 -0.47956642203E+03  0.10048609089E+04  0.12699999809E+01 0. -1.
       -4    1    3    3    0  502 -0.43326878365E+03 -0.76944008292E+03 -0.54543528033E+03  0.10379119125E+04  0.12699999809E+01 0.  1.
</event>
<event>
 5   0  0.3404261E-04  0.1567743E+04  0.7818609E-02  0.8840613E-01
       -1   -1    0    0    0  501  0.00000000000E+00  0.00000000000E+00  0.16752359324E+04  0.16752359324E+04  0.50400001928E-02 0.  1.
        1   -1    0    0  501    0  0.00000000000E+00  0.00000000000E+00 -0.36678692390E+03  0.36678692393E+03  0.50400001928E-02 0. -1.
    10030    2    1    2    0    0  0.00000000000E+00  0.00000000000E+00  0.13084490085E+04  0.20420228563E+04  0.15677431352E+04 0.  0.
        1    1    3    3  502    0 -0.29652003486E+03 -0.90670240651E+02 -0.28351073825E+03  0.42014707228E+03  0.50400001928E-02 0. -1.
       -1    1    3    3    0  502  0.29652003486E+03  0.90670240651E+02  0.15919597467E+04  0.16218757841E+04  0.50400001928E-02 0.  1.
</event>
<event>
 5   0  0.6774451E-04  0.1950587E+04  0.7818609E-02  0.8630078E-01
       -2   -1    0    0    0  501  0.00000000000E+00  0.00000000000E+00  0.98211271115E+03  0.98211271116E+03  0.25500000920E-02 0.  1.
        2   -1    0    0  501    0  0.00000000000E+00  0.00000000000E+00 -0.96852132887E+03  0.96852132887E+03  0.25500000920E-02 0. -1.
    10030    2    1    2    0    0  0.00000000000E+00  0.00000000000E+00  0.13591382284E+02  0.19506340400E+04  0.19505866893E+04 0.  0.
        4    1    3    3  502    0 -0.81516286632E+03  0.29520388672E+03 -0.43993616428E+03  0.97220433803E+03  0.12699999809E+01 0. -1.
       -4    1    3    3    0  502  0.81516286632E+03 -0.29520388672E+03  0.45352754656E+03  0.97842970199E+03  0.12699999809E+01 0.  1.
</event>
<event>
 5   0  0.6547153E-04  0.1554898E+04  0.7818609E-02  0.8848745E-01
       -2   -1    0    0    0  501  0.00000000000E+00  0.00000000000E+00  0.66965658430E+03  0.66965658431E+03  0.25500000920E-02 0. -1.
        2   -1    0    0  501    0  0.00000000000E+00  0.00000000000E+00 -0.90259240738E+03  0.90259240739E+03  0.25500000920E-02 0.  1.
    10030    2    1    2    0    0  0.00000000000E+00  0.00000000000E+00 -0.23293582308E+03  0.15722489917E+04  0.15548980012E+04 0.  0.
        5    1    3    3  502    0  0.73096295252E+03  0.16458053656E+03 -0.32617375898E+03  0.81719336880E+03  0.46999998093E+01 0. -1.
       -5    1    3    3    0  502 -0.73096295252E+03 -0.16458053656E+03  0.93237935902E+02  0.75505562289E+03  0.46999998093E+01 0.  1.
</event>
<event>
 5   0  0.3470962E-04  0.1714609E+04  0.7818609E-02  0.8753076E-01
        1   -1    0    0  501    0  0.00000000000E+00  0.00000000000E+00  0.13434062135E+04  0.13434062135E+04  0.50400001928E-02 0. -1.
       -1   -1    0    0    0  501  0.00000000000E+00  0.00000000000E+00 -0.54709544410E+03  0.54709544412E+03  0.50400001928E-02 0.  1.
    10030    2    1    2    0    0  0.00000000000E+00  0.00000000000E+00  0.79631076942E+03  0.18905016576E+04  0.17146094821E+04 0.  0.
        4    1    3    3  502    0 -0.10738071016E+03 -0.58151691345E+03 -0.28622654586E+03  0.65697776674E+03  0.12699999809E+01 0.  1.
       -4    1    3    3    0  502  0.10738071016E+03  0.58151691345E+03  0.10825373153E+04  0.12335238909E+04  0.12699999809E+01 0. -1.
</event>
<event>
 5   0  0.6547153E-04  0.1806036E+04  0.7818609E-02  0.8703096E-01
        2   -1    0    0  501    0  0.00000000000E+00  0.00000000000E+00  0.12469541823E+04  0.12469541823E+04  0.25500000920E-02 0.  1.
       -2   -1    0    0    0  501  0.00000000000E+00  0.00000000000E+00 -0.65394660093E+03  0.65394660093E+03  0.25500000920E-02 0. -1.
    10030    2    1    2    0    0  0.00000000000E+00  0.00000000000E+00  0.59300758134E+03  0.19009007832E+04  0.18060359343E+04 0.  0.
        5    1    3    3  502    0  0.64867750800E+03  0.57577407112E+03  0.56093958052E+03  0.10329441385E+04  0.46999998093E+01 0.  1.
       -5    1    3    3    0  502 -0.64867750800E+03 -0.57577407112E+03  0.32068000829E+02  0.86795664467E+03  0.46999998093E+01 0. -1.
</event>
<event>
 5   0  0.3377273E-04  0.1748878E+04  0.7818609E-02  0.8733968E-01
        1   -1    0    0  501    0  0.00000000000E+00  0.00000000000E+00  0.13019942243E+04  0.13019942243E+04  0.50400001928E-02 0. -1.
       -1   -1    0    0    0  501  0.00000000000E+00  0.00000000000E+00 -0.58728611987E+03  0.58728611989E+03  0.50400001928E-02 0.  1.
    10030    2    1    2    0    0  0.00000000000E+00  0.00000000000E+00  0.71470810444E+03  0.18892803442E+04  0.17488775099E+04 0.  0.
        2    1    3    3  502    0  0.38371412775E+03  0.13735917176E+03  0.11931172874E+04  0.12608064623E+04  0.25500000920E-02 0. -1.
       -2    1    3    3    0  502 -0.38371412775E+03 -0.13735917176E+03 -0.47840918295E+03  0.62847388191E+03  0.25500000920E-02 0.  1.
</event>
<event>
 5   0  0.6853162E-04  0.1814044E+04  0.7818609E-02  0.8698866E-01
       -2   -1    0    0    0  501  0.00000000000E+00  0.00000000000E+00  0.56736427993E+03  0.56736427993E+03  0.25500000920E-02 0. -1.
        2   -1    0    0  501    0  0.00000000000E+00  0.00000000000E+00 -0.14500192121E+04  0.14500192121E+04  0.25500000920E-02 0.  1.
    10030    2    1    2    0    0  0.00000000000E+00  0.00000000000E+00 -0.88265493216E+03  0.20173834920E+04  0.18140442179E+04 0.  0.
        2    1    3    3  502    0 -0.88962639032E+02  0.72692653891E+03  0.15377415100E+03  0.74832014114E+03  0.25500000920E-02 0. -1.
       -2    1    3    3    0  502  0.88962639032E+02 -0.72692653891E+03 -0.10364290832E+04  0.12690633509E+04  0.25500000920E-02 0.  1.
</event>
<event>
 5   0  0.3413839E-04  0.1760152E+04  0.7818609E-02  0.8727782E-01
       -1   -1    0    0    0  501  0.00000000000E+00  0.00000000000E+00  0.67671437371E+03  0.67671437373E+03  0.50400001928E-02 0. -1.
        1   -1    0    0  501    0  0.00000000000E+00  0.00000000000E+00 -0.11445503171E+04  0.11445503171E+04  0.50400001928E-02 0.  1.
    10030    2    1    2    0    0  0.00000000000E+00  0.00000000000E+00 -0.46783594339E+03  0.18212646908E+04  0.17601518696E+04 0.  0.
        5    1    3    3  502    0  0.33772282673E+03 -0.61097018572E+03  0.32057069844E+03  0.76819850184E+03  0.46999998093E+01 0. -1.
       -5    1    3    3    0  502 -0.33772282673E+03  0.61097018572E+03 -0.78840664183E+03  0.10530661890E+04  0.46999998093E+01 0.  1.
</event>
</LesHouchesEvents>
