<LesHouchesEvents version="3.0">
<header>
<!--
#*********************************************************************
#                                                                    *
#                        MadGraph5_aMC@NLO                           *
#                                                                    *
#                           Going Beyond                             *
#                                                                    *
#                   http://madgraph.hep.uiuc.edu                     *
#                   http://madgraph.phys.ucl.ac.be                   *
#                   http://amcatnlo.cern.ch                          *
#                                                                    *
#                     The MadGraph5_aMC@NLO team                     *
#                                                                    *
#....................................................................*
#                                                                    *
# This file contains all the information necessary to reproduce      *
# the events generated:                                              *
#                                                                    *
# 1. software version                                                *
# 2. proc_card          : code generation info including model       *
# 3. param_card         : model primary parameters in the LH format  *
# 4. run_card           : running parameters (collider and cuts)     *
# 5. pythia_card        : present only if pythia has been run        *
# 6. pgs_card           : present only if pgs has been run           *
# 7. delphes_cards      : present only if delphes has been run       *
#                                                                    *
#                                                                    *
#*********************************************************************
-->
<MGVersion>
#5.2.2.3
</MGVersion>
<MG5ProcCard>
#************************************************************
#*                     MadGraph5_aMC@NLO                    *
#*                                                          *
#*                *                       *                 *
#*                  *        * *        *                   *
#*                    * * * * 5 * * * *                     *
#*                  *        * *        *                   *
#*                *                       *                 *
#*                                                          *
#*                                                          *
#*         VERSION 2.2.3                 2015-02-10         *
#*                                                          *
#*    The MadGraph5_aMC@NLO Development Team - Find us at   *
#*    https://server06.fynu.ucl.ac.be/projects/madgraph     *
#*                                                          *
#************************************************************
#*                                                          *
#*               Command File for MadGraph5_aMC@NLO         *
#*                                                          *
#*     run as ./bin/mg5_aMC  filename                       *
#*                                                          *
#************************************************************
set group_subprocesses Auto
set ignore_six_quark_processes False
set loop_optimized_output True
set gauge unitary
set complex_mass_scheme False
import model sm
define p = g u c d s u~ c~ d~ s~
define j = g u c d s u~ c~ d~ s~
define l+ = e+ mu+
define l- = e- mu-
define vl = ve vm vt
define vl~ = ve~ vm~ vt~
import model Zprime_UFO
generate p p > zph, zph > j j
add process p p > zph, zph > b b~
output Dijet_signal
</MG5ProcCard>
<MGProcCard>
#*********************************************************************
#                        MadGraph/MadEvent                           *
#                   http://madgraph.hep.uiuc.edu                     *
#                                                                    *
#                          proc_card.dat                             *
#*********************************************************************
#                                                                    *
#            This Files is generated by MADGRAPH 5                   *
#                                                                    *
# WARNING: This Files is generated for MADEVENT (compatibility issue)*
#          This files is NOT a valid MG4 proc_card.dat               *
#          Running this in MG4 will NEVER reproduce the result of MG5*
#                                                                    *
#*********************************************************************
#*********************************************************************
# Process(es) requested : mg2 input                                  *
#*********************************************************************
# Begin PROCESS # This is TAG. Do not modify this line
p p > zph , zph > j j           #Process
# Be carefull the coupling are here in MG5 convention
          
end_coup           # End the couplings input

done               # this tells MG there are no more procs
# End PROCESS  # This is TAG. Do not modify this line
#*********************************************************************
# Model information                                                  *
#*********************************************************************
# Begin MODEL  # This is TAG. Do not modify this line
Zprime_UFO
# End   MODEL  # This is TAG. Do not modify this line
#*********************************************************************
# Start multiparticle definitions                                    *
#*********************************************************************
# Begin MULTIPARTICLES # This is TAG. Do not modify this line

# End  MULTIPARTICLES # This is TAG. Do not modify this line
</MGProcCard>
<MGRunCard>
#*********************************************************************
#                       MadGraph5_aMC@NLO                            *
#                                                                    *
#                     run_card.dat MadEvent                          *
#                                                                    *
#  This file is used to set the parameters of the run.               *
#                                                                    *
#  Some notation/conventions:                                        *
#                                                                    *
#   Lines starting with a '# ' are info or comments                  *
#                                                                    *
#   mind the format:   value    = variable     ! comment             *
#*********************************************************************
#
#*******************                                                 
# Running parameters
#*******************                                                 
#                                                                    
#*********************************************************************
# Tag name for the run (one word)                                    *
#*********************************************************************
  tag_1     = run_tag ! name of the run 
#*********************************************************************
# Run to generate the grid pack                                      *
#*********************************************************************
  .false.     = gridpack  !True = setting up the grid pack
#*********************************************************************
# Number of events and rnd seed                                      *
# Warning: Do not generate more than 1M events in a single run       *
# If you want to run Pythia, avoid more than 50k events in a run.    *
#*********************************************************************
  2000 = nevents ! Number of unweighted events requested 
 1362 = iseed   ! rnd seed (0=assigned automatically=default))
#*********************************************************************
# Collider type and energy                                           *
# lpp: 0=No PDF, 1=proton, -1=antiproton, 2=photon from proton,      *
#                                         3=photon from electron     *
#*********************************************************************
        1     = lpp1    ! beam 1 type 
        1     = lpp2    ! beam 2 type
     4000     = ebeam1  ! beam 1 total energy in GeV
     4000     = ebeam2  ! beam 2 total energy in GeV
#*********************************************************************
# Beam polarization from -100 (left-handed) to 100 (right-handed)    *
#*********************************************************************
        0     = polbeam1 ! beam polarization for beam 1
        0     = polbeam2 ! beam polarization for beam 2
#*********************************************************************
# PDF CHOICE: this automatically fixes also alpha_s and its evol.    *
#*********************************************************************
 'nn23lo1'    = pdlabel     ! PDF set                                     
 230000    = lhaid     ! if pdlabel=lhapdf, this is the lhapdf number
#*********************************************************************
# Renormalization and factorization scales                           *
#*********************************************************************
 F        = fixed_ren_scale  ! if .true. use fixed ren scale
 F        = fixed_fac_scale  ! if .true. use fixed fac scale
 91.1880  = scale            ! fixed ren scale
 91.1880  = dsqrt_q2fact1    ! fixed fact scale for pdf1
 91.1880  = dsqrt_q2fact2    ! fixed fact scale for pdf2
 1        = scalefact        ! scale factor for event-by-event scales
#*********************************************************************
# Matching - Warning! ickkw > 1 is still beta
#*********************************************************************
 0        = ickkw            ! 0 no matching, 1 MLM, 2 CKKW matching
 1        = highestmult      ! for ickkw=2, highest mult group
 1        = ktscheme         ! for ickkw=1, 1 Durham kT, 2 Pythia pTE
 1        = alpsfact         ! scale factor for QCD emission vx
 F        = chcluster        ! cluster only according to channel diag
 T        = pdfwgt           ! for ickkw=1, perform pdf reweighting
 5        = asrwgtflavor     ! highest quark flavor for a_s reweight
 T        = clusinfo         ! include clustering tag in output
 3.0      = lhe_version       ! Change the way clustering information pass to shower.        
#*********************************************************************
#**********************************************************
#
#**********************************************************
# Automatic ptj and mjj cuts if xqcut > 0
# (turn off for VBF and single top processes)
#**********************************************************
   T  = auto_ptj_mjj  ! Automatic setting of ptj and mjj
#**********************************************************
#                                                                    
#**********************************
# BW cutoff (M+/-bwcutoff*Gamma)
#**********************************
  15  = bwcutoff      ! (M+/-bwcutoff*Gamma)
#**********************************************************
# Apply pt/E/eta/dr/mij cuts on decay products or not
# (note that etmiss/ptll/ptheavy/ht/sorted cuts always apply)
#**********************************************************
   T  = cut_decays    ! Cut decay products 
#*************************************************************
# Number of helicities to sum per event (0 = all helicities)
# 0 gives more stable result, but longer run time (needed for
# long decay chains e.g.).
# Use >=2 if most helicities contribute, e.g. pure QCD.
#*************************************************************
   0  = nhel          ! Number of helicities used per event
#*******************                                                 
# Standard Cuts
#*******************                                                 
#                                                                    
#*********************************************************************
# Minimum and maximum pt's (for max, -1 means no cut)                *
#*********************************************************************
 20  = ptj       ! minimum pt for the jets 
  0  = ptb       ! minimum pt for the b 
 10  = pta       ! minimum pt for the photons 
 10  = ptl       ! minimum pt for the charged leptons 
  0  = misset    ! minimum missing Et (sum of neutrino's momenta)
  0  = ptheavy   ! minimum pt for one heavy final state
 1.0 = ptonium   ! minimum pt for the quarkonium states
 -1  = ptjmax    ! maximum pt for the jets
 -1  = ptbmax    ! maximum pt for the b
 -1  = ptamax    ! maximum pt for the photons
 -1  = ptlmax    ! maximum pt for the charged leptons
 -1  = missetmax ! maximum missing Et (sum of neutrino's momenta)
#*********************************************************************
# Minimum and maximum E's (in the center of mass frame)              *
#*********************************************************************
  0  = ej     ! minimum E for the jets 
  0  = eb     ! minimum E for the b 
  0  = ea     ! minimum E for the photons 
  0  = el     ! minimum E for the charged leptons 
 -1   = ejmax ! maximum E for the jets
 -1   = ebmax ! maximum E for the b
 -1   = eamax ! maximum E for the photons
 -1   = elmax ! maximum E for the charged leptons
#*********************************************************************
# Maximum and minimum absolute rapidity (for max, -1 means no cut)   *
#*********************************************************************
   5  = etaj    ! max rap for the jets 
  -1  = etab    ! max rap for the b
 2.5  = etaa    ! max rap for the photons 
 2.5  = etal    ! max rap for the charged leptons 
 0.6  = etaonium ! max rap for the quarkonium states
   0  = etajmin ! min rap for the jets
   0  = etabmin ! min rap for the b
   0  = etaamin ! min rap for the photons
   0  = etalmin ! main rap for the charged leptons
#*********************************************************************
# Minimum and maximum DeltaR distance                                *
#*********************************************************************
 0.4 = drjj    ! min distance between jets 
 0   = drbb    ! min distance between b's 
 0.4 = drll    ! min distance between leptons 
 0.4 = draa    ! min distance between gammas 
 0   = drbj    ! min distance between b and jet 
 0.4 = draj    ! min distance between gamma and jet 
 0.4 = drjl    ! min distance between jet and lepton 
 0   = drab    ! min distance between gamma and b 
 0   = drbl    ! min distance between b and lepton 
 0.4 = dral    ! min distance between gamma and lepton 
 -1  = drjjmax ! max distance between jets
 -1  = drbbmax ! max distance between b's
 -1  = drllmax ! max distance between leptons
 -1  = draamax ! max distance between gammas
 -1  = drbjmax ! max distance between b and jet
 -1  = drajmax ! max distance between gamma and jet
 -1  = drjlmax ! max distance between jet and lepton
 -1  = drabmax ! max distance between gamma and b
 -1  = drblmax ! max distance between b and lepton
 -1  = dralmax ! maxdistance between gamma and lepton
#*********************************************************************
# Minimum and maximum invariant mass for pairs                       *
# WARNING: for four lepton final state mmll cut require to have      *
#          different lepton masses for each flavor!                  *           
#*********************************************************************
 0   = mmjj    ! min invariant mass of a jet pair 
 0   = mmbb    ! min invariant mass of a b pair 
 0   = mmaa    ! min invariant mass of gamma gamma pair
 0   = mmll    ! min invariant mass of l+l- (same flavour) lepton pair
 -1  = mmjjmax ! max invariant mass of a jet pair
 -1  = mmbbmax ! max invariant mass of a b pair
 -1  = mmaamax ! max invariant mass of gamma gamma pair
 -1  = mmllmax ! max invariant mass of l+l- (same flavour) lepton pair
#*********************************************************************
# Minimum and maximum invariant mass for all letpons                 *
#*********************************************************************
 0   = mmnl    ! min invariant mass for all letpons (l+- and vl) 
 -1  = mmnlmax ! max invariant mass for all letpons (l+- and vl) 
#*********************************************************************
# Minimum and maximum pt for 4-momenta sum of leptons                *
#*********************************************************************
 0   = ptllmin  ! Minimum pt for 4-momenta sum of leptons(l and vl)
 -1  = ptllmax  ! Maximum pt for 4-momenta sum of leptons(l and vl)
#*********************************************************************
# Inclusive cuts                                                     *
#*********************************************************************
 0  = xptj ! minimum pt for at least one jet  
 0  = xptb ! minimum pt for at least one b 
 0  = xpta ! minimum pt for at least one photon 
 0  = xptl ! minimum pt for at least one charged lepton 
#*********************************************************************
# Control the pt's of the jets sorted by pt                          *
#*********************************************************************
 0   = ptj1min ! minimum pt for the leading jet in pt
 0   = ptj2min ! minimum pt for the second jet in pt
 0   = ptj3min ! minimum pt for the third jet in pt
 0   = ptj4min ! minimum pt for the fourth jet in pt
 -1  = ptj1max ! maximum pt for the leading jet in pt 
 -1  = ptj2max ! maximum pt for the second jet in pt
 -1  = ptj3max ! maximum pt for the third jet in pt
 -1  = ptj4max ! maximum pt for the fourth jet in pt
 0   = cutuse  ! reject event if fails any (0) / all (1) jet pt cuts
#*********************************************************************
# Control the pt's of leptons sorted by pt                           *
#*********************************************************************
 0   = ptl1min ! minimum pt for the leading lepton in pt
 0   = ptl2min ! minimum pt for the second lepton in pt
 0   = ptl3min ! minimum pt for the third lepton in pt
 0   = ptl4min ! minimum pt for the fourth lepton in pt
 -1  = ptl1max ! maximum pt for the leading lepton in pt 
 -1  = ptl2max ! maximum pt for the second lepton in pt
 -1  = ptl3max ! maximum pt for the third lepton in pt
 -1  = ptl4max ! maximum pt for the fourth lepton in pt
#*********************************************************************
# Control the Ht(k)=Sum of k leading jets                            *
#*********************************************************************
 0   = htjmin ! minimum jet HT=Sum(jet pt)
 -1  = htjmax ! maximum jet HT=Sum(jet pt)
 0   = ihtmin  !inclusive Ht for all partons (including b)
 -1  = ihtmax  !inclusive Ht for all partons (including b)
 0   = ht2min ! minimum Ht for the two leading jets
 0   = ht3min ! minimum Ht for the three leading jets
 0   = ht4min ! minimum Ht for the four leading jets
 -1  = ht2max ! maximum Ht for the two leading jets
 -1  = ht3max ! maximum Ht for the three leading jets
 -1  = ht4max ! maximum Ht for the four leading jets
#***********************************************************************
# Photon-isolation cuts, according to hep-ph/9801442                   *
# When ptgmin=0, all the other parameters are ignored                  *
# When ptgmin>0, pta and draj are not going to be used                 *
#***********************************************************************
   0 = ptgmin ! Min photon transverse momentum
 0.4 = R0gamma ! Radius of isolation code
 1.0 = xn ! n parameter of eq.(3.4) in hep-ph/9801442
 1.0 = epsgamma ! epsilon_gamma parameter of eq.(3.4) in hep-ph/9801442
 .true. = isoEM ! isolate photons from EM energy (photons and leptons)
#*********************************************************************
# WBF cuts                                                           *
#*********************************************************************
 0   = xetamin ! minimum rapidity for two jets in the WBF case  
 0   = deltaeta ! minimum rapidity for two jets in the WBF case 
#*********************************************************************
# KT DURHAM CUT                                                      *
#*********************************************************************
 -1    =  ktdurham        
 0.4  =  dparameter 
#*********************************************************************
# maximal pdg code for quark to be considered as a light jet         *
# (otherwise b cuts are applied)                                     *
#*********************************************************************
 4 = maxjetflavor    ! Maximum jet pdg code
#*********************************************************************
# Jet measure cuts                                                   *
#*********************************************************************
 0   = xqcut   ! minimum kt jet measure between partons
#*********************************************************************
#
#*********************************************************************
# Store info for systematics studies                                 *
# WARNING: If use_syst is T, matched Pythia output is                *
#          meaningful ONLY if plotted taking matchscale              *
#          reweighting into account!                                 *
#*********************************************************************
   F  = use_syst      ! Enable systematics studies
#
#**************************************
# Parameter of the systematics study
#  will be used by SysCalc (if installed)
#**************************************                                  
#
0.5 1 2 = sys_scalefact  # factorization/renormalization scale factor
0.5 1 2 = sys_alpsfact  # \alpha_s emission scale factors
30 50 = sys_matchscale # variation of merging scale
# PDF sets and number of members (0 or none for all members).
CT10nlo.LHgrid = sys_pdf # matching scales
# MSTW2008nlo68cl.LHgrid 1  = sys_pdf
</MGRunCard>
<slha>
######################################################################
## PARAM_CARD AUTOMATICALY GENERATED BY MG5 FOLLOWING UFO MODEL   ####
######################################################################
##                                                                  ##
##  Width set on Auto will be computed following the information    ##
##        present in the decay.py files of the model.               ##
##        See  arXiv:1402.1178 for more details.                    ##
##                                                                  ##
######################################################################

###################################
## INFORMATION FOR CKMBLOCK
###################################
Block ckmblock 
    1 2.277360e-01 # cabi 

###################################
## INFORMATION FOR FRBLOCK
###################################
Block frblock 
    1 6.000000e-01 # gz 

###################################
## INFORMATION FOR MASS
###################################
Block mass 
    1 5.040000e-03 # MD 
    2 2.550000e-03 # MU 
    3 1.010000e-01 # MS 
    4 1.270000e+00 # MC 
    5 4.700000e+00 # MB 
    6 1.720000e+02 # MT 
   11 5.110000e-04 # Me 
   13 1.056600e-01 # MM 
   15 1.777000e+00 # MTA 
   23 9.118760e+01 # MZ 
   25 1.200000e+02 # MH 
  10030 2.900000e+03 # MZph 
  10031 3.000000e+02 # MZpl 
## Dependent parameters, given by model restrictions.
## Those values should be edited following the 
## analytical expression. MG5 ignores those values 
## but they are important for interfacing the output of MG5
## to external program such as Pythia.
  12 0.000000 # ve : 0.0 
  14 0.000000 # vm : 0.0 
  16 0.000000 # vt : 0.0 
  21 0.000000 # g : 0.0 
  22 0.000000 # a : 0.0 
  24 79.824360 # w+ : cmath.sqrt(MZ__exp__2/2. + cmath.sqrt(MZ__exp__4/4. - (aEW*cmath.pi*MZ__exp__2)/(Gf*sqrt__2))) 

###################################
## INFORMATION FOR SMINPUTS
###################################
Block sminputs 
    1 1.279000e+02 # aEWM1 
    2 1.166370e-05 # Gf 
    3 1.184000e-01 # aS 

###################################
## INFORMATION FOR YUKAWA
###################################
Block yukawa 
    1 5.040000e-03 # ymdo 
    2 2.550000e-03 # ymup 
    3 1.010000e-01 # yms 
    4 1.270000e+00 # ymc 
    5 4.700000e+00 # ymb 
    6 1.720000e+02 # ymt 
   11 5.110000e-04 # yme 
   13 1.056600e-01 # ymm 
   15 1.777000e+00 # ymtau 

###################################
## INFORMATION FOR DECAY
###################################
DECAY   6 1.508336e+00 # WT 
DECAY  23 2.495200e+00 # WZ 
DECAY  24 2.085000e+00 # WW 
DECAY  25 5.753088e-03 # WH 
## Dependent parameters, given by model restrictions.
## Those values should be edited following the 
## analytical expression. MG5 ignores those values 
## but they are important for interfacing the output of MG5
## to external program such as Pythia.
DECAY  1 0.000000 # d : 0.0 
DECAY  2 0.000000 # u : 0.0 
DECAY  3 0.000000 # s : 0.0 
DECAY  4 0.000000 # c : 0.0 
DECAY  5 0.000000 # b : 0.0 
DECAY  11 0.000000 # e- : 0.0 
DECAY  12 0.000000 # ve : 0.0 
DECAY  13 0.000000 # mu- : 0.0 
DECAY  14 0.000000 # vm : 0.0 
DECAY  15 0.000000 # ta- : 0.0 
DECAY  16 0.000000 # vt : 0.0 
DECAY  21 0.000000 # g : 0.0 
DECAY  22 0.000000 # a : 0.0 
DECAY  10030 0.308725 # zph : (gz__exp__2*MZph*(5 + cmath.sqrt(1 - (4*MT__exp__2)/MZph__exp__2)))/(144.*cmath.pi) 
DECAY  10031 0.132629 # zpl : (5*gz__exp__2*MZpl)/(144.*cmath.pi) 
#===========================================================
# QUANTUM NUMBERS OF NEW STATE(S) (NON SM PDG CODE)
#===========================================================

Block QNUMBERS 10030  # zph 
        1 0  # 3 times electric charge
        2 3  # number of spin states (2S+1)
        3 1  # colour rep (1: singlet, 3: triplet, 8: octet)
        4 0  # Particle/Antiparticle distinction (0=own anti)
Block QNUMBERS 10031  # zpl 
        1 0  # 3 times electric charge
        2 3  # number of spin states (2S+1)
        3 1  # colour rep (1: singlet, 3: triplet, 8: octet)
        4 0  # Particle/Antiparticle distinction (0=own anti)
</slha>
## END BANNER##
<MGGenerationInfo>
#  Number of Events        :         3892
#  Integrated weight (pb)  :  0.60969E-03
#  Max wgt                 :  0.24258E-06
#  Average wgt             :  0.15665E-06
</MGGenerationInfo>
</header>
<init>
     2212     2212  0.40000000000E+04  0.40000000000E+04 0 0  247000  247000 2   1
  0.61052939896E-03  0.11839277475E-05  0.24258450000E-06   0
</init>
<event>
 5   0  0.2304435E-06  0.2911640E+04  0.7818609E-02  0.8269423E-01
       -2   -1    0    0    0  501  0.00000000000E+00  0.00000000000E+00  0.90452527551E+03  0.90452527551E+03  0.25500000920E-02 0.  1.
        2   -1    0    0  501    0  0.00000000000E+00  0.00000000000E+00 -0.23431199596E+04  0.23431199596E+04  0.25500000920E-02 0. -1.
    10030    2    1    2    0    0  0.00000000000E+00  0.00000000000E+00 -0.14385946841E+04  0.32476452351E+04  0.29116395567E+04 0.  0.
        1    1    3    3  502    0  0.22264990298E+03 -0.91056259345E+03 -0.19617127086E+04  0.21741697190E+04  0.50400001928E-02 0. -1.
       -1    1    3    3    0  502 -0.22264990298E+03  0.91056259345E+03  0.52311802458E+03  0.10734755160E+04  0.50400001928E-02 0.  1.
</event>
<event>
 5   0  0.2304435E-06  0.2892158E+04  0.7818609E-02  0.8275214E-01
       -2   -1    0    0    0  501  0.00000000000E+00  0.00000000000E+00  0.14123222351E+04  0.14123222351E+04  0.25500000920E-02 0.  1.
        2   -1    0    0  501    0  0.00000000000E+00  0.00000000000E+00 -0.14806426771E+04  0.14806426771E+04  0.25500000920E-02 0. -1.
    10030    2    1    2    0    0  0.00000000000E+00  0.00000000000E+00 -0.68320442016E+02  0.28929649123E+04  0.28921580698E+04 0.  0.
        1    1    3    3  502    0  0.13996634794E+04 -0.35956046627E+03  0.18797827356E+02  0.14452317955E+04  0.50400001928E-02 0. -1.
       -1    1    3    3    0  502 -0.13996634794E+04  0.35956046627E+03 -0.87118269372E+02  0.14477331167E+04  0.50400001928E-02 0.  1.
</event>
<event>
 5   0  0.2378690E-06  0.2902871E+04  0.7818609E-02  0.8272024E-01
       -2   -1    0    0    0  501  0.00000000000E+00  0.00000000000E+00  0.14356727267E+04  0.14356727267E+04  0.25500000920E-02 0.  1.
        2   -1    0    0  501    0  0.00000000000E+00  0.00000000000E+00 -0.14673710263E+04  0.14673710263E+04  0.25500000920E-02 0. -1.
    10030    2    1    2    0    0  0.00000000000E+00  0.00000000000E+00 -0.31698299598E+02  0.29030437529E+04  0.29028706911E+04 0.  0.
        3    1    3    3  502    0  0.45566735981E+03 -0.10604898978E+04 -0.89589762764E+03  0.14611311151E+04  0.10100000352E+00 0. -1.
       -3    1    3    3    0  502 -0.45566735981E+03  0.10604898978E+04  0.86419932804E+03  0.14419126378E+04  0.10100000352E+00 0.  1.
</event>
<event>
 5   0  0.2304435E-06  0.2878040E+04  0.7818609E-02  0.8279441E-01
       -2   -1    0    0    0  501  0.00000000000E+00  0.00000000000E+00  0.15036013892E+04  0.15036013892E+04  0.25500000920E-02 0.  1.
        2   -1    0    0  501    0  0.00000000000E+00  0.00000000000E+00 -0.13772121245E+04  0.13772121245E+04  0.25500000920E-02 0. -1.
    10030    2    1    2    0    0  0.00000000000E+00  0.00000000000E+00  0.12638926465E+03  0.28808135137E+04  0.28780396548E+04 0.  0.
        1    1    3    3  502    0  0.10433329564E+04 -0.58828723863E+03 -0.73516579446E+03  0.14053804746E+04  0.50400001928E-02 0. -1.
       -1    1    3    3    0  502 -0.10433329564E+04  0.58828723863E+03  0.86155505911E+03  0.14754330391E+04  0.50400001928E-02 0.  1.
</event>
<event>
 5   0  0.2378690E-06  0.2906747E+04  0.7818609E-02  0.8270873E-01
       -2   -1    0    0    0  501  0.00000000000E+00  0.00000000000E+00  0.16919206452E+04  0.16919206452E+04  0.25500000920E-02 0. -1.
        2   -1    0    0  501    0  0.00000000000E+00  0.00000000000E+00 -0.12484593189E+04  0.12484593189E+04  0.25500000920E-02 0.  1.
    10030    2    1    2    0    0  0.00000000000E+00  0.00000000000E+00  0.44346132635E+03  0.29403799641E+04  0.29067467013E+04 0.  0.
        3    1    3    3  502    0 -0.21639331295E+03 -0.82723403507E+02 -0.12296618312E+04  0.12512943126E+04  0.10100000352E+00 0.  1.
       -3    1    3    3    0  502  0.21639331295E+03  0.82723403507E+02  0.16731231576E+04  0.16890856515E+04  0.10100000352E+00 0. -1.
</event>
<event>
 5   0  0.8357118E-07  0.2838635E+04  0.7818609E-02  0.8291373E-01
        1   -1    0    0  501    0  0.00000000000E+00  0.00000000000E+00  0.13460161468E+04  0.13460161468E+04  0.50400001928E-02 0.  1.
       -1   -1    0    0    0  501  0.00000000000E+00  0.00000000000E+00 -0.14966111240E+04  0.14966111240E+04  0.50400001928E-02 0. -1.
    10030    2    1    2    0    0  0.00000000000E+00  0.00000000000E+00 -0.15059497723E+03  0.28426272708E+04  0.28386354034E+04 0.  0.
        1    1    3    3  502    0  0.98092346743E+03 -0.24455012681E+03  0.92231985809E+03  0.13684624709E+04  0.50400001928E-02 0.  1.
       -1    1    3    3    0  502 -0.98092346743E+03  0.24455012681E+03 -0.10729148353E+04  0.14741647999E+04  0.50400001928E-02 0. -1.
</event>
<event>
 5   0  0.8947674E-07  0.2896192E+04  0.7818609E-02  0.8274011E-01
       -1   -1    0    0    0  501  0.00000000000E+00  0.00000000000E+00  0.17846432947E+04  0.17846432947E+04  0.50400001928E-02 0. -1.
        1   -1    0    0  501    0  0.00000000000E+00  0.00000000000E+00 -0.11750149293E+04  0.11750149293E+04  0.50400001928E-02 0.  1.
    10030    2    1    2    0    0  0.00000000000E+00  0.00000000000E+00  0.60962836544E+03  0.29596582240E+04  0.28961923380E+04 0.  0.
        3    1    3    3  502    0 -0.50433995554E+03 -0.95408830829E+03 -0.68192219058E+03  0.12765818325E+04  0.10100000352E+00 0.  1.
       -3    1    3    3    0  502  0.50433995554E+03  0.95408830829E+03  0.12915505560E+04  0.16830763915E+04  0.10100000352E+00 0. -1.
</event>
<event>
 5   0  0.2304435E-06  0.2906554E+04  0.7818609E-02  0.8270930E-01
       -2   -1    0    0    0  501  0.00000000000E+00  0.00000000000E+00  0.11513097002E+04  0.11513097002E+04  0.25500000920E-02 0.  1.
        2   -1    0    0  501    0  0.00000000000E+00  0.00000000000E+00 -0.18344453705E+04  0.18344453705E+04  0.25500000920E-02 0. -1.
    10030    2    1    2    0    0  0.00000000000E+00  0.00000000000E+00 -0.68313567028E+03  0.29857550707E+04  0.29065544891E+04 0.  0.
        1    1    3    3  502    0 -0.14414458414E+04 -0.37066676417E+02 -0.15531341379E+03  0.14502628412E+04  0.50400001928E-02 0.  1.
       -1    1    3    3    0  502  0.14414458414E+04  0.37066676417E+02 -0.52782225649E+03  0.15354922294E+04  0.50400001928E-02 0. -1.
</event>
<event>
 5   0  0.8483636E-07  0.2839460E+04  0.7818609E-02  0.8291121E-01
       -1   -1    0    0    0  501  0.00000000000E+00  0.00000000000E+00  0.10554810657E+04  0.10554810657E+04  0.50400001928E-02 0.  1.
        1   -1    0    0  501    0  0.00000000000E+00  0.00000000000E+00 -0.19096823048E+04  0.19096823048E+04  0.50400001928E-02 0. -1.
    10030    2    1    2    0    0  0.00000000000E+00  0.00000000000E+00 -0.85420123915E+03  0.29651633705E+04  0.28394601700E+04 0.  0.
        2    1    3    3  502    0  0.11629283311E+04 -0.81258388535E+03 -0.37049154617E+03  0.14662738011E+04  0.25500000920E-02 0. -1.
       -2    1    3    3    0  502 -0.11629283311E+04  0.81258388535E+03 -0.48370969298E+03  0.14988895694E+04  0.25500000920E-02 0.  1.
</event>
<event>
 5   0  0.2304435E-06  0.2907365E+04  0.7818609E-02  0.8270690E-01
       -2   -1    0    0    0  501  0.00000000000E+00  0.00000000000E+00  0.14966382957E+04  0.14966382957E+04  0.25500000920E-02 0.  1.
        2   -1    0    0  501    0  0.00000000000E+00  0.00000000000E+00 -0.14119591257E+04  0.14119591257E+04  0.25500000920E-02 0. -1.
    10030    2    1    2    0    0  0.00000000000E+00  0.00000000000E+00  0.84679170005E+02  0.29085974214E+04  0.29073645107E+04 0.  0.
        1    1    3    3  502    0 -0.63766358536E+03  0.53869496616E+03 -0.11482848383E+04  0.14196355816E+04  0.50400001928E-02 0. -1.
       -1    1    3    3    0  502  0.63766358536E+03 -0.53869496616E+03  0.12329640083E+04  0.14889618398E+04  0.50400001928E-02 0.  1.
</event>
<event>
 5   0  0.8483636E-07  0.2911811E+04  0.7818609E-02  0.8269372E-01
        1   -1    0    0  501    0  0.00000000000E+00  0.00000000000E+00  0.18908437421E+04  0.18908437421E+04  0.50400001928E-02 0. -1.
       -1   -1    0    0    0  501  0.00000000000E+00  0.00000000000E+00 -0.11210132493E+04  0.11210132493E+04  0.50400001928E-02 0.  1.
    10030    2    1    2    0    0  0.00000000000E+00  0.00000000000E+00  0.76983049283E+03  0.30118569914E+04  0.29118110428E+04 0.  0.
        2    1    3    3  502    0  0.13221218484E+04 -0.53208575407E+03  0.69269466963E+03  0.15845969005E+04  0.25500000920E-02 0. -1.
       -2    1    3    3    0  502 -0.13221218484E+04  0.53208575407E+03  0.77135823208E+02  0.14272600909E+04  0.25500000920E-02 0.  1.
</event>
<event>
 5   0  0.2325590E-06  0.2904558E+04  0.7818609E-02  0.8271523E-01
        2   -1    0    0  501    0  0.00000000000E+00  0.00000000000E+00  0.20022898771E+04  0.20022898771E+04  0.25500000920E-02 0.  1.
       -2   -1    0    0    0  501  0.00000000000E+00  0.00000000000E+00 -0.10533511551E+04  0.10533511551E+04  0.25500000920E-02 0. -1.
    10030    2    1    2    0    0  0.00000000000E+00  0.00000000000E+00  0.94893872201E+03  0.30556410321E+04  0.29045580420E+04 0.  0.
        5    1    3    3  502    0 -0.27145325774E+03 -0.11273239199E+03  0.19706625302E+04  0.19924679072E+04  0.46999998093E+01 0.  1.
       -5    1    3    3    0  502  0.27145325774E+03  0.11273239199E+03 -0.10217238082E+04  0.10631731249E+04  0.46999998093E+01 0. -1.
</event>
<event>
 5   0  0.8263673E-07  0.2905367E+04  0.7818609E-02  0.8271283E-01
       -1   -1    0    0    0  501  0.00000000000E+00  0.00000000000E+00  0.75792844367E+03  0.75792844369E+03  0.50400001928E-02 0.  1.
        1   -1    0    0  501    0  0.00000000000E+00  0.00000000000E+00 -0.27842849003E+04  0.27842849003E+04  0.50400001928E-02 0. -1.
    10030    2    1    2    0    0  0.00000000000E+00  0.00000000000E+00 -0.20263564566E+04  0.35422133440E+04  0.29053665664E+04 0.  0.
        5    1    3    3  502    0  0.68901484413E+03  0.69333852376E+02  0.54373070921E+03  0.88046227214E+03  0.46999998093E+01 0.  1.
       -5    1    3    3    0  502 -0.68901484413E+03 -0.69333852376E+02 -0.25700871658E+04  0.26617510718E+04  0.46999998093E+01 0. -1.
</event>
<event>
 5   0  0.8357118E-07  0.2908036E+04  0.7818609E-02  0.8270491E-01
        1   -1    0    0  501    0  0.00000000000E+00  0.00000000000E+00  0.72567727840E+03  0.72567727842E+03  0.50400001928E-02 0.  1.
       -1   -1    0    0    0  501  0.00000000000E+00  0.00000000000E+00 -0.29133719958E+04  0.29133719958E+04  0.50400001928E-02 0. -1.
    10030    2    1    2    0    0  0.00000000000E+00  0.00000000000E+00 -0.21876947174E+04  0.36390492742E+04  0.29080356675E+04 0.  0.
        1    1    3    3  502    0 -0.15190732215E+03 -0.85752965194E+03  0.36320647806E+03  0.94358459304E+03  0.50400001928E-02 0.  1.
       -1    1    3    3    0  502  0.15190732215E+03  0.85752965194E+03 -0.25509011955E+04  0.26954646812E+04  0.50400001928E-02 0. -1.
</event>
<event>
 5   0  0.8947674E-07  0.2900387E+04  0.7818609E-02  0.8272762E-01
        1   -1    0    0  501    0  0.00000000000E+00  0.00000000000E+00  0.22234372371E+04  0.22234372371E+04  0.50400001928E-02 0.  1.
       -1   -1    0    0    0  501  0.00000000000E+00  0.00000000000E+00 -0.94586023640E+03  0.94586023641E+03  0.50400001928E-02 0. -1.
    10030    2    1    2    0    0  0.00000000000E+00  0.00000000000E+00  0.12775770007E+04  0.31692974736E+04  0.29003867816E+04 0.  0.
        3    1    3    3  502    0 -0.15186076312E+03  0.13741790119E+04  0.16044463260E+03  0.13918233144E+04  0.10100000352E+00 0. -1.
       -3    1    3    3    0  502  0.15186076312E+03 -0.13741790119E+04  0.11171323681E+04  0.17774741591E+04  0.10100000352E+00 0.  1.
</event>
<event>
 5   0  0.8947674E-07  0.2899347E+04  0.7818609E-02  0.8273072E-01
       -1   -1    0    0    0  501  0.00000000000E+00  0.00000000000E+00  0.12345184845E+04  0.12345184845E+04  0.50400001928E-02 0.  1.
        1   -1    0    0  501    0  0.00000000000E+00  0.00000000000E+00 -0.17023267741E+04  0.17023267741E+04  0.50400001928E-02 0. -1.
    10030    2    1    2    0    0  0.00000000000E+00  0.00000000000E+00 -0.46780828952E+03  0.29368452586E+04  0.28993474227E+04 0.  0.
        3    1    3    3  502    0 -0.17579932854E+03 -0.69602055804E+03 -0.15096386536E+04  0.16716336009E+04  0.10100000352E+00 0. -1.
       -3    1    3    3    0  502  0.17579932854E+03  0.69602055804E+03  0.10418303640E+04  0.12652116577E+04  0.10100000352E+00 0.  1.
</event>
<event>
 5   0  0.2304435E-06  0.2920886E+04  0.7818609E-02  0.8266690E-01
       -2   -1    0    0    0  501  0.00000000000E+00  0.00000000000E+00  0.12123658221E+04  0.12123658221E+04  0.25500000920E-02 0.  1.
        2   -1    0    0  501    0  0.00000000000E+00  0.00000000000E+00 -0.17592826386E+04  0.17592826386E+04  0.25500000920E-02 0. -1.
    10030    2    1    2    0    0  0.00000000000E+00  0.00000000000E+00 -0.54691681650E+03  0.29716484606E+04  0.29208862644E+04 0.  0.
        1    1    3    3  502    0 -0.13345018026E+04 -0.37167744121E+03  0.19702298244E+03  0.13992345183E+04  0.50400001928E-02 0. -1.
       -1    1    3    3    0  502  0.13345018026E+04  0.37167744121E+03 -0.74393979894E+03  0.15724139423E+04  0.50400001928E-02 0.  1.
</event>
<event>
 5   0  0.8355946E-07  0.2913011E+04  0.7818609E-02  0.8269017E-01
       -1   -1    0    0    0  501  0.00000000000E+00  0.00000000000E+00  0.98672638291E+03  0.98672638292E+03  0.50400001928E-02 0. -1.
        1   -1    0    0  501    0  0.00000000000E+00  0.00000000000E+00 -0.21499460123E+04  0.21499460123E+04  0.50400001928E-02 0.  1.
    10030    2    1    2    0    0  0.00000000000E+00  0.00000000000E+00 -0.11632196294E+04  0.31366723952E+04  0.29130111240E+04 0.  0.
        4    1    3    3  502    0  0.10539882257E+04 -0.65947128970E+02 -0.16617048623E+04  0.19688841677E+04  0.12699999809E+01 0.  1.
       -4    1    3    3    0  502 -0.10539882257E+04  0.65947128970E+02  0.49848523292E+03  0.11677882274E+04  0.12699999809E+01 0. -1.
</event>
<event>
 5   0  0.8357118E-07  0.2894374E+04  0.7818609E-02  0.8274553E-01
        1   -1    0    0  501    0  0.00000000000E+00  0.00000000000E+00  0.32204691030E+04  0.32204691030E+04  0.50400001928E-02 0.  1.
       -1   -1    0    0    0  501  0.00000000000E+00  0.00000000000E+00 -0.65032457378E+03  0.65032457380E+03  0.50400001928E-02 0. -1.
    10030    2    1    2    0    0  0.00000000000E+00  0.00000000000E+00  0.25701445292E+04  0.38707936768E+04  0.28943739888E+04 0.  0.
        1    1    3    3  502    0 -0.32005352047E+03  0.49720280974E+03  0.30515428793E+04  0.31083048168E+04  0.50400001928E-02 0.  1.
       -1    1    3    3    0  502  0.32005352047E+03 -0.49720280974E+03 -0.48139835014E+03  0.76248885993E+03  0.50400001928E-02 0. -1.
</event>
<event>
 5   0  0.2425845E-06  0.2898865E+04  0.7818609E-02  0.8273215E-01
        2   -1    0    0  501    0  0.00000000000E+00  0.00000000000E+00  0.12890112938E+04  0.12890112938E+04  0.25500000920E-02 0.  1.
       -2   -1    0    0    0  501  0.00000000000E+00  0.00000000000E+00 -0.16298180745E+04  0.16298180745E+04  0.25500000920E-02 0. -1.
    10030    2    1    2    0    0  0.00000000000E+00  0.00000000000E+00 -0.34080678066E+03  0.29188293683E+04  0.28988645397E+04 0.  0.
        2    1    3    3  502    0  0.78992871223E+03 -0.11096356983E+04  0.32856495622E+03  0.14011544112E+04  0.25500000920E-02 0.  1.
       -2    1    3    3    0  502 -0.78992871223E+03  0.11096356983E+04 -0.66937173688E+03  0.15176749572E+04  0.25500000920E-02 0. -1.
</event>
<event>
 5   0  0.8947674E-07  0.2901698E+04  0.7818609E-02  0.8272373E-01
        1   -1    0    0  501    0  0.00000000000E+00  0.00000000000E+00  0.25678167385E+04  0.25678167385E+04  0.50400001928E-02 0.  1.
       -1   -1    0    0    0  501  0.00000000000E+00  0.00000000000E+00 -0.81974789730E+03  0.81974789732E+03  0.50400001928E-02 0. -1.
    10030    2    1    2    0    0  0.00000000000E+00  0.00000000000E+00  0.17480688412E+04  0.33875646358E+04  0.29016976907E+04 0.  0.
        3    1    3    3  502    0  0.60811147788E+03 -0.27105135412E+03  0.23789458703E+04  0.24703546041E+04  0.10100000352E+00 0.  1.
       -3    1    3    3    0  502 -0.60811147788E+03  0.27105135412E+03 -0.63087702913E+03  0.91721003167E+03  0.10100000352E+00 0. -1.
</event>
<event>
 5   0  0.2378690E-06  0.2877878E+04  0.7818609E-02  0.8279490E-01
       -2   -1    0    0    0  501  0.00000000000E+00  0.00000000000E+00  0.12508604986E+04  0.12508604986E+04  0.25500000920E-02 0. -1.
        2   -1    0    0  501    0  0.00000000000E+00  0.00000000000E+00 -0.16552969437E+04  0.16552969437E+04  0.25500000920E-02 0.  1.
    10030    2    1    2    0    0  0.00000000000E+00  0.00000000000E+00 -0.40443644509E+03  0.29061574424E+04  0.28778780797E+04 0.  0.
        3    1    3    3  502    0  0.56136199811E+03  0.17383663295E+03  0.11241568664E+04  0.12684932552E+04  0.10100000352E+00 0. -1.
       -3    1    3    3    0  502 -0.56136199811E+03 -0.17383663295E+03 -0.15285933115E+04  0.16376641872E+04  0.10100000352E+00 0.  1.
</event>
<event>
 5   0  0.8357118E-07  0.2897006E+04  0.7818609E-02  0.8273769E-01
        1   -1    0    0  501    0  0.00000000000E+00  0.00000000000E+00  0.75723045234E+03  0.75723045236E+03  0.50400001928E-02 0.  1.
       -1   -1    0    0    0  501  0.00000000000E+00  0.00000000000E+00 -0.27708348378E+04  0.27708348378E+04  0.50400001928E-02 0. -1.
    10030    2    1    2    0    0  0.00000000000E+00  0.00000000000E+00 -0.20136043855E+04  0.35280652902E+04  0.28970057077E+04 0.  0.
        1    1    3    3  502    0  0.10993984218E+04 -0.51889650570E+03 -0.19659016883E+04  0.23114281130E+04  0.50400001928E-02 0. -1.
       -1    1    3    3    0  502 -0.10993984218E+04  0.51889650570E+03 -0.47702697184E+02  0.12166371772E+04  0.50400001928E-02 0.  1.
</event>
<event>
 5   0  0.2425845E-06  0.3037442E+04  0.7818609E-02  0.8233119E-01
       -2   -1    0    0    0  501  0.00000000000E+00  0.00000000000E+00  0.96209233286E+03  0.96209233286E+03  0.25500000920E-02 0.  1.
        2   -1    0    0  501    0  0.00000000000E+00  0.00000000000E+00 -0.23973933106E+04  0.23973933106E+04  0.25500000920E-02 0. -1.
    10030    2    1    2    0    0  0.00000000000E+00  0.00000000000E+00 -0.14353009777E+04  0.33594856434E+04  0.30374421627E+04 0.  0.
        2    1    3    3  502    0  0.17044092783E+03  0.92904367442E+03 -0.20330022459E+04  0.22417114870E+04  0.25500000920E-02 0. -1.
       -2    1    3    3    0  502 -0.17044092783E+03 -0.92904367442E+03  0.59770126821E+03  0.11177741565E+04  0.25500000920E-02 0.  1.
</event>
<event>
 5   0  0.8483636E-07  0.2853274E+04  0.7818609E-02  0.8286917E-01
       -1   -1    0    0    0  501  0.00000000000E+00  0.00000000000E+00  0.11412219597E+04  0.11412219597E+04  0.50400001928E-02 0.  1.
        1   -1    0    0  501    0  0.00000000000E+00  0.00000000000E+00 -0.17834336005E+04  0.17834336005E+04  0.50400001928E-02 0. -1.
    10030    2    1    2    0    0  0.00000000000E+00  0.00000000000E+00 -0.64221164085E+03  0.29246555602E+04  0.28532743216E+04 0.  0.
        2    1    3    3  502    0  0.71125749562E+03 -0.11993364061E+04 -0.63031218938E+03  0.15302249822E+04  0.25500000920E-02 0.  1.
       -2    1    3    3    0  502 -0.71125749562E+03  0.11993364061E+04 -0.11899451469E+02  0.13944305780E+04  0.25500000920E-02 0. -1.
</event>
<event>
 5   0  0.2378690E-06  0.2914194E+04  0.7818609E-02  0.8268667E-01
       -2   -1    0    0    0  501  0.00000000000E+00  0.00000000000E+00  0.12970476216E+04  0.12970476216E+04  0.25500000920E-02 0. -1.
        2   -1    0    0  501    0  0.00000000000E+00  0.00000000000E+00 -0.16368956698E+04  0.16368956698E+04  0.25500000920E-02 0.  1.
    10030    2    1    2    0    0  0.00000000000E+00  0.00000000000E+00 -0.33984804820E+03  0.29339432914E+04  0.29141939780E+04 0.  0.
        3    1    3    3  502    0 -0.87719566495E+03 -0.11455571494E+04 -0.37466940629E+03  0.14906879591E+04  0.10100000352E+00 0. -1.
       -3    1    3    3    0  502  0.87719566495E+03  0.11455571494E+04  0.34821358092E+02  0.14432553323E+04  0.10100000352E+00 0.  1.
</event>
<event>
 5   0  0.2325590E-06  0.2926549E+04  0.7818609E-02  0.8265022E-01
        2   -1    0    0  501    0  0.00000000000E+00  0.00000000000E+00  0.13170849704E+04  0.13170849704E+04  0.25500000920E-02 0.  1.
       -2   -1    0    0    0  501  0.00000000000E+00  0.00000000000E+00 -0.16256908492E+04  0.16256908492E+04  0.25500000920E-02 0. -1.
    10030    2    1    2    0    0  0.00000000000E+00  0.00000000000E+00 -0.30860587878E+03  0.29427758196E+04  0.29265494932E+04 0.  0.
        5    1    3    3  502    0 -0.13480518003E+04  0.49030331960E+03 -0.44488598305E+03  0.15018610553E+04  0.46999998093E+01 0. -1.
       -5    1    3    3    0  502  0.13480518003E+04 -0.49030331960E+03  0.13628010427E+03  0.14409147644E+04  0.46999998093E+01 0.  1.
</event>
<event>
 5   0  0.8483636E-07  0.2966057E+04  0.7818609E-02  0.8253491E-01
        1   -1    0    0  501    0  0.00000000000E+00  0.00000000000E+00  0.21065840560E+04  0.21065840561E+04  0.50400001928E-02 0. -1.
       -1   -1    0    0    0  501  0.00000000000E+00  0.00000000000E+00 -0.10440471654E+04  0.10440471655E+04  0.50400001928E-02 0.  1.
    10030    2    1    2    0    0  0.00000000000E+00  0.00000000000E+00  0.10625368906E+04  0.31506312215E+04  0.29660567173E+04 0.  0.
        2    1    3    3  502    0 -0.12246047438E+04 -0.51414700577E+03  0.12321537706E+04  0.18116861860E+04  0.25500000920E-02 0. -1.
       -2    1    3    3    0  502  0.12246047438E+04  0.51414700577E+03 -0.16961688001E+03  0.13389450355E+04  0.25500000920E-02 0.  1.
</event>
<event>
 5   0  0.2378690E-06  0.2921482E+04  0.7818609E-02  0.8266514E-01
       -2   -1    0    0    0  501  0.00000000000E+00  0.00000000000E+00  0.15717494505E+04  0.15717494505E+04  0.25500000920E-02 0. -1.
        2   -1    0    0  501    0  0.00000000000E+00  0.00000000000E+00 -0.13575729786E+04  0.13575729786E+04  0.25500000920E-02 0.  1.
    10030    2    1    2    0    0  0.00000000000E+00  0.00000000000E+00  0.21417647191E+03  0.29293224291E+04  0.29214822150E+04 0.  0.
        3    1    3    3  502    0  0.78491991006E+03  0.10210227922E+03  0.13380801436E+04  0.15546647939E+04  0.10100000352E+00 0. -1.
       -3    1    3    3    0  502 -0.78491991006E+03 -0.10210227922E+03 -0.11239036717E+04  0.13746576352E+04  0.10100000352E+00 0.  1.
</event>
<event>
 5   0  0.2304435E-06  0.2898230E+04  0.7818609E-02  0.8273404E-01
        2   -1    0    0  501    0  0.00000000000E+00  0.00000000000E+00  0.14823043149E+04  0.14823043149E+04  0.25500000920E-02 0.  1.
       -2   -1    0    0    0  501  0.00000000000E+00  0.00000000000E+00 -0.14166686215E+04  0.14166686215E+04  0.25500000920E-02 0. -1.
    10030    2    1    2    0    0  0.00000000000E+00  0.00000000000E+00  0.65635693419E+02  0.28989729363E+04  0.28982298117E+04 0.  0.
        1    1    3    3  502    0  0.42658705752E+03 -0.27470237272E+03  0.13905516482E+04  0.14802269413E+04  0.50400001928E-02 0.  1.
       -1    1    3    3    0  502 -0.42658705752E+03  0.27470237272E+03 -0.13249159548E+04  0.14187459951E+04  0.50400001928E-02 0. -1.
</event>
<event>
 5   0  0.8263673E-07  0.2952091E+04  0.7818609E-02  0.8257545E-01
       -1   -1    0    0    0  501  0.00000000000E+00  0.00000000000E+00  0.11567723730E+04  0.11567723730E+04  0.50400001928E-02 0.  1.
        1   -1    0    0  501    0  0.00000000000E+00  0.00000000000E+00 -0.18834391431E+04  0.18834391431E+04  0.50400001928E-02 0. -1.
    10030    2    1    2    0    0  0.00000000000E+00  0.00000000000E+00 -0.72666677006E+03  0.30402115161E+04  0.29520910332E+04 0.  0.
        5    1    3    3  502    0 -0.71749492643E+03 -0.12428244731E+04 -0.71900707978E+03  0.16051183480E+04  0.46999998093E+01 0. -1.
       -5    1    3    3    0  502  0.71749492643E+03  0.12428244731E+04 -0.76596902806E+01  0.14350931681E+04  0.46999998093E+01 0.  1.
</event>
<event>
 5   0  0.2378690E-06  0.2909656E+04  0.7818609E-02  0.8270010E-01
        2   -1    0    0  501    0  0.00000000000E+00  0.00000000000E+00  0.21200952023E+04  0.21200952023E+04  0.25500000920E-02 0. -1.
       -2   -1    0    0    0  501  0.00000000000E+00  0.00000000000E+00 -0.99831599058E+03  0.99831599059E+03  0.25500000920E-02 0.  1.
    10030    2    1    2    0    0  0.00000000000E+00  0.00000000000E+00  0.11217792117E+04  0.31184111929E+04  0.29096562973E+04 0.  0.
        3    1    3    3  502    0 -0.52920417809E+03 -0.27871612304E+03  0.19822299708E+04  0.20705012453E+04  0.10100000352E+00 0. -1.
       -3    1    3    3    0  502  0.52920417809E+03  0.27871612304E+03 -0.86045075907E+03  0.10479099476E+04  0.10100000352E+00 0.  1.
</event>
<event>
 5   0  0.8355946E-07  0.2909350E+04  0.7818609E-02  0.8270101E-01
        1   -1    0    0  501    0  0.00000000000E+00  0.00000000000E+00  0.94268958591E+03  0.94268958593E+03  0.50400001928E-02 0. -1.
       -1   -1    0    0    0  501  0.00000000000E+00  0.00000000000E+00 -0.22447261101E+04  0.22447261101E+04  0.50400001928E-02 0.  1.
    10030    2    1    2    0    0  0.00000000000E+00  0.00000000000E+00 -0.13020365241E+04  0.31874156960E+04  0.29093503929E+04 0.  0.
        4    1    3    3  502    0  0.14311277150E+04 -0.64737575928E+01 -0.36551628447E+03  0.14770823313E+04  0.12699999809E+01 0. -1.
       -4    1    3    3    0  502 -0.14311277150E+04  0.64737575928E+01 -0.93652023967E+03  0.17103333647E+04  0.12699999809E+01 0.  1.
</event>
<event>
 5   0  0.8357118E-07  0.2895878E+04  0.7818609E-02  0.8274105E-01
        1   -1    0    0  501    0  0.00000000000E+00  0.00000000000E+00  0.24085915883E+04  0.24085915883E+04  0.50400001928E-02 0. -1.
       -1   -1    0    0    0  501  0.00000000000E+00  0.00000000000E+00 -0.87043674879E+03  0.87043674880E+03  0.50400001928E-02 0.  1.
    10030    2    1    2    0    0  0.00000000000E+00  0.00000000000E+00  0.15381548395E+04  0.32790283371E+04  0.28958775052E+04 0.  0.
        1    1    3    3  502    0 -0.63983194293E+03  0.27429559461E+03  0.22066656909E+04  0.23138704501E+04  0.50400001928E-02 0. -1.
       -1    1    3    3    0  502  0.63983194293E+03 -0.27429559461E+03 -0.66851085139E+03  0.96515788701E+03  0.50400001928E-02 0.  1.
</event>
<event>
 5   0  0.8947674E-07  0.2912844E+04  0.7818609E-02  0.8269066E-01
       -1   -1    0    0    0  501  0.00000000000E+00  0.00000000000E+00  0.92003060190E+03  0.92003060192E+03  0.50400001928E-02 0. -1.
        1   -1    0    0  501    0  0.00000000000E+00  0.00000000000E+00 -0.23055369227E+04  0.23055369227E+04  0.50400001928E-02 0.  1.
    10030    2    1    2    0    0  0.00000000000E+00  0.00000000000E+00 -0.13855063208E+04  0.32255675247E+04  0.29128436434E+04 0.  0.
        3    1    3    3  502    0 -0.47746665521E+03 -0.67114977415E+03  0.63734660955E+03  0.10414543375E+04  0.10100000352E+00 0. -1.
       -3    1    3    3    0  502  0.47746665521E+03  0.67114977415E+03 -0.20228529304E+04  0.21841131872E+04  0.10100000352E+00 0.  1.
</event>
<event>
 5   0  0.2360103E-06  0.2893404E+04  0.7818609E-02  0.8274843E-01
        2   -1    0    0  501    0  0.00000000000E+00  0.00000000000E+00  0.12271275181E+04  0.12271275181E+04  0.25500000920E-02 0.  1.
       -2   -1    0    0    0  501  0.00000000000E+00  0.00000000000E+00 -0.17055657873E+04  0.17055657873E+04  0.25500000920E-02 0. -1.
    10030    2    1    2    0    0  0.00000000000E+00  0.00000000000E+00 -0.47843826924E+03  0.29326933054E+04  0.28934040240E+04 0.  0.
        4    1    3    3  502    0 -0.89367293417E+01 -0.10336612778E+04  0.78665572196E+03  0.12989858891E+04  0.12699999809E+01 0. -1.
       -4    1    3    3    0  502  0.89367293417E+01  0.10336612778E+04 -0.12650939912E+04  0.16337074162E+04  0.12699999809E+01 0.  1.
</event>
<event>
 5   0  0.2360103E-06  0.2900867E+04  0.7818609E-02  0.8272620E-01
       -2   -1    0    0    0  501  0.00000000000E+00  0.00000000000E+00  0.85781495858E+03  0.85781495858E+03  0.25500000920E-02 0.  1.
        2   -1    0    0  501    0  0.00000000000E+00  0.00000000000E+00 -0.24524605149E+04  0.24524605149E+04  0.25500000920E-02 0. -1.
    10030    2    1    2    0    0  0.00000000000E+00  0.00000000000E+00 -0.15946455563E+04  0.33102754735E+04  0.29008669842E+04 0.  0.
        4    1    3    3  502    0  0.13493724706E+04 -0.49027963102E+03 -0.10327823266E+04  0.17685647085E+04  0.12699999809E+01 0. -1.
       -4    1    3    3    0  502 -0.13493724706E+04  0.49027963102E+03 -0.56186322970E+03  0.15417107650E+04  0.12699999809E+01 0.  1.
</event>
<event>
 5   0  0.8483636E-07  0.2903840E+04  0.7818609E-02  0.8271736E-01
        1   -1    0    0  501    0  0.00000000000E+00  0.00000000000E+00  0.14140637547E+04  0.14140637547E+04  0.50400001928E-02 0.  1.
       -1   -1    0    0    0  501  0.00000000000E+00  0.00000000000E+00 -0.14907895553E+04  0.14907895553E+04  0.50400001928E-02 0. -1.
    10030    2    1    2    0    0  0.00000000000E+00  0.00000000000E+00 -0.76725800631E+02  0.29048533100E+04  0.29038398551E+04 0.  0.
        2    1    3    3  502    0  0.28138855874E+03 -0.56340187633E+03  0.12703254174E+04  0.14178603109E+04  0.25500000920E-02 0.  1.
       -2    1    3    3    0  502 -0.28138855874E+03  0.56340187633E+03 -0.13470512180E+04  0.14869929991E+04  0.25500000920E-02 0. -1.
</event>
<event>
 5   0  0.8263673E-07  0.2887094E+04  0.7818609E-02  0.8276728E-01
       -1   -1    0    0    0  501  0.00000000000E+00  0.00000000000E+00  0.13211870972E+04  0.13211870972E+04  0.50400001928E-02 0.  1.
        1   -1    0    0  501    0  0.00000000000E+00  0.00000000000E+00 -0.15772385781E+04  0.15772385781E+04  0.50400001928E-02 0. -1.
    10030    2    1    2    0    0  0.00000000000E+00  0.00000000000E+00 -0.25605148092E+03  0.28984256754E+04  0.28870935272E+04 0.  0.
        5    1    3    3  502    0 -0.94622133750E+03  0.76457775302E+03  0.65212885101E+03  0.13802927546E+04  0.46999998093E+01 0.  1.
       -5    1    3    3    0  502  0.94622133750E+03 -0.76457775302E+03 -0.90818033193E+03  0.15181329208E+04  0.46999998093E+01 0. -1.
</event>
<event>
 5   0  0.8263673E-07  0.2893464E+04  0.7818609E-02  0.8274825E-01
       -1   -1    0    0    0  501  0.00000000000E+00  0.00000000000E+00  0.14718592751E+04  0.14718592752E+04  0.50400001928E-02 0. -1.
        1   -1    0    0  501    0  0.00000000000E+00  0.00000000000E+00 -0.14220337079E+04  0.14220337079E+04  0.50400001928E-02 0.  1.
    10030    2    1    2    0    0  0.00000000000E+00  0.00000000000E+00  0.49825567263E+02  0.28938929830E+04  0.28934640157E+04 0.  0.
        5    1    3    3  502    0  0.78719041010E+03  0.10755555299E+04 -0.53777436861E+03  0.14372584323E+04  0.46999998093E+01 0.  1.
       -5    1    3    3    0  502 -0.78719041010E+03 -0.10755555299E+04  0.58759993587E+03  0.14566345507E+04  0.46999998093E+01 0. -1.
</event>
<event>
 5   0  0.2425845E-06  0.2888559E+04  0.7818609E-02  0.8276290E-01
        2   -1    0    0  501    0  0.00000000000E+00  0.00000000000E+00  0.15789385549E+04  0.15789385549E+04  0.25500000920E-02 0.  1.
       -2   -1    0    0    0  501  0.00000000000E+00  0.00000000000E+00 -0.13211052068E+04  0.13211052068E+04  0.25500000920E-02 0. -1.
    10030    2    1    2    0    0  0.00000000000E+00  0.00000000000E+00  0.25783334810E+03  0.29000437618E+04  0.28885594654E+04 0.  0.
        2    1    3    3  502    0 -0.10182270300E+04  0.84647635891E+03 -0.45012189850E+03  0.13985414668E+04  0.25500000920E-02 0. -1.
       -2    1    3    3    0  502  0.10182270300E+04 -0.84647635891E+03  0.70795524660E+03  0.15015022950E+04  0.25500000920E-02 0.  1.
</event>
<event>
 5   0  0.2378690E-06  0.2853674E+04  0.7818609E-02  0.8286796E-01
        2   -1    0    0  501    0  0.00000000000E+00  0.00000000000E+00  0.15164403816E+04  0.15164403816E+04  0.25500000920E-02 0. -1.
       -2   -1    0    0    0  501  0.00000000000E+00  0.00000000000E+00 -0.13425279695E+04  0.13425279695E+04  0.25500000920E-02 0.  1.
    10030    2    1    2    0    0  0.00000000000E+00  0.00000000000E+00  0.17391241207E+03  0.28589683511E+04  0.28536738611E+04 0.  0.
        3    1    3    3  502    0  0.53557077001E+03  0.90394251694E+03 -0.88019254728E+03  0.13706520544E+04  0.10100000352E+00 0. -1.
       -3    1    3    3    0  502 -0.53557077001E+03 -0.90394251694E+03  0.10541049593E+04  0.14883162967E+04  0.10100000352E+00 0.  1.
</event>
<event>
 5   0  0.2304435E-06  0.2909789E+04  0.7818609E-02  0.8269971E-01
       -2   -1    0    0    0  501  0.00000000000E+00  0.00000000000E+00  0.13665014661E+04  0.13665014661E+04  0.25500000920E-02 0. -1.
        2   -1    0    0  501    0  0.00000000000E+00  0.00000000000E+00 -0.15490057685E+04  0.15490057685E+04  0.25500000920E-02 0.  1.
    10030    2    1    2    0    0  0.00000000000E+00  0.00000000000E+00 -0.18250430240E+03  0.29155072347E+04  0.29097894452E+04 0.  0.
        1    1    3    3  502    0 -0.13697784201E+04  0.49008390813E+03 -0.10688719073E+03  0.14587323362E+04  0.50400001928E-02 0. -1.
       -1    1    3    3    0  502  0.13697784201E+04 -0.49008390813E+03 -0.75617111671E+02  0.14567748985E+04  0.50400001928E-02 0.  1.
</event>
<event>
 5   0  0.2425845E-06  0.2909831E+04  0.7818609E-02  0.8269958E-01
       -2   -1    0    0    0  501  0.00000000000E+00  0.00000000000E+00  0.84221198531E+03  0.84221198532E+03  0.25500000920E-02 0.  1.
        2   -1    0    0  501    0  0.00000000000E+00  0.00000000000E+00 -0.25133570346E+04  0.25133570346E+04  0.25500000920E-02 0. -1.
    10030    2    1    2    0    0  0.00000000000E+00  0.00000000000E+00 -0.16711450493E+04  0.33555690199E+04  0.29098312102E+04 0.  0.
        2    1    3    3  502    0  0.58250426472E+03  0.21139621631E+03 -0.23535665827E+04  0.24337779763E+04  0.25500000920E-02 0. -1.
       -2    1    3    3    0  502 -0.58250426472E+03 -0.21139621631E+03  0.68242153346E+03  0.92179104358E+03  0.25500000920E-02 0.  1.
</event>
<event>
 5   0  0.2378690E-06  0.2898264E+04  0.7818609E-02  0.8273394E-01
       -2   -1    0    0    0  501  0.00000000000E+00  0.00000000000E+00  0.15141453226E+04  0.15141453226E+04  0.25500000920E-02 0.  1.
        2   -1    0    0  501    0  0.00000000000E+00  0.00000000000E+00 -0.13869100136E+04  0.13869100136E+04  0.25500000920E-02 0. -1.
    10030    2    1    2    0    0  0.00000000000E+00  0.00000000000E+00  0.12723530898E+03  0.29010553362E+04  0.28982638320E+04 0.  0.
        3    1    3    3  502    0 -0.47784800638E+03  0.11480094053E+04  0.80845733280E+03  0.14831950583E+04  0.10100000352E+00 0.  1.
       -3    1    3    3    0  502  0.47784800638E+03 -0.11480094053E+04 -0.68122202382E+03  0.14178602779E+04  0.10100000352E+00 0. -1.
</event>
<event>
 5   0  0.8263673E-07  0.2899564E+04  0.7818609E-02  0.8273007E-01
       -1   -1    0    0    0  501  0.00000000000E+00  0.00000000000E+00  0.15264625521E+04  0.15264625521E+04  0.50400001928E-02 0. -1.
        1   -1    0    0  501    0  0.00000000000E+00  0.00000000000E+00 -0.13769536623E+04  0.13769536623E+04  0.50400001928E-02 0.  1.
    10030    2    1    2    0    0  0.00000000000E+00  0.00000000000E+00  0.14950888979E+03  0.29034162144E+04  0.28995642442E+04 0.  0.
        5    1    3    3  502    0  0.41631855607E+03  0.48134322839E+03 -0.12296017302E+04  0.13845414217E+04  0.46999998093E+01 0.  1.
       -5    1    3    3    0  502 -0.41631855607E+03 -0.48134322839E+03  0.13791106200E+04  0.15188747927E+04  0.46999998093E+01 0. -1.
</event>
<event>
 5   0  0.2325590E-06  0.2895799E+04  0.7818609E-02  0.8274128E-01
       -2   -1    0    0    0  501  0.00000000000E+00  0.00000000000E+00  0.91294398703E+03  0.91294398703E+03  0.25500000920E-02 0.  1.
        2   -1    0    0  501    0  0.00000000000E+00  0.00000000000E+00 -0.22963218172E+04  0.22963218172E+04  0.25500000920E-02 0. -1.
    10030    2    1    2    0    0  0.00000000000E+00  0.00000000000E+00 -0.13833778302E+04  0.32092658043E+04  0.28957991611E+04 0.  0.
        5    1    3    3  502    0 -0.12072861741E+04  0.69546085279E+02 -0.15741323165E+04  0.19850166760E+04  0.46999998093E+01 0. -1.
       -5    1    3    3    0  502  0.12072861741E+04 -0.69546085279E+02  0.19075448627E+03  0.12242491283E+04  0.46999998093E+01 0.  1.
</event>
<event>
 5   0  0.8263673E-07  0.2903314E+04  0.7818609E-02  0.8271892E-01
       -1   -1    0    0    0  501  0.00000000000E+00  0.00000000000E+00  0.15766691098E+04  0.15766691098E+04  0.50400001928E-02 0.  1.
        1   -1    0    0  501    0  0.00000000000E+00  0.00000000000E+00 -0.13365565651E+04  0.13365565651E+04  0.50400001928E-02 0. -1.
    10030    2    1    2    0    0  0.00000000000E+00  0.00000000000E+00  0.24011254473E+03  0.29132256749E+04  0.29033135895E+04 0.  0.
        5    1    3    3  502    0 -0.50987046342E+03  0.11902328213E+04  0.77854616696E+03  0.15108865883E+04  0.46999998093E+01 0.  1.
       -5    1    3    3    0  502  0.50987046342E+03 -0.11902328213E+04 -0.53843362223E+03  0.14023390867E+04  0.46999998093E+01 0. -1.
</event>
<event>
 5   0  0.8947674E-07  0.2903802E+04  0.7818609E-02  0.8271747E-01
       -1   -1    0    0    0  501  0.00000000000E+00  0.00000000000E+00  0.13889957748E+04  0.13889957748E+04  0.50400001928E-02 0. -1.
        1   -1    0    0  501    0  0.00000000000E+00  0.00000000000E+00 -0.15176549822E+04  0.15176549822E+04  0.50400001928E-02 0.  1.
    10030    2    1    2    0    0  0.00000000000E+00  0.00000000000E+00 -0.12865920734E+03  0.29066507570E+04  0.29038018926E+04 0.  0.
        3    1    3    3  502    0  0.67165223115E+03  0.66444420881E+03  0.10392099421E+04  0.14044786008E+04  0.10100000352E+00 0. -1.
       -3    1    3    3    0  502 -0.67165223115E+03 -0.66444420881E+03 -0.11678691495E+04  0.15021721561E+04  0.10100000352E+00 0.  1.
</event>
<event>
 5   0  0.2378690E-06  0.2897642E+04  0.7818609E-02  0.8273579E-01
       -2   -1    0    0    0  501  0.00000000000E+00  0.00000000000E+00  0.11909005389E+04  0.11909005389E+04  0.25500000920E-02 0.  1.
        2   -1    0    0  501    0  0.00000000000E+00  0.00000000000E+00 -0.17626012078E+04  0.17626012078E+04  0.25500000920E-02 0. -1.
    10030    2    1    2    0    0  0.00000000000E+00  0.00000000000E+00 -0.57170066890E+03  0.29535017467E+04  0.28976423024E+04 0.  0.
        3    1    3    3  502    0 -0.94689044241E+03 -0.67053510808E+02  0.82977445347E+03  0.12608026559E+04  0.10100000352E+00 0.  1.
       -3    1    3    3    0  502  0.94689044241E+03  0.67053510808E+02 -0.14014751224E+04  0.16926990908E+04  0.10100000352E+00 0. -1.
</event>
<event>
 5   0  0.8357118E-07  0.2919988E+04  0.7818609E-02  0.8266955E-01
        1   -1    0    0  501    0  0.00000000000E+00  0.00000000000E+00  0.26918370819E+04  0.26918370819E+04  0.50400001928E-02 0.  1.
       -1   -1    0    0    0  501  0.00000000000E+00  0.00000000000E+00 -0.79186918792E+03  0.79186918793E+03  0.50400001928E-02 0. -1.
    10030    2    1    2    0    0  0.00000000000E+00  0.00000000000E+00  0.18999678940E+04  0.34837062698E+04  0.29199882493E+04 0.  0.
        1    1    3    3  502    0 -0.75776167830E+03  0.11755820423E+04  0.14496260847E+04  0.20143514303E+04  0.50400001928E-02 0.  1.
       -1    1    3    3    0  502  0.75776167830E+03 -0.11755820423E+04  0.45034180929E+03  0.14693548395E+04  0.50400001928E-02 0. -1.
</event>
<event>
 5   0  0.8947674E-07  0.2889186E+04  0.7818609E-02  0.8276102E-01
        1   -1    0    0  501    0  0.00000000000E+00  0.00000000000E+00  0.18205585157E+04  0.18205585157E+04  0.50400001928E-02 0. -1.
       -1   -1    0    0    0  501  0.00000000000E+00  0.00000000000E+00 -0.11462685473E+04  0.11462685474E+04  0.50400001928E-02 0.  1.
    10030    2    1    2    0    0  0.00000000000E+00  0.00000000000E+00  0.67428996838E+03  0.29668270631E+04  0.28891860205E+04 0.  0.
        3    1    3    3  502    0 -0.12964960672E+04 -0.39264091303E+03 -0.17811611489E+03  0.13663068102E+04  0.10100000352E+00 0. -1.
       -3    1    3    3    0  502  0.12964960672E+04  0.39264091303E+03  0.85240608326E+03  0.16005202529E+04  0.10100000352E+00 0.  1.
</event>
<event>
 5   0  0.8355946E-07  0.2905130E+04  0.7818609E-02  0.8271353E-01
        1   -1    0    0  501    0  0.00000000000E+00  0.00000000000E+00  0.13880573147E+04  0.13880573147E+04  0.50400001928E-02 0.  1.
       -1   -1    0    0    0  501  0.00000000000E+00  0.00000000000E+00 -0.15200705207E+04  0.15200705207E+04  0.50400001928E-02 0. -1.
    10030    2    1    2    0    0  0.00000000000E+00  0.00000000000E+00 -0.13201320607E+03  0.29081278354E+04  0.29051299490E+04 0.  0.
        4    1    3    3  502    0  0.96628225770E+03  0.87746753407E+03 -0.70407531409E+03  0.14830287710E+04  0.12699999809E+01 0. -1.
       -4    1    3    3    0  502 -0.96628225770E+03 -0.87746753407E+03  0.57206210802E+03  0.14250990644E+04  0.12699999809E+01 0.  1.
</event>
<event>
 5   0  0.8263673E-07  0.2893483E+04  0.7818609E-02  0.8274819E-01
        1   -1    0    0  501    0  0.00000000000E+00  0.00000000000E+00  0.10804525289E+04  0.10804525289E+04  0.50400001928E-02 0. -1.
       -1   -1    0    0    0  501  0.00000000000E+00  0.00000000000E+00 -0.19372077607E+04  0.19372077607E+04  0.50400001928E-02 0.  1.
    10030    2    1    2    0    0  0.00000000000E+00  0.00000000000E+00 -0.85675523174E+03  0.30176602896E+04  0.28934830389E+04 0.  0.
        5    1    3    3  502    0  0.12342866908E+03  0.31604668548E+03 -0.18951193016E+04  0.19252582687E+04  0.46999998093E+01 0.  1.
       -5    1    3    3    0  502 -0.12342866908E+03 -0.31604668548E+03  0.10383640699E+04  0.10924020209E+04  0.46999998093E+01 0. -1.
</event>
<event>
 5   0  0.2360103E-06  0.2899814E+04  0.7818609E-02  0.8272933E-01
       -2   -1    0    0    0  501  0.00000000000E+00  0.00000000000E+00  0.12843616574E+04  0.12843616574E+04  0.25500000920E-02 0. -1.
        2   -1    0    0  501    0  0.00000000000E+00  0.00000000000E+00 -0.16367894566E+04  0.16367894566E+04  0.25500000920E-02 0.  1.
    10030    2    1    2    0    0  0.00000000000E+00  0.00000000000E+00 -0.35242779919E+03  0.29211511140E+04  0.28998135246E+04 0.  0.
        4    1    3    3  502    0 -0.77672668172E+03  0.40937411265E+03  0.98611188753E+03  0.13203445648E+04  0.12699999809E+01 0. -1.
       -4    1    3    3    0  502  0.77672668172E+03 -0.40937411265E+03 -0.13385396867E+04  0.16008065492E+04  0.12699999809E+01 0.  1.
</event>
<event>
 5   0  0.2304435E-06  0.2896304E+04  0.7818609E-02  0.8273978E-01
        2   -1    0    0  501    0  0.00000000000E+00  0.00000000000E+00  0.12603610020E+04  0.12603610020E+04  0.25500000920E-02 0.  1.
       -2   -1    0    0    0  501  0.00000000000E+00  0.00000000000E+00 -0.16639232572E+04  0.16639232572E+04  0.25500000920E-02 0. -1.
    10030    2    1    2    0    0  0.00000000000E+00  0.00000000000E+00 -0.40356225528E+03  0.29242842592E+04  0.28963038402E+04 0.  0.
        1    1    3    3  502    0 -0.23771654061E+03  0.11955743689E+03  0.12354668831E+04  0.12637964842E+04  0.50400001928E-02 0.  1.
       -1    1    3    3    0  502  0.23771654061E+03 -0.11955743689E+03 -0.16390291384E+04  0.16604877750E+04  0.50400001928E-02 0. -1.
</event>
<event>
 5   0  0.8355946E-07  0.2897564E+04  0.7818609E-02  0.8273603E-01
       -1   -1    0    0    0  501  0.00000000000E+00  0.00000000000E+00  0.16972953207E+04  0.16972953207E+04  0.50400001928E-02 0.  1.
        1   -1    0    0  501    0  0.00000000000E+00  0.00000000000E+00 -0.12366556188E+04  0.12366556188E+04  0.50400001928E-02 0. -1.
    10030    2    1    2    0    0  0.00000000000E+00  0.00000000000E+00  0.46063970190E+03  0.29339509396E+04  0.28975643532E+04 0.  0.
        4    1    3    3  502    0 -0.98983547620E+03  0.90621488596E+03 -0.32239983055E+03  0.13801967081E+04  0.12699999809E+01 0. -1.
       -4    1    3    3    0  502  0.98983547620E+03 -0.90621488596E+03  0.78303953245E+03  0.15537542315E+04  0.12699999809E+01 0.  1.
</event>
<event>
 5   0  0.2425845E-06  0.2909435E+04  0.7818609E-02  0.8270076E-01
        2   -1    0    0  501    0  0.00000000000E+00  0.00000000000E+00  0.14495828165E+04  0.14495828165E+04  0.25500000920E-02 0. -1.
       -2   -1    0    0    0  501  0.00000000000E+00  0.00000000000E+00 -0.14598698707E+04  0.14598698707E+04  0.25500000920E-02 0.  1.
    10030    2    1    2    0    0  0.00000000000E+00  0.00000000000E+00 -0.10287054153E+02  0.29094526873E+04  0.29094345010E+04 0.  0.
        2    1    3    3  502    0 -0.61706424872E+03 -0.78402971751E+03  0.10535091095E+04  0.14509832283E+04  0.25500000920E-02 0. -1.
       -2    1    3    3    0  502  0.61706424872E+03  0.78402971751E+03 -0.10637961636E+04  0.14584694590E+04  0.25500000920E-02 0.  1.
</event>
<event>
 5   0  0.8263673E-07  0.2892539E+04  0.7818609E-02  0.8275101E-01
       -1   -1    0    0    0  501  0.00000000000E+00  0.00000000000E+00  0.13241618340E+04  0.13241618340E+04  0.50400001928E-02 0. -1.
        1   -1    0    0  501    0  0.00000000000E+00  0.00000000000E+00 -0.15796373809E+04  0.15796373809E+04  0.50400001928E-02 0.  1.
    10030    2    1    2    0    0  0.00000000000E+00  0.00000000000E+00 -0.25547554689E+03  0.29037992150E+04  0.28925390448E+04 0.  0.
        5    1    3    3  502    0 -0.22812521394E+03  0.77016935588E+03  0.10796375427E+04  0.13456750216E+04  0.46999998093E+01 0. -1.
       -5    1    3    3    0  502  0.22812521394E+03 -0.77016935588E+03 -0.13351130896E+04  0.15581241934E+04  0.46999998093E+01 0.  1.
</event>
<event>
 5   0  0.2425845E-06  0.2897420E+04  0.7818609E-02  0.8273646E-01
       -2   -1    0    0    0  501  0.00000000000E+00  0.00000000000E+00  0.97711903482E+03  0.97711903482E+03  0.25500000920E-02 0.  1.
        2   -1    0    0  501    0  0.00000000000E+00  0.00000000000E+00 -0.21479063365E+04  0.21479063365E+04  0.25500000920E-02 0. -1.
    10030    2    1    2    0    0  0.00000000000E+00  0.00000000000E+00 -0.11707873017E+04  0.31250253713E+04  0.28974196565E+04 0.  0.
        2    1    3    3  502    0  0.28400592325E+03 -0.14192992236E+04 -0.51987187199E+03  0.15379650236E+04  0.25500000920E-02 0.  1.
       -2    1    3    3    0  502 -0.28400592325E+03  0.14192992236E+04 -0.65091542969E+03  0.15870603477E+04  0.25500000920E-02 0. -1.
</event>
<event>
 5   0  0.8355946E-07  0.2897686E+04  0.7818609E-02  0.8273566E-01
       -1   -1    0    0    0  501  0.00000000000E+00  0.00000000000E+00  0.17204400623E+04  0.17204400623E+04  0.50400001928E-02 0. -1.
        1   -1    0    0  501    0  0.00000000000E+00  0.00000000000E+00 -0.12201212424E+04  0.12201212424E+04  0.50400001928E-02 0.  1.
    10030    2    1    2    0    0  0.00000000000E+00  0.00000000000E+00  0.50031881992E+03  0.29405613047E+04  0.28976856049E+04 0.  0.
        4    1    3    3  502    0  0.16869521410E+03 -0.14265820584E+04  0.58824081496E+02  0.14377260970E+04  0.12699999809E+01 0.  1.
       -4    1    3    3    0  502 -0.16869521410E+03  0.14265820584E+04  0.44149473842E+03  0.15028352077E+04  0.12699999809E+01 0. -1.
</event>
<event>
 5   0  0.8355946E-07  0.2903238E+04  0.7818609E-02  0.8271915E-01
       -1   -1    0    0    0  501  0.00000000000E+00  0.00000000000E+00  0.15700865043E+04  0.15700865043E+04  0.50400001928E-02 0. -1.
        1   -1    0    0  501    0  0.00000000000E+00  0.00000000000E+00 -0.13420903356E+04  0.13420903356E+04  0.50400001928E-02 0.  1.
    10030    2    1    2    0    0  0.00000000000E+00  0.00000000000E+00  0.22799616873E+03  0.29121768399E+04  0.29032381394E+04 0.  0.
        4    1    3    3  502    0 -0.33309634427E+03  0.91234763280E+03  0.11961453708E+04  0.15408104162E+04  0.12699999809E+01 0. -1.
       -4    1    3    3    0  502  0.33309634427E+03 -0.91234763280E+03 -0.96814920210E+03  0.13713664237E+04  0.12699999809E+01 0.  1.
</event>
<event>
 5   0  0.8355946E-07  0.2894657E+04  0.7818609E-02  0.8274469E-01
        1   -1    0    0  501    0  0.00000000000E+00  0.00000000000E+00  0.17761685982E+04  0.17761685982E+04  0.50400001928E-02 0.  1.
       -1   -1    0    0    0  501  0.00000000000E+00  0.00000000000E+00 -0.11793695428E+04  0.11793695428E+04  0.50400001928E-02 0. -1.
    10030    2    1    2    0    0  0.00000000000E+00  0.00000000000E+00  0.59679905544E+03  0.29555381411E+04  0.28946565583E+04 0.  0.
        4    1    3    3  502    0 -0.11710055168E+04  0.79389743704E+03  0.61015814801E+03  0.15407211426E+04  0.12699999809E+01 0.  1.
       -4    1    3    3    0  502  0.11710055168E+04 -0.79389743704E+03 -0.13359092568E+02  0.14148169984E+04  0.12699999809E+01 0. -1.
</event>
<event>
 5   0  0.2360103E-06  0.2902717E+04  0.7818609E-02  0.8272070E-01
       -2   -1    0    0    0  501  0.00000000000E+00  0.00000000000E+00  0.88142417449E+03  0.88142417449E+03  0.25500000920E-02 0.  1.
        2   -1    0    0  501    0  0.00000000000E+00  0.00000000000E+00 -0.23898158320E+04  0.23898158320E+04  0.25500000920E-02 0. -1.
    10030    2    1    2    0    0  0.00000000000E+00  0.00000000000E+00 -0.15083916575E+04  0.32712400065E+04  0.29027169665E+04 0.  0.
        4    1    3    3  502    0  0.13069262918E+04 -0.81290214543E+02 -0.14595809590E+04  0.19608780227E+04  0.12699999809E+01 0. -1.
       -4    1    3    3    0  502 -0.13069262918E+04  0.81290214543E+02 -0.48810698497E+02  0.13103619837E+04  0.12699999809E+01 0.  1.
</event>
<event>
 5   0  0.7621125E-07  0.2901211E+04  0.7818609E-02  0.8272517E-01
        3   -1    0    0  501    0  0.00000000000E+00  0.00000000000E+00  0.10993295387E+04  0.10993295433E+04  0.10100000352E+00 0.  1.
       -3   -1    0    0    0  501  0.00000000000E+00  0.00000000000E+00 -0.19141264930E+04  0.19141264957E+04  0.10100000352E+00 0. -1.
    10030    2    1    2    0    0  0.00000000000E+00  0.00000000000E+00 -0.81479695430E+03  0.30134560390E+04  0.29012106477E+04 0.  0.
        1    1    3    3  502    0 -0.53050887307E+03 -0.75584570119E+03  0.75459409667E+03  0.11925412526E+04  0.50400001928E-02 0.  1.
       -1    1    3    3    0  502  0.53050887307E+03  0.75584570119E+03 -0.15693910510E+04  0.18209147864E+04  0.50400001928E-02 0. -1.
</event>
<event>
 5   0  0.2325590E-06  0.2909210E+04  0.7818609E-02  0.8270143E-01
        2   -1    0    0  501    0  0.00000000000E+00  0.00000000000E+00  0.23779437782E+04  0.23779437782E+04  0.25500000920E-02 0. -1.
       -2   -1    0    0    0  501  0.00000000000E+00  0.00000000000E+00 -0.88979199114E+03  0.88979199114E+03  0.25500000920E-02 0.  1.
    10030    2    1    2    0    0  0.00000000000E+00  0.00000000000E+00  0.14881517871E+04  0.32677357694E+04  0.29092097410E+04 0.  0.
        5    1    3    3  502    0 -0.13671212767E+04  0.31163795195E+03  0.11786899270E+04  0.18317944296E+04  0.46999998093E+01 0. -1.
       -5    1    3    3    0  502  0.13671212767E+04 -0.31163795195E+03  0.30946186006E+03  0.14359413397E+04  0.46999998093E+01 0.  1.
</event>
<event>
 5   0  0.2325590E-06  0.2897665E+04  0.7818609E-02  0.8273573E-01
        2   -1    0    0  501    0  0.00000000000E+00  0.00000000000E+00  0.21822824860E+04  0.21822824861E+04  0.25500000920E-02 0. -1.
       -2   -1    0    0    0  501  0.00000000000E+00  0.00000000000E+00 -0.96189004721E+03  0.96189004721E+03  0.25500000920E-02 0.  1.
    10030    2    1    2    0    0  0.00000000000E+00  0.00000000000E+00  0.12203924388E+04  0.31441725333E+04  0.28976651315E+04 0.  0.
        5    1    3    3  502    0  0.58209519085E+03 -0.10560431228E+04  0.14816588044E+04  0.19103394440E+04  0.46999998093E+01 0. -1.
       -5    1    3    3    0  502 -0.58209519085E+03  0.10560431228E+04 -0.26126636558E+03  0.12338330893E+04  0.46999998093E+01 0.  1.
</event>
<event>
 5   0  0.2360103E-06  0.2888910E+04  0.7818609E-02  0.8276185E-01
       -2   -1    0    0    0  501  0.00000000000E+00  0.00000000000E+00  0.27099116402E+04  0.27099116402E+04  0.25500000920E-02 0. -1.
        2   -1    0    0  501    0  0.00000000000E+00  0.00000000000E+00 -0.76993306103E+03  0.76993306104E+03  0.25500000920E-02 0.  1.
    10030    2    1    2    0    0  0.00000000000E+00  0.00000000000E+00  0.19399785791E+04  0.34798447012E+04  0.28889102196E+04 0.  0.
        4    1    3    3  502    0 -0.10928455742E+03 -0.42150398006E+03  0.26289694547E+04  0.26647871822E+04  0.12699999809E+01 0. -1.
       -4    1    3    3    0  502  0.10928455742E+03  0.42150398006E+03 -0.68899087560E+03  0.81505751898E+03  0.12699999809E+01 0.  1.
</event>
<event>
 5   0  0.8355946E-07  0.2900540E+04  0.7818609E-02  0.8272717E-01
        1   -1    0    0  501    0  0.00000000000E+00  0.00000000000E+00  0.15117356629E+04  0.15117356629E+04  0.50400001928E-02 0. -1.
       -1   -1    0    0    0  501  0.00000000000E+00  0.00000000000E+00 -0.13913033462E+04  0.13913033462E+04  0.50400001928E-02 0.  1.
    10030    2    1    2    0    0  0.00000000000E+00  0.00000000000E+00  0.12043231668E+03  0.29030390091E+04  0.29005398713E+04 0.  0.
        4    1    3    3  502    0  0.82724180692E+03  0.74621756139E+03  0.98951582340E+03  0.14900714190E+04  0.12699999809E+01 0. -1.
       -4    1    3    3    0  502 -0.82724180692E+03 -0.74621756139E+03 -0.86908350671E+03  0.14129675901E+04  0.12699999809E+01 0.  1.
</event>
<event>
 5   0  0.8483636E-07  0.2831329E+04  0.7818609E-02  0.8293608E-01
       -1   -1    0    0    0  501  0.00000000000E+00  0.00000000000E+00  0.11948525370E+04  0.11948525370E+04  0.50400001928E-02 0.  1.
        1   -1    0    0  501    0  0.00000000000E+00  0.00000000000E+00 -0.16772826615E+04  0.16772826615E+04  0.50400001928E-02 0. -1.
    10030    2    1    2    0    0  0.00000000000E+00  0.00000000000E+00 -0.48243012450E+03  0.28721351985E+04  0.28313286234E+04 0.  0.
        2    1    3    3  502    0  0.30162651155E+03  0.25338456628E+03  0.11381335119E+04  0.12043795838E+04  0.25500000920E-02 0.  1.
       -2    1    3    3    0  502 -0.30162651155E+03 -0.25338456628E+03 -0.16205636364E+04  0.16677556148E+04  0.25500000920E-02 0. -1.
</event>
<event>
 5   0  0.2425845E-06  0.2902238E+04  0.7818609E-02  0.8272212E-01
       -2   -1    0    0    0  501  0.00000000000E+00  0.00000000000E+00  0.99423438838E+03  0.99423438838E+03  0.25500000920E-02 0. -1.
        2   -1    0    0  501    0  0.00000000000E+00  0.00000000000E+00 -0.21179575973E+04  0.21179575973E+04  0.25500000920E-02 0.  1.
    10030    2    1    2    0    0  0.00000000000E+00  0.00000000000E+00 -0.11237232089E+04  0.31121919856E+04  0.29022379477E+04 0.  0.
        2    1    3    3  502    0 -0.60743199236E+03  0.94638786327E+03  0.42161273077E+03  0.12009916352E+04  0.25500000920E-02 0. -1.
       -2    1    3    3    0  502  0.60743199236E+03 -0.94638786327E+03 -0.15453359397E+04  0.19112003504E+04  0.25500000920E-02 0.  1.
</event>
<event>
 5   0  0.8483636E-07  0.2905484E+04  0.7818609E-02  0.8271248E-01
       -1   -1    0    0    0  501  0.00000000000E+00  0.00000000000E+00  0.13647362180E+04  0.13647362180E+04  0.50400001928E-02 0.  1.
        1   -1    0    0  501    0  0.00000000000E+00  0.00000000000E+00 -0.15464226444E+04  0.15464226444E+04  0.50400001928E-02 0. -1.
    10030    2    1    2    0    0  0.00000000000E+00  0.00000000000E+00 -0.18168642640E+03  0.29111588623E+04  0.29054837746E+04 0.  0.
        2    1    3    3  502    0  0.46914412292E+02 -0.58685230404E+03  0.12398557014E+04  0.13725300540E+04  0.25500000920E-02 0.  1.
       -2    1    3    3    0  502 -0.46914412292E+02  0.58685230404E+03 -0.14215421278E+04  0.15386288084E+04  0.25500000920E-02 0. -1.
</event>
<event>
 5   0  0.2378690E-06  0.2906335E+04  0.7818609E-02  0.8270995E-01
       -2   -1    0    0    0  501  0.00000000000E+00  0.00000000000E+00  0.10400706173E+04  0.10400706173E+04  0.25500000920E-02 0.  1.
        2   -1    0    0  501    0  0.00000000000E+00  0.00000000000E+00 -0.20303392703E+04  0.20303392703E+04  0.25500000920E-02 0. -1.
    10030    2    1    2    0    0  0.00000000000E+00  0.00000000000E+00 -0.99026865304E+03  0.30704098876E+04  0.29063352995E+04 0.  0.
        3    1    3    3  502    0  0.85775676659E+03 -0.12091000977E+03  0.73749471512E+03  0.11376574028E+04  0.10100000352E+00 0.  1.
       -3    1    3    3    0  502 -0.85775676659E+03  0.12091000977E+03 -0.17277633682E+04  0.19327524848E+04  0.10100000352E+00 0. -1.
</event>
<event>
 5   0  0.2325590E-06  0.2888225E+04  0.7818609E-02  0.8276390E-01
       -2   -1    0    0    0  501  0.00000000000E+00  0.00000000000E+00  0.85117721642E+03  0.85117721642E+03  0.25500000920E-02 0.  1.
        2   -1    0    0  501    0  0.00000000000E+00  0.00000000000E+00 -0.24500895195E+04  0.24500895195E+04  0.25500000920E-02 0. -1.
    10030    2    1    2    0    0  0.00000000000E+00  0.00000000000E+00 -0.15989123031E+04  0.33012667359E+04  0.28882246292E+04 0.  0.
        5    1    3    3  502    0  0.37007421100E+03 -0.13339832541E+04 -0.32960848251E+03  0.14230706538E+04  0.46999998093E+01 0.  1.
       -5    1    3    3    0  502 -0.37007421100E+03  0.13339832541E+04 -0.12693038206E+04  0.18781960821E+04  0.46999998093E+01 0. -1.
</event>
<event>
 5   0  0.8263673E-07  0.2896325E+04  0.7818609E-02  0.8273972E-01
        1   -1    0    0  501    0  0.00000000000E+00  0.00000000000E+00  0.16987346789E+04  0.16987346789E+04  0.50400001928E-02 0.  1.
       -1   -1    0    0    0  501  0.00000000000E+00  0.00000000000E+00 -0.12345514165E+04  0.12345514165E+04  0.50400001928E-02 0. -1.
    10030    2    1    2    0    0  0.00000000000E+00  0.00000000000E+00  0.46418326240E+03  0.29332860955E+04  0.28963254680E+04 0.  0.
        5    1    3    3  502    0 -0.49650909829E+02  0.44315008232E+03  0.16274641687E+04  0.16874563457E+04  0.46999998093E+01 0.  1.
       -5    1    3    3    0  502  0.49650909829E+02 -0.44315008232E+03 -0.11632809063E+04  0.12458297497E+04  0.46999998093E+01 0. -1.
</event>
<event>
 5   0  0.8947674E-07  0.2789457E+04  0.7818609E-02  0.8306549E-01
        1   -1    0    0  501    0  0.00000000000E+00  0.00000000000E+00  0.32182754805E+04  0.32182754805E+04  0.50400001928E-02 0.  1.
       -1   -1    0    0    0  501  0.00000000000E+00  0.00000000000E+00 -0.60444391051E+03  0.60444391053E+03  0.50400001928E-02 0. -1.
    10030    2    1    2    0    0  0.00000000000E+00  0.00000000000E+00  0.26138315700E+04  0.38227193910E+04  0.27894565898E+04 0.  0.
        3    1    3    3  502    0  0.46225259182E+03 -0.13029952514E+04  0.15588375490E+04  0.20836143113E+04  0.10100000352E+00 0.  1.
       -3    1    3    3    0  502 -0.46225259182E+03  0.13029952514E+04  0.10549940210E+04  0.17391050797E+04  0.10100000352E+00 0. -1.
</event>
<event>
 5   0  0.2378690E-06  0.2890414E+04  0.7818609E-02  0.8275735E-01
       -2   -1    0    0    0  501  0.00000000000E+00  0.00000000000E+00  0.84852210841E+03  0.84852210842E+03  0.25500000920E-02 0.  1.
        2   -1    0    0  501    0  0.00000000000E+00  0.00000000000E+00 -0.24614838389E+04  0.24614838389E+04  0.25500000920E-02 0. -1.
    10030    2    1    2    0    0  0.00000000000E+00  0.00000000000E+00 -0.16129617304E+04  0.33100059473E+04  0.28904141273E+04 0.  0.
        3    1    3    3  502    0 -0.77008572095E+03 -0.85087448173E+03 -0.18124066738E+04  0.21451893536E+04  0.10100000352E+00 0. -1.
       -3    1    3    3    0  502  0.77008572095E+03  0.85087448173E+03  0.19944494337E+03  0.11648165937E+04  0.10100000352E+00 0.  1.
</event>
<event>
 5   0  0.2304435E-06  0.2897007E+04  0.7818609E-02  0.8273768E-01
        2   -1    0    0  501    0  0.00000000000E+00  0.00000000000E+00  0.31396419339E+04  0.31396419339E+04  0.25500000920E-02 0. -1.
       -2   -1    0    0    0  501  0.00000000000E+00  0.00000000000E+00 -0.66828097181E+03  0.66828097181E+03  0.25500000920E-02 0.  1.
    10030    2    1    2    0    0  0.00000000000E+00  0.00000000000E+00  0.24713609621E+04  0.38079229057E+04  0.28970073957E+04 0.  0.
        1    1    3    3  502    0  0.10031992840E+04  0.47318228388E+03  0.24601882620E+04  0.26986731113E+04  0.50400001928E-02 0. -1.
       -1    1    3    3    0  502 -0.10031992840E+04 -0.47318228388E+03  0.11172700138E+02  0.11092497944E+04  0.50400001928E-02 0.  1.
</event>
<event>
 5   0  0.2304435E-06  0.2902139E+04  0.7818609E-02  0.8272241E-01
        2   -1    0    0  501    0  0.00000000000E+00  0.00000000000E+00  0.23073285682E+04  0.23073285682E+04  0.25500000920E-02 0.  1.
       -2   -1    0    0    0  501  0.00000000000E+00  0.00000000000E+00 -0.91257161775E+03  0.91257161775E+03  0.25500000920E-02 0. -1.
    10030    2    1    2    0    0  0.00000000000E+00  0.00000000000E+00  0.13947569504E+04  0.32199001859E+04  0.29021389106E+04 0.  0.
        1    1    3    3  502    0 -0.77056474920E+03 -0.84646486638E+03 -0.29208058633E+03  0.11813483278E+04  0.50400001928E-02 0.  1.
       -1    1    3    3    0  502  0.77056474920E+03  0.84646486638E+03  0.16868375368E+04  0.20385518581E+04  0.50400001928E-02 0. -1.
</event>
<event>
 5   0  0.2425845E-06  0.2893664E+04  0.7818609E-02  0.8274765E-01
       -2   -1    0    0    0  501  0.00000000000E+00  0.00000000000E+00  0.11952891904E+04  0.11952891904E+04  0.25500000920E-02 0. -1.
        2   -1    0    0  501    0  0.00000000000E+00  0.00000000000E+00 -0.17513106589E+04  0.17513106589E+04  0.25500000920E-02 0.  1.
    10030    2    1    2    0    0  0.00000000000E+00  0.00000000000E+00 -0.55602146850E+03  0.29465998494E+04  0.28936639057E+04 0.  0.
        2    1    3    3  502    0  0.80195084044E+03  0.11284841078E+04 -0.70608326633E+03  0.15540769321E+04  0.25500000920E-02 0.  1.
       -2    1    3    3    0  502 -0.80195084044E+03 -0.11284841078E+04  0.15006179783E+03  0.13925229173E+04  0.25500000920E-02 0. -1.
</event>
<event>
 5   0  0.8357118E-07  0.2910287E+04  0.7818609E-02  0.8269823E-01
       -1   -1    0    0    0  501  0.00000000000E+00  0.00000000000E+00  0.11478475214E+04  0.11478475214E+04  0.50400001928E-02 0. -1.
        1   -1    0    0  501    0  0.00000000000E+00  0.00000000000E+00 -0.18447075316E+04  0.18447075316E+04  0.50400001928E-02 0.  1.
    10030    2    1    2    0    0  0.00000000000E+00  0.00000000000E+00 -0.69686001022E+03  0.29925550530E+04  0.29102872490E+04 0.  0.
        1    1    3    3  502    0  0.94930289621E+03  0.10863843759E+04 -0.15323244667E+03  0.14508229333E+04  0.50400001928E-02 0.  1.
       -1    1    3    3    0  502 -0.94930289621E+03 -0.10863843759E+04 -0.54362756354E+03  0.15417321197E+04  0.50400001928E-02 0. -1.
</event>
<event>
 5   0  0.2304435E-06  0.2906506E+04  0.7818609E-02  0.8270944E-01
       -2   -1    0    0    0  501  0.00000000000E+00  0.00000000000E+00  0.13727731307E+04  0.13727731307E+04  0.25500000920E-02 0. -1.
        2   -1    0    0  501    0  0.00000000000E+00  0.00000000000E+00 -0.15384507287E+04  0.15384507287E+04  0.25500000920E-02 0.  1.
    10030    2    1    2    0    0  0.00000000000E+00  0.00000000000E+00 -0.16567759801E+03  0.29112238593E+04  0.29065056843E+04 0.  0.
        1    1    3    3  502    0 -0.60729211251E+03  0.10803311747E+04  0.67735612555E+03  0.14123492762E+04  0.50400001928E-02 0. -1.
       -1    1    3    3    0  502  0.60729211251E+03 -0.10803311747E+04 -0.84303372355E+03  0.14988745832E+04  0.50400001928E-02 0.  1.
</event>
<event>
 5   0  0.2360103E-06  0.2843273E+04  0.7818609E-02  0.8289958E-01
       -2   -1    0    0    0  501  0.00000000000E+00  0.00000000000E+00  0.15766211349E+04  0.15766211349E+04  0.25500000920E-02 0.  1.
        2   -1    0    0  501    0  0.00000000000E+00  0.00000000000E+00 -0.12818870131E+04  0.12818870131E+04  0.25500000920E-02 0. -1.
    10030    2    1    2    0    0  0.00000000000E+00  0.00000000000E+00  0.29473412184E+03  0.28585081480E+04  0.28432728728E+04 0.  0.
        4    1    3    3  502    0  0.99906397053E+03 -0.32746078398E+03  0.11094110490E+04  0.15284481904E+04  0.12699999809E+01 0.  1.
       -4    1    3    3    0  502 -0.99906397053E+03  0.32746078398E+03 -0.81467692711E+03  0.13300599576E+04  0.12699999809E+01 0. -1.
</event>
<event>
 5   0  0.2378690E-06  0.2931630E+04  0.7818609E-02  0.8263528E-01
       -2   -1    0    0    0  501  0.00000000000E+00  0.00000000000E+00  0.16073201535E+04  0.16073201535E+04  0.25500000920E-02 0.  1.
        2   -1    0    0  501    0  0.00000000000E+00  0.00000000000E+00 -0.13367681232E+04  0.13367681232E+04  0.25500000920E-02 0. -1.
    10030    2    1    2    0    0  0.00000000000E+00  0.00000000000E+00  0.27055203025E+03  0.29440882767E+04  0.29316304986E+04 0.  0.
        3    1    3    3  502    0  0.82988751322E+03  0.10060450774E+04  0.80727900302E+03  0.15337990029E+04  0.10100000352E+00 0.  1.
       -3    1    3    3    0  502 -0.82988751322E+03 -0.10060450774E+04 -0.53672697276E+03  0.14102892738E+04  0.10100000352E+00 0. -1.
</event>
<event>
 5   0  0.8263673E-07  0.2902101E+04  0.7818609E-02  0.8272253E-01
       -1   -1    0    0    0  501  0.00000000000E+00  0.00000000000E+00  0.12380608339E+04  0.12380608339E+04  0.50400001928E-02 0.  1.
        1   -1    0    0  501    0  0.00000000000E+00  0.00000000000E+00 -0.17006820439E+04  0.17006820439E+04  0.50400001928E-02 0. -1.
    10030    2    1    2    0    0  0.00000000000E+00  0.00000000000E+00 -0.46262121004E+03  0.29387428778E+04  0.29021011902E+04 0.  0.
        5    1    3    3  502    0 -0.69677950176E+03 -0.11246504197E+04  0.37218852951E+03  0.13743677208E+04  0.46999998093E+01 0.  1.
       -5    1    3    3    0  502  0.69677950176E+03  0.11246504197E+04 -0.83480973955E+03  0.15643751570E+04  0.46999998093E+01 0. -1.
</event>
<event>
 5   0  0.8483636E-07  0.2886881E+04  0.7818609E-02  0.8276791E-01
       -1   -1    0    0    0  501  0.00000000000E+00  0.00000000000E+00  0.17724297491E+04  0.17724297491E+04  0.50400001928E-02 0. -1.
        1   -1    0    0  501    0  0.00000000000E+00  0.00000000000E+00 -0.11755166206E+04  0.11755166206E+04  0.50400001928E-02 0.  1.
    10030    2    1    2    0    0  0.00000000000E+00  0.00000000000E+00  0.59691312848E+03  0.29479463698E+04  0.28868811053E+04 0.  0.
        2    1    3    3  502    0  0.13164397565E+04  0.57865753757E+03  0.17065959963E+03  0.14480962942E+04  0.25500000920E-02 0. -1.
       -2    1    3    3    0  502 -0.13164397565E+04 -0.57865753757E+03  0.42625352885E+03  0.14998500756E+04  0.25500000920E-02 0.  1.
</event>
<event>
 5   0  0.2304435E-06  0.2908679E+04  0.7818609E-02  0.8270300E-01
       -2   -1    0    0    0  501  0.00000000000E+00  0.00000000000E+00  0.13296289124E+04  0.13296289124E+04  0.25500000920E-02 0.  1.
        2   -1    0    0  501    0  0.00000000000E+00  0.00000000000E+00 -0.15907475620E+04  0.15907475620E+04  0.25500000920E-02 0. -1.
    10030    2    1    2    0    0  0.00000000000E+00  0.00000000000E+00 -0.26111864954E+03  0.29203764744E+04  0.29086793916E+04 0.  0.
        1    1    3    3  502    0  0.24896864249E+03  0.56577613626E+03 -0.14522939421E+04  0.15783680546E+04  0.50400001928E-02 0. -1.
       -1    1    3    3    0  502 -0.24896864249E+03 -0.56577613626E+03  0.11911752926E+04  0.13420084199E+04  0.50400001928E-02 0.  1.
</event>
<event>
 5   0  0.2360103E-06  0.2875783E+04  0.7818609E-02  0.8280120E-01
        2   -1    0    0  501    0  0.00000000000E+00  0.00000000000E+00  0.19029654168E+04  0.19029654168E+04  0.25500000920E-02 0.  1.
       -2   -1    0    0    0  501  0.00000000000E+00  0.00000000000E+00 -0.10864786247E+04  0.10864786247E+04  0.25500000920E-02 0. -1.
    10030    2    1    2    0    0  0.00000000000E+00  0.00000000000E+00  0.81648679214E+03  0.29894440414E+04  0.28757825014E+04 0.  0.
        4    1    3    3  502    0 -0.73966801786E+03 -0.11879954504E+04  0.64905119600E+02  0.14009483410E+04  0.12699999809E+01 0. -1.
       -4    1    3    3    0  502  0.73966801786E+03  0.11879954504E+04  0.75158167254E+03  0.15884957004E+04  0.12699999809E+01 0.  1.
</event>
<event>
 5   0  0.2378690E-06  0.2902938E+04  0.7818609E-02  0.8272004E-01
       -2   -1    0    0    0  501  0.00000000000E+00  0.00000000000E+00  0.85648045763E+03  0.85648045763E+03  0.25500000920E-02 0.  1.
        2   -1    0    0  501    0  0.00000000000E+00  0.00000000000E+00 -0.24597907906E+04  0.24597907906E+04  0.25500000920E-02 0. -1.
    10030    2    1    2    0    0  0.00000000000E+00  0.00000000000E+00 -0.16033103330E+04  0.33162712483E+04  0.29029383335E+04 0.  0.
        3    1    3    3  502    0 -0.40161666648E+03  0.12510531228E+04 -0.15061765269E+04  0.19987490096E+04  0.10100000352E+00 0. -1.
       -3    1    3    3    0  502  0.40161666648E+03 -0.12510531228E+04 -0.97133806131E+02  0.13175222387E+04  0.10100000352E+00 0.  1.
</event>
<event>
 5   0  0.8947674E-07  0.2905314E+04  0.7818609E-02  0.8271298E-01
       -1   -1    0    0    0  501  0.00000000000E+00  0.00000000000E+00  0.11527913350E+04  0.11527913350E+04  0.50400001928E-02 0. -1.
        1   -1    0    0  501    0  0.00000000000E+00  0.00000000000E+00 -0.18305240019E+04  0.18305240019E+04  0.50400001928E-02 0.  1.
    10030    2    1    2    0    0  0.00000000000E+00  0.00000000000E+00 -0.67773266694E+03  0.29833153369E+04  0.29053138956E+04 0.  0.
        3    1    3    3  502    0 -0.11395047251E+04 -0.25749785055E+03  0.54770011447E+03  0.12902525284E+04  0.10100000352E+00 0. -1.
       -3    1    3    3    0  502  0.11395047251E+04  0.25749785055E+03 -0.12254327814E+04  0.16930628085E+04  0.10100000352E+00 0.  1.
</event>
<event>
 5   0  0.2425845E-06  0.2887425E+04  0.7818609E-02  0.8276629E-01
       -2   -1    0    0    0  501  0.00000000000E+00  0.00000000000E+00  0.13237771884E+04  0.13237771884E+04  0.25500000920E-02 0.  1.
        2   -1    0    0  501    0  0.00000000000E+00  0.00000000000E+00 -0.15745135365E+04  0.15745135365E+04  0.25500000920E-02 0. -1.
    10030    2    1    2    0    0  0.00000000000E+00  0.00000000000E+00 -0.25073634815E+03  0.28982907249E+04  0.28874245288E+04 0.  0.
        2    1    3    3  502    0 -0.24051622774E+03  0.71658855824E+03 -0.13600206311E+04  0.15559573691E+04  0.25500000920E-02 0. -1.
       -2    1    3    3    0  502  0.24051622774E+03 -0.71658855824E+03  0.11092842829E+04  0.13423333557E+04  0.25500000920E-02 0.  1.
</event>
<event>
 5   0  0.8357118E-07  0.2901392E+04  0.7818609E-02  0.8272463E-01
       -1   -1    0    0    0  501  0.00000000000E+00  0.00000000000E+00  0.15010395868E+04  0.15010395868E+04  0.50400001928E-02 0.  1.
        1   -1    0    0  501    0  0.00000000000E+00  0.00000000000E+00 -0.14020411666E+04  0.14020411666E+04  0.50400001928E-02 0. -1.
    10030    2    1    2    0    0  0.00000000000E+00  0.00000000000E+00  0.98998420258E+02  0.29030807534E+04  0.29013922819E+04 0.  0.
        1    1    3    3  502    0 -0.11863699133E+04 -0.81665976016E+03 -0.12413148063E+03  0.14456193688E+04  0.50400001928E-02 0.  1.
       -1    1    3    3    0  502  0.11863699133E+04  0.81665976016E+03  0.22312990089E+03  0.14574613846E+04  0.50400001928E-02 0. -1.
</event>
<event>
 5   0  0.8483636E-07  0.2902053E+04  0.7818609E-02  0.8272267E-01
       -1   -1    0    0    0  501  0.00000000000E+00  0.00000000000E+00  0.16832793369E+04  0.16832793369E+04  0.50400001928E-02 0.  1.
        1   -1    0    0  501    0  0.00000000000E+00  0.00000000000E+00 -0.12508191202E+04  0.12508191202E+04  0.50400001928E-02 0. -1.
    10030    2    1    2    0    0  0.00000000000E+00  0.00000000000E+00  0.43246021669E+03  0.29340984571E+04  0.29020530521E+04 0.  0.
        2    1    3    3  502    0 -0.12190031526E+04 -0.10987097914E+03  0.10042191771E+04  0.15831918626E+04  0.25500000920E-02 0.  1.
       -2    1    3    3    0  502  0.12190031526E+04  0.10987097914E+03 -0.57175896046E+03  0.13509065945E+04  0.25500000920E-02 0. -1.
</event>
<event>
 5   0  0.2325590E-06  0.2899843E+04  0.7818609E-02  0.8272924E-01
       -2   -1    0    0    0  501  0.00000000000E+00  0.00000000000E+00  0.98377493716E+03  0.98377493716E+03  0.25500000920E-02 0. -1.
        2   -1    0    0  501    0  0.00000000000E+00  0.00000000000E+00 -0.21369450620E+04  0.21369450620E+04  0.25500000920E-02 0.  1.
    10030    2    1    2    0    0  0.00000000000E+00  0.00000000000E+00 -0.11531701249E+04  0.31207199992E+04  0.28998434400E+04 0.  0.
        5    1    3    3  502    0  0.45956908785E+03 -0.21728311467E+02 -0.20562971194E+04  0.21071439911E+04  0.46999998093E+01 0.  1.
       -5    1    3    3    0  502 -0.45956908785E+03  0.21728311467E+02  0.90312699450E+03  0.10135760081E+04  0.46999998093E+01 0. -1.
</event>
<event>
 5   0  0.8357118E-07  0.2929421E+04  0.7818609E-02  0.8264177E-01
       -1   -1    0    0    0  501  0.00000000000E+00  0.00000000000E+00  0.19996775891E+04  0.19996775891E+04  0.50400001928E-02 0.  1.
        1   -1    0    0  501    0  0.00000000000E+00  0.00000000000E+00 -0.10728614376E+04  0.10728614376E+04  0.50400001928E-02 0. -1.
    10030    2    1    2    0    0  0.00000000000E+00  0.00000000000E+00  0.92681615156E+03  0.30725390267E+04  0.29294210848E+04 0.  0.
        1    1    3    3  502    0 -0.18791613428E+03 -0.13686445552E+04  0.97388564978E+03  0.16902525406E+04  0.50400001928E-02 0.  1.
       -1    1    3    3    0  502  0.18791613428E+03  0.13686445552E+04 -0.47069498222E+02  0.13822864861E+04  0.50400001928E-02 0. -1.
</event>
<event>
 5   0  0.2360103E-06  0.2894609E+04  0.7818609E-02  0.8274483E-01
       -2   -1    0    0    0  501  0.00000000000E+00  0.00000000000E+00  0.13077332655E+04  0.13077332655E+04  0.25500000920E-02 0. -1.
        2   -1    0    0  501    0  0.00000000000E+00  0.00000000000E+00 -0.16017719940E+04  0.16017719940E+04  0.25500000920E-02 0.  1.
    10030    2    1    2    0    0  0.00000000000E+00  0.00000000000E+00 -0.29403872846E+03  0.29095052595E+04  0.28946091414E+04 0.  0.
        4    1    3    3  502    0  0.12278614400E+04  0.13446930955E+03 -0.90519758476E+03  0.15313751961E+04  0.12699999809E+01 0.  1.
       -4    1    3    3    0  502 -0.12278614400E+04 -0.13446930955E+03  0.61115885629E+03  0.13781300634E+04  0.12699999809E+01 0. -1.
</event>
<event>
 5   0  0.7621125E-07  0.2913730E+04  0.7818609E-02  0.8268804E-01
        3   -1    0    0  501    0  0.00000000000E+00  0.00000000000E+00  0.12517908059E+04  0.12517908100E+04  0.10100000352E+00 0. -1.
       -3   -1    0    0    0  501  0.00000000000E+00  0.00000000000E+00 -0.16955354106E+04  0.16955354136E+04  0.10100000352E+00 0.  1.
    10030    2    1    2    0    0  0.00000000000E+00  0.00000000000E+00 -0.44374460466E+03  0.29473262235E+04  0.29137300139E+04 0.  0.
        3    1    3    3  502    0 -0.87367164127E+03  0.95339859690E+03 -0.90056664019E+03  0.15758462187E+04  0.10100000352E+00 0.  1.
       -3    1    3    3    0  502  0.87367164127E+03 -0.95339859690E+03  0.45682203553E+03  0.13714800048E+04  0.10100000352E+00 0. -1.
</event>
<event>
 5   0  0.2378690E-06  0.2896609E+04  0.7818609E-02  0.8273887E-01
       -2   -1    0    0    0  501  0.00000000000E+00  0.00000000000E+00  0.12829683101E+04  0.12829683101E+04  0.25500000920E-02 0.  1.
        2   -1    0    0  501    0  0.00000000000E+00  0.00000000000E+00 -0.16349479713E+04  0.16349479713E+04  0.25500000920E-02 0. -1.
    10030    2    1    2    0    0  0.00000000000E+00  0.00000000000E+00 -0.35197966122E+03  0.29179162815E+04  0.28966093530E+04 0.  0.
        3    1    3    3  502    0  0.61416318681E+03 -0.99684066317E+03 -0.10347266608E+04  0.15625450395E+04  0.10100000352E+00 0. -1.
       -3    1    3    3    0  502 -0.61416318681E+03  0.99684066317E+03  0.68274699959E+03  0.13553712419E+04  0.10100000352E+00 0.  1.
</event>
<event>
 5   0  0.2325590E-06  0.2898206E+04  0.7818609E-02  0.8273412E-01
        2   -1    0    0  501    0  0.00000000000E+00  0.00000000000E+00  0.83866720687E+03  0.83866720687E+03  0.25500000920E-02 0. -1.
       -2   -1    0    0    0  501  0.00000000000E+00  0.00000000000E+00 -0.25038524029E+04  0.25038524029E+04  0.25500000920E-02 0.  1.
    10030    2    1    2    0    0  0.00000000000E+00  0.00000000000E+00 -0.16651851960E+04  0.33425196098E+04  0.28982055836E+04 0.  0.
        5    1    3    3  502    0 -0.25619166682E+03  0.34010897663E+03  0.76488005679E+03  0.87542668305E+03  0.46999998093E+01 0. -1.
       -5    1    3    3    0  502  0.25619166682E+03 -0.34010897663E+03 -0.24300652528E+04  0.24670929267E+04  0.46999998093E+01 0.  1.
</event>
<event>
 5   0  0.8947674E-07  0.2912530E+04  0.7818609E-02  0.8269159E-01
       -1   -1    0    0    0  501  0.00000000000E+00  0.00000000000E+00  0.17742521453E+04  0.17742521453E+04  0.50400001928E-02 0. -1.
        1   -1    0    0  501    0  0.00000000000E+00  0.00000000000E+00 -0.11952681568E+04  0.11952681568E+04  0.50400001928E-02 0.  1.
    10030    2    1    2    0    0  0.00000000000E+00  0.00000000000E+00  0.57898398857E+03  0.29695203021E+04  0.29125295476E+04 0.  0.
        3    1    3    3  502    0 -0.11351490394E+04 -0.90120650106E+03  0.14540946661E+03  0.14566675745E+04  0.10100000352E+00 0.  1.
       -3    1    3    3    0  502  0.11351490394E+04  0.90120650106E+03  0.43357452196E+03  0.15128527277E+04  0.10100000352E+00 0. -1.
</event>
<event>
 5   0  0.2425845E-06  0.2842700E+04  0.7818609E-02  0.8290133E-01
        2   -1    0    0  501    0  0.00000000000E+00  0.00000000000E+00  0.21676432718E+04  0.21676432718E+04  0.25500000920E-02 0.  1.
       -2   -1    0    0    0  501  0.00000000000E+00  0.00000000000E+00 -0.93199647235E+03  0.93199647235E+03  0.25500000920E-02 0. -1.
    10030    2    1    2    0    0  0.00000000000E+00  0.00000000000E+00  0.12356467994E+04  0.30996397441E+04  0.28427000423E+04 0.  0.
        2    1    3    3  502    0  0.57026578534E+03 -0.67176970798E+03 -0.59821748508E+03  0.10650548183E+04  0.25500000920E-02 0. -1.
       -2    1    3    3    0  502 -0.57026578534E+03  0.67176970798E+03  0.18338642845E+04  0.20345849259E+04  0.25500000920E-02 0.  1.
</event>
<event>
 5   0  0.2360103E-06  0.2889019E+04  0.7818609E-02  0.8276152E-01
        2   -1    0    0  501    0  0.00000000000E+00  0.00000000000E+00  0.20852824283E+04  0.20852824283E+04  0.25500000920E-02 0. -1.
       -2   -1    0    0    0  501  0.00000000000E+00  0.00000000000E+00 -0.10006355896E+04  0.10006355896E+04  0.25500000920E-02 0.  1.
    10030    2    1    2    0    0  0.00000000000E+00  0.00000000000E+00  0.10846468387E+04  0.30859180180E+04  0.28890190808E+04 0.  0.
        4    1    3    3  502    0  0.29357876290E+03 -0.11342937675E+03  0.20482131365E+04  0.20722532131E+04  0.12699999809E+01 0. -1.
       -4    1    3    3    0  502 -0.29357876290E+03  0.11342937675E+03 -0.96356629782E+03  0.10136648049E+04  0.12699999809E+01 0.  1.
</event>
<event>
 5   0  0.2304435E-06  0.2895411E+04  0.7818609E-02  0.8274244E-01
       -2   -1    0    0    0  501  0.00000000000E+00  0.00000000000E+00  0.11340363190E+04  0.11340363190E+04  0.25500000920E-02 0.  1.
        2   -1    0    0  501    0  0.00000000000E+00  0.00000000000E+00 -0.18481339198E+04  0.18481339198E+04  0.25500000920E-02 0. -1.
    10030    2    1    2    0    0  0.00000000000E+00  0.00000000000E+00 -0.71409760077E+03  0.29821702388E+04  0.28954108430E+04 0.  0.
        1    1    3    3  502    0  0.75845917123E+02  0.71245626833E+03 -0.16527197015E+04  0.18013408754E+04  0.50400001928E-02 0. -1.
       -1    1    3    3    0  502 -0.75845917123E+02 -0.71245626833E+03  0.93862210075E+03  0.11808293634E+04  0.50400001928E-02 0.  1.
</event>
<event>
 5   0  0.8355946E-07  0.2901819E+04  0.7818609E-02  0.8272336E-01
        1   -1    0    0  501    0  0.00000000000E+00  0.00000000000E+00  0.12845005332E+04  0.12845005333E+04  0.50400001928E-02 0. -1.
       -1   -1    0    0    0  501  0.00000000000E+00  0.00000000000E+00 -0.16388770616E+04  0.16388770617E+04  0.50400001928E-02 0.  1.
    10030    2    1    2    0    0  0.00000000000E+00  0.00000000000E+00 -0.35437652840E+03  0.29233775949E+04  0.29018190568E+04 0.  0.
        4    1    3    3  502    0  0.19652392907E+03 -0.60461529064E+01 -0.16253932742E+04  0.16372425353E+04  0.12699999809E+01 0.  1.
       -4    1    3    3    0  502 -0.19652392907E+03  0.60461529064E+01  0.12710167458E+04  0.12861350596E+04  0.12699999809E+01 0. -1.
</event>
<event>
 5   0  0.8263673E-07  0.2897965E+04  0.7818609E-02  0.8273483E-01
       -1   -1    0    0    0  501  0.00000000000E+00  0.00000000000E+00  0.10264225475E+04  0.10264225475E+04  0.50400001928E-02 0.  1.
        1   -1    0    0  501    0  0.00000000000E+00  0.00000000000E+00 -0.20455023403E+04  0.20455023403E+04  0.50400001928E-02 0. -1.
    10030    2    1    2    0    0  0.00000000000E+00  0.00000000000E+00 -0.10190797928E+04  0.30719248878E+04  0.28979646120E+04 0.  0.
        5    1    3    3  502    0  0.29023343474E+03  0.90141447362E+01 -0.20143363873E+04  0.20351633528E+04  0.46999998093E+01 0. -1.
       -5    1    3    3    0  502 -0.29023343474E+03 -0.90141447362E+01  0.99525659455E+03  0.10367615350E+04  0.46999998093E+01 0.  1.
</event>
<event>
 5   0  0.8357118E-07  0.2905315E+04  0.7818609E-02  0.8271298E-01
        1   -1    0    0  501    0  0.00000000000E+00  0.00000000000E+00  0.19819357899E+04  0.19819357899E+04  0.50400001928E-02 0.  1.
       -1   -1    0    0    0  501  0.00000000000E+00  0.00000000000E+00 -0.10647233613E+04  0.10647233613E+04  0.50400001928E-02 0. -1.
    10030    2    1    2    0    0  0.00000000000E+00  0.00000000000E+00  0.91721242859E+03  0.30466591512E+04  0.29053146722E+04 0.  0.
        1    1    3    3  502    0  0.44694493615E+03  0.63052129899E+03  0.17484445913E+04  0.19116420620E+04  0.50400001928E-02 0.  1.
       -1    1    3    3    0  502 -0.44694493615E+03 -0.63052129899E+03 -0.83123216269E+03  0.11350170892E+04  0.50400001928E-02 0. -1.
</event>
<event>
 5   0  0.8355946E-07  0.2924718E+04  0.7818609E-02  0.8265561E-01
       -1   -1    0    0    0  501  0.00000000000E+00  0.00000000000E+00  0.17124699653E+04  0.17124699653E+04  0.50400001928E-02 0. -1.
        1   -1    0    0  501    0  0.00000000000E+00  0.00000000000E+00 -0.12487774048E+04  0.12487774048E+04  0.50400001928E-02 0.  1.
    10030    2    1    2    0    0  0.00000000000E+00  0.00000000000E+00  0.46369256047E+03  0.29612473701E+04  0.29247179687E+04 0.  0.
        4    1    3    3  502    0 -0.10606713677E+04  0.68630125062E+03 -0.51387092961E+03  0.13638541352E+04  0.12699999809E+01 0.  1.
       -4    1    3    3    0  502  0.10606713677E+04 -0.68630125062E+03  0.97756349008E+03  0.15973932349E+04  0.12699999809E+01 0. -1.
</event>
<event>
 5   0  0.8357118E-07  0.2923910E+04  0.7818609E-02  0.8265799E-01
       -1   -1    0    0    0  501  0.00000000000E+00  0.00000000000E+00  0.12835759980E+04  0.12835759980E+04  0.50400001928E-02 0.  1.
        1   -1    0    0  501    0  0.00000000000E+00  0.00000000000E+00 -0.16651236964E+04  0.16651236964E+04  0.50400001928E-02 0. -1.
    10030    2    1    2    0    0  0.00000000000E+00  0.00000000000E+00 -0.38154769840E+03  0.29486996943E+04  0.29239102656E+04 0.  0.
        1    1    3    3  502    0  0.47063140965E+03  0.10931367766E+04  0.66546562180E+03  0.13635565371E+04  0.50400001928E-02 0.  1.
       -1    1    3    3    0  502 -0.47063140965E+03 -0.10931367766E+04 -0.10470133202E+04  0.15851431572E+04  0.50400001928E-02 0. -1.
</event>
<event>
 5   0  0.2425845E-06  0.2905760E+04  0.7818609E-02  0.8271166E-01
        2   -1    0    0  501    0  0.00000000000E+00  0.00000000000E+00  0.17974943560E+04  0.17974943560E+04  0.25500000920E-02 0. -1.
       -2   -1    0    0    0  501  0.00000000000E+00  0.00000000000E+00 -0.11743350072E+04  0.11743350072E+04  0.25500000920E-02 0.  1.
    10030    2    1    2    0    0  0.00000000000E+00  0.00000000000E+00  0.62315934879E+03  0.29718293631E+04  0.29057601741E+04 0.  0.
        2    1    3    3  502    0 -0.97649233359E+03  0.33112253562E+03 -0.73525636226E+03  0.12664048837E+04  0.25500000920E-02 0.  1.
       -2    1    3    3    0  502  0.97649233359E+03 -0.33112253562E+03  0.13584157110E+04  0.17054244795E+04  0.25500000920E-02 0. -1.
</event>
<event>
 5   0  0.8355946E-07  0.2915209E+04  0.7818609E-02  0.8268367E-01
        1   -1    0    0  501    0  0.00000000000E+00  0.00000000000E+00  0.22158522322E+04  0.22158522322E+04  0.50400001928E-02 0. -1.
       -1   -1    0    0    0  501  0.00000000000E+00  0.00000000000E+00 -0.95882326277E+03  0.95882326278E+03  0.50400001928E-02 0.  1.
    10030    2    1    2    0    0  0.00000000000E+00  0.00000000000E+00  0.12570289694E+04  0.31746754950E+04  0.29152088550E+04 0.  0.
        4    1    3    3  502    0 -0.54324331397E+03  0.13384588517E+04  0.84086661116E+03  0.16714196560E+04  0.12699999809E+01 0. -1.
       -4    1    3    3    0  502  0.54324331397E+03 -0.13384588517E+04  0.41616235826E+03  0.15032558389E+04  0.12699999809E+01 0.  1.
</event>
<event>
 5   0  0.2360103E-06  0.2881381E+04  0.7818609E-02  0.8278439E-01
        2   -1    0    0  501    0  0.00000000000E+00  0.00000000000E+00  0.30228347814E+04  0.30228347814E+04  0.25500000920E-02 0.  1.
       -2   -1    0    0    0  501  0.00000000000E+00  0.00000000000E+00 -0.68663677922E+03  0.68663677922E+03  0.25500000920E-02 0. -1.
    10030    2    1    2    0    0  0.00000000000E+00  0.00000000000E+00  0.23361980022E+04  0.37094715606E+04  0.28813812927E+04 0.  0.
        4    1    3    3  502    0 -0.57996742898E+03  0.96027758443E+03  0.23318149067E+04  0.25876355288E+04  0.12699999809E+01 0.  1.
       -4    1    3    3    0  502  0.57996742898E+03 -0.96027758443E+03  0.43830954569E+01  0.11218360318E+04  0.12699999809E+01 0. -1.
</event>
<event>
 5   0  0.8357118E-07  0.2896580E+04  0.7818609E-02  0.8273896E-01
       -1   -1    0    0    0  501  0.00000000000E+00  0.00000000000E+00  0.18233859156E+04  0.18233859156E+04  0.50400001928E-02 0.  1.
        1   -1    0    0  501    0  0.00000000000E+00  0.00000000000E+00 -0.11503569114E+04  0.11503569114E+04  0.50400001928E-02 0. -1.
    10030    2    1    2    0    0  0.00000000000E+00  0.00000000000E+00  0.67302900421E+03  0.29737428270E+04  0.28965804599E+04 0.  0.
        1    1    3    3  502    0 -0.15462157226E+03  0.11284572769E+04 -0.58186623314E+03  0.12790199254E+04  0.50400001928E-02 0. -1.
       -1    1    3    3    0  502  0.15462157226E+03 -0.11284572769E+04  0.12548952374E+04  0.16947229016E+04  0.50400001928E-02 0.  1.
</event>
<event>
 5   0  0.8947674E-07  0.2883391E+04  0.7818609E-02  0.8277836E-01
        1   -1    0    0  501    0  0.00000000000E+00  0.00000000000E+00  0.12432543438E+04  0.12432543438E+04  0.50400001928E-02 0.  1.
       -1   -1    0    0    0  501  0.00000000000E+00  0.00000000000E+00 -0.16718105898E+04  0.16718105898E+04  0.50400001928E-02 0. -1.
    10030    2    1    2    0    0  0.00000000000E+00  0.00000000000E+00 -0.42855624600E+03  0.29150649337E+04  0.28833909051E+04 0.  0.
        3    1    3    3  502    0 -0.73894866290E+03 -0.11674613021E+04 -0.63047345893E+03  0.15187191350E+04  0.10100000352E+00 0.  1.
       -3    1    3    3    0  502  0.73894866290E+03  0.11674613021E+04  0.20191721293E+03  0.13963457987E+04  0.10100000352E+00 0. -1.
</event>
<event>
 5   0  0.2425845E-06  0.2899120E+04  0.7818609E-02  0.8273139E-01
        2   -1    0    0  501    0  0.00000000000E+00  0.00000000000E+00  0.17104741334E+04  0.17104741334E+04  0.25500000920E-02 0. -1.
       -2   -1    0    0    0  501  0.00000000000E+00  0.00000000000E+00 -0.12284452337E+04  0.12284452337E+04  0.25500000920E-02 0.  1.
    10030    2    1    2    0    0  0.00000000000E+00  0.00000000000E+00  0.48202889972E+03  0.29389193672E+04  0.28991197261E+04 0.  0.
        2    1    3    3  502    0 -0.60657278283E+03 -0.91411353156E+03  0.12014863039E+04  0.16269921413E+04  0.25500000920E-02 0. -1.
       -2    1    3    3    0  502  0.60657278283E+03  0.91411353156E+03 -0.71945740419E+03  0.13119272258E+04  0.25500000920E-02 0.  1.
</event>
<event>
 5   0  0.2378690E-06  0.2896320E+04  0.7818609E-02  0.8273973E-01
        2   -1    0    0  501    0  0.00000000000E+00  0.00000000000E+00  0.14913699713E+04  0.14913699713E+04  0.25500000920E-02 0.  1.
       -2   -1    0    0    0  501  0.00000000000E+00  0.00000000000E+00 -0.14062016087E+04  0.14062016087E+04  0.25500000920E-02 0. -1.
    10030    2    1    2    0    0  0.00000000000E+00  0.00000000000E+00  0.85168362571E+02  0.28975715800E+04  0.28963196321E+04 0.  0.
        3    1    3    3  502    0 -0.97851297486E+03  0.14765573222E+03  0.11003382215E+04  0.14798763695E+04  0.10100000352E+00 0.  1.
       -3    1    3    3    0  502  0.97851297486E+03 -0.14765573222E+03 -0.10151698589E+04  0.14176952105E+04  0.10100000352E+00 0. -1.
</event>
<event>
 5   0  0.2325590E-06  0.2891619E+04  0.7818609E-02  0.8275375E-01
       -2   -1    0    0    0  501  0.00000000000E+00  0.00000000000E+00  0.12321464585E+04  0.12321464586E+04  0.25500000920E-02 0. -1.
        2   -1    0    0  501    0  0.00000000000E+00  0.00000000000E+00 -0.16965231232E+04  0.16965231232E+04  0.25500000920E-02 0.  1.
    10030    2    1    2    0    0  0.00000000000E+00  0.00000000000E+00 -0.46437666465E+03  0.29286695818E+04  0.28916188947E+04 0.  0.
        5    1    3    3  502    0  0.11900727733E+04 -0.72478059114E+03 -0.62282808108E+03  0.15262755386E+04  0.46999998093E+01 0.  1.
       -5    1    3    3    0  502 -0.11900727733E+04  0.72478059114E+03  0.15845141643E+03  0.14023940432E+04  0.46999998093E+01 0. -1.
</event>
<event>
 5   0  0.8355946E-07  0.2803314E+04  0.7818609E-02  0.8302240E-01
       -1   -1    0    0    0  501  0.00000000000E+00  0.00000000000E+00  0.87340496388E+03  0.87340496390E+03  0.50400001928E-02 0.  1.
        1   -1    0    0  501    0  0.00000000000E+00  0.00000000000E+00 -0.22494054788E+04  0.22494054788E+04  0.50400001928E-02 0. -1.
    10030    2    1    2    0    0  0.00000000000E+00  0.00000000000E+00 -0.13760005149E+04  0.31228104427E+04  0.28033136899E+04 0.  0.
        4    1    3    3  502    0  0.31948234215E+03  0.12090462869E+04  0.17222116972E+02  0.12506638657E+04  0.12699999809E+01 0.  1.
       -4    1    3    3    0  502 -0.31948234215E+03 -0.12090462869E+04 -0.13932226319E+04  0.18721465770E+04  0.12699999809E+01 0. -1.
</event>
<event>
 5   0  0.8357118E-07  0.2897538E+04  0.7818609E-02  0.8273610E-01
       -1   -1    0    0    0  501  0.00000000000E+00  0.00000000000E+00  0.14401497078E+04  0.14401497078E+04  0.50400001928E-02 0.  1.
        1   -1    0    0  501    0  0.00000000000E+00  0.00000000000E+00 -0.14574403343E+04  0.14574403343E+04  0.50400001928E-02 0. -1.
    10030    2    1    2    0    0  0.00000000000E+00  0.00000000000E+00 -0.17290626522E+02  0.28975900420E+04  0.28975384529E+04 0.  0.
        1    1    3    3  502    0  0.12929592407E+04 -0.19098760395E+03  0.61643573860E+03  0.14450650099E+04  0.50400001928E-02 0.  1.
       -1    1    3    3    0  502 -0.12929592407E+04  0.19098760395E+03 -0.63372636512E+03  0.14525250321E+04  0.50400001928E-02 0. -1.
</event>
<event>
 5   0  0.8263673E-07  0.2905435E+04  0.7818609E-02  0.8271262E-01
        1   -1    0    0  501    0  0.00000000000E+00  0.00000000000E+00  0.20437016234E+04  0.20437016234E+04  0.50400001928E-02 0.  1.
       -1   -1    0    0    0  501  0.00000000000E+00  0.00000000000E+00 -0.10326300004E+04  0.10326300004E+04  0.50400001928E-02 0. -1.
    10030    2    1    2    0    0  0.00000000000E+00  0.00000000000E+00  0.10110716230E+04  0.30763316239E+04  0.29054346375E+04 0.  0.
        5    1    3    3  502    0 -0.17043513623E+03  0.13796251559E+04  0.95219188869E+03  0.16849644475E+04  0.46999998093E+01 0.  1.
       -5    1    3    3    0  502  0.17043513623E+03 -0.13796251559E+04  0.58879734343E+02  0.13913671764E+04  0.46999998093E+01 0. -1.
</event>
<event>
 5   0  0.2378690E-06  0.2898831E+04  0.7818609E-02  0.8273225E-01
       -2   -1    0    0    0  501  0.00000000000E+00  0.00000000000E+00  0.13632574997E+04  0.13632574997E+04  0.25500000920E-02 0. -1.
        2   -1    0    0  501    0  0.00000000000E+00  0.00000000000E+00 -0.15410187759E+04  0.15410187759E+04  0.25500000920E-02 0.  1.
    10030    2    1    2    0    0  0.00000000000E+00  0.00000000000E+00 -0.17776127615E+03  0.29042762756E+04  0.28988310772E+04 0.  0.
        3    1    3    3  502    0 -0.41242577193E+03  0.10789599733E+04 -0.96605694381E+03  0.15058272379E+04  0.10100000352E+00 0. -1.
       -3    1    3    3    0  502  0.41242577193E+03 -0.10789599733E+04  0.78829566766E+03  0.13984490378E+04  0.10100000352E+00 0.  1.
</event>
<event>
 5   0  0.2425845E-06  0.2884083E+04  0.7818609E-02  0.8277629E-01
       -2   -1    0    0    0  501  0.00000000000E+00  0.00000000000E+00  0.15807174483E+04  0.15807174483E+04  0.25500000920E-02 0.  1.
        2   -1    0    0  501    0  0.00000000000E+00  0.00000000000E+00 -0.13155318331E+04  0.13155318331E+04  0.25500000920E-02 0. -1.
    10030    2    1    2    0    0  0.00000000000E+00  0.00000000000E+00  0.26518561516E+03  0.28962492814E+04  0.28840833014E+04 0.  0.
        2    1    3    3  502    0 -0.55632499874E+03 -0.11130571266E+04 -0.59924086063E+03  0.13811166788E+04  0.25500000920E-02 0. -1.
       -2    1    3    3    0  502  0.55632499874E+03  0.11130571266E+04  0.86442647579E+03  0.15151326026E+04  0.25500000920E-02 0.  1.
</event>
<event>
 5   0  0.8483636E-07  0.2910230E+04  0.7818609E-02  0.8269840E-01
       -1   -1    0    0    0  501  0.00000000000E+00  0.00000000000E+00  0.19037343957E+04  0.19037343957E+04  0.50400001928E-02 0.  1.
        1   -1    0    0  501    0  0.00000000000E+00  0.00000000000E+00 -0.11122136097E+04  0.11122136097E+04  0.50400001928E-02 0. -1.
    10030    2    1    2    0    0  0.00000000000E+00  0.00000000000E+00  0.79152078600E+03  0.30159480055E+04  0.29102297533E+04 0.  0.
        2    1    3    3  502    0 -0.77931908847E+03 -0.73810646388E+03  0.14139055729E+04  0.17751812197E+04  0.25500000920E-02 0.  1.
       -2    1    3    3    0  502  0.77931908847E+03  0.73810646388E+03 -0.62238478692E+03  0.12407667858E+04  0.25500000920E-02 0. -1.
</event>
<event>
 5   0  0.8483636E-07  0.2879842E+04  0.7818609E-02  0.8278901E-01
        1   -1    0    0  501    0  0.00000000000E+00  0.00000000000E+00  0.16483312624E+04  0.16483312624E+04  0.50400001928E-02 0.  1.
       -1   -1    0    0    0  501  0.00000000000E+00  0.00000000000E+00 -0.12578611954E+04  0.12578611954E+04  0.50400001928E-02 0. -1.
    10030    2    1    2    0    0  0.00000000000E+00  0.00000000000E+00  0.39047006699E+03  0.29061924578E+04  0.28798416152E+04 0.  0.
        2    1    3    3  502    0  0.45907000232E+03  0.24075221821E+02 -0.11818193539E+04  0.12680780215E+04  0.25500000920E-02 0. -1.
       -2    1    3    3    0  502 -0.45907000232E+03 -0.24075221821E+02  0.15722894209E+04  0.16381144363E+04  0.25500000920E-02 0.  1.
</event>
<event>
 5   0  0.2304435E-06  0.2894760E+04  0.7818609E-02  0.8274438E-01
        2   -1    0    0  501    0  0.00000000000E+00  0.00000000000E+00  0.11440657778E+04  0.11440657778E+04  0.25500000920E-02 0.  1.
       -2   -1    0    0    0  501  0.00000000000E+00  0.00000000000E+00 -0.18311090022E+04  0.18311090022E+04  0.25500000920E-02 0. -1.
    10030    2    1    2    0    0  0.00000000000E+00  0.00000000000E+00 -0.68704322440E+03  0.29751747799E+04  0.28947601937E+04 0.  0.
        1    1    3    3  502    0  0.89685572924E+03 -0.58731083815E+03  0.65592441833E+03  0.12567899834E+04  0.50400001928E-02 0.  1.
       -1    1    3    3    0  502 -0.89685572924E+03  0.58731083815E+03 -0.13429676427E+04  0.17183847966E+04  0.50400001928E-02 0. -1.
</event>
<event>
 5   0  0.8947674E-07  0.2912144E+04  0.7818609E-02  0.8269274E-01
        1   -1    0    0  501    0  0.00000000000E+00  0.00000000000E+00  0.18141396983E+04  0.18141396983E+04  0.50400001928E-02 0. -1.
       -1   -1    0    0    0  501  0.00000000000E+00  0.00000000000E+00 -0.11686779373E+04  0.11686779373E+04  0.50400001928E-02 0.  1.
    10030    2    1    2    0    0  0.00000000000E+00  0.00000000000E+00  0.64546176101E+03  0.29828176357E+04  0.29121435684E+04 0.  0.
        3    1    3    3  502    0 -0.16236478528E+03  0.93764760539E+02  0.18017234762E+04  0.18114529110E+04  0.10100000352E+00 0. -1.
       -3    1    3    3    0  502  0.16236478528E+03 -0.93764760539E+02 -0.11562617152E+04  0.11713647246E+04  0.10100000352E+00 0.  1.
</event>
<event>
 5   0  0.2304435E-06  0.2901884E+04  0.7818609E-02  0.8272317E-01
        2   -1    0    0  501    0  0.00000000000E+00  0.00000000000E+00  0.20922401668E+04  0.20922401668E+04  0.25500000920E-02 0.  1.
       -2   -1    0    0    0  501  0.00000000000E+00  0.00000000000E+00 -0.10062095702E+04  0.10062095702E+04  0.25500000920E-02 0. -1.
    10030    2    1    2    0    0  0.00000000000E+00  0.00000000000E+00  0.10860305965E+04  0.30984497370E+04  0.29018835807E+04 0.  0.
        1    1    3    3  502    0 -0.65113863030E+03 -0.19507635913E+03 -0.82568740595E+03  0.10694839850E+04  0.50400001928E-02 0. -1.
       -1    1    3    3    0  502  0.65113863030E+03  0.19507635913E+03  0.19117180025E+04  0.20289657520E+04  0.50400001928E-02 0.  1.
</event>
<event>
 5   0  0.8483636E-07  0.2908025E+04  0.7818609E-02  0.8270494E-01
        1   -1    0    0  501    0  0.00000000000E+00  0.00000000000E+00  0.14907816555E+04  0.14907816555E+04  0.50400001928E-02 0. -1.
       -1   -1    0    0    0  501  0.00000000000E+00  0.00000000000E+00 -0.14181499622E+04  0.14181499622E+04  0.50400001928E-02 0.  1.
    10030    2    1    2    0    0  0.00000000000E+00  0.00000000000E+00  0.72631693302E+02  0.29089316177E+04  0.29080247237E+04 0.  0.
        2    1    3    3  502    0  0.13554104606E+04 -0.55060137390E+02 -0.48728106675E+03  0.14413923732E+04  0.25500000920E-02 0.  1.
       -2    1    3    3    0  502 -0.13554104606E+04  0.55060137390E+02  0.55991276005E+03  0.14675392445E+04  0.25500000920E-02 0. -1.
</event>
<event>
 5   0  0.8355946E-07  0.2890819E+04  0.7818609E-02  0.8275614E-01
        1   -1    0    0  501    0  0.00000000000E+00  0.00000000000E+00  0.20421216581E+04  0.20421216581E+04  0.50400001928E-02 0. -1.
       -1   -1    0    0    0  501  0.00000000000E+00  0.00000000000E+00 -0.10230575643E+04  0.10230575644E+04  0.50400001928E-02 0.  1.
    10030    2    1    2    0    0  0.00000000000E+00  0.00000000000E+00  0.10190640938E+04  0.30651792225E+04  0.28908185759E+04 0.  0.
        4    1    3    3  502    0  0.31509904573E+03 -0.58432638105E+03 -0.85184084106E+03  0.10799810922E+04  0.12699999809E+01 0.  1.
       -4    1    3    3    0  502 -0.31509904573E+03  0.58432638105E+03  0.18709049348E+04  0.19851981302E+04  0.12699999809E+01 0. -1.
</event>
<event>
 5   0  0.2360103E-06  0.2908916E+04  0.7818609E-02  0.8270230E-01
       -2   -1    0    0    0  501  0.00000000000E+00  0.00000000000E+00  0.10274383623E+04  0.10274383623E+04  0.25500000920E-02 0.  1.
        2   -1    0    0  501    0  0.00000000000E+00  0.00000000000E+00 -0.20589542667E+04  0.20589542667E+04  0.25500000920E-02 0. -1.
    10030    2    1    2    0    0  0.00000000000E+00  0.00000000000E+00 -0.10315159043E+04  0.30863926290E+04  0.29089163617E+04 0.  0.
        4    1    3    3  502    0  0.57597731626E+03 -0.59180401067E+02 -0.19314008111E+04  0.20163241046E+04  0.12699999809E+01 0. -1.
       -4    1    3    3    0  502 -0.57597731626E+03  0.59180401067E+02  0.89988490672E+03  0.10700685244E+04  0.12699999809E+01 0.  1.
</event>
<event>
 5   0  0.2425845E-06  0.2926724E+04  0.7818609E-02  0.8264970E-01
        2   -1    0    0  501    0  0.00000000000E+00  0.00000000000E+00  0.17407311554E+04  0.17407311554E+04  0.25500000920E-02 0.  1.
       -2   -1    0    0    0  501  0.00000000000E+00  0.00000000000E+00 -0.12301889147E+04  0.12301889147E+04  0.25500000920E-02 0. -1.
    10030    2    1    2    0    0  0.00000000000E+00  0.00000000000E+00  0.51054224070E+03  0.29709200701E+04  0.29267238824E+04 0.  0.
        2    1    3    3  502    0 -0.53906823670E+03  0.17055836662E+03  0.16253728817E+04  0.17209072389E+04  0.25500000920E-02 0.  1.
       -2    1    3    3    0  502  0.53906823670E+03 -0.17055836662E+03 -0.11148306410E+04  0.12500128313E+04  0.25500000920E-02 0. -1.
</event>
<event>
 5   0  0.8263673E-07  0.2910357E+04  0.7818609E-02  0.8269803E-01
        1   -1    0    0  501    0  0.00000000000E+00  0.00000000000E+00  0.18801808192E+04  0.18801808192E+04  0.50400001928E-02 0.  1.
       -1   -1    0    0    0  501  0.00000000000E+00  0.00000000000E+00 -0.11262453930E+04  0.11262453930E+04  0.50400001928E-02 0. -1.
    10030    2    1    2    0    0  0.00000000000E+00  0.00000000000E+00  0.75393542625E+03  0.30064262122E+04  0.29103573565E+04 0.  0.
        5    1    3    3  502    0  0.14200782735E+03  0.94040116566E+03 -0.76075138072E+03  0.12179020193E+04  0.46999998093E+01 0. -1.
       -5    1    3    3    0  502 -0.14200782735E+03 -0.94040116566E+03  0.15146868070E+04  0.17885241929E+04  0.46999998093E+01 0.  1.
</event>
<event>
 5   0  0.2325590E-06  0.2899312E+04  0.7818609E-02  0.8273082E-01
       -2   -1    0    0    0  501  0.00000000000E+00  0.00000000000E+00  0.11339397277E+04  0.11339397277E+04  0.25500000920E-02 0.  1.
        2   -1    0    0  501    0  0.00000000000E+00  0.00000000000E+00 -0.18532757766E+04  0.18532757766E+04  0.25500000920E-02 0. -1.
    10030    2    1    2    0    0  0.00000000000E+00  0.00000000000E+00 -0.71933604896E+03  0.29872155043E+04  0.28993123526E+04 0.  0.
        5    1    3    3  502    0 -0.84077714246E+03  0.11715693745E+04 -0.20684729549E+03  0.14568077760E+04  0.46999998093E+01 0.  1.
       -5    1    3    3    0  502  0.84077714246E+03 -0.11715693745E+04 -0.51248875347E+03  0.15304077283E+04  0.46999998093E+01 0. -1.
</event>
<event>
 5   0  0.2425845E-06  0.2918760E+04  0.7818609E-02  0.8267318E-01
       -2   -1    0    0    0  501  0.00000000000E+00  0.00000000000E+00  0.68911311548E+03  0.68911311549E+03  0.25500000920E-02 0. -1.
        2   -1    0    0  501    0  0.00000000000E+00  0.00000000000E+00 -0.30906250806E+04  0.30906250807E+04  0.25500000920E-02 0.  1.
    10030    2    1    2    0    0  0.00000000000E+00  0.00000000000E+00 -0.24015119652E+04  0.37797381961E+04  0.29187602013E+04 0.  0.
        2    1    3    3  502    0 -0.99401072468E+03 -0.10632341596E+04 -0.13382075525E+04  0.19772009641E+04  0.25500000920E-02 0.  1.
       -2    1    3    3    0  502  0.99401072468E+03  0.10632341596E+04 -0.10633044127E+04  0.18025372320E+04  0.25500000920E-02 0. -1.
</event>
<event>
 5   0  0.8483636E-07  0.2900492E+04  0.7818609E-02  0.8272731E-01
       -1   -1    0    0    0  501  0.00000000000E+00  0.00000000000E+00  0.89551415638E+03  0.89551415640E+03  0.50400001928E-02 0.  1.
        1   -1    0    0  501    0  0.00000000000E+00  0.00000000000E+00 -0.23486106064E+04  0.23486106064E+04  0.50400001928E-02 0. -1.
    10030    2    1    2    0    0  0.00000000000E+00  0.00000000000E+00 -0.14530964500E+04  0.32441247628E+04  0.29004924036E+04 0.  0.
        2    1    3    3  502    0 -0.22582610336E+03 -0.16960432325E+03  0.86445903189E+03  0.90942425371E+03  0.25500000920E-02 0.  1.
       -2    1    3    3    0  502  0.22582610336E+03  0.16960432325E+03 -0.23175554819E+04  0.23347005091E+04  0.25500000920E-02 0. -1.
</event>
<event>
 5   0  0.8947674E-07  0.2897688E+04  0.7818609E-02  0.8273566E-01
        1   -1    0    0  501    0  0.00000000000E+00  0.00000000000E+00  0.26292009736E+04  0.26292009736E+04  0.50400001928E-02 0. -1.
       -1   -1    0    0    0  501  0.00000000000E+00  0.00000000000E+00 -0.79839790091E+03  0.79839790093E+03  0.50400001928E-02 0.  1.
    10030    2    1    2    0    0  0.00000000000E+00  0.00000000000E+00  0.18308030727E+04  0.34275988745E+04  0.28976877254E+04 0.  0.
        3    1    3    3  502    0  0.13986892335E+04 -0.35836157726E+03  0.77348657084E+03  0.16379975817E+04  0.10100000352E+00 0.  1.
       -3    1    3    3    0  502 -0.13986892335E+04  0.35836157726E+03  0.10573165018E+04  0.17896012928E+04  0.10100000352E+00 0. -1.
</event>
<event>
 5   0  0.2304435E-06  0.2921379E+04  0.7818609E-02  0.8266545E-01
       -2   -1    0    0    0  501  0.00000000000E+00  0.00000000000E+00  0.81926475088E+03  0.81926475089E+03  0.25500000920E-02 0. -1.
        2   -1    0    0  501    0  0.00000000000E+00  0.00000000000E+00 -0.26043029855E+04  0.26043029855E+04  0.25500000920E-02 0.  1.
    10030    2    1    2    0    0  0.00000000000E+00  0.00000000000E+00 -0.17850382346E+04  0.34235677364E+04  0.29213788776E+04 0.  0.
        1    1    3    3  502    0  0.62946301700E+03  0.90173016355E+02  0.64854615582E+03  0.90827692853E+03  0.50400001928E-02 0. -1.
       -1    1    3    3    0  502 -0.62946301700E+03 -0.90173016355E+02 -0.24335843904E+04  0.25152908078E+04  0.50400001928E-02 0.  1.
</event>
<event>
 5   0  0.8947674E-07  0.3045110E+04  0.7818609E-02  0.8230966E-01
       -1   -1    0    0    0  501  0.00000000000E+00  0.00000000000E+00  0.11051913592E+04  0.11051913592E+04  0.50400001928E-02 0. -1.
        1   -1    0    0  501    0  0.00000000000E+00  0.00000000000E+00 -0.20975311588E+04  0.20975311588E+04  0.50400001928E-02 0.  1.
    10030    2    1    2    0    0  0.00000000000E+00  0.00000000000E+00 -0.99233979962E+03  0.32027225180E+04  0.30451097270E+04 0.  0.
        3    1    3    3  502    0 -0.10837239368E+04  0.65059088438E+03 -0.13888944030E+04  0.18779653200E+04  0.10100000352E+00 0. -1.
       -3    1    3    3    0  502  0.10837239368E+04 -0.65059088438E+03  0.39655460339E+03  0.13247571980E+04  0.10100000352E+00 0.  1.
</event>
<event>
 5   0  0.2425845E-06  0.2900159E+04  0.7818609E-02  0.8272830E-01
       -2   -1    0    0    0  501  0.00000000000E+00  0.00000000000E+00  0.20708556992E+04  0.20708556992E+04  0.25500000920E-02 0.  1.
        2   -1    0    0  501    0  0.00000000000E+00  0.00000000000E+00 -0.10153924674E+04  0.10153924674E+04  0.25500000920E-02 0. -1.
    10030    2    1    2    0    0  0.00000000000E+00  0.00000000000E+00  0.10554632318E+04  0.30862481666E+04  0.29001594977E+04 0.  0.
        2    1    3    3  502    0  0.10458056195E+04 -0.60745329958E+03  0.13790784781E+04  0.18342754302E+04  0.25500000920E-02 0.  1.
       -2    1    3    3    0  502 -0.10458056195E+04  0.60745329958E+03 -0.32361524638E+03  0.12519727364E+04  0.25500000920E-02 0. -1.
</event>
<event>
 5   0  0.2378690E-06  0.2900164E+04  0.7818609E-02  0.8272829E-01
       -2   -1    0    0    0  501  0.00000000000E+00  0.00000000000E+00  0.87912144076E+03  0.87912144077E+03  0.25500000920E-02 0.  1.
        2   -1    0    0  501    0  0.00000000000E+00  0.00000000000E+00 -0.23918627082E+04  0.23918627082E+04  0.25500000920E-02 0. -1.
    10030    2    1    2    0    0  0.00000000000E+00  0.00000000000E+00 -0.15127412674E+04  0.32709841490E+04  0.29001639886E+04 0.  0.
        3    1    3    3  502    0  0.54439149452E+03 -0.13355240300E+04 -0.92649184869E+03  0.17141685127E+04  0.10100000352E+00 0.  1.
       -3    1    3    3    0  502 -0.54439149452E+03  0.13355240300E+04 -0.58624941875E+03  0.15568156363E+04  0.10100000352E+00 0. -1.
</event>
<event>
 5   0  0.2304435E-06  0.2920491E+04  0.7818609E-02  0.8266807E-01
       -2   -1    0    0    0  501  0.00000000000E+00  0.00000000000E+00  0.80329620070E+03  0.80329620070E+03  0.25500000920E-02 0.  1.
        2   -1    0    0  501    0  0.00000000000E+00  0.00000000000E+00 -0.26544587129E+04  0.26544587130E+04  0.25500000920E-02 0. -1.
    10030    2    1    2    0    0  0.00000000000E+00  0.00000000000E+00 -0.18511625123E+04  0.34577549137E+04  0.29204907800E+04 0.  0.
        1    1    3    3  502    0 -0.15405389379E+03 -0.68083804986E+03 -0.24441241613E+04  0.25418528612E+04  0.50400001928E-02 0. -1.
       -1    1    3    3    0  502  0.15405389379E+03  0.68083804986E+03  0.59296164905E+03  0.91590205240E+03  0.50400001928E-02 0.  1.
</event>
<event>
 5   0  0.2325590E-06  0.2890136E+04  0.7818609E-02  0.8275818E-01
        2   -1    0    0  501    0  0.00000000000E+00  0.00000000000E+00  0.13536803300E+04  0.13536803300E+04  0.25500000920E-02 0. -1.
       -2   -1    0    0    0  501  0.00000000000E+00  0.00000000000E+00 -0.15426255237E+04  0.15426255237E+04  0.25500000920E-02 0.  1.
    10030    2    1    2    0    0  0.00000000000E+00  0.00000000000E+00 -0.18894519368E+03  0.28963058537E+04  0.28901362099E+04 0.  0.
        5    1    3    3  502    0 -0.42230246193E+03  0.11889641292E+04 -0.80040852522E+03  0.14942057981E+04  0.46999998093E+01 0. -1.
       -5    1    3    3    0  502  0.42230246193E+03 -0.11889641292E+04  0.61146333154E+03  0.14021000555E+04  0.46999998093E+01 0.  1.
</event>
<event>
 5   0  0.8355946E-07  0.2908668E+04  0.7818609E-02  0.8270303E-01
       -1   -1    0    0    0  501  0.00000000000E+00  0.00000000000E+00  0.80410086236E+03  0.80410086238E+03  0.50400001928E-02 0.  1.
        1   -1    0    0  501    0  0.00000000000E+00  0.00000000000E+00 -0.26303749115E+04  0.26303749115E+04  0.50400001928E-02 0. -1.
    10030    2    1    2    0    0  0.00000000000E+00  0.00000000000E+00 -0.18262740491E+04  0.34344757739E+04  0.29086675538E+04 0.  0.
        4    1    3    3  502    0 -0.12023531997E+02 -0.58944936699E+03  0.65666488703E+03  0.88249957979E+03  0.12699999809E+01 0.  1.
       -4    1    3    3    0  502  0.12023531997E+02  0.58944936699E+03 -0.24829389362E+04  0.25519761941E+04  0.12699999809E+01 0. -1.
</event>
<event>
 5   0  0.8263673E-07  0.2900009E+04  0.7818609E-02  0.8272875E-01
        1   -1    0    0  501    0  0.00000000000E+00  0.00000000000E+00  0.12842016341E+04  0.12842016342E+04  0.50400001928E-02 0. -1.
       -1   -1    0    0    0  501  0.00000000000E+00  0.00000000000E+00 -0.16372141562E+04  0.16372141562E+04  0.50400001928E-02 0.  1.
    10030    2    1    2    0    0  0.00000000000E+00  0.00000000000E+00 -0.35301252201E+03  0.29214157903E+04  0.29000090309E+04 0.  0.
        5    1    3    3  502    0  0.14894399877E+03  0.31181515436E+03 -0.15951192115E+04  0.16321275668E+04  0.46999998093E+01 0.  1.
       -5    1    3    3    0  502 -0.14894399877E+03 -0.31181515436E+03  0.12421066895E+04  0.12892882236E+04  0.46999998093E+01 0. -1.
</event>
<event>
 5   0  0.2360103E-06  0.2930117E+04  0.7818609E-02  0.8263973E-01
       -2   -1    0    0    0  501  0.00000000000E+00  0.00000000000E+00  0.17317411753E+04  0.17317411753E+04  0.25500000920E-02 0. -1.
        2   -1    0    0  501    0  0.00000000000E+00  0.00000000000E+00 -0.12394443921E+04  0.12394443921E+04  0.25500000920E-02 0.  1.
    10030    2    1    2    0    0  0.00000000000E+00  0.00000000000E+00  0.49229678324E+03  0.29711855674E+04  0.29301173275E+04 0.  0.
        4    1    3    3  502    0 -0.42197388951E+01  0.22131609858E+03 -0.12223891440E+04  0.12422702821E+04  0.12699999809E+01 0.  1.
       -4    1    3    3    0  502  0.42197388951E+01 -0.22131609858E+03  0.17146859272E+04  0.17289152852E+04  0.12699999809E+01 0. -1.
</event>
<event>
 5   0  0.8355946E-07  0.2893955E+04  0.7818609E-02  0.8274678E-01
       -1   -1    0    0    0  501  0.00000000000E+00  0.00000000000E+00  0.77080543674E+03  0.77080543676E+03  0.50400001928E-02 0.  1.
        1   -1    0    0  501    0  0.00000000000E+00  0.00000000000E+00 -0.27163057450E+04  0.27163057450E+04  0.50400001928E-02 0. -1.
    10030    2    1    2    0    0  0.00000000000E+00  0.00000000000E+00 -0.19455003083E+04  0.34871111818E+04  0.28939545512E+04 0.  0.
        4    1    3    3  502    0  0.79593637324E+03 -0.28476494260E+03 -0.23878191334E+04  0.25330392041E+04  0.12699999809E+01 0. -1.
       -4    1    3    3    0  502 -0.79593637324E+03  0.28476494260E+03  0.44231882507E+03  0.95407197773E+03  0.12699999809E+01 0.  1.
</event>
<event>
 5   0  0.8947674E-07  0.2895597E+04  0.7818609E-02  0.8274189E-01
        1   -1    0    0  501    0  0.00000000000E+00  0.00000000000E+00  0.12728785199E+04  0.12728785199E+04  0.50400001928E-02 0. -1.
       -1   -1    0    0    0  501  0.00000000000E+00  0.00000000000E+00 -0.16467566043E+04  0.16467566043E+04  0.50400001928E-02 0.  1.
    10030    2    1    2    0    0  0.00000000000E+00  0.00000000000E+00 -0.37387808437E+03  0.29196351242E+04  0.28955974231E+04 0.  0.
        3    1    3    3  502    0  0.46662165773E+03 -0.48368928877E+03  0.11060596743E+04  0.12942407476E+04  0.10100000352E+00 0. -1.
       -3    1    3    3    0  502 -0.46662165773E+03  0.48368928877E+03 -0.14799377587E+04  0.16253943765E+04  0.10100000352E+00 0.  1.
</event>
<event>
 5   0  0.2304435E-06  0.2904855E+04  0.7818609E-02  0.8271434E-01
       -2   -1    0    0    0  501  0.00000000000E+00  0.00000000000E+00  0.10427949053E+04  0.10427949054E+04  0.25500000920E-02 0.  1.
        2   -1    0    0  501    0  0.00000000000E+00  0.00000000000E+00 -0.20229725753E+04  0.20229725753E+04  0.25500000920E-02 0. -1.
    10030    2    1    2    0    0  0.00000000000E+00  0.00000000000E+00 -0.98017766997E+03  0.30657674807E+04  0.29048548984E+04 0.  0.
        1    1    3    3  502    0  0.95486706309E+03  0.56992733123E+03 -0.14761667935E+04  0.18481495267E+04  0.50400001928E-02 0. -1.
       -1    1    3    3    0  502 -0.95486706309E+03 -0.56992733123E+03  0.49598912350E+03  0.12176179539E+04  0.50400001928E-02 0.  1.
</event>
<event>
 5   0  0.8263673E-07  0.2899030E+04  0.7818609E-02  0.8273166E-01
        1   -1    0    0  501    0  0.00000000000E+00  0.00000000000E+00  0.17323502407E+04  0.17323502407E+04  0.50400001928E-02 0. -1.
       -1   -1    0    0    0  501  0.00000000000E+00  0.00000000000E+00 -0.12128572778E+04  0.12128572778E+04  0.50400001928E-02 0.  1.
    10030    2    1    2    0    0  0.00000000000E+00  0.00000000000E+00  0.51949296294E+03  0.29452075185E+04  0.28990299048E+04 0.  0.
        5    1    3    3  502    0  0.13426968954E+04  0.53130549450E+03  0.13143736489E+03  0.14499718453E+04  0.46999998093E+01 0.  1.
       -5    1    3    3    0  502 -0.13426968954E+04 -0.53130549450E+03  0.38805559806E+03  0.14952356732E+04  0.46999998093E+01 0. -1.
</event>
<event>
 5   0  0.2360103E-06  0.2904502E+04  0.7818609E-02  0.8271539E-01
        2   -1    0    0  501    0  0.00000000000E+00  0.00000000000E+00  0.19068347237E+04  0.19068347237E+04  0.25500000920E-02 0.  1.
       -2   -1    0    0    0  501  0.00000000000E+00  0.00000000000E+00 -0.11060388926E+04  0.11060388927E+04  0.25500000920E-02 0. -1.
    10030    2    1    2    0    0  0.00000000000E+00  0.00000000000E+00  0.80079583104E+03  0.30128736163E+04  0.29045022749E+04 0.  0.
        4    1    3    3  502    0  0.33388497569E+02  0.29551824838E+03 -0.10741125360E+04  0.11145246430E+04  0.12699999809E+01 0. -1.
       -4    1    3    3    0  502 -0.33388497569E+02 -0.29551824838E+03  0.18749083671E+04  0.18983489734E+04  0.12699999809E+01 0.  1.
</event>
<event>
 5   0  0.2304435E-06  0.2843847E+04  0.7818609E-02  0.8289784E-01
        2   -1    0    0  501    0  0.00000000000E+00  0.00000000000E+00  0.10806437858E+04  0.10806437858E+04  0.25500000920E-02 0.  1.
       -2   -1    0    0    0  501  0.00000000000E+00  0.00000000000E+00 -0.18709830373E+04  0.18709830373E+04  0.25500000920E-02 0. -1.
    10030    2    1    2    0    0  0.00000000000E+00  0.00000000000E+00 -0.79033925148E+03  0.29516268232E+04  0.28438468262E+04 0.  0.
        1    1    3    3  502    0  0.89614827229E+03 -0.96807458340E+03 -0.94595698241E+03  0.16232944088E+04  0.50400001928E-02 0. -1.
       -1    1    3    3    0  502 -0.89614827229E+03  0.96807458340E+03  0.15561773092E+03  0.13283324144E+04  0.50400001928E-02 0.  1.
</event>
<event>
 5   0  0.2378690E-06  0.2912226E+04  0.7818609E-02  0.8269249E-01
        2   -1    0    0  501    0  0.00000000000E+00  0.00000000000E+00  0.27928606577E+04  0.27928606577E+04  0.25500000920E-02 0. -1.
       -2   -1    0    0    0  501  0.00000000000E+00  0.00000000000E+00 -0.75917328702E+03  0.75917328703E+03  0.25500000920E-02 0.  1.
    10030    2    1    2    0    0  0.00000000000E+00  0.00000000000E+00  0.20336873706E+04  0.35520339447E+04  0.29122260940E+04 0.  0.
        3    1    3    3  502    0 -0.75811186465E+03  0.10350380393E+04  0.17690893862E+03  0.12951193477E+04  0.10100000352E+00 0.  1.
       -3    1    3    3    0  502  0.75811186465E+03 -0.10350380393E+04  0.18567784320E+04  0.22569145969E+04  0.10100000352E+00 0. -1.
</event>
<event>
 5   0  0.2425845E-06  0.2900989E+04  0.7818609E-02  0.8272583E-01
        2   -1    0    0  501    0  0.00000000000E+00  0.00000000000E+00  0.12344282532E+04  0.12344282532E+04  0.25500000920E-02 0.  1.
       -2   -1    0    0    0  501  0.00000000000E+00  0.00000000000E+00 -0.17043791393E+04  0.17043791393E+04  0.25500000920E-02 0. -1.
    10030    2    1    2    0    0  0.00000000000E+00  0.00000000000E+00 -0.46995088601E+03  0.29388073925E+04  0.29009886341E+04 0.  0.
        2    1    3    3  502    0 -0.78774007749E+03  0.87257679763E+03 -0.10957638749E+04  0.16070541892E+04  0.25500000920E-02 0. -1.
       -2    1    3    3    0  502  0.78774007749E+03 -0.87257679763E+03  0.62581298891E+03  0.13317532033E+04  0.25500000920E-02 0.  1.
</event>
<event>
 5   0  0.2304435E-06  0.2897508E+04  0.7818609E-02  0.8273619E-01
       -2   -1    0    0    0  501  0.00000000000E+00  0.00000000000E+00  0.72965128782E+03  0.72965128782E+03  0.25500000920E-02 0. -1.
        2   -1    0    0  501    0  0.00000000000E+00  0.00000000000E+00 -0.28765639709E+04  0.28765639709E+04  0.25500000920E-02 0.  1.
    10030    2    1    2    0    0  0.00000000000E+00  0.00000000000E+00 -0.21469126831E+04  0.36062152587E+04  0.28975083129E+04 0.  0.
        1    1    3    3  502    0 -0.34465135240E+03 -0.62533864239E+03 -0.26423608361E+04  0.27371342241E+04  0.50400001928E-02 0.  1.
       -1    1    3    3    0  502  0.34465135240E+03  0.62533864239E+03  0.49544815304E+03  0.86908103463E+03  0.50400001928E-02 0. -1.
</event>
<event>
 5   0  0.2325590E-06  0.2901968E+04  0.7818609E-02  0.8272292E-01
       -2   -1    0    0    0  501  0.00000000000E+00  0.00000000000E+00  0.15323422413E+04  0.15323422413E+04  0.25500000920E-02 0. -1.
        2   -1    0    0  501    0  0.00000000000E+00  0.00000000000E+00 -0.13739450386E+04  0.13739450386E+04  0.25500000920E-02 0.  1.
    10030    2    1    2    0    0  0.00000000000E+00  0.00000000000E+00  0.15839720265E+03  0.29062872799E+04  0.29019676220E+04 0.  0.
        5    1    3    3  502    0  0.14398557410E+04  0.67876357346E+02  0.24539795397E+03  0.14622017646E+04  0.46999998093E+01 0. -1.
       -5    1    3    3    0  502 -0.14398557410E+04 -0.67876357346E+02 -0.87000751313E+02  0.14440855153E+04  0.46999998093E+01 0.  1.
</event>
<event>
 5   0  0.2425845E-06  0.2897231E+04  0.7818609E-02  0.8273702E-01
        2   -1    0    0  501    0  0.00000000000E+00  0.00000000000E+00  0.72414311235E+03  0.72414311235E+03  0.25500000920E-02 0.  1.
       -2   -1    0    0    0  501  0.00000000000E+00  0.00000000000E+00 -0.28978902240E+04  0.28978902240E+04  0.25500000920E-02 0. -1.
    10030    2    1    2    0    0  0.00000000000E+00  0.00000000000E+00 -0.21737471117E+04  0.36220333364E+04  0.28972312618E+04 0.  0.
        2    1    3    3  502    0 -0.93084314258E+03  0.47587803912E+03 -0.23405138009E+04  0.25633832559E+04  0.25500000920E-02 0. -1.
       -2    1    3    3    0  502  0.93084314258E+03 -0.47587803912E+03  0.16676668928E+03  0.10586500805E+04  0.25500000920E-02 0.  1.
</event>
<event>
 5   0  0.8947674E-07  0.2888990E+04  0.7818609E-02  0.8276161E-01
       -1   -1    0    0    0  501  0.00000000000E+00  0.00000000000E+00  0.96782730001E+03  0.96782730002E+03  0.50400001928E-02 0.  1.
        1   -1    0    0  501    0  0.00000000000E+00  0.00000000000E+00 -0.21559280466E+04  0.21559280466E+04  0.50400001928E-02 0. -1.
    10030    2    1    2    0    0  0.00000000000E+00  0.00000000000E+00 -0.11881007466E+04  0.31237553466E+04  0.28889901491E+04 0.  0.
        3    1    3    3  502    0  0.84211388259E+02  0.13325680876E+04  0.18581787368E+01  0.13352275945E+04  0.10100000352E+00 0.  1.
       -3    1    3    3    0  502 -0.84211388259E+02 -0.13325680876E+04 -0.11899589253E+04  0.17885277522E+04  0.10100000352E+00 0. -1.
</event>
<event>
 5   0  0.8357118E-07  0.2901996E+04  0.7818609E-02  0.8272284E-01
       -1   -1    0    0    0  501  0.00000000000E+00  0.00000000000E+00  0.13893030864E+04  0.13893030864E+04  0.50400001928E-02 0.  1.
        1   -1    0    0  501    0  0.00000000000E+00  0.00000000000E+00 -0.15154327448E+04  0.15154327448E+04  0.50400001928E-02 0. -1.
    10030    2    1    2    0    0  0.00000000000E+00  0.00000000000E+00 -0.12612965841E+03  0.29047358312E+04  0.29019961334E+04 0.  0.
        1    1    3    3  502    0  0.40586238515E+03 -0.95678078659E+03  0.95043325220E+03  0.14083597254E+04  0.50400001928E-02 0.  1.
       -1    1    3    3    0  502 -0.40586238515E+03  0.95678078659E+03 -0.10765629106E+04  0.14963761057E+04  0.50400001928E-02 0. -1.
</event>
<event>
 5   0  0.2360103E-06  0.2890185E+04  0.7818609E-02  0.8275804E-01
       -2   -1    0    0    0  501  0.00000000000E+00  0.00000000000E+00  0.11598211021E+04  0.11598211021E+04  0.25500000920E-02 0. -1.
        2   -1    0    0  501    0  0.00000000000E+00  0.00000000000E+00 -0.18005291614E+04  0.18005291614E+04  0.25500000920E-02 0.  1.
    10030    2    1    2    0    0  0.00000000000E+00  0.00000000000E+00 -0.64070805930E+03  0.29603502634E+04  0.28901845728E+04 0.  0.
        4    1    3    3  502    0  0.95936523610E+03  0.39017789238E+03 -0.13526251090E+04  0.17035893703E+04  0.12699999809E+01 0.  1.
       -4    1    3    3    0  502 -0.95936523610E+03 -0.39017789238E+03  0.71191704974E+03  0.12567608932E+04  0.12699999809E+01 0. -1.
</event>
<event>
 5   0  0.2325590E-06  0.2905508E+04  0.7818609E-02  0.8271241E-01
       -2   -1    0    0    0  501  0.00000000000E+00  0.00000000000E+00  0.24112758977E+04  0.24112758977E+04  0.25500000920E-02 0.  1.
        2   -1    0    0  501    0  0.00000000000E+00  0.00000000000E+00 -0.87526026896E+03  0.87526026896E+03  0.25500000920E-02 0. -1.
    10030    2    1    2    0    0  0.00000000000E+00  0.00000000000E+00  0.15360156287E+04  0.32865361667E+04  0.29055078666E+04 0.  0.
        5    1    3    3  502    0  0.20161074516E+03  0.55402297578E+01 -0.85933838881E+03  0.88270161617E+03  0.46999998093E+01 0. -1.
       -5    1    3    3    0  502 -0.20161074516E+03 -0.55402297578E+01  0.23953540176E+04  0.24038345505E+04  0.46999998093E+01 0.  1.
</event>
<event>
 5   0  0.2325590E-06  0.2910893E+04  0.7818609E-02  0.8269644E-01
        2   -1    0    0  501    0  0.00000000000E+00  0.00000000000E+00  0.64683256930E+03  0.64683256930E+03  0.25500000920E-02 0.  1.
       -2   -1    0    0    0  501  0.00000000000E+00  0.00000000000E+00 -0.32749191315E+04  0.32749191315E+04  0.25500000920E-02 0. -1.
    10030    2    1    2    0    0  0.00000000000E+00  0.00000000000E+00 -0.26280865622E+04  0.39217517008E+04  0.29108928912E+04 0.  0.
        5    1    3    3  502    0  0.12694059055E+04 -0.71007592329E+03 -0.13840894879E+04  0.20078159702E+04  0.46999998093E+01 0. -1.
       -5    1    3    3    0  502 -0.12694059055E+04  0.71007592329E+03 -0.12439970743E+04  0.19139357305E+04  0.46999998093E+01 0.  1.
</event>
<event>
 5   0  0.8355946E-07  0.2909053E+04  0.7818609E-02  0.8270189E-01
       -1   -1    0    0    0  501  0.00000000000E+00  0.00000000000E+00  0.11928379217E+04  0.11928379218E+04  0.50400001928E-02 0. -1.
        1   -1    0    0  501    0  0.00000000000E+00  0.00000000000E+00 -0.17736257558E+04  0.17736257558E+04  0.50400001928E-02 0.  1.
    10030    2    1    2    0    0  0.00000000000E+00  0.00000000000E+00 -0.58078783409E+03  0.29664636776E+04  0.29090534960E+04 0.  0.
        4    1    3    3  502    0 -0.98020176474E+03  0.10740260216E+04 -0.25335839789E+03  0.14759808554E+04  0.12699999809E+01 0. -1.
       -4    1    3    3    0  502  0.98020176474E+03 -0.10740260216E+04 -0.32742943621E+03  0.14904828222E+04  0.12699999809E+01 0.  1.
</event>
<event>
 5   0  0.8263673E-07  0.2901114E+04  0.7818609E-02  0.8272546E-01
        1   -1    0    0  501    0  0.00000000000E+00  0.00000000000E+00  0.25256943935E+04  0.25256943935E+04  0.50400001928E-02 0. -1.
       -1   -1    0    0    0  501  0.00000000000E+00  0.00000000000E+00 -0.83308408124E+03  0.83308408125E+03  0.50400001928E-02 0.  1.
    10030    2    1    2    0    0  0.00000000000E+00  0.00000000000E+00  0.16926103123E+04  0.33587784748E+04  0.29011141262E+04 0.  0.
        5    1    3    3  502    0  0.14362561769E+04 -0.62549842740E+02  0.10700527889E+04  0.17921437859E+04  0.46999998093E+01 0.  1.
       -5    1    3    3    0  502 -0.14362561769E+04  0.62549842740E+02  0.62255752338E+03  0.15666346889E+04  0.46999998093E+01 0. -1.
</event>
<event>
 5   0  0.2304435E-06  0.2893979E+04  0.7818609E-02  0.8274671E-01
       -2   -1    0    0    0  501  0.00000000000E+00  0.00000000000E+00  0.14786574616E+04  0.14786574616E+04  0.25500000920E-02 0. -1.
        2   -1    0    0  501    0  0.00000000000E+00  0.00000000000E+00 -0.14159998578E+04  0.14159998578E+04  0.25500000920E-02 0.  1.
    10030    2    1    2    0    0  0.00000000000E+00  0.00000000000E+00  0.62657603815E+02  0.28946573195E+04  0.28939790984E+04 0.  0.
        1    1    3    3  502    0  0.94055878677E+03  0.80111873669E+03  0.78472288362E+03  0.14636365894E+04  0.50400001928E-02 0. -1.
       -1    1    3    3    0  502 -0.94055878677E+03 -0.80111873669E+03 -0.72206527980E+03  0.14310207301E+04  0.50400001928E-02 0.  1.
</event>
<event>
 5   0  0.2360103E-06  0.2909611E+04  0.7818609E-02  0.8270024E-01
       -2   -1    0    0    0  501  0.00000000000E+00  0.00000000000E+00  0.14211155822E+04  0.14211155822E+04  0.25500000920E-02 0.  1.
        2   -1    0    0  501    0  0.00000000000E+00  0.00000000000E+00 -0.14892936021E+04  0.14892936021E+04  0.25500000920E-02 0. -1.
    10030    2    1    2    0    0  0.00000000000E+00  0.00000000000E+00 -0.68178019825E+02  0.29104091843E+04  0.29096105199E+04 0.  0.
        4    1    3    3  502    0  0.63410209880E+03 -0.74511773976E+03 -0.11110324935E+04  0.14804326166E+04  0.12699999809E+01 0. -1.
       -4    1    3    3    0  502 -0.63410209880E+03  0.74511773976E+03  0.10428544737E+04  0.14299765677E+04  0.12699999809E+01 0.  1.
</event>
<event>
 5   0  0.2360103E-06  0.2797304E+04  0.7818609E-02  0.8304106E-01
       -2   -1    0    0    0  501  0.00000000000E+00  0.00000000000E+00  0.95089645805E+03  0.95089645805E+03  0.25500000920E-02 0. -1.
        2   -1    0    0  501    0  0.00000000000E+00  0.00000000000E+00 -0.20572455592E+04  0.20572455592E+04  0.25500000920E-02 0.  1.
    10030    2    1    2    0    0  0.00000000000E+00  0.00000000000E+00 -0.11063491012E+04  0.30081420173E+04  0.27973040704E+04 0.  0.
        4    1    3    3  502    0  0.70371584783E+03  0.89882134465E+03 -0.14222520531E+04  0.18237045592E+04  0.12699999809E+01 0.  1.
       -4    1    3    3    0  502 -0.70371584783E+03 -0.89882134465E+03  0.31590295189E+03  0.11844374580E+04  0.12699999809E+01 0. -1.
</event>
<event>
 5   0  0.2425845E-06  0.2896691E+04  0.7818609E-02  0.8273863E-01
       -2   -1    0    0    0  501  0.00000000000E+00  0.00000000000E+00  0.25279082343E+04  0.25279082343E+04  0.25500000920E-02 0. -1.
        2   -1    0    0  501    0  0.00000000000E+00  0.00000000000E+00 -0.82981844746E+03  0.82981844747E+03  0.25500000920E-02 0.  1.
    10030    2    1    2    0    0  0.00000000000E+00  0.00000000000E+00  0.16980897868E+04  0.33577266818E+04  0.28966911374E+04 0.  0.
        2    1    3    3  502    0  0.38248826543E+03  0.40762419115E+03 -0.69974564941E+03  0.89559964732E+03  0.25500000920E-02 0.  1.
       -2    1    3    3    0  502 -0.38248826543E+03 -0.40762419115E+03  0.23978354362E+04  0.24621270344E+04  0.25500000920E-02 0. -1.
</event>
<event>
 5   0  0.8483636E-07  0.2908497E+04  0.7818609E-02  0.8270354E-01
       -1   -1    0    0    0  501  0.00000000000E+00  0.00000000000E+00  0.10813803456E+04  0.10813803456E+04  0.50400001928E-02 0.  1.
        1   -1    0    0  501    0  0.00000000000E+00  0.00000000000E+00 -0.19556841173E+04  0.19556841173E+04  0.50400001928E-02 0. -1.
    10030    2    1    2    0    0  0.00000000000E+00  0.00000000000E+00 -0.87430377170E+03  0.30370644629E+04  0.29084967710E+04 0.  0.
        2    1    3    3  502    0 -0.27189832399E+03  0.18552555702E+03 -0.19162736144E+04  0.19443387041E+04  0.25500000920E-02 0. -1.
       -2    1    3    3    0  502  0.27189832399E+03 -0.18552555702E+03  0.10419698427E+04  0.10927257588E+04  0.25500000920E-02 0.  1.
</event>
<event>
 5   0  0.8947674E-07  0.2897549E+04  0.7818609E-02  0.8273607E-01
        1   -1    0    0  501    0  0.00000000000E+00  0.00000000000E+00  0.19951938394E+04  0.19951938394E+04  0.50400001928E-02 0. -1.
       -1   -1    0    0    0  501  0.00000000000E+00  0.00000000000E+00 -0.10520020974E+04  0.10520020974E+04  0.50400001928E-02 0.  1.
    10030    2    1    2    0    0  0.00000000000E+00  0.00000000000E+00  0.94319174197E+03  0.30471959368E+04  0.28975493809E+04 0.  0.
        3    1    3    3  502    0 -0.13556662406E+04 -0.41624982644E+03  0.78330417716E+03  0.16200803431E+04  0.10100000352E+00 0. -1.
       -3    1    3    3    0  502  0.13556662406E+04  0.41624982644E+03  0.15988756481E+03  0.14271155936E+04  0.10100000352E+00 0.  1.
</event>
<event>
 5   0  0.2325590E-06  0.2904779E+04  0.7818609E-02  0.8271457E-01
        2   -1    0    0  501    0  0.00000000000E+00  0.00000000000E+00  0.20369224302E+04  0.20369224302E+04  0.25500000920E-02 0. -1.
       -2   -1    0    0    0  501  0.00000000000E+00  0.00000000000E+00 -0.10355994129E+04  0.10355994129E+04  0.25500000920E-02 0.  1.
    10030    2    1    2    0    0  0.00000000000E+00  0.00000000000E+00  0.10013230173E+04  0.30725218431E+04  0.29047792844E+04 0.  0.
        5    1    3    3  502    0 -0.13672387689E+04 -0.43637162984E+03  0.73635531397E+03  0.16130726236E+04  0.46999998093E+01 0.  1.
       -5    1    3    3    0  502  0.13672387689E+04  0.43637162984E+03  0.26496770329E+03  0.14594492195E+04  0.46999998093E+01 0. -1.
</event>
<event>
 5   0  0.2304435E-06  0.2916003E+04  0.7818609E-02  0.8268132E-01
        2   -1    0    0  501    0  0.00000000000E+00  0.00000000000E+00  0.11590645629E+04  0.11590645629E+04  0.25500000920E-02 0. -1.
       -2   -1    0    0    0  501  0.00000000000E+00  0.00000000000E+00 -0.18340380364E+04  0.18340380364E+04  0.25500000920E-02 0.  1.
    10030    2    1    2    0    0  0.00000000000E+00  0.00000000000E+00 -0.67497347347E+03  0.29931025992E+04  0.29160030829E+04 0.  0.
        1    1    3    3  502    0  0.94360113192E+03 -0.18323675603E+03 -0.14627430959E+04  0.17503074500E+04  0.50400001928E-02 0.  1.
       -1    1    3    3    0  502 -0.94360113192E+03  0.18323675603E+03  0.78776962243E+03  0.12427951492E+04  0.50400001928E-02 0. -1.
</event>
<event>
 5   0  0.8355946E-07  0.2915094E+04  0.7818609E-02  0.8268401E-01
       -1   -1    0    0    0  501  0.00000000000E+00  0.00000000000E+00  0.11603368622E+04  0.11603368622E+04  0.50400001928E-02 0. -1.
        1   -1    0    0  501    0  0.00000000000E+00  0.00000000000E+00 -0.18308846749E+04  0.18308846749E+04  0.50400001928E-02 0.  1.
    10030    2    1    2    0    0  0.00000000000E+00  0.00000000000E+00 -0.67054781269E+03  0.29912215371E+04  0.29150938090E+04 0.  0.
        4    1    3    3  502    0  0.13058920375E+03  0.12958100769E+04 -0.10067829472E+04  0.16461442255E+04  0.12699999809E+01 0.  1.
       -4    1    3    3    0  502 -0.13058920375E+03 -0.12958100769E+04  0.33623513446E+03  0.13450773116E+04  0.12699999809E+01 0. -1.
</event>
<event>
 5   0  0.8947674E-07  0.2926607E+04  0.7818609E-02  0.8265005E-01
        1   -1    0    0  501    0  0.00000000000E+00  0.00000000000E+00  0.60468350443E+03  0.60468350445E+03  0.50400001928E-02 0.  1.
       -1   -1    0    0    0  501  0.00000000000E+00  0.00000000000E+00 -0.35411203394E+04  0.35411203394E+04  0.50400001928E-02 0. -1.
    10030    2    1    2    0    0  0.00000000000E+00  0.00000000000E+00 -0.29364368350E+04  0.41458038439E+04  0.29266069476E+04 0.  0.
        3    1    3    3  502    0 -0.95120220590E+02 -0.13747386687E+04 -0.77091217770E+03  0.15790059720E+04  0.10100000352E+00 0. -1.
       -3    1    3    3    0  502  0.95120220590E+02  0.13747386687E+04 -0.21655246573E+04  0.25667978719E+04  0.10100000352E+00 0.  1.
</event>
<event>
 5   0  0.2325590E-06  0.2895992E+04  0.7818609E-02  0.8274071E-01
       -2   -1    0    0    0  501  0.00000000000E+00  0.00000000000E+00  0.12824362326E+04  0.12824362326E+04  0.25500000920E-02 0.  1.
        2   -1    0    0  501    0  0.00000000000E+00  0.00000000000E+00 -0.16349288111E+04  0.16349288111E+04  0.25500000920E-02 0. -1.
    10030    2    1    2    0    0  0.00000000000E+00  0.00000000000E+00 -0.35249257851E+03  0.29173650437E+04  0.28959916748E+04 0.  0.
        5    1    3    3  502    0 -0.10886280634E+04  0.61775341631E+03  0.55709580804E+03  0.13700759735E+04  0.46999998093E+01 0.  1.
       -5    1    3    3    0  502  0.10886280634E+04 -0.61775341631E+03 -0.90958838655E+03  0.15472890702E+04  0.46999998093E+01 0. -1.
</event>
<event>
 5   0  0.8483636E-07  0.2904195E+04  0.7818609E-02  0.8271630E-01
       -1   -1    0    0    0  501  0.00000000000E+00  0.00000000000E+00  0.14722756691E+04  0.14722756691E+04  0.50400001928E-02 0. -1.
        1   -1    0    0  501    0  0.00000000000E+00  0.00000000000E+00 -0.14321957314E+04  0.14321957314E+04  0.50400001928E-02 0.  1.
    10030    2    1    2    0    0  0.00000000000E+00  0.00000000000E+00  0.40079937696E+02  0.29044714006E+04  0.29041948481E+04 0.  0.
        2    1    3    3  502    0  0.11196601283E+04  0.83153334865E+03 -0.38435038247E+03  0.14466553596E+04  0.25500000920E-02 0.  1.
       -2    1    3    3    0  502 -0.11196601283E+04 -0.83153334865E+03  0.42443032016E+03  0.14578160410E+04  0.25500000920E-02 0. -1.
</event>
<event>
 5   0  0.2425845E-06  0.2774236E+04  0.7818609E-02  0.8311312E-01
       -2   -1    0    0    0  501  0.00000000000E+00  0.00000000000E+00  0.18283012363E+04  0.18283012363E+04  0.25500000920E-02 0. -1.
        2   -1    0    0  501    0  0.00000000000E+00  0.00000000000E+00 -0.10523953630E+04  0.10523953630E+04  0.25500000920E-02 0.  1.
    10030    2    1    2    0    0  0.00000000000E+00  0.00000000000E+00  0.77590587325E+03  0.28806965993E+04  0.27742355655E+04 0.  0.
        2    1    3    3  502    0  0.50568749985E+03  0.11909560163E+03  0.17234629864E+04  0.18000634087E+04  0.25500000920E-02 0. -1.
       -2    1    3    3    0  502 -0.50568749985E+03 -0.11909560163E+03 -0.94755711318E+03  0.10806331906E+04  0.25500000920E-02 0.  1.
</event>
<event>
 5   0  0.2360103E-06  0.2898902E+04  0.7818609E-02  0.8273204E-01
        2   -1    0    0  501    0  0.00000000000E+00  0.00000000000E+00  0.96282661098E+03  0.96282661099E+03  0.25500000920E-02 0.  1.
       -2   -1    0    0    0  501  0.00000000000E+00  0.00000000000E+00 -0.21820211617E+04  0.21820211617E+04  0.25500000920E-02 0. -1.
    10030    2    1    2    0    0  0.00000000000E+00  0.00000000000E+00 -0.12191945507E+04  0.31448477727E+04  0.28989018888E+04 0.  0.
        4    1    3    3  502    0 -0.46242097434E+03  0.35241920341E+03  0.83078160240E+03  0.10140178185E+04  0.12699999809E+01 0.  1.
       -4    1    3    3    0  502  0.46242097434E+03 -0.35241920341E+03 -0.20499761531E+04  0.21308299542E+04  0.12699999809E+01 0. -1.
</event>
<event>
 5   0  0.8357118E-07  0.2899957E+04  0.7818609E-02  0.8272890E-01
        1   -1    0    0  501    0  0.00000000000E+00  0.00000000000E+00  0.24064006102E+04  0.24064006102E+04  0.50400001928E-02 0. -1.
       -1   -1    0    0    0  501  0.00000000000E+00  0.00000000000E+00 -0.87368580055E+03  0.87368580057E+03  0.50400001928E-02 0.  1.
    10030    2    1    2    0    0  0.00000000000E+00  0.00000000000E+00  0.15327148097E+04  0.32800864108E+04  0.28999572712E+04 0.  0.
        1    1    3    3  502    0 -0.47603443733E+03 -0.73999535644E+03  0.20699183212E+04  0.22491695733E+04  0.50400001928E-02 0. -1.
       -1    1    3    3    0  502  0.47603443733E+03  0.73999535644E+03 -0.53720351150E+03  0.10309168375E+04  0.50400001928E-02 0.  1.
</event>
<event>
 5   0  0.8357118E-07  0.2899450E+04  0.7818609E-02  0.8273041E-01
       -1   -1    0    0    0  501  0.00000000000E+00  0.00000000000E+00  0.89822996493E+03  0.89822996494E+03  0.50400001928E-02 0.  1.
        1   -1    0    0  501    0  0.00000000000E+00  0.00000000000E+00 -0.23398271783E+04  0.23398271783E+04  0.50400001928E-02 0. -1.
    10030    2    1    2    0    0  0.00000000000E+00  0.00000000000E+00 -0.14415972134E+04  0.32380571433E+04  0.28994502130E+04 0.  0.
        1    1    3    3  502    0  0.42753670333E+03  0.84089639903E+03 -0.19501777747E+04  0.21663535583E+04  0.50400001928E-02 0. -1.
       -1    1    3    3    0  502 -0.42753670333E+03 -0.84089639903E+03  0.50858056134E+03  0.10717035849E+04  0.50400001928E-02 0.  1.
</event>
<event>
 5   0  0.8263673E-07  0.2893062E+04  0.7818609E-02  0.8274945E-01
        1   -1    0    0  501    0  0.00000000000E+00  0.00000000000E+00  0.18560909137E+04  0.18560909137E+04  0.50400001928E-02 0.  1.
       -1   -1    0    0    0  501  0.00000000000E+00  0.00000000000E+00 -0.11273437864E+04  0.11273437865E+04  0.50400001928E-02 0. -1.
    10030    2    1    2    0    0  0.00000000000E+00  0.00000000000E+00  0.72874712725E+03  0.29834347001E+04  0.28930624319E+04 0.  0.
        5    1    3    3  502    0 -0.70737153789E+02 -0.85733670536E+03 -0.83488103320E+03  0.11987820490E+04  0.46999998093E+01 0. -1.
       -5    1    3    3    0  502  0.70737153789E+02  0.85733670536E+03  0.15636281604E+04  0.17846526512E+04  0.46999998093E+01 0.  1.
</event>
<event>
 5   0  0.2304435E-06  0.2903874E+04  0.7818609E-02  0.8271726E-01
        2   -1    0    0  501    0  0.00000000000E+00  0.00000000000E+00  0.17298011540E+04  0.17298011540E+04  0.25500000920E-02 0. -1.
       -2   -1    0    0    0  501  0.00000000000E+00  0.00000000000E+00 -0.12187075152E+04  0.12187075152E+04  0.25500000920E-02 0.  1.
    10030    2    1    2    0    0  0.00000000000E+00  0.00000000000E+00  0.51109363879E+03  0.29485086693E+04  0.29038744231E+04 0.  0.
        1    1    3    3  502    0 -0.52601923051E+03 -0.68794676462E+02  0.16278729328E+04  0.17121329457E+04  0.50400001928E-02 0. -1.
       -1    1    3    3    0  502  0.52601923051E+03  0.68794676462E+02 -0.11167792940E+04  0.12363757236E+04  0.50400001928E-02 0.  1.
</event>
<event>
 5   0  0.2360103E-06  0.2903889E+04  0.7818609E-02  0.8271721E-01
        2   -1    0    0  501    0  0.00000000000E+00  0.00000000000E+00  0.17598133744E+04  0.17598133744E+04  0.25500000920E-02 0. -1.
       -2   -1    0    0    0  501  0.00000000000E+00  0.00000000000E+00 -0.11979356469E+04  0.11979356469E+04  0.25500000920E-02 0.  1.
    10030    2    1    2    0    0  0.00000000000E+00  0.00000000000E+00  0.56187772746E+03  0.29577490213E+04  0.29038892356E+04 0.  0.
        4    1    3    3  502    0  0.47556177182E+03  0.67304490917E+02  0.16765543208E+04  0.17439968168E+04  0.12699999809E+01 0. -1.
       -4    1    3    3    0  502 -0.47556177182E+03 -0.67304490917E+02 -0.11146765934E+04  0.12137522045E+04  0.12699999809E+01 0.  1.
</event>
<event>
 5   0  0.8355946E-07  0.2896680E+04  0.7818609E-02  0.8273866E-01
        1   -1    0    0  501    0  0.00000000000E+00  0.00000000000E+00  0.14980152742E+04  0.14980152742E+04  0.50400001928E-02 0. -1.
       -1   -1    0    0    0  501  0.00000000000E+00  0.00000000000E+00 -0.14003117083E+04  0.14003117083E+04  0.50400001928E-02 0.  1.
    10030    2    1    2    0    0  0.00000000000E+00  0.00000000000E+00  0.97703565894E+02  0.28983269825E+04  0.28966797046E+04 0.  0.
        4    1    3    3  502    0  0.72094086986E+03  0.62458713223E+02 -0.12064651601E+04  0.14068463399E+04  0.12699999809E+01 0.  1.
       -4    1    3    3    0  502 -0.72094086986E+03 -0.62458713223E+02  0.13041687260E+04  0.14914806426E+04  0.12699999809E+01 0. -1.
</event>
<event>
 5   0  0.8263673E-07  0.2899005E+04  0.7818609E-02  0.8273174E-01
        1   -1    0    0  501    0  0.00000000000E+00  0.00000000000E+00  0.12080655626E+04  0.12080655626E+04  0.50400001928E-02 0.  1.
       -1   -1    0    0    0  501  0.00000000000E+00  0.00000000000E+00 -0.17391912416E+04  0.17391912416E+04  0.50400001928E-02 0. -1.
    10030    2    1    2    0    0  0.00000000000E+00  0.00000000000E+00 -0.53112567895E+03  0.29472568042E+04  0.28990046884E+04 0.  0.
        5    1    3    3  502    0  0.38239021077E+02  0.33608564356E+03  0.11673717712E+04  0.12153989981E+04  0.46999998093E+01 0.  1.
       -5    1    3    3    0  502 -0.38239021077E+02 -0.33608564356E+03 -0.16984974501E+04  0.17318578061E+04  0.46999998093E+01 0. -1.
</event>
<event>
 5   0  0.2304435E-06  0.2905390E+04  0.7818609E-02  0.8271276E-01
       -2   -1    0    0    0  501  0.00000000000E+00  0.00000000000E+00  0.13382251176E+04  0.13382251176E+04  0.25500000920E-02 0.  1.
        2   -1    0    0  501    0  0.00000000000E+00  0.00000000000E+00 -0.15769562802E+04  0.15769562802E+04  0.25500000920E-02 0. -1.
    10030    2    1    2    0    0  0.00000000000E+00  0.00000000000E+00 -0.23873116263E+03  0.29151813977E+04  0.29053898213E+04 0.  0.
        1    1    3    3  502    0  0.11932392810E+04  0.33891775983E+03 -0.87798061154E+03  0.15197154944E+04  0.50400001928E-02 0. -1.
       -1    1    3    3    0  502 -0.11932392810E+04 -0.33891775983E+03  0.63924944891E+03  0.13954659034E+04  0.50400001928E-02 0.  1.
</event>
<event>
 5   0  0.8947674E-07  0.2901039E+04  0.7818609E-02  0.8272568E-01
       -1   -1    0    0    0  501  0.00000000000E+00  0.00000000000E+00  0.89308915164E+03  0.89308915166E+03  0.50400001928E-02 0. -1.
        1   -1    0    0  501    0  0.00000000000E+00  0.00000000000E+00 -0.23558751948E+04  0.23558751948E+04  0.50400001928E-02 0.  1.
    10030    2    1    2    0    0  0.00000000000E+00  0.00000000000E+00 -0.14627860432E+04  0.32489643465E+04  0.29010388340E+04 0.  0.
        3    1    3    3  502    0 -0.86845260088E+03  0.80512699327E+03  0.20665707648E+03  0.12021424844E+04  0.10100000352E+00 0. -1.
       -3    1    3    3    0  502  0.86845260088E+03 -0.80512699327E+03 -0.16694431197E+04  0.20468218621E+04  0.10100000352E+00 0.  1.
</event>
<event>
 5   0  0.2425845E-06  0.2903760E+04  0.7818609E-02  0.8271760E-01
       -2   -1    0    0    0  501  0.00000000000E+00  0.00000000000E+00  0.87732276407E+03  0.87732276407E+03  0.25500000920E-02 0.  1.
        2   -1    0    0  501    0  0.00000000000E+00  0.00000000000E+00 -0.24027136393E+04  0.24027136393E+04  0.25500000920E-02 0. -1.
    10030    2    1    2    0    0  0.00000000000E+00  0.00000000000E+00 -0.15253908752E+04  0.32800364033E+04  0.29037598876E+04 0.  0.
        2    1    3    3  502    0 -0.37327732653E+03  0.87880744003E+03 -0.19981906864E+04  0.22145890134E+04  0.25500000920E-02 0. -1.
       -2    1    3    3    0  502  0.37327732653E+03 -0.87880744003E+03  0.47279981121E+03  0.10654473899E+04  0.25500000920E-02 0.  1.
</event>
<event>
 5   0  0.2425845E-06  0.2901659E+04  0.7818609E-02  0.8272384E-01
       -2   -1    0    0    0  501  0.00000000000E+00  0.00000000000E+00  0.15076754585E+04  0.15076754585E+04  0.25500000920E-02 0. -1.
        2   -1    0    0  501    0  0.00000000000E+00  0.00000000000E+00 -0.13961269631E+04  0.13961269631E+04  0.25500000920E-02 0.  1.
    10030    2    1    2    0    0  0.00000000000E+00  0.00000000000E+00  0.11154849540E+03  0.29038024216E+04  0.29016590835E+04 0.  0.
        2    1    3    3  502    0  0.24946340277E+03  0.68916255085E+03  0.13087891080E+04  0.15000353130E+04  0.25500000920E-02 0. -1.
       -2    1    3    3    0  502 -0.24946340277E+03 -0.68916255085E+03 -0.11972406126E+04  0.14037671087E+04  0.25500000920E-02 0.  1.
</event>
<event>
 5   0  0.2360103E-06  0.2852365E+04  0.7818609E-02  0.8287193E-01
       -2   -1    0    0    0  501  0.00000000000E+00  0.00000000000E+00  0.13985373334E+04  0.13985373334E+04  0.25500000920E-02 0. -1.
        2   -1    0    0  501    0  0.00000000000E+00  0.00000000000E+00 -0.14543738738E+04  0.14543738738E+04  0.25500000920E-02 0.  1.
    10030    2    1    2    0    0  0.00000000000E+00  0.00000000000E+00 -0.55836540388E+02  0.28529112072E+04  0.28523647447E+04 0.  0.
        4    1    3    3  502    0  0.10246106140E+04  0.62626756480E+03  0.74161627209E+03  0.14113944455E+04  0.12699999809E+01 0. -1.
       -4    1    3    3    0  502 -0.10246106140E+04 -0.62626756480E+03 -0.79745281247E+03  0.14415167616E+04  0.12699999809E+01 0.  1.
</event>
<event>
 5   0  0.2325590E-06  0.2906594E+04  0.7818609E-02  0.8270918E-01
       -2   -1    0    0    0  501  0.00000000000E+00  0.00000000000E+00  0.75919390062E+03  0.75919390063E+03  0.25500000920E-02 0.  1.
        2   -1    0    0  501    0  0.00000000000E+00  0.00000000000E+00 -0.27819925903E+04  0.27819925903E+04  0.25500000920E-02 0. -1.
    10030    2    1    2    0    0  0.00000000000E+00  0.00000000000E+00 -0.20227986897E+04  0.35411864910E+04  0.29065937495E+04 0.  0.
        5    1    3    3  502    0 -0.20190217104E+03  0.10338680186E+04 -0.22311904389E+04  0.24673630522E+04  0.46999998093E+01 0.  1.
       -5    1    3    3    0  502  0.20190217104E+03 -0.10338680186E+04  0.20839174918E+03  0.10738234388E+04  0.46999998093E+01 0. -1.
</event>
<event>
 5   0  0.2304435E-06  0.2881341E+04  0.7818609E-02  0.8278451E-01
        2   -1    0    0  501    0  0.00000000000E+00  0.00000000000E+00  0.12265648350E+04  0.12265648350E+04  0.25500000920E-02 0. -1.
       -2   -1    0    0    0  501  0.00000000000E+00  0.00000000000E+00 -0.16921497022E+04  0.16921497022E+04  0.25500000920E-02 0.  1.
    10030    2    1    2    0    0  0.00000000000E+00  0.00000000000E+00 -0.46558486727E+03  0.29187145372E+04  0.28813408825E+04 0.  0.
        1    1    3    3  502    0 -0.78882659370E+03 -0.34008531232E+03  0.93876697303E+03  0.12724735142E+04  0.50400001928E-02 0. -1.
       -1    1    3    3    0  502  0.78882659370E+03  0.34008531232E+03 -0.14043518403E+04  0.16462410230E+04  0.50400001928E-02 0.  1.
</event>
<event>
 5   0  0.2325590E-06  0.2918233E+04  0.7818609E-02  0.8267473E-01
        2   -1    0    0  501    0  0.00000000000E+00  0.00000000000E+00  0.14002633064E+04  0.14002633064E+04  0.25500000920E-02 0.  1.
       -2   -1    0    0    0  501  0.00000000000E+00  0.00000000000E+00 -0.15204433951E+04  0.15204433951E+04  0.25500000920E-02 0. -1.
    10030    2    1    2    0    0  0.00000000000E+00  0.00000000000E+00 -0.12018008868E+03  0.29207067015E+04  0.29182330925E+04 0.  0.
        5    1    3    3  502    0 -0.12784482788E+04  0.42111472712E+03  0.50362035492E+03  0.14371580173E+04  0.46999998093E+01 0.  1.
       -5    1    3    3    0  502  0.12784482788E+04 -0.42111472712E+03 -0.62380044359E+03  0.14835486842E+04  0.46999998093E+01 0. -1.
</event>
<event>
 5   0  0.8355946E-07  0.2908888E+04  0.7818609E-02  0.8270238E-01
        1   -1    0    0  501    0  0.00000000000E+00  0.00000000000E+00  0.22273749058E+04  0.22273749058E+04  0.50400001928E-02 0.  1.
       -1   -1    0    0    0  501  0.00000000000E+00  0.00000000000E+00 -0.94973114186E+03  0.94973114187E+03  0.50400001928E-02 0. -1.
    10030    2    1    2    0    0  0.00000000000E+00  0.00000000000E+00  0.12776437639E+04  0.31771060477E+04  0.29088879749E+04 0.  0.
        4    1    3    3  502    0  0.88833175854E+03 -0.57857428994E+03  0.17263897532E+04  0.20259083679E+04  0.12699999809E+01 0.  1.
       -4    1    3    3    0  502 -0.88833175854E+03  0.57857428994E+03 -0.44874598925E+03  0.11511976798E+04  0.12699999809E+01 0. -1.
</event>
<event>
 5   0  0.8263673E-07  0.2893862E+04  0.7818609E-02  0.8274706E-01
        1   -1    0    0  501    0  0.00000000000E+00  0.00000000000E+00  0.70984873632E+03  0.70984873634E+03  0.50400001928E-02 0. -1.
       -1   -1    0    0    0  501  0.00000000000E+00  0.00000000000E+00 -0.29493730123E+04  0.29493730123E+04  0.50400001928E-02 0.  1.
    10030    2    1    2    0    0  0.00000000000E+00  0.00000000000E+00 -0.22395242760E+04  0.36592217487E+04  0.28938615764E+04 0.  0.
        5    1    3    3  502    0 -0.50462490342E+03 -0.11887570935E+04 -0.29465143573E+03  0.13246249579E+04  0.46999998093E+01 0. -1.
       -5    1    3    3    0  502  0.50462490342E+03  0.11887570935E+04 -0.19448728403E+04  0.23345967908E+04  0.46999998093E+01 0.  1.
</event>
<event>
 5   0  0.2360103E-06  0.2733736E+04  0.7818609E-02  0.8324141E-01
       -2   -1    0    0    0  501  0.00000000000E+00  0.00000000000E+00  0.11229796128E+04  0.11229796128E+04  0.25500000920E-02 0. -1.
        2   -1    0    0  501    0  0.00000000000E+00  0.00000000000E+00 -0.16637245382E+04  0.16637245382E+04  0.25500000920E-02 0.  1.
    10030    2    1    2    0    0  0.00000000000E+00  0.00000000000E+00 -0.54074492541E+03  0.27867041511E+04  0.27337364451E+04 0.  0.
        4    1    3    3  502    0 -0.18901511142E+03 -0.48204133634E+03 -0.15598872194E+04  0.16435754660E+04  0.12699999809E+01 0.  1.
       -4    1    3    3    0  502  0.18901511142E+03  0.48204133634E+03  0.10191422940E+04  0.11431286851E+04  0.12699999809E+01 0. -1.
</event>
<event>
 5   0  0.2425845E-06  0.2899889E+04  0.7818609E-02  0.8272910E-01
        2   -1    0    0  501    0  0.00000000000E+00  0.00000000000E+00  0.16236639622E+04  0.16236639622E+04  0.25500000920E-02 0.  1.
       -2   -1    0    0    0  501  0.00000000000E+00  0.00000000000E+00 -0.12948118571E+04  0.12948118571E+04  0.25500000920E-02 0. -1.
    10030    2    1    2    0    0  0.00000000000E+00  0.00000000000E+00  0.32885210508E+03  0.29184758193E+04  0.28998892049E+04 0.  0.
        2    1    3    3  502    0  0.59460153252E+03  0.10158239100E+04 -0.68769442323E+03  0.13632214855E+04  0.25500000920E-02 0. -1.
       -2    1    3    3    0  502 -0.59460153252E+03 -0.10158239100E+04  0.10165465283E+04  0.15552543338E+04  0.25500000920E-02 0.  1.
</event>
<event>
 5   0  0.8263673E-07  0.2893089E+04  0.7818609E-02  0.8274937E-01
        1   -1    0    0  501    0  0.00000000000E+00  0.00000000000E+00  0.98665050419E+03  0.98665050420E+03  0.50400001928E-02 0.  1.
       -1   -1    0    0    0  501  0.00000000000E+00  0.00000000000E+00 -0.21208033509E+04  0.21208033509E+04  0.50400001928E-02 0. -1.
    10030    2    1    2    0    0  0.00000000000E+00  0.00000000000E+00 -0.11341528467E+04  0.31074538551E+04  0.28930894874E+04 0.  0.
        5    1    3    3  502    0  0.10760268080E+04  0.96544165151E+03 -0.62140411142E+03  0.15735553482E+04  0.46999998093E+01 0.  1.
       -5    1    3    3    0  502 -0.10760268080E+04 -0.96544165151E+03 -0.51274873529E+03  0.15338985069E+04  0.46999998093E+01 0. -1.
</event>
<event>
 5   0  0.8355946E-07  0.2905826E+04  0.7818609E-02  0.8271146E-01
        1   -1    0    0  501    0  0.00000000000E+00  0.00000000000E+00  0.21875148858E+04  0.21875148858E+04  0.50400001928E-02 0. -1.
       -1   -1    0    0    0  501  0.00000000000E+00  0.00000000000E+00 -0.96500180874E+03  0.96500180875E+03  0.50400001928E-02 0.  1.
    10030    2    1    2    0    0  0.00000000000E+00  0.00000000000E+00  0.12225130770E+04  0.31525166945E+04  0.29058257494E+04 0.  0.
        4    1    3    3  502    0  0.16974534768E+03  0.48824998830E+03  0.20843800427E+04  0.21475202699E+04  0.12699999809E+01 0. -1.
       -4    1    3    3    0  502 -0.16974534768E+03 -0.48824998830E+03 -0.86186696568E+03  0.10049964247E+04  0.12699999809E+01 0.  1.
</event>
<event>
 5   0  0.2325590E-06  0.2885230E+04  0.7818609E-02  0.8277286E-01
       -2   -1    0    0    0  501  0.00000000000E+00  0.00000000000E+00  0.97731295154E+03  0.97731295155E+03  0.25500000920E-02 0. -1.
        2   -1    0    0  501    0  0.00000000000E+00  0.00000000000E+00 -0.21294488489E+04  0.21294488489E+04  0.25500000920E-02 0.  1.
    10030    2    1    2    0    0  0.00000000000E+00  0.00000000000E+00 -0.11521358974E+04  0.31067618005E+04  0.28852299317E+04 0.  0.
        5    1    3    3  502    0 -0.16869848821E+03  0.13036259890E+04  0.63884464693E+02  0.13160559312E+04  0.46999998093E+01 0. -1.
       -5    1    3    3    0  502  0.16869848821E+03 -0.13036259890E+04 -0.12160203621E+04  0.17907058693E+04  0.46999998093E+01 0.  1.
</event>
<event>
 5   0  0.8483636E-07  0.2900528E+04  0.7818609E-02  0.8272720E-01
       -1   -1    0    0    0  501  0.00000000000E+00  0.00000000000E+00  0.15202195511E+04  0.15202195511E+04  0.50400001928E-02 0.  1.
        1   -1    0    0  501    0  0.00000000000E+00  0.00000000000E+00 -0.13835273334E+04  0.13835273334E+04  0.50400001928E-02 0. -1.
    10030    2    1    2    0    0  0.00000000000E+00  0.00000000000E+00  0.13669221774E+03  0.29037468845E+04  0.29005277462E+04 0.  0.
        2    1    3    3  502    0 -0.31885070562E+03  0.14051571294E+04  0.23324981130E+03  0.14596361894E+04  0.25500000920E-02 0. -1.
       -2    1    3    3    0  502  0.31885070562E+03 -0.14051571294E+04 -0.96557593560E+02  0.14441106951E+04  0.25500000920E-02 0.  1.
</event>
<event>
 5   0  0.8947674E-07  0.2900933E+04  0.7818609E-02  0.8272600E-01
        1   -1    0    0  501    0  0.00000000000E+00  0.00000000000E+00  0.15864514544E+04  0.15864514544E+04  0.50400001928E-02 0.  1.
       -1   -1    0    0    0  501  0.00000000000E+00  0.00000000000E+00 -0.13261376099E+04  0.13261376100E+04  0.50400001928E-02 0. -1.
    10030    2    1    2    0    0  0.00000000000E+00  0.00000000000E+00  0.26031384443E+03  0.29125890643E+04  0.29009329120E+04 0.  0.
        3    1    3    3  502    0  0.97478458118E+03  0.10673529457E+04  0.96511640160E+01  0.14455242805E+04  0.10100000352E+00 0. -1.
       -3    1    3    3    0  502 -0.97478458118E+03 -0.10673529457E+04  0.25066268042E+03  0.14670647838E+04  0.10100000352E+00 0.  1.
</event>
<event>
 5   0  0.8357118E-07  0.2882637E+04  0.7818609E-02  0.8278062E-01
       -1   -1    0    0    0  501  0.00000000000E+00  0.00000000000E+00  0.17087647685E+04  0.17087647685E+04  0.50400001928E-02 0. -1.
        1   -1    0    0  501    0  0.00000000000E+00  0.00000000000E+00 -0.12157315723E+04  0.12157315723E+04  0.50400001928E-02 0.  1.
    10030    2    1    2    0    0  0.00000000000E+00  0.00000000000E+00  0.49303319615E+03  0.29244963408E+04  0.28826371806E+04 0.  0.
        1    1    3    3  502    0  0.77691130443E+03 -0.21329694954E+03 -0.96595819677E+03  0.12578402130E+04  0.50400001928E-02 0.  1.
       -1    1    3    3    0  502 -0.77691130443E+03  0.21329694954E+03  0.14589913929E+04  0.16666561278E+04  0.50400001928E-02 0. -1.
</event>
<event>
 5   0  0.2304435E-06  0.2852138E+04  0.7818609E-02  0.8287262E-01
        2   -1    0    0  501    0  0.00000000000E+00  0.00000000000E+00  0.20319957507E+04  0.20319957507E+04  0.25500000920E-02 0.  1.
       -2   -1    0    0    0  501  0.00000000000E+00  0.00000000000E+00 -0.10008251631E+04  0.10008251631E+04  0.25500000920E-02 0. -1.
    10030    2    1    2    0    0  0.00000000000E+00  0.00000000000E+00  0.10311705876E+04  0.30328209138E+04  0.28521377797E+04 0.  0.
        1    1    3    3  502    0  0.58700990411E+03  0.12991925316E+04  0.47889406073E+03  0.15039352988E+04  0.50400001928E-02 0. -1.
       -1    1    3    3    0  502 -0.58700990411E+03 -0.12991925316E+04  0.55227652690E+03  0.15288856150E+04  0.50400001928E-02 0.  1.
</event>
<event>
 5   0  0.2378690E-06  0.2895376E+04  0.7818609E-02  0.8274255E-01
       -2   -1    0    0    0  501  0.00000000000E+00  0.00000000000E+00  0.14086781286E+04  0.14086781286E+04  0.25500000920E-02 0.  1.
        2   -1    0    0  501    0  0.00000000000E+00  0.00000000000E+00 -0.14877780484E+04  0.14877780484E+04  0.25500000920E-02 0. -1.
    10030    2    1    2    0    0  0.00000000000E+00  0.00000000000E+00 -0.79099919796E+02  0.28964561769E+04  0.28953758974E+04 0.  0.
        3    1    3    3  502    0 -0.80358884836E+03 -0.16100234713E+03  0.11542617872E+04  0.14156260370E+04  0.10100000352E+00 0.  1.
       -3    1    3    3    0  502  0.80358884836E+03  0.16100234713E+03 -0.12333617070E+04  0.14808301400E+04  0.10100000352E+00 0. -1.
</event>
<event>
 5   0  0.2325590E-06  0.2901936E+04  0.7818609E-02  0.8272302E-01
        2   -1    0    0  501    0  0.00000000000E+00  0.00000000000E+00  0.33991855550E+04  0.33991855550E+04  0.25500000920E-02 0. -1.
       -2   -1    0    0    0  501  0.00000000000E+00  0.00000000000E+00 -0.61935671316E+03  0.61935671317E+03  0.25500000920E-02 0.  1.
    10030    2    1    2    0    0  0.00000000000E+00  0.00000000000E+00  0.27798288419E+04  0.40185422682E+04  0.29019361763E+04 0.  0.
        5    1    3    3  502    0  0.14406431592E+04 -0.13431438954E+03  0.15402968755E+04  0.21132982804E+04  0.46999998093E+01 0. -1.
       -5    1    3    3    0  502 -0.14406431592E+04  0.13431438954E+03  0.12395319663E+04  0.19052439878E+04  0.46999998093E+01 0.  1.
</event>
<event>
 5   0  0.2360103E-06  0.2917004E+04  0.7818609E-02  0.8267836E-01
        2   -1    0    0  501    0  0.00000000000E+00  0.00000000000E+00  0.22645002636E+04  0.22645002636E+04  0.25500000920E-02 0.  1.
       -2   -1    0    0    0  501  0.00000000000E+00  0.00000000000E+00 -0.93938070724E+03  0.93938070724E+03  0.25500000920E-02 0. -1.
    10030    2    1    2    0    0  0.00000000000E+00  0.00000000000E+00  0.13251195564E+04  0.32038809709E+04  0.29170038459E+04 0.  0.
        4    1    3    3  502    0  0.14444541667E+04  0.18065440321E+03  0.56345025048E+03  0.15609489584E+04  0.12699999809E+01 0. -1.
       -4    1    3    3    0  502 -0.14444541667E+04 -0.18065440321E+03  0.76166930589E+03  0.16429320124E+04  0.12699999809E+01 0.  1.
</event>
<event>
 5   0  0.2304435E-06  0.2898745E+04  0.7818609E-02  0.8273251E-01
        2   -1    0    0  501    0  0.00000000000E+00  0.00000000000E+00  0.25114711207E+04  0.25114711207E+04  0.25500000920E-02 0. -1.
       -2   -1    0    0    0  501  0.00000000000E+00  0.00000000000E+00 -0.83643423618E+03  0.83643423618E+03  0.25500000920E-02 0.  1.
    10030    2    1    2    0    0  0.00000000000E+00  0.00000000000E+00  0.16750368845E+04  0.33479053569E+04  0.28987448515E+04 0.  0.
        1    1    3    3  502    0  0.92821502319E+03 -0.17373402841E+02  0.21229915194E+04  0.23171055125E+04  0.50400001928E-02 0. -1.
       -1    1    3    3    0  502 -0.92821502319E+03  0.17373402841E+02 -0.44795463485E+03  0.10307998444E+04  0.50400001928E-02 0.  1.
</event>
<event>
 5   0  0.8483636E-07  0.2898038E+04  0.7818609E-02  0.8273461E-01
        1   -1    0    0  501    0  0.00000000000E+00  0.00000000000E+00  0.17177150562E+04  0.17177150562E+04  0.50400001928E-02 0.  1.
       -1   -1    0    0    0  501  0.00000000000E+00  0.00000000000E+00 -0.12223541744E+04  0.12223541745E+04  0.50400001928E-02 0. -1.
    10030    2    1    2    0    0  0.00000000000E+00  0.00000000000E+00  0.49536088173E+03  0.29400692306E+04  0.28980380739E+04 0.  0.
        2    1    3    3  502    0  0.68566679732E+02 -0.10415377136E+02 -0.12206694393E+04  0.12226380289E+04  0.25500000920E-02 0. -1.
       -2    1    3    3    0  502 -0.68566679732E+02  0.10415377136E+02  0.17160303211E+04  0.17174312017E+04  0.25500000920E-02 0.  1.
</event>
<event>
 5   0  0.8947674E-07  0.2891050E+04  0.7818609E-02  0.8275545E-01
        1   -1    0    0  501    0  0.00000000000E+00  0.00000000000E+00  0.15196947281E+04  0.15196947281E+04  0.50400001928E-02 0.  1.
       -1   -1    0    0    0  501  0.00000000000E+00  0.00000000000E+00 -0.13749748138E+04  0.13749748138E+04  0.50400001928E-02 0. -1.
    10030    2    1    2    0    0  0.00000000000E+00  0.00000000000E+00  0.14471991434E+03  0.28946695419E+04  0.28910496196E+04 0.  0.
        3    1    3    3  502    0 -0.21936159020E+03 -0.30114224838E+03  0.14707962082E+04  0.15172500312E+04  0.10100000352E+00 0.  1.
       -3    1    3    3    0  502  0.21936159020E+03  0.30114224838E+03 -0.13260762938E+04  0.13774195106E+04  0.10100000352E+00 0. -1.
</event>
<event>
 5   0  0.2325590E-06  0.2896421E+04  0.7818609E-02  0.8273943E-01
        2   -1    0    0  501    0  0.00000000000E+00  0.00000000000E+00  0.17418097480E+04  0.17418097480E+04  0.25500000920E-02 0. -1.
       -2   -1    0    0    0  501  0.00000000000E+00  0.00000000000E+00 -0.12041001245E+04  0.12041001245E+04  0.25500000920E-02 0.  1.
    10030    2    1    2    0    0  0.00000000000E+00  0.00000000000E+00  0.53770962349E+03  0.29459098725E+04  0.28964207805E+04 0.  0.
        5    1    3    3  502    0 -0.92253197167E+03  0.10652229035E+04  0.60851621407E+03  0.15349524897E+04  0.46999998093E+01 0. -1.
       -5    1    3    3    0  502  0.92253197167E+03 -0.10652229035E+04 -0.70806590575E+02  0.14109573828E+04  0.46999998093E+01 0.  1.
</event>
<event>
 5   0  0.2378690E-06  0.2896270E+04  0.7818609E-02  0.8273988E-01
       -2   -1    0    0    0  501  0.00000000000E+00  0.00000000000E+00  0.12547806320E+04  0.12547806320E+04  0.25500000920E-02 0.  1.
        2   -1    0    0  501    0  0.00000000000E+00  0.00000000000E+00 -0.16712837409E+04  0.16712837409E+04  0.25500000920E-02 0. -1.
    10030    2    1    2    0    0  0.00000000000E+00  0.00000000000E+00 -0.41650310886E+03  0.29260643729E+04  0.28962696481E+04 0.  0.
        3    1    3    3  502    0  0.88723004246E+02 -0.40443524717E+03  0.11937035414E+04  0.12634744934E+04  0.10100000352E+00 0.  1.
       -3    1    3    3    0  502 -0.88723004246E+02  0.40443524717E+03 -0.16102066502E+04  0.16625898795E+04  0.10100000352E+00 0. -1.
</event>
<event>
 5   0  0.8355946E-07  0.2918466E+04  0.7818609E-02  0.8267404E-01
       -1   -1    0    0    0  501  0.00000000000E+00  0.00000000000E+00  0.95431796224E+03  0.95431796225E+03  0.50400001928E-02 0. -1.
        1   -1    0    0  501    0  0.00000000000E+00  0.00000000000E+00 -0.22312910238E+04  0.22312910238E+04  0.50400001928E-02 0.  1.
    10030    2    1    2    0    0  0.00000000000E+00  0.00000000000E+00 -0.12769730616E+04  0.31856089861E+04  0.29184661060E+04 0.  0.
        4    1    3    3  502    0 -0.60929089996E+03 -0.11900064367E+04 -0.14009902890E+00  0.13369189776E+04  0.12699999809E+01 0. -1.
       -4    1    3    3    0  502  0.60929089996E+03  0.11900064367E+04 -0.12768329625E+04  0.18486900084E+04  0.12699999809E+01 0.  1.
</event>
<event>
 5   0  0.8357118E-07  0.2907841E+04  0.7818609E-02  0.8270548E-01
       -1   -1    0    0    0  501  0.00000000000E+00  0.00000000000E+00  0.15082075784E+04  0.15082075785E+04  0.50400001928E-02 0. -1.
        1   -1    0    0  501    0  0.00000000000E+00  0.00000000000E+00 -0.14015870894E+04  0.14015870894E+04  0.50400001928E-02 0.  1.
    10030    2    1    2    0    0  0.00000000000E+00  0.00000000000E+00  0.10662048907E+03  0.29097946678E+04  0.29078406216E+04 0.  0.
        1    1    3    3  502    0 -0.62487168931E+03  0.89581081568E+03  0.10136126828E+04  0.14900846675E+04  0.50400001928E-02 0. -1.
       -1    1    3    3    0  502  0.62487168931E+03 -0.89581081568E+03 -0.90699219372E+03  0.14197100003E+04  0.50400001928E-02 0.  1.
</event>
<event>
 5   0  0.2325590E-06  0.2835430E+04  0.7818609E-02  0.8292352E-01
        2   -1    0    0  501    0  0.00000000000E+00  0.00000000000E+00  0.16391014548E+04  0.16391014548E+04  0.25500000920E-02 0. -1.
       -2   -1    0    0    0  501  0.00000000000E+00  0.00000000000E+00 -0.12262300907E+04  0.12262300907E+04  0.25500000920E-02 0.  1.
    10030    2    1    2    0    0  0.00000000000E+00  0.00000000000E+00  0.41287136413E+03  0.28653315455E+04  0.28354297914E+04 0.  0.
        5    1    3    3  502    0 -0.11353807821E+04  0.83634321380E+03  0.58833914456E+02  0.14113975383E+04  0.46999998093E+01 0.  1.
       -5    1    3    3    0  502  0.11353807821E+04 -0.83634321380E+03  0.35403744967E+03  0.14539340072E+04  0.46999998093E+01 0. -1.
</event>
<event>
 5   0  0.8357118E-07  0.2894467E+04  0.7818609E-02  0.8274526E-01
        1   -1    0    0  501    0  0.00000000000E+00  0.00000000000E+00  0.15390307251E+04  0.15390307251E+04  0.50400001928E-02 0.  1.
       -1   -1    0    0    0  501  0.00000000000E+00  0.00000000000E+00 -0.13609115562E+04  0.13609115562E+04  0.50400001928E-02 0. -1.
    10030    2    1    2    0    0  0.00000000000E+00  0.00000000000E+00  0.17811916889E+03  0.28999422813E+04  0.28944669279E+04 0.  0.
        1    1    3    3  502    0  0.63935222790E+03 -0.61619949683E+03  0.12340300411E+04  0.15202970873E+04  0.50400001928E-02 0.  1.
       -1    1    3    3    0  502 -0.63935222790E+03  0.61619949683E+03 -0.10559108722E+04  0.13796451940E+04  0.50400001928E-02 0. -1.
</event>
<event>
 5   0  0.8357118E-07  0.2890390E+04  0.7818609E-02  0.8275742E-01
       -1   -1    0    0    0  501  0.00000000000E+00  0.00000000000E+00  0.16086842152E+04  0.16086842152E+04  0.50400001928E-02 0. -1.
        1   -1    0    0  501    0  0.00000000000E+00  0.00000000000E+00 -0.12983212094E+04  0.12983212094E+04  0.50400001928E-02 0.  1.
    10030    2    1    2    0    0  0.00000000000E+00  0.00000000000E+00  0.31036300587E+03  0.29070054246E+04  0.28903901715E+04 0.  0.
        1    1    3    3  502    0 -0.12694787036E+03 -0.73299891111E+02  0.16011876358E+04  0.16078838518E+04  0.50400001928E-02 0. -1.
       -1    1    3    3    0  502  0.12694787036E+03  0.73299891111E+02 -0.12908246299E+04  0.12991215728E+04  0.50400001928E-02 0.  1.
</event>
<event>
 5   0  0.2360103E-06  0.2905345E+04  0.7818609E-02  0.8271289E-01
       -2   -1    0    0    0  501  0.00000000000E+00  0.00000000000E+00  0.17844957919E+04  0.17844957919E+04  0.25500000920E-02 0.  1.
        2   -1    0    0  501    0  0.00000000000E+00  0.00000000000E+00 -0.11825514235E+04  0.11825514235E+04  0.25500000920E-02 0. -1.
    10030    2    1    2    0    0  0.00000000000E+00  0.00000000000E+00  0.60194436840E+03  0.29670472153E+04  0.29053454451E+04 0.  0.
        4    1    3    3  502    0  0.41409760750E+03  0.10433260260E+04  0.12426451503E+04  0.16745669911E+04  0.12699999809E+01 0.  1.
       -4    1    3    3    0  502 -0.41409760750E+03 -0.10433260260E+04 -0.64070078195E+03  0.12924802242E+04  0.12699999809E+01 0. -1.
</event>
<event>
 5   0  0.8947674E-07  0.2899470E+04  0.7818609E-02  0.8273035E-01
        1   -1    0    0  501    0  0.00000000000E+00  0.00000000000E+00  0.29519750615E+04  0.29519750615E+04  0.50400001928E-02 0. -1.
       -1   -1    0    0    0  501  0.00000000000E+00  0.00000000000E+00 -0.71197488485E+03  0.71197488487E+03  0.50400001928E-02 0.  1.
    10030    2    1    2    0    0  0.00000000000E+00  0.00000000000E+00  0.22400001767E+04  0.36639499464E+04  0.28994703686E+04 0.  0.
        3    1    3    3  502    0 -0.88048682159E+03 -0.32595162161E+03  0.25158920671E+04  0.26853704412E+04  0.10100000352E+00 0. -1.
       -3    1    3    3    0  502  0.88048682159E+03  0.32595162161E+03 -0.27589189047E+03  0.97857950523E+03  0.10100000352E+00 0.  1.
</event>
<event>
 5   0  0.8947674E-07  0.2880439E+04  0.7818609E-02  0.8278721E-01
       -1   -1    0    0    0  501  0.00000000000E+00  0.00000000000E+00  0.94488453457E+03  0.94488453458E+03  0.50400001928E-02 0.  1.
        1   -1    0    0  501    0  0.00000000000E+00  0.00000000000E+00 -0.21952222819E+04  0.21952222819E+04  0.50400001928E-02 0. -1.
    10030    2    1    2    0    0  0.00000000000E+00  0.00000000000E+00 -0.12503377474E+04  0.31401068165E+04  0.28804385667E+04 0.  0.
        3    1    3    3  502    0 -0.10152061843E+04  0.17622164446E+03  0.47179062410E+03  0.11332625768E+04  0.10100000352E+00 0.  1.
       -3    1    3    3    0  502  0.10152061843E+04 -0.17622164446E+03 -0.17221283715E+04  0.20068442398E+04  0.10100000352E+00 0. -1.
</event>
<event>
 5   0  0.8357118E-07  0.2895287E+04  0.7818609E-02  0.8274281E-01
       -1   -1    0    0    0  501  0.00000000000E+00  0.00000000000E+00  0.18942319973E+04  0.18942319973E+04  0.50400001928E-02 0. -1.
        1   -1    0    0  501    0  0.00000000000E+00  0.00000000000E+00 -0.11063435696E+04  0.11063435697E+04  0.50400001928E-02 0.  1.
    10030    2    1    2    0    0  0.00000000000E+00  0.00000000000E+00  0.78788842763E+03  0.30005755669E+04  0.28952867835E+04 0.  0.
        1    1    3    3  502    0 -0.11187673632E+04  0.87098518084E+03  0.91056215365E+02  0.14207557259E+04  0.50400001928E-02 0. -1.
       -1    1    3    3    0  502  0.11187673632E+04 -0.87098518084E+03  0.69683221227E+03  0.15798198411E+04  0.50400001928E-02 0.  1.
</event>
<event>
 5   0  0.8263673E-07  0.2884670E+04  0.7818609E-02  0.8277453E-01
       -1   -1    0    0    0  501  0.00000000000E+00  0.00000000000E+00  0.11022022868E+04  0.11022022868E+04  0.50400001928E-02 0. -1.
        1   -1    0    0  501    0  0.00000000000E+00  0.00000000000E+00 -0.18874303843E+04  0.18874303843E+04  0.50400001928E-02 0.  1.
    10030    2    1    2    0    0  0.00000000000E+00  0.00000000000E+00 -0.78522809757E+03  0.29896326711E+04  0.28846698846E+04 0.  0.
        5    1    3    3  502    0  0.38000875619E+03 -0.43357532900E+03 -0.17628069488E+04  0.18546979941E+04  0.46999998093E+01 0.  1.
       -5    1    3    3    0  502 -0.38000875619E+03  0.43357532900E+03  0.97757885120E+03  0.11349346770E+04  0.46999998093E+01 0. -1.
</event>
<event>
 5   0  0.8263673E-07  0.2899884E+04  0.7818609E-02  0.8272912E-01
       -1   -1    0    0    0  501  0.00000000000E+00  0.00000000000E+00  0.17206505924E+04  0.17206505924E+04  0.50400001928E-02 0. -1.
        1   -1    0    0  501    0  0.00000000000E+00  0.00000000000E+00 -0.12218240956E+04  0.12218240956E+04  0.50400001928E-02 0.  1.
    10030    2    1    2    0    0  0.00000000000E+00  0.00000000000E+00  0.49882649679E+03  0.29424746880E+04  0.28998843797E+04 0.  0.
        5    1    3    3  502    0  0.73569249694E+03  0.75001729302E+03 -0.76453310213E+03  0.12993468914E+04  0.46999998093E+01 0.  1.
       -5    1    3    3    0  502 -0.73569249694E+03 -0.75001729302E+03  0.12633595989E+04  0.16431277966E+04  0.46999998093E+01 0. -1.
</event>
<event>
 5   0  0.8483636E-07  0.2895868E+04  0.7818609E-02  0.8274108E-01
       -1   -1    0    0    0  501  0.00000000000E+00  0.00000000000E+00  0.15688595436E+04  0.15688595436E+04  0.50400001928E-02 0.  1.
        1   -1    0    0  501    0  0.00000000000E+00  0.00000000000E+00 -0.13363296797E+04  0.13363296797E+04  0.50400001928E-02 0. -1.
    10030    2    1    2    0    0  0.00000000000E+00  0.00000000000E+00  0.23252986389E+03  0.29051892233E+04  0.28958684855E+04 0.  0.
        2    1    3    3  502    0  0.83421701509E+03 -0.11068593026E+04  0.53649024663E+03  0.14862292315E+04  0.25500000920E-02 0. -1.
       -2    1    3    3    0  502 -0.83421701509E+03  0.11068593026E+04 -0.30396038274E+03  0.14189599918E+04  0.25500000920E-02 0.  1.
</event>
<event>
 5   0  0.8483636E-07  0.2891194E+04  0.7818609E-02  0.8275502E-01
        1   -1    0    0  501    0  0.00000000000E+00  0.00000000000E+00  0.18220244814E+04  0.18220244814E+04  0.50400001928E-02 0. -1.
       -1   -1    0    0    0  501  0.00000000000E+00  0.00000000000E+00 -0.11469391669E+04  0.11469391669E+04  0.50400001928E-02 0.  1.
    10030    2    1    2    0    0  0.00000000000E+00  0.00000000000E+00  0.67508531450E+03  0.29689636484E+04  0.28911943835E+04 0.  0.
        2    1    3    3  502    0 -0.90018365120E+03  0.10902173163E+04  0.64705822452E+03  0.15548597199E+04  0.25500000920E-02 0. -1.
       -2    1    3    3    0  502  0.90018365120E+03 -0.10902173163E+04  0.28027089984E+02  0.14141039284E+04  0.25500000920E-02 0.  1.
</event>
<event>
 5   0  0.8483636E-07  0.2903041E+04  0.7818609E-02  0.8271973E-01
        1   -1    0    0  501    0  0.00000000000E+00  0.00000000000E+00  0.13978455824E+04  0.13978455824E+04  0.50400001928E-02 0.  1.
       -1   -1    0    0    0  501  0.00000000000E+00  0.00000000000E+00 -0.15072565091E+04  0.15072565091E+04  0.50400001928E-02 0. -1.
    10030    2    1    2    0    0  0.00000000000E+00  0.00000000000E+00 -0.10941092668E+03  0.29051020915E+04  0.29030410626E+04 0.  0.
        2    1    3    3  502    0  0.45299150264E+03  0.32909415955E+03 -0.13948379072E+04  0.15030226395E+04  0.25500000920E-02 0. -1.
       -2    1    3    3    0  502 -0.45299150264E+03 -0.32909415955E+03  0.12854269806E+04  0.14020794520E+04  0.25500000920E-02 0.  1.
</event>
<event>
 5   0  0.2325590E-06  0.2892561E+04  0.7818609E-02  0.8275094E-01
        2   -1    0    0  501    0  0.00000000000E+00  0.00000000000E+00  0.21953647760E+04  0.21953647760E+04  0.25500000920E-02 0. -1.
       -2   -1    0    0    0  501  0.00000000000E+00  0.00000000000E+00 -0.95279284635E+03  0.95279284635E+03  0.25500000920E-02 0.  1.
    10030    2    1    2    0    0  0.00000000000E+00  0.00000000000E+00  0.12425719296E+04  0.31481576223E+04  0.28925613934E+04 0.  0.
        5    1    3    3  502    0 -0.71222193650E+03 -0.95545788488E+03 -0.27060494244E+03  0.12220511370E+04  0.46999998093E+01 0.  1.
       -5    1    3    3    0  502  0.71222193650E+03  0.95545788488E+03  0.15131768721E+04  0.19261064853E+04  0.46999998093E+01 0. -1.
</event>
<event>
 5   0  0.8357118E-07  0.2919039E+04  0.7818609E-02  0.8267235E-01
        1   -1    0    0  501    0  0.00000000000E+00  0.00000000000E+00  0.16842004206E+04  0.16842004206E+04  0.50400001928E-02 0. -1.
       -1   -1    0    0    0  501  0.00000000000E+00  0.00000000000E+00 -0.12648124910E+04  0.12648124910E+04  0.50400001928E-02 0.  1.
    10030    2    1    2    0    0  0.00000000000E+00  0.00000000000E+00  0.41938792967E+03  0.29490129116E+04  0.29190393826E+04 0.  0.
        1    1    3    3  502    0  0.97239015386E+03  0.10777066986E+04  0.36358468719E+03  0.14963917148E+04  0.50400001928E-02 0. -1.
       -1    1    3    3    0  502 -0.97239015386E+03 -0.10777066986E+04  0.55803242483E+02  0.14526211968E+04  0.50400001928E-02 0.  1.
</event>
<event>
 5   0  0.2325590E-06  0.2910338E+04  0.7818609E-02  0.8269808E-01
        2   -1    0    0  501    0  0.00000000000E+00  0.00000000000E+00  0.12697463788E+04  0.12697463788E+04  0.25500000920E-02 0. -1.
       -2   -1    0    0    0  501  0.00000000000E+00  0.00000000000E+00 -0.16676686196E+04  0.16676686196E+04  0.25500000920E-02 0.  1.
    10030    2    1    2    0    0  0.00000000000E+00  0.00000000000E+00 -0.39792224080E+03  0.29374149984E+04  0.29103375686E+04 0.  0.
        5    1    3    3  502    0  0.31338093841E+03  0.13899058974E+04  0.99506411065E+02  0.14282750547E+04  0.46999998093E+01 0. -1.
       -5    1    3    3    0  502 -0.31338093841E+03 -0.13899058974E+04 -0.49742865186E+03  0.15091399437E+04  0.46999998093E+01 0.  1.
</event>
<event>
 5   0  0.8355946E-07  0.2887625E+04  0.7818609E-02  0.8276569E-01
        1   -1    0    0  501    0  0.00000000000E+00  0.00000000000E+00  0.19855505715E+04  0.19855505715E+04  0.50400001928E-02 0. -1.
       -1   -1    0    0    0  501  0.00000000000E+00  0.00000000000E+00 -0.10498825937E+04  0.10498825937E+04  0.50400001928E-02 0.  1.
    10030    2    1    2    0    0  0.00000000000E+00  0.00000000000E+00  0.93566797778E+03  0.30354331652E+04  0.28876253109E+04 0.  0.
        4    1    3    3  502    0  0.81050726951E+03  0.10822548616E+04 -0.64440004736E+02  0.13536438773E+04  0.12699999809E+01 0.  1.
       -4    1    3    3    0  502 -0.81050726951E+03 -0.10822548616E+04  0.10001079825E+04  0.16817892879E+04  0.12699999809E+01 0. -1.
</event>
<event>
 5   0  0.2360103E-06  0.2885165E+04  0.7818609E-02  0.8277305E-01
       -2   -1    0    0    0  501  0.00000000000E+00  0.00000000000E+00  0.11418682821E+04  0.11418682821E+04  0.25500000920E-02 0. -1.
        2   -1    0    0  501    0  0.00000000000E+00  0.00000000000E+00 -0.18224911130E+04  0.18224911130E+04  0.25500000920E-02 0.  1.
    10030    2    1    2    0    0  0.00000000000E+00  0.00000000000E+00 -0.68062283092E+03  0.29643593950E+04  0.28851653653E+04 0.  0.
        4    1    3    3  502    0 -0.48790783015E+03  0.13527688164E+04 -0.22313873229E+03  0.14552766157E+04  0.12699999809E+01 0. -1.
       -4    1    3    3    0  502  0.48790783015E+03 -0.13527688164E+04 -0.45748409862E+03  0.15090827793E+04  0.12699999809E+01 0.  1.
</event>
<event>
 5   0  0.2304435E-06  0.2894021E+04  0.7818609E-02  0.8274659E-01
       -2   -1    0    0    0  501  0.00000000000E+00  0.00000000000E+00  0.14865829943E+04  0.14865829943E+04  0.25500000920E-02 0.  1.
        2   -1    0    0  501    0  0.00000000000E+00  0.00000000000E+00 -0.14084913719E+04  0.14084913719E+04  0.25500000920E-02 0. -1.
    10030    2    1    2    0    0  0.00000000000E+00  0.00000000000E+00  0.78091622401E+02  0.28950743662E+04  0.28940209544E+04 0.  0.
        1    1    3    3  502    0 -0.36884029832E+02 -0.11327804489E+04  0.93897725626E+03  0.14718118986E+04  0.50400001928E-02 0.  1.
       -1    1    3    3    0  502  0.36884029832E+02  0.11327804489E+04 -0.86088563386E+03  0.14232624676E+04  0.50400001928E-02 0. -1.
</event>
<event>
 5   0  0.8947674E-07  0.2878504E+04  0.7818609E-02  0.8279302E-01
       -1   -1    0    0    0  501  0.00000000000E+00  0.00000000000E+00  0.12910049821E+04  0.12910049821E+04  0.50400001928E-02 0. -1.
        1   -1    0    0  501    0  0.00000000000E+00  0.00000000000E+00 -0.16045224715E+04  0.16045224715E+04  0.50400001928E-02 0.  1.
    10030    2    1    2    0    0  0.00000000000E+00  0.00000000000E+00 -0.31351748943E+03  0.28955274536E+04  0.28785041286E+04 0.  0.
        3    1    3    3  502    0  0.57879444827E+03 -0.12725815141E+04  0.18728701829E+03  0.14105116663E+04  0.10100000352E+00 0.  1.
       -3    1    3    3    0  502 -0.57879444827E+03  0.12725815141E+04 -0.50080450772E+03  0.14850157873E+04  0.10100000352E+00 0. -1.
</event>
<event>
 5   0  0.2378690E-06  0.2919112E+04  0.7818609E-02  0.8267214E-01
        2   -1    0    0  501    0  0.00000000000E+00  0.00000000000E+00  0.21180911241E+04  0.21180911241E+04  0.25500000920E-02 0.  1.
       -2   -1    0    0    0  501  0.00000000000E+00  0.00000000000E+00 -0.10057661664E+04  0.10057661664E+04  0.25500000920E-02 0. -1.
    10030    2    1    2    0    0  0.00000000000E+00  0.00000000000E+00  0.11123249577E+04  0.31238572906E+04  0.29191124611E+04 0.  0.
        3    1    3    3  502    0  0.12631762220E+04  0.63200081361E+03  0.16258216126E+03  0.14217848521E+04  0.10100000352E+00 0.  1.
       -3    1    3    3    0  502 -0.12631762220E+04 -0.63200081361E+03  0.94974279642E+03  0.17020724385E+04  0.10100000352E+00 0. -1.
</event>
<event>
 5   0  0.8355946E-07  0.2891442E+04  0.7818609E-02  0.8275428E-01
       -1   -1    0    0    0  501  0.00000000000E+00  0.00000000000E+00  0.21295317405E+04  0.21295317405E+04  0.50400001928E-02 0. -1.
        1   -1    0    0  501    0  0.00000000000E+00  0.00000000000E+00 -0.98148748917E+03  0.98148748918E+03  0.50400001928E-02 0.  1.
    10030    2    1    2    0    0  0.00000000000E+00  0.00000000000E+00  0.11480442513E+04  0.31110192297E+04  0.28914416896E+04 0.  0.
        4    1    3    3  502    0 -0.22096332221E+03  0.96207270262E+02  0.21077663589E+04  0.21214997679E+04  0.12699999809E+01 0. -1.
       -4    1    3    3    0  502  0.22096332221E+03 -0.96207270262E+02 -0.95972210756E+03  0.98951946179E+03  0.12699999809E+01 0.  1.
</event>
<event>
 5   0  0.2425845E-06  0.2901487E+04  0.7818609E-02  0.8272435E-01
       -2   -1    0    0    0  501  0.00000000000E+00  0.00000000000E+00  0.15140324235E+04  0.15140324235E+04  0.25500000920E-02 0.  1.
        2   -1    0    0  501    0  0.00000000000E+00  0.00000000000E+00 -0.13901005376E+04  0.13901005376E+04  0.25500000920E-02 0. -1.
    10030    2    1    2    0    0  0.00000000000E+00  0.00000000000E+00  0.12393188588E+03  0.29041329611E+04  0.29014874019E+04 0.  0.
        2    1    3    3  502    0 -0.12901025633E+02  0.13149574383E+04  0.67520539979E+03  0.14782360545E+04  0.25500000920E-02 0. -1.
       -2    1    3    3    0  502  0.12901025633E+02 -0.13149574383E+04 -0.55127351391E+03  0.14258969066E+04  0.25500000920E-02 0.  1.
</event>
<event>
 5   0  0.8355946E-07  0.2891155E+04  0.7818609E-02  0.8275514E-01
       -1   -1    0    0    0  501  0.00000000000E+00  0.00000000000E+00  0.94329465117E+03  0.94329465119E+03  0.50400001928E-02 0.  1.
        1   -1    0    0  501    0  0.00000000000E+00  0.00000000000E+00 -0.22153149609E+04  0.22153149609E+04  0.50400001928E-02 0. -1.
    10030    2    1    2    0    0  0.00000000000E+00  0.00000000000E+00 -0.12720203098E+04  0.31586096121E+04  0.28911553077E+04 0.  0.
        4    1    3    3  502    0  0.45098063610E+03 -0.71160604716E+03  0.64736166486E+03  0.10624713825E+04  0.12699999809E+01 0.  1.
       -4    1    3    3    0  502 -0.45098063610E+03  0.71160604716E+03 -0.19193819746E+04  0.20961382297E+04  0.12699999809E+01 0. -1.
</event>
<event>
 5   0  0.8357118E-07  0.2891584E+04  0.7818609E-02  0.8275386E-01
        1   -1    0    0  501    0  0.00000000000E+00  0.00000000000E+00  0.24837511313E+04  0.24837511313E+04  0.50400001928E-02 0. -1.
       -1   -1    0    0    0  501  0.00000000000E+00  0.00000000000E+00 -0.84159585299E+03  0.84159585300E+03  0.50400001928E-02 0.  1.
    10030    2    1    2    0    0  0.00000000000E+00  0.00000000000E+00  0.16421552783E+04  0.33253469843E+04  0.28915841001E+04 0.  0.
        1    1    3    3  502    0  0.21727534581E+03 -0.13941599542E+04  0.11836936457E+04  0.18417440649E+04  0.50400001928E-02 0. -1.
       -1    1    3    3    0  502 -0.21727534581E+03  0.13941599542E+04  0.45846163262E+03  0.14836029194E+04  0.50400001928E-02 0.  1.
</event>
<event>
 5   0  0.8483636E-07  0.2903298E+04  0.7818609E-02  0.8271897E-01
       -1   -1    0    0    0  501  0.00000000000E+00  0.00000000000E+00  0.13249848532E+04  0.13249848532E+04  0.50400001928E-02 0. -1.
        1   -1    0    0  501    0  0.00000000000E+00  0.00000000000E+00 -0.15904215683E+04  0.15904215683E+04  0.50400001928E-02 0.  1.
    10030    2    1    2    0    0  0.00000000000E+00  0.00000000000E+00 -0.26543671510E+03  0.29154064215E+04  0.29032977720E+04 0.  0.
        2    1    3    3  502    0  0.38385543027E+03 -0.11500770367E+03  0.12683472069E+04  0.13301414964E+04  0.25500000920E-02 0. -1.
       -2    1    3    3    0  502 -0.38385543027E+03  0.11500770367E+03 -0.15337839220E+04  0.15852649251E+04  0.25500000920E-02 0.  1.
</event>
<event>
 5   0  0.2425845E-06  0.2904938E+04  0.7818609E-02  0.8271410E-01
       -2   -1    0    0    0  501  0.00000000000E+00  0.00000000000E+00  0.12274137912E+04  0.12274137912E+04  0.25500000920E-02 0. -1.
        2   -1    0    0  501    0  0.00000000000E+00  0.00000000000E+00 -0.17187902623E+04  0.17187902623E+04  0.25500000920E-02 0.  1.
    10030    2    1    2    0    0  0.00000000000E+00  0.00000000000E+00 -0.49137647104E+03  0.29462040535E+04  0.29049384655E+04 0.  0.
        2    1    3    3  502    0 -0.57044688095E+03  0.11174228041E+04 -0.98794762307E+03  0.15968982037E+04  0.25500000920E-02 0.  1.
       -2    1    3    3    0  502  0.57044688095E+03 -0.11174228041E+04  0.49657115202E+03  0.13493058498E+04  0.25500000920E-02 0. -1.
</event>
<event>
 5   0  0.2304435E-06  0.2895998E+04  0.7818609E-02  0.8274069E-01
       -2   -1    0    0    0  501  0.00000000000E+00  0.00000000000E+00  0.12878278286E+04  0.12878278286E+04  0.25500000920E-02 0.  1.
        2   -1    0    0  501    0  0.00000000000E+00  0.00000000000E+00 -0.16280916456E+04  0.16280916456E+04  0.25500000920E-02 0. -1.
    10030    2    1    2    0    0  0.00000000000E+00  0.00000000000E+00 -0.34026381700E+03  0.29159194742E+04  0.28959984314E+04 0.  0.
        1    1    3    3  502    0  0.35621291739E+03 -0.20979399662E+03  0.12271462131E+04  0.12949088740E+04  0.50400001928E-02 0.  1.
       -1    1    3    3    0  502 -0.35621291739E+03  0.20979399662E+03 -0.15674100301E+04  0.16210106002E+04  0.50400001928E-02 0. -1.
</event>
<event>
 5   0  0.8483636E-07  0.2904675E+04  0.7818609E-02  0.8271488E-01
        1   -1    0    0  501    0  0.00000000000E+00  0.00000000000E+00  0.11345727093E+04  0.11345727093E+04  0.50400001928E-02 0.  1.
       -1   -1    0    0    0  501  0.00000000000E+00  0.00000000000E+00 -0.18591006763E+04  0.18591006763E+04  0.50400001928E-02 0. -1.
    10030    2    1    2    0    0  0.00000000000E+00  0.00000000000E+00 -0.72452796706E+03  0.29936733856E+04  0.29046754663E+04 0.  0.
        2    1    3    3  502    0  0.41875842097E+03  0.13905270666E+04 -0.38183943410E+03  0.15015743377E+04  0.25500000920E-02 0.  1.
       -2    1    3    3    0  502 -0.41875842097E+03 -0.13905270666E+04 -0.34268853296E+03  0.14920990479E+04  0.25500000920E-02 0. -1.
</event>
<event>
 5   0  0.2304435E-06  0.2911460E+04  0.7818609E-02  0.8269476E-01
       -2   -1    0    0    0  501  0.00000000000E+00  0.00000000000E+00  0.10548462567E+04  0.10548462567E+04  0.25500000920E-02 0.  1.
        2   -1    0    0  501    0  0.00000000000E+00  0.00000000000E+00 -0.20089652285E+04  0.20089652285E+04  0.25500000920E-02 0. -1.
    10030    2    1    2    0    0  0.00000000000E+00  0.00000000000E+00 -0.95411897189E+03  0.30638114852E+04  0.29114597377E+04 0.  0.
        1    1    3    3  502    0  0.93996876601E+03  0.33677237178E+03  0.63770965938E+03  0.11847491385E+04  0.50400001928E-02 0.  1.
       -1    1    3    3    0  502 -0.93996876601E+03 -0.33677237178E+03 -0.15918286313E+04  0.18790623467E+04  0.50400001928E-02 0. -1.
</event>
<event>
 5   0  0.8357118E-07  0.2891145E+04  0.7818609E-02  0.8275517E-01
        1   -1    0    0  501    0  0.00000000000E+00  0.00000000000E+00  0.13044348049E+04  0.13044348049E+04  0.50400001928E-02 0.  1.
       -1   -1    0    0    0  501  0.00000000000E+00  0.00000000000E+00 -0.16019807696E+04  0.16019807696E+04  0.50400001928E-02 0. -1.
    10030    2    1    2    0    0  0.00000000000E+00  0.00000000000E+00 -0.29754596470E+03  0.29064155745E+04  0.28911447370E+04 0.  0.
        1    1    3    3  502    0 -0.60447551529E+03  0.27969682793E+03  0.11409917940E+04  0.13211673771E+04  0.50400001928E-02 0.  1.
       -1    1    3    3    0  502  0.60447551529E+03 -0.27969682793E+03 -0.14385377587E+04  0.15852481974E+04  0.50400001928E-02 0. -1.
</event>
<event>
 5   0  0.2325590E-06  0.2912675E+04  0.7818609E-02  0.8269116E-01
        2   -1    0    0  501    0  0.00000000000E+00  0.00000000000E+00  0.16000555481E+04  0.16000555481E+04  0.25500000920E-02 0. -1.
       -2   -1    0    0    0  501  0.00000000000E+00  0.00000000000E+00 -0.13255280181E+04  0.13255280181E+04  0.25500000920E-02 0.  1.
    10030    2    1    2    0    0  0.00000000000E+00  0.00000000000E+00  0.27452753005E+03  0.29255835662E+04  0.29126746880E+04 0.  0.
        5    1    3    3  502    0  0.91749369604E+02  0.80944503933E+03 -0.10752637538E+04  0.13490120269E+04  0.46999998093E+01 0.  1.
       -5    1    3    3    0  502 -0.91749369604E+02 -0.80944503933E+03  0.13497912838E+04  0.15765715393E+04  0.46999998093E+01 0. -1.
</event>
<event>
 5   0  0.2360103E-06  0.2900890E+04  0.7818609E-02  0.8272613E-01
        2   -1    0    0  501    0  0.00000000000E+00  0.00000000000E+00  0.18058310791E+04  0.18058310791E+04  0.25500000920E-02 0. -1.
       -2   -1    0    0    0  501  0.00000000000E+00  0.00000000000E+00 -0.11649987776E+04  0.11649987776E+04  0.25500000920E-02 0.  1.
    10030    2    1    2    0    0  0.00000000000E+00  0.00000000000E+00  0.64083230156E+03  0.29708298567E+04  0.29008902080E+04 0.  0.
        4    1    3    3  502    0 -0.11665773360E+04 -0.33856006199E+03  0.11321571895E+04  0.16605141105E+04  0.12699999809E+01 0.  1.
       -4    1    3    3    0  502  0.11665773360E+04  0.33856006199E+03 -0.49132488791E+03  0.13103157462E+04  0.12699999809E+01 0. -1.
</event>
<event>
 5   0  0.2360103E-06  0.2899174E+04  0.7818609E-02  0.8273123E-01
        2   -1    0    0  501    0  0.00000000000E+00  0.00000000000E+00  0.18497095285E+04  0.18497095285E+04  0.25500000920E-02 0. -1.
       -2   -1    0    0    0  501  0.00000000000E+00  0.00000000000E+00 -0.11360173251E+04  0.11360173252E+04  0.25500000920E-02 0.  1.
    10030    2    1    2    0    0  0.00000000000E+00  0.00000000000E+00  0.71369220333E+03  0.29857268536E+04  0.28991737243E+04 0.  0.
        4    1    3    3  502    0  0.13515736883E+04  0.43113148395E+03  0.50173048790E+02  0.14195579379E+04  0.12699999809E+01 0.  1.
       -4    1    3    3    0  502 -0.13515736883E+04 -0.43113148395E+03  0.66351915454E+03  0.15661689157E+04  0.12699999809E+01 0. -1.
</event>
<event>
 5   0  0.8483636E-07  0.2900934E+04  0.7818609E-02  0.8272600E-01
       -1   -1    0    0    0  501  0.00000000000E+00  0.00000000000E+00  0.15243656935E+04  0.15243656935E+04  0.50400001928E-02 0. -1.
        1   -1    0    0  501    0  0.00000000000E+00  0.00000000000E+00 -0.13801509984E+04  0.13801509984E+04  0.50400001928E-02 0.  1.
    10030    2    1    2    0    0  0.00000000000E+00  0.00000000000E+00  0.14421469513E+03  0.29045166918E+04  0.29009342176E+04 0.  0.
        2    1    3    3  502    0  0.89963762578E+03 -0.10980766135E+04 -0.22614426778E+03  0.14374495945E+04  0.25500000920E-02 0. -1.
       -2    1    3    3    0  502 -0.89963762578E+03  0.10980766135E+04  0.37035896291E+03  0.14670670974E+04  0.25500000920E-02 0.  1.
</event>
<event>
 5   0  0.8947674E-07  0.2894950E+04  0.7818609E-02  0.8274382E-01
        1   -1    0    0  501    0  0.00000000000E+00  0.00000000000E+00  0.26198867250E+04  0.26198867250E+04  0.50400001928E-02 0. -1.
       -1   -1    0    0    0  501  0.00000000000E+00  0.00000000000E+00 -0.79972286697E+03  0.79972286698E+03  0.50400001928E-02 0.  1.
    10030    2    1    2    0    0  0.00000000000E+00  0.00000000000E+00  0.18201638581E+04  0.34196095920E+04  0.28949496182E+04 0.  0.
        3    1    3    3  502    0 -0.10525840983E+04  0.10177590444E+03  0.20775868646E+04  0.23312354683E+04  0.10100000352E+00 0. -1.
       -3    1    3    3    0  502  0.10525840983E+04 -0.10177590444E+03 -0.25742300650E+03  0.10883741237E+04  0.10100000352E+00 0.  1.
</event>
<event>
 5   0  0.8263673E-07  0.2913070E+04  0.7818609E-02  0.8268999E-01
        1   -1    0    0  501    0  0.00000000000E+00  0.00000000000E+00  0.20511624022E+04  0.20511624022E+04  0.50400001928E-02 0. -1.
       -1   -1    0    0    0  501  0.00000000000E+00  0.00000000000E+00 -0.10342887539E+04  0.10342887539E+04  0.50400001928E-02 0.  1.
    10030    2    1    2    0    0  0.00000000000E+00  0.00000000000E+00  0.10168736483E+04  0.30854511561E+04  0.29130699991E+04 0.  0.
        5    1    3    3  502    0 -0.93505084163E+03 -0.17817389049E+03  0.16761292457E+04  0.19275625412E+04  0.46999998093E+01 0. -1.
       -5    1    3    3    0  502  0.93505084163E+03  0.17817389049E+03 -0.65925559748E+03  0.11578886149E+04  0.46999998093E+01 0.  1.
</event>
<event>
 5   0  0.2360103E-06  0.2899674E+04  0.7818609E-02  0.8272974E-01
        2   -1    0    0  501    0  0.00000000000E+00  0.00000000000E+00  0.13160039984E+04  0.13160039984E+04  0.25500000920E-02 0. -1.
       -2   -1    0    0    0  501  0.00000000000E+00  0.00000000000E+00 -0.15972805461E+04  0.15972805461E+04  0.25500000920E-02 0.  1.
    10030    2    1    2    0    0  0.00000000000E+00  0.00000000000E+00 -0.28127654770E+03  0.29132845445E+04  0.28996741784E+04 0.  0.
        4    1    3    3  502    0 -0.91000639713E+03 -0.23566149232E+03 -0.12496208587E+04  0.15637141316E+04  0.12699999809E+01 0.  1.
       -4    1    3    3    0  502  0.91000639713E+03  0.23566149232E+03  0.96834431103E+03  0.13495704129E+04  0.12699999809E+01 0. -1.
</event>
<event>
 5   0  0.2325590E-06  0.2896336E+04  0.7818609E-02  0.8273968E-01
       -2   -1    0    0    0  501  0.00000000000E+00  0.00000000000E+00  0.10784912855E+04  0.10784912855E+04  0.25500000920E-02 0.  1.
        2   -1    0    0  501    0  0.00000000000E+00  0.00000000000E+00 -0.19445598752E+04  0.19445598752E+04  0.25500000920E-02 0. -1.
    10030    2    1    2    0    0  0.00000000000E+00  0.00000000000E+00 -0.86606858966E+03  0.30230511607E+04  0.28963362233E+04 0.  0.
        5    1    3    3  502    0  0.42701812773E+03 -0.53955754976E+03  0.89695969520E+03  0.11304979503E+04  0.46999998093E+01 0.  1.
       -5    1    3    3    0  502 -0.42701812773E+03  0.53955754976E+03 -0.17630282849E+04  0.18925532104E+04  0.46999998093E+01 0. -1.
</event>
<event>
 5   0  0.2304435E-06  0.2892111E+04  0.7818609E-02  0.8275229E-01
        2   -1    0    0  501    0  0.00000000000E+00  0.00000000000E+00  0.21428733055E+04  0.21428733055E+04  0.25500000920E-02 0.  1.
       -2   -1    0    0    0  501  0.00000000000E+00  0.00000000000E+00 -0.97582823282E+03  0.97582823283E+03  0.25500000920E-02 0. -1.
    10030    2    1    2    0    0  0.00000000000E+00  0.00000000000E+00  0.11670450727E+04  0.31187015383E+04  0.28921108353E+04 0.  0.
        1    1    3    3  502    0  0.13832125713E+04 -0.41601075512E+03  0.65771964765E+03  0.15871159696E+04  0.50400001928E-02 0.  1.
       -1    1    3    3    0  502 -0.13832125713E+04  0.41601075512E+03  0.50932542503E+03  0.15315855688E+04  0.50400001928E-02 0. -1.
</event>
<event>
 5   0  0.2304435E-06  0.2927014E+04  0.7818609E-02  0.8264885E-01
        2   -1    0    0  501    0  0.00000000000E+00  0.00000000000E+00  0.20013280411E+04  0.20013280411E+04  0.25500000920E-02 0. -1.
       -2   -1    0    0    0  501  0.00000000000E+00  0.00000000000E+00 -0.10702159537E+04  0.10702159537E+04  0.25500000920E-02 0.  1.
    10030    2    1    2    0    0  0.00000000000E+00  0.00000000000E+00  0.93111208739E+03  0.30715439949E+04  0.29270143138E+04 0.  0.
        1    1    3    3  502    0  0.11701314110E+04 -0.58792737031E+03 -0.22015203213E+03  0.13279055046E+04  0.50400001928E-02 0.  1.
       -1    1    3    3    0  502 -0.11701314110E+04  0.58792737031E+03  0.11512641195E+04  0.17436384903E+04  0.50400001928E-02 0. -1.
</event>
<event>
 5   0  0.7621125E-07  0.2907405E+04  0.7818609E-02  0.8270678E-01
        3   -1    0    0  501    0  0.00000000000E+00  0.00000000000E+00  0.94715650763E+03  0.94715651301E+03  0.10100000352E+00 0. -1.
       -3   -1    0    0    0  501  0.00000000000E+00  0.00000000000E+00 -0.22311533312E+04  0.22311533334E+04  0.10100000352E+00 0.  1.
    10030    2    1    2    0    0  0.00000000000E+00  0.00000000000E+00 -0.12839968235E+04  0.31783098465E+04  0.29074053101E+04 0.  0.
        4    1    3    3  502    0 -0.99973799235E+03  0.18161212248E+03  0.49448073071E+03  0.11300317793E+04  0.12699999809E+01 0. -1.
       -4    1    3    3    0  502  0.99973799235E+03 -0.18161212248E+03 -0.17784775542E+04  0.20482780671E+04  0.12699999809E+01 0.  1.
</event>
<event>
 5   0  0.7621125E-07  0.2907672E+04  0.7818609E-02  0.8270598E-01
        3   -1    0    0  501    0  0.00000000000E+00  0.00000000000E+00  0.13240653976E+04  0.13240654014E+04  0.10100000352E+00 0. -1.
       -3   -1    0    0    0  501  0.00000000000E+00  0.00000000000E+00 -0.15963255316E+04  0.15963255348E+04  0.10100000352E+00 0.  1.
    10030    2    1    2    0    0  0.00000000000E+00  0.00000000000E+00 -0.27226013403E+03  0.29203909363E+04  0.29076722030E+04 0.  0.
        1    1    3    3  502    0  0.79597069851E+03  0.93759562135E+03 -0.91475299058E+03  0.15327843736E+04  0.50400001928E-02 0.  1.
       -1    1    3    3    0  502 -0.79597069851E+03 -0.93759562135E+03  0.64249285655E+03  0.13876065627E+04  0.50400001928E-02 0. -1.
</event>
<event>
 5   0  0.2360103E-06  0.2913035E+04  0.7818609E-02  0.8269010E-01
        2   -1    0    0  501    0  0.00000000000E+00  0.00000000000E+00  0.31366549440E+04  0.31366549440E+04  0.25500000920E-02 0.  1.
       -2   -1    0    0    0  501  0.00000000000E+00  0.00000000000E+00 -0.67633953574E+03  0.67633953574E+03  0.25500000920E-02 0. -1.
    10030    2    1    2    0    0  0.00000000000E+00  0.00000000000E+00  0.24603154082E+04  0.38129944797E+04  0.29130353575E+04 0.  0.
        4    1    3    3  502    0  0.38620182491E+03 -0.31277486386E+03  0.30222433473E+04  0.30628314397E+04  0.12699999809E+01 0.  1.
       -4    1    3    3    0  502 -0.38620182491E+03  0.31277486386E+03 -0.56192793903E+03  0.75016304001E+03  0.12699999809E+01 0. -1.
</event>
<event>
 5   0  0.8355946E-07  0.2886768E+04  0.7818609E-02  0.8276825E-01
        1   -1    0    0  501    0  0.00000000000E+00  0.00000000000E+00  0.10393796343E+04  0.10393796343E+04  0.50400001928E-02 0. -1.
       -1   -1    0    0    0  501  0.00000000000E+00  0.00000000000E+00 -0.20044240457E+04  0.20044240457E+04  0.50400001928E-02 0.  1.
    10030    2    1    2    0    0  0.00000000000E+00  0.00000000000E+00 -0.96504441137E+03  0.30438036800E+04  0.28867681110E+04 0.  0.
        4    1    3    3  502    0 -0.90682189233E+03 -0.33429817204E+03 -0.16128818992E+04  0.18802847779E+04  0.12699999809E+01 0.  1.
       -4    1    3    3    0  502  0.90682189233E+03  0.33429817204E+03  0.64783748780E+03  0.11635189022E+04  0.12699999809E+01 0. -1.
</event>
<event>
 5   0  0.2360103E-06  0.2899732E+04  0.7818609E-02  0.8272957E-01
        2   -1    0    0  501    0  0.00000000000E+00  0.00000000000E+00  0.14563981817E+04  0.14563981817E+04  0.25500000920E-02 0.  1.
       -2   -1    0    0    0  501  0.00000000000E+00  0.00000000000E+00 -0.14433635405E+04  0.14433635405E+04  0.25500000920E-02 0. -1.
    10030    2    1    2    0    0  0.00000000000E+00  0.00000000000E+00  0.13034641264E+02  0.28997617222E+04  0.28997324262E+04 0.  0.
        4    1    3    3  502    0  0.10011947839E+04  0.97637264192E+03 -0.37612984092E+03  0.14481608341E+04  0.12699999809E+01 0. -1.
       -4    1    3    3    0  502 -0.10011947839E+04 -0.97637264192E+03  0.38916448219E+03  0.14516008881E+04  0.12699999809E+01 0.  1.
</event>
<event>
 5   0  0.8947674E-07  0.2894125E+04  0.7818609E-02  0.8274628E-01
       -1   -1    0    0    0  501  0.00000000000E+00  0.00000000000E+00  0.12920634845E+04  0.12920634845E+04  0.50400001928E-02 0. -1.
        1   -1    0    0  501    0  0.00000000000E+00  0.00000000000E+00 -0.16206552513E+04  0.16206552513E+04  0.50400001928E-02 0.  1.
    10030    2    1    2    0    0  0.00000000000E+00  0.00000000000E+00 -0.32859176678E+03  0.29127187358E+04  0.28941247183E+04 0.  0.
        3    1    3    3  502    0 -0.33053497711E+03 -0.99335857827E+03 -0.11697010202E+04  0.15697818711E+04  0.10100000352E+00 0.  1.
       -3    1    3    3    0  502  0.33053497711E+03  0.99335857827E+03  0.84110925342E+03  0.13429368647E+04  0.10100000352E+00 0. -1.
</event>
<event>
 5   0  0.8355946E-07  0.2905738E+04  0.7818609E-02  0.8271172E-01
        1   -1    0    0  501    0  0.00000000000E+00  0.00000000000E+00  0.13947470699E+04  0.13947470699E+04  0.50400001928E-02 0. -1.
       -1   -1    0    0    0  501  0.00000000000E+00  0.00000000000E+00 -0.15134133751E+04  0.15134133751E+04  0.50400001928E-02 0.  1.
    10030    2    1    2    0    0  0.00000000000E+00  0.00000000000E+00 -0.11866630520E+03  0.29081604451E+04  0.29057383713E+04 0.  0.
        4    1    3    3  502    0 -0.38448010585E+03 -0.12096101352E+04 -0.76692008377E+03  0.14829530197E+04  0.12699999809E+01 0.  1.
       -4    1    3    3    0  502  0.38448010585E+03  0.12096101352E+04  0.64825377857E+03  0.14252074254E+04  0.12699999809E+01 0. -1.
</event>
<event>
 5   0  0.8483636E-07  0.2903658E+04  0.7818609E-02  0.8271790E-01
       -1   -1    0    0    0  501  0.00000000000E+00  0.00000000000E+00  0.28390839783E+04  0.28390839783E+04  0.50400001928E-02 0.  1.
        1   -1    0    0  501    0  0.00000000000E+00  0.00000000000E+00 -0.74242507192E+03  0.74242507194E+03  0.50400001928E-02 0. -1.
    10030    2    1    2    0    0  0.00000000000E+00  0.00000000000E+00  0.20966589064E+04  0.35815090502E+04  0.29036577807E+04 0.  0.
        2    1    3    3  502    0 -0.43768248699E+03 -0.61903074451E+02  0.27540623779E+04  0.27893113006E+04  0.25500000920E-02 0.  1.
       -2    1    3    3    0  502  0.43768248699E+03  0.61903074451E+02 -0.65740347158E+03  0.79219774962E+03  0.25500000920E-02 0. -1.
</event>
<event>
 5   0  0.2304435E-06  0.2902298E+04  0.7818609E-02  0.8272194E-01
        2   -1    0    0  501    0  0.00000000000E+00  0.00000000000E+00  0.17301994815E+04  0.17301994815E+04  0.25500000920E-02 0. -1.
       -2   -1    0    0    0  501  0.00000000000E+00  0.00000000000E+00 -0.12171046131E+04  0.12171046131E+04  0.25500000920E-02 0.  1.
    10030    2    1    2    0    0  0.00000000000E+00  0.00000000000E+00  0.51309486843E+03  0.29473040946E+04  0.29022982414E+04 0.  0.
        1    1    3    3  502    0 -0.17028856191E+03 -0.14404092872E+04  0.30260111179E+03  0.14816695117E+04  0.50400001928E-02 0.  1.
       -1    1    3    3    0  502  0.17028856191E+03  0.14404092872E+04  0.21049375664E+03  0.14656345829E+04  0.50400001928E-02 0. -1.
</event>
<event>
 5   0  0.8947674E-07  0.2900146E+04  0.7818609E-02  0.8272834E-01
        1   -1    0    0  501    0  0.00000000000E+00  0.00000000000E+00  0.17189475742E+04  0.17189475742E+04  0.50400001928E-02 0. -1.
       -1   -1    0    0    0  501  0.00000000000E+00  0.00000000000E+00 -0.12232548755E+04  0.12232548755E+04  0.50400001928E-02 0.  1.
    10030    2    1    2    0    0  0.00000000000E+00  0.00000000000E+00  0.49569269867E+03  0.29422024497E+04  0.29001455142E+04 0.  0.
        3    1    3    3  502    0 -0.13619823955E+04  0.45069391641E+03  0.33620831682E+02  0.14350092064E+04  0.10100000352E+00 0.  1.
       -3    1    3    3    0  502  0.13619823955E+04 -0.45069391641E+03  0.46207186699E+03  0.15071932432E+04  0.10100000352E+00 0. -1.
</event>
<event>
 5   0  0.2378690E-06  0.2902301E+04  0.7818609E-02  0.8272193E-01
       -2   -1    0    0    0  501  0.00000000000E+00  0.00000000000E+00  0.90105484329E+03  0.90105484329E+03  0.25500000920E-02 0. -1.
        2   -1    0    0  501    0  0.00000000000E+00  0.00000000000E+00 -0.23370803381E+04  0.23370803381E+04  0.25500000920E-02 0.  1.
    10030    2    1    2    0    0  0.00000000000E+00  0.00000000000E+00 -0.14360254948E+04  0.32381351814E+04  0.29023008513E+04 0.  0.
        3    1    3    3  502    0  0.14090390558E+04 -0.25239061255E+02 -0.11042001750E+04  0.17903312844E+04  0.10100000352E+00 0.  1.
       -3    1    3    3    0  502 -0.14090390558E+04  0.25239061255E+02 -0.33182531976E+03  0.14478038970E+04  0.10100000352E+00 0. -1.
</event>
<event>
 5   0  0.2425845E-06  0.2898796E+04  0.7818609E-02  0.8273236E-01
        2   -1    0    0  501    0  0.00000000000E+00  0.00000000000E+00  0.18837702561E+04  0.18837702561E+04  0.25500000920E-02 0. -1.
       -2   -1    0    0    0  501  0.00000000000E+00  0.00000000000E+00 -0.11151858889E+04  0.11151858889E+04  0.25500000920E-02 0.  1.
    10030    2    1    2    0    0  0.00000000000E+00  0.00000000000E+00  0.76858436713E+03  0.29989561450E+04  0.28987956172E+04 0.  0.
        2    1    3    3  502    0  0.46749981214E+03  0.39213937075E+03  0.17444138042E+04  0.18480554322E+04  0.25500000920E-02 0. -1.
       -2    1    3    3    0  502 -0.46749981214E+03 -0.39213937075E+03 -0.97582943703E+03  0.11509007128E+04  0.25500000920E-02 0.  1.
</event>
<event>
 5   0  0.2360103E-06  0.2918849E+04  0.7818609E-02  0.8267291E-01
       -2   -1    0    0    0  501  0.00000000000E+00  0.00000000000E+00  0.97800967385E+03  0.97800967385E+03  0.25500000920E-02 0.  1.
        2   -1    0    0  501    0  0.00000000000E+00  0.00000000000E+00 -0.21778111513E+04  0.21778111513E+04  0.25500000920E-02 0. -1.
    10030    2    1    2    0    0  0.00000000000E+00  0.00000000000E+00 -0.11998014775E+04  0.31558208252E+04  0.29188493444E+04 0.  0.
        4    1    3    3  502    0  0.11568608139E+04  0.22385219002E+03 -0.15309034998E+04  0.19318653898E+04  0.12699999809E+01 0. -1.
       -4    1    3    3    0  502 -0.11568608139E+04 -0.22385219002E+03  0.33110202229E+03  0.12239554354E+04  0.12699999809E+01 0.  1.
</event>
<event>
 5   0  0.8355946E-07  0.2914150E+04  0.7818609E-02  0.8268680E-01
       -1   -1    0    0    0  501  0.00000000000E+00  0.00000000000E+00  0.13170641371E+04  0.13170641371E+04  0.50400001928E-02 0.  1.
        1   -1    0    0  501    0  0.00000000000E+00  0.00000000000E+00 -0.16119696406E+04  0.16119696406E+04  0.50400001928E-02 0. -1.
    10030    2    1    2    0    0  0.00000000000E+00  0.00000000000E+00 -0.29490550349E+03  0.29290337776E+04  0.29141498957E+04 0.  0.
        4    1    3    3  502    0  0.76063267284E+03 -0.10555526653E+03  0.10971616294E+04  0.13392047011E+04  0.12699999809E+01 0.  1.
       -4    1    3    3    0  502 -0.76063267284E+03  0.10555526653E+03 -0.13920671329E+04  0.15898290766E+04  0.12699999809E+01 0. -1.
</event>
<event>
 5   0  0.8357118E-07  0.2908857E+04  0.7818609E-02  0.8270247E-01
       -1   -1    0    0    0  501  0.00000000000E+00  0.00000000000E+00  0.88634907602E+03  0.88634907603E+03  0.50400001928E-02 0. -1.
        1   -1    0    0  501    0  0.00000000000E+00  0.00000000000E+00 -0.23866016764E+04  0.23866016764E+04  0.50400001928E-02 0.  1.
    10030    2    1    2    0    0  0.00000000000E+00  0.00000000000E+00 -0.15002526003E+04  0.32729507524E+04  0.29088569512E+04 0.  0.
        1    1    3    3  502    0  0.36644934113E+03  0.13970470720E+04 -0.94284400855E+03  0.17248131683E+04  0.50400001928E-02 0. -1.
       -1    1    3    3    0  502 -0.36644934113E+03 -0.13970470720E+04 -0.55740859179E+03  0.15481375841E+04  0.50400001928E-02 0.  1.
</event>
<event>
 5   0  0.2360103E-06  0.2891990E+04  0.7818609E-02  0.8275265E-01
        2   -1    0    0  501    0  0.00000000000E+00  0.00000000000E+00  0.11222593250E+04  0.11222593250E+04  0.25500000920E-02 0.  1.
       -2   -1    0    0    0  501  0.00000000000E+00  0.00000000000E+00 -0.18631186189E+04  0.18631186189E+04  0.25500000920E-02 0. -1.
    10030    2    1    2    0    0  0.00000000000E+00  0.00000000000E+00 -0.74085929387E+03  0.29853779439E+04  0.28919904866E+04 0.  0.
        4    1    3    3  502    0  0.20010808334E+03  0.59999631128E+03  0.97189176485E+03  0.11595749368E+04  0.12699999809E+01 0.  1.
       -4    1    3    3    0  502 -0.20010808334E+03 -0.59999631128E+03 -0.17127510587E+04  0.18258030071E+04  0.12699999809E+01 0. -1.
</event>
<event>
 5   0  0.2325590E-06  0.2901741E+04  0.7818609E-02  0.8272360E-01
        2   -1    0    0  501    0  0.00000000000E+00  0.00000000000E+00  0.12060370201E+04  0.12060370201E+04  0.25500000920E-02 0. -1.
       -2   -1    0    0    0  501  0.00000000000E+00  0.00000000000E+00 -0.17454068311E+04  0.17454068311E+04  0.25500000920E-02 0.  1.
    10030    2    1    2    0    0  0.00000000000E+00  0.00000000000E+00 -0.53936981100E+03  0.29514438512E+04  0.29017410315E+04 0.  0.
        5    1    3    3  502    0 -0.10937181709E+04 -0.76553766222E+02 -0.12361836452E+04  0.16523474245E+04  0.46999998093E+01 0.  1.
       -5    1    3    3    0  502  0.10937181709E+04  0.76553766222E+02  0.69681383424E+03  0.12990964267E+04  0.46999998093E+01 0. -1.
</event>
<event>
 5   0  0.8483636E-07  0.2904642E+04  0.7818609E-02  0.8271498E-01
       -1   -1    0    0    0  501  0.00000000000E+00  0.00000000000E+00  0.21147105551E+04  0.21147105551E+04  0.50400001928E-02 0.  1.
        1   -1    0    0  501    0  0.00000000000E+00  0.00000000000E+00 -0.99741100305E+03  0.99741100306E+03  0.50400001928E-02 0. -1.
    10030    2    1    2    0    0  0.00000000000E+00  0.00000000000E+00  0.11172995521E+04  0.31121215582E+04  0.29046415104E+04 0.  0.
        2    1    3    3  502    0 -0.56441669477E+03  0.31799165271E+03  0.19513242773E+04  0.20560523660E+04  0.25500000920E-02 0.  1.
       -2    1    3    3    0  502  0.56441669477E+03 -0.31799165271E+03 -0.83402472519E+03  0.10560691922E+04  0.25500000920E-02 0. -1.
</event>
<event>
 5   0  0.8947674E-07  0.2881698E+04  0.7818609E-02  0.8278344E-01
        1   -1    0    0  501    0  0.00000000000E+00  0.00000000000E+00  0.20326757137E+04  0.20326757137E+04  0.50400001928E-02 0.  1.
       -1   -1    0    0    0  501  0.00000000000E+00  0.00000000000E+00 -0.10213367293E+04  0.10213367293E+04  0.50400001928E-02 0. -1.
    10030    2    1    2    0    0  0.00000000000E+00  0.00000000000E+00  0.10113389845E+04  0.30540124430E+04  0.28816983639E+04 0.  0.
        3    1    3    3  502    0 -0.30884959202E+03 -0.13701822381E+04  0.16511542708E+03  0.14142314346E+04  0.10100000352E+00 0. -1.
       -3    1    3    3    0  502  0.30884959202E+03  0.13701822381E+04  0.84622355738E+03  0.16397810084E+04  0.10100000352E+00 0.  1.
</event>
<event>
 5   0  0.2425845E-06  0.2902258E+04  0.7818609E-02  0.8272206E-01
       -2   -1    0    0    0  501  0.00000000000E+00  0.00000000000E+00  0.14539822411E+04  0.14539822411E+04  0.25500000920E-02 0.  1.
        2   -1    0    0  501    0  0.00000000000E+00  0.00000000000E+00 -0.14482816419E+04  0.14482816419E+04  0.25500000920E-02 0. -1.
    10030    2    1    2    0    0  0.00000000000E+00  0.00000000000E+00  0.57005992167E+01  0.29022638830E+04  0.29022582844E+04 0.  0.
        2    1    3    3  502    0  0.55123392681E+03  0.13177349506E+04 -0.25306335366E+03  0.14506292783E+04  0.25500000920E-02 0.  1.
       -2    1    3    3    0  502 -0.55123392681E+03 -0.13177349506E+04  0.25876395288E+03  0.14516346047E+04  0.25500000920E-02 0. -1.
</event>
<event>
 5   0  0.2360103E-06  0.2882375E+04  0.7818609E-02  0.8278141E-01
        2   -1    0    0  501    0  0.00000000000E+00  0.00000000000E+00  0.27162958320E+04  0.27162958320E+04  0.25500000920E-02 0.  1.
       -2   -1    0    0    0  501  0.00000000000E+00  0.00000000000E+00 -0.76465213644E+03  0.76465213645E+03  0.25500000920E-02 0. -1.
    10030    2    1    2    0    0  0.00000000000E+00  0.00000000000E+00  0.19516436955E+04  0.34809479684E+04  0.28823750007E+04 0.  0.
        4    1    3    3  502    0  0.10528102956E+04 -0.23859925532E+03 -0.17728200667E+03  0.10939696732E+04  0.12699999809E+01 0. -1.
       -4    1    3    3    0  502 -0.10528102956E+04  0.23859925532E+03  0.21289257022E+04  0.23869782952E+04  0.12699999809E+01 0.  1.
</event>
<event>
 5   0  0.8357118E-07  0.2901924E+04  0.7818609E-02  0.8272305E-01
        1   -1    0    0  501    0  0.00000000000E+00  0.00000000000E+00  0.77527362568E+03  0.77527362570E+03  0.50400001928E-02 0.  1.
       -1   -1    0    0    0  501  0.00000000000E+00  0.00000000000E+00 -0.27155455645E+04  0.27155455645E+04  0.50400001928E-02 0. -1.
    10030    2    1    2    0    0  0.00000000000E+00  0.00000000000E+00 -0.19402719388E+04  0.34908191902E+04  0.29019240896E+04 0.  0.
        1    1    3    3  502    0  0.53547673294E+02 -0.23877171196E+03  0.75027285449E+03  0.78916958884E+03  0.50400001928E-02 0.  1.
       -1    1    3    3    0  502 -0.53547673294E+02  0.23877171196E+03 -0.26905447933E+04  0.27016496013E+04  0.50400001928E-02 0. -1.
</event>
<event>
 5   0  0.8357118E-07  0.2903872E+04  0.7818609E-02  0.8271726E-01
        1   -1    0    0  501    0  0.00000000000E+00  0.00000000000E+00  0.14562180693E+04  0.14562180693E+04  0.50400001928E-02 0.  1.
       -1   -1    0    0    0  501  0.00000000000E+00  0.00000000000E+00 -0.14476663448E+04  0.14476663448E+04  0.50400001928E-02 0. -1.
    10030    2    1    2    0    0  0.00000000000E+00  0.00000000000E+00  0.85517244440E+01  0.29038844141E+04  0.29038718220E+04 0.  0.
        1    1    3    3  502    0  0.86223335926E+03  0.38807141224E+03 -0.10975783169E+04  0.14486973281E+04  0.50400001928E-02 0. -1.
       -1    1    3    3    0  502 -0.86223335926E+03 -0.38807141224E+03  0.11061300413E+04  0.14551870860E+04  0.50400001928E-02 0.  1.
</event>
<event>
 5   0  0.2378690E-06  0.2898690E+04  0.7818609E-02  0.8273267E-01
       -2   -1    0    0    0  501  0.00000000000E+00  0.00000000000E+00  0.10465823586E+04  0.10465823586E+04  0.25500000920E-02 0.  1.
        2   -1    0    0  501    0  0.00000000000E+00  0.00000000000E+00 -0.20071055380E+04  0.20071055380E+04  0.25500000920E-02 0. -1.
    10030    2    1    2    0    0  0.00000000000E+00  0.00000000000E+00 -0.96052317938E+03  0.30536878966E+04  0.28986902200E+04 0.  0.
        3    1    3    3  502    0  0.51679610703E+03  0.70051039355E+03  0.74049713389E+03  0.11428600278E+04  0.10100000352E+00 0.  1.
       -3    1    3    3    0  502 -0.51679610703E+03 -0.70051039355E+03 -0.17010203133E+04  0.19108278688E+04  0.10100000352E+00 0. -1.
</event>
<event>
 5   0  0.8355946E-07  0.2917821E+04  0.7818609E-02  0.8267595E-01
        1   -1    0    0  501    0  0.00000000000E+00  0.00000000000E+00  0.10058380317E+04  0.10058380318E+04  0.50400001928E-02 0.  1.
       -1   -1    0    0    0  501  0.00000000000E+00  0.00000000000E+00 -0.21160663673E+04  0.21160663673E+04  0.50400001928E-02 0. -1.
    10030    2    1    2    0    0  0.00000000000E+00  0.00000000000E+00 -0.11102283356E+04  0.31219043991E+04  0.29178211254E+04 0.  0.
        4    1    3    3  502    0  0.73239450790E+03 -0.90234685103E+02 -0.19016605132E+04  0.20398182111E+04  0.12699999809E+01 0. -1.
       -4    1    3    3    0  502 -0.73239450790E+03  0.90234685103E+02  0.79143217767E+03  0.10820861880E+04  0.12699999809E+01 0.  1.
</event>
<event>
 5   0  0.8947674E-07  0.2905762E+04  0.7818609E-02  0.8271165E-01
       -1   -1    0    0    0  501  0.00000000000E+00  0.00000000000E+00  0.14520598008E+04  0.14520598008E+04  0.50400001928E-02 0.  1.
        1   -1    0    0  501    0  0.00000000000E+00  0.00000000000E+00 -0.14537022291E+04  0.14537022291E+04  0.50400001928E-02 0. -1.
    10030    2    1    2    0    0  0.00000000000E+00  0.00000000000E+00 -0.16424282838E+01  0.29057620299E+04  0.29057615657E+04 0.  0.
        3    1    3    3  502    0 -0.54899415661E+03 -0.12823994295E+04  0.40528188973E+03  0.14526514727E+04  0.10100000352E+00 0.  1.
       -3    1    3    3    0  502  0.54899415661E+03  0.12823994295E+04 -0.40692431802E+03  0.14531105572E+04  0.10100000352E+00 0. -1.
</event>
<event>
 5   0  0.8357118E-07  0.2907932E+04  0.7818609E-02  0.8270521E-01
       -1   -1    0    0    0  501  0.00000000000E+00  0.00000000000E+00  0.90222085101E+03  0.90222085102E+03  0.50400001928E-02 0.  1.
        1   -1    0    0  501    0  0.00000000000E+00  0.00000000000E+00 -0.23431260113E+04  0.23431260113E+04  0.50400001928E-02 0. -1.
    10030    2    1    2    0    0  0.00000000000E+00  0.00000000000E+00 -0.14409051603E+04  0.32453468624E+04  0.29079320102E+04 0.  0.
        1    1    3    3  502    0 -0.15505658776E+03  0.93410305358E+03 -0.19518498150E+04  0.21694028581E+04  0.50400001928E-02 0. -1.
       -1    1    3    3    0  502  0.15505658776E+03 -0.93410305358E+03  0.51094465473E+03  0.10759440043E+04  0.50400001928E-02 0.  1.
</event>
<event>
 5   0  0.8947674E-07  0.2896627E+04  0.7818609E-02  0.8273882E-01
        1   -1    0    0  501    0  0.00000000000E+00  0.00000000000E+00  0.13323522801E+04  0.13323522801E+04  0.50400001928E-02 0.  1.
       -1   -1    0    0    0  501  0.00000000000E+00  0.00000000000E+00 -0.15743674797E+04  0.15743674797E+04  0.50400001928E-02 0. -1.
    10030    2    1    2    0    0  0.00000000000E+00  0.00000000000E+00 -0.24201519953E+03  0.29067197598E+04  0.28966270739E+04 0.  0.
        3    1    3    3  502    0  0.10511627067E+04  0.99611890258E+03 -0.14147934754E+03  0.14550643697E+04  0.10100000352E+00 0. -1.
       -3    1    3    3    0  502 -0.10511627067E+04 -0.99611890258E+03 -0.10053585199E+03  0.14516553901E+04  0.10100000352E+00 0.  1.
</event>
<event>
 5   0  0.7621125E-07  0.2898940E+04  0.7818609E-02  0.8273193E-01
        4   -1    0    0  501    0  0.00000000000E+00  0.00000000000E+00  0.10300770431E+04  0.10300778260E+04  0.12699999809E+01 0. -1.
       -4   -1    0    0    0  501  0.00000000000E+00  0.00000000000E+00 -0.20396164615E+04  0.20396168569E+04  0.12699999809E+01 0.  1.
    10030    2    1    2    0    0  0.00000000000E+00  0.00000000000E+00 -0.10095394184E+04  0.30696946828E+04  0.28989404286E+04 0.  0.
        5    1    3    3  502    0  0.51283603470E+03 -0.31312054044E+03 -0.19015162463E+04  0.19941994374E+04  0.46999998093E+01 0.  1.
       -5    1    3    3    0  502 -0.51283603470E+03  0.31312054044E+03  0.89197682791E+03  0.10754952454E+04  0.46999998093E+01 0. -1.
</event>
<event>
 5   0  0.8355946E-07  0.2902511E+04  0.7818609E-02  0.8272131E-01
        1   -1    0    0  501    0  0.00000000000E+00  0.00000000000E+00  0.12783207956E+04  0.12783207956E+04  0.50400001928E-02 0. -1.
       -1   -1    0    0    0  501  0.00000000000E+00  0.00000000000E+00 -0.16475853790E+04  0.16475853790E+04  0.50400001928E-02 0.  1.
    10030    2    1    2    0    0  0.00000000000E+00  0.00000000000E+00 -0.36926458334E+03  0.29259061746E+04  0.29025110870E+04 0.  0.
        4    1    3    3  502    0  0.14645176053E+03  0.71111715346E+03  0.10820809314E+04  0.13030872876E+04  0.12699999809E+01 0. -1.
       -4    1    3    3    0  502 -0.14645176053E+03 -0.71111715346E+03 -0.14513455147E+04  0.16228188870E+04  0.12699999809E+01 0.  1.
</event>
<event>
 5   0  0.8357118E-07  0.2907157E+04  0.7818609E-02  0.8270751E-01
       -1   -1    0    0    0  501  0.00000000000E+00  0.00000000000E+00  0.15914927501E+04  0.15914927501E+04  0.50400001928E-02 0. -1.
        1   -1    0    0  501    0  0.00000000000E+00  0.00000000000E+00 -0.13276151830E+04  0.13276151830E+04  0.50400001928E-02 0.  1.
    10030    2    1    2    0    0  0.00000000000E+00  0.00000000000E+00  0.26387756704E+03  0.29191079331E+04  0.29071566443E+04 0.  0.
        1    1    3    3  502    0 -0.47971417350E+03  0.82252931613E+03  0.12347296022E+04  0.15592425580E+04  0.50400001928E-02 0. -1.
       -1    1    3    3    0  502  0.47971417350E+03 -0.82252931613E+03 -0.97085203516E+03  0.13598653751E+04  0.50400001928E-02 0.  1.
</event>
<event>
 5   0  0.8947674E-07  0.2872527E+04  0.7818609E-02  0.8281099E-01
        1   -1    0    0  501    0  0.00000000000E+00  0.00000000000E+00  0.21003259111E+04  0.21003259111E+04  0.50400001928E-02 0.  1.
       -1   -1    0    0    0  501  0.00000000000E+00  0.00000000000E+00 -0.98215849179E+03  0.98215849181E+03  0.50400001928E-02 0. -1.
    10030    2    1    2    0    0  0.00000000000E+00  0.00000000000E+00  0.11181674193E+04  0.30824844029E+04  0.28725270610E+04 0.  0.
        3    1    3    3  502    0  0.14009426590E+04 -0.83110735733E+02  0.88686915162E+03  0.16601459667E+04  0.10100000352E+00 0.  1.
       -3    1    3    3    0  502 -0.14009426590E+04  0.83110735733E+02  0.23129826765E+03  0.14223384362E+04  0.10100000352E+00 0. -1.
</event>
<event>
 5   0  0.2325590E-06  0.2890828E+04  0.7818609E-02  0.8275612E-01
        2   -1    0    0  501    0  0.00000000000E+00  0.00000000000E+00  0.18231795462E+04  0.18231795462E+04  0.25500000920E-02 0.  1.
       -2   -1    0    0    0  501  0.00000000000E+00  0.00000000000E+00 -0.11459219361E+04  0.11459219361E+04  0.25500000920E-02 0. -1.
    10030    2    1    2    0    0  0.00000000000E+00  0.00000000000E+00  0.67725761010E+03  0.29691014824E+04  0.28908278645E+04 0.  0.
        5    1    3    3  502    0  0.20029033482E+02 -0.14025764702E+04  0.69674939122E+03  0.15662387178E+04  0.46999998093E+01 0.  1.
       -5    1    3    3    0  502 -0.20029033482E+02  0.14025764702E+04 -0.19491781115E+02  0.14028627646E+04  0.46999998093E+01 0. -1.
</event>
<event>
 5   0  0.2360103E-06  0.2903676E+04  0.7818609E-02  0.8271784E-01
       -2   -1    0    0    0  501  0.00000000000E+00  0.00000000000E+00  0.17822117669E+04  0.17822117669E+04  0.25500000920E-02 0. -1.
        2   -1    0    0  501    0  0.00000000000E+00  0.00000000000E+00 -0.11827068856E+04  0.11827068856E+04  0.25500000920E-02 0.  1.
    10030    2    1    2    0    0  0.00000000000E+00  0.00000000000E+00  0.59950488133E+03  0.29649186525E+04  0.29036763789E+04 0.  0.
        4    1    3    3  502    0  0.18639179100E+02  0.50799938200E+03 -0.10888647840E+04  0.12016817057E+04  0.12699999809E+01 0.  1.
       -4    1    3    3    0  502 -0.18639179100E+02 -0.50799938200E+03  0.16883696653E+04  0.17632369469E+04  0.12699999809E+01 0. -1.
</event>
<event>
 5   0  0.8263673E-07  0.2905604E+04  0.7818609E-02  0.8271212E-01
       -1   -1    0    0    0  501  0.00000000000E+00  0.00000000000E+00  0.93094992085E+03  0.93094992086E+03  0.50400001928E-02 0. -1.
        1   -1    0    0  501    0  0.00000000000E+00  0.00000000000E+00 -0.22671826267E+04  0.22671826267E+04  0.50400001928E-02 0.  1.
    10030    2    1    2    0    0  0.00000000000E+00  0.00000000000E+00 -0.13362327059E+04  0.31981325476E+04  0.29056038869E+04 0.  0.
        5    1    3    3  502    0 -0.27102393155E+03 -0.12866630845E+04  0.11863167053E+02  0.13149595770E+04  0.46999998093E+01 0. -1.
       -5    1    3    3    0  502  0.27102393155E+03  0.12866630845E+04 -0.13480958729E+04  0.18831729706E+04  0.46999998093E+01 0.  1.
</event>
<event>
 5   0  0.2360103E-06  0.2896581E+04  0.7818609E-02  0.8273895E-01
        2   -1    0    0  501    0  0.00000000000E+00  0.00000000000E+00  0.18175131184E+04  0.18175131184E+04  0.25500000920E-02 0. -1.
       -2   -1    0    0    0  501  0.00000000000E+00  0.00000000000E+00 -0.11540747565E+04  0.11540747565E+04  0.25500000920E-02 0.  1.
    10030    2    1    2    0    0  0.00000000000E+00  0.00000000000E+00  0.66343836186E+03  0.29715878749E+04  0.28965814400E+04 0.  0.
        4    1    3    3  502    0 -0.97521597143E+03  0.10376322244E+04  0.60279152231E+03  0.15463136992E+04  0.12699999809E+01 0. -1.
       -4    1    3    3    0  502  0.97521597143E+03 -0.10376322244E+04  0.60646839558E+02  0.14252741757E+04  0.12699999809E+01 0.  1.
</event>
<event>
 5   0  0.8263673E-07  0.2890656E+04  0.7818609E-02  0.8275663E-01
        1   -1    0    0  501    0  0.00000000000E+00  0.00000000000E+00  0.12983518396E+04  0.12983518396E+04  0.50400001928E-02 0. -1.
       -1   -1    0    0    0  501  0.00000000000E+00  0.00000000000E+00 -0.16089425723E+04  0.16089425723E+04  0.50400001928E-02 0.  1.
    10030    2    1    2    0    0  0.00000000000E+00  0.00000000000E+00 -0.31059073275E+03  0.29072944119E+04  0.28906563604E+04 0.  0.
        5    1    3    3  502    0  0.12164986104E+04  0.77901644044E+03 -0.20264045872E+03  0.14587051550E+04  0.46999998093E+01 0.  1.
       -5    1    3    3    0  502 -0.12164986104E+04 -0.77901644044E+03 -0.10795027404E+03  0.14485892569E+04  0.46999998093E+01 0. -1.
</event>
<event>
 5   0  0.2425845E-06  0.2903017E+04  0.7818609E-02  0.8271980E-01
       -2   -1    0    0    0  501  0.00000000000E+00  0.00000000000E+00  0.10513427093E+04  0.10513427093E+04  0.25500000920E-02 0. -1.
        2   -1    0    0  501    0  0.00000000000E+00  0.00000000000E+00 -0.20039873800E+04  0.20039873800E+04  0.25500000920E-02 0.  1.
    10030    2    1    2    0    0  0.00000000000E+00  0.00000000000E+00 -0.95264467072E+03  0.30553300893E+04  0.29030174106E+04 0.  0.
        2    1    3    3  502    0 -0.14376779525E+03 -0.11476784176E+04 -0.13992840644E+04  0.18154423213E+04  0.25500000920E-02 0.  1.
       -2    1    3    3    0  502  0.14376779525E+03  0.11476784176E+04  0.44663939367E+03  0.12398877680E+04  0.25500000920E-02 0. -1.
</event>
<event>
 5   0  0.2304435E-06  0.2893610E+04  0.7818609E-02  0.8274781E-01
       -2   -1    0    0    0  501  0.00000000000E+00  0.00000000000E+00  0.10188646525E+04  0.10188646525E+04  0.25500000920E-02 0. -1.
        2   -1    0    0  501    0  0.00000000000E+00  0.00000000000E+00 -0.20544868103E+04  0.20544868103E+04  0.25500000920E-02 0.  1.
    10030    2    1    2    0    0  0.00000000000E+00  0.00000000000E+00 -0.10356221579E+04  0.30733514628E+04  0.28936095037E+04 0.  0.
        1    1    3    3  502    0 -0.21023707616E+03 -0.10603883627E+04  0.50349085624E+03  0.11925293080E+04  0.50400001928E-02 0. -1.
       -1    1    3    3    0  502  0.21023707616E+03  0.10603883627E+04 -0.15391130141E+04  0.18808221549E+04  0.50400001928E-02 0.  1.
</event>
<event>
 5   0  0.8355946E-07  0.2881857E+04  0.7818609E-02  0.8278296E-01
        1   -1    0    0  501    0  0.00000000000E+00  0.00000000000E+00  0.16691837007E+04  0.16691837007E+04  0.50400001928E-02 0. -1.
       -1   -1    0    0    0  501  0.00000000000E+00  0.00000000000E+00 -0.12438861972E+04  0.12438861972E+04  0.50400001928E-02 0.  1.
    10030    2    1    2    0    0  0.00000000000E+00  0.00000000000E+00  0.42529750351E+03  0.29130698979E+04  0.28818567389E+04 0.  0.
        4    1    3    3  502    0  0.57702784623E+03 -0.48625193828E+03  0.14534908989E+04  0.16376933440E+04  0.12699999809E+01 0. -1.
       -4    1    3    3    0  502 -0.57702784623E+03  0.48625193828E+03 -0.10281933954E+04  0.12753765539E+04  0.12699999809E+01 0.  1.
</event>
<event>
 5   0  0.2304435E-06  0.2932342E+04  0.7818609E-02  0.8263319E-01
        2   -1    0    0  501    0  0.00000000000E+00  0.00000000000E+00  0.27212917107E+04  0.27212917107E+04  0.25500000920E-02 0.  1.
       -2   -1    0    0    0  501  0.00000000000E+00  0.00000000000E+00 -0.78994027477E+03  0.78994027477E+03  0.25500000920E-02 0. -1.
    10030    2    1    2    0    0  0.00000000000E+00  0.00000000000E+00  0.19313514359E+04  0.35112319855E+04  0.29323423550E+04 0.  0.
        1    1    3    3  502    0 -0.17609015486E+03  0.18494771765E+03 -0.76310544154E+03  0.80470076167E+03  0.50400001928E-02 0. -1.
       -1    1    3    3    0  502  0.17609015486E+03 -0.18494771765E+03  0.26944568775E+04  0.27065312238E+04  0.50400001928E-02 0.  1.
</event>
<event>
 5   0  0.8483636E-07  0.2895008E+04  0.7818609E-02  0.8274364E-01
       -1   -1    0    0    0  501  0.00000000000E+00  0.00000000000E+00  0.15377295899E+04  0.15377295900E+04  0.50400001928E-02 0.  1.
        1   -1    0    0  501    0  0.00000000000E+00  0.00000000000E+00 -0.13625720056E+04  0.13625720056E+04  0.50400001928E-02 0. -1.
    10030    2    1    2    0    0  0.00000000000E+00  0.00000000000E+00  0.17515758437E+03  0.29003015955E+04  0.28950076279E+04 0.  0.
        2    1    3    3  502    0 -0.98693119274E+03 -0.27209318844E+03  0.11127777201E+04  0.15120655200E+04  0.25500000920E-02 0.  1.
       -2    1    3    3    0  502  0.98693119274E+03  0.27209318844E+03 -0.93762013577E+03  0.13882360755E+04  0.25500000920E-02 0. -1.
</event>
<event>
 5   0  0.2360103E-06  0.2888094E+04  0.7818609E-02  0.8276429E-01
       -2   -1    0    0    0  501  0.00000000000E+00  0.00000000000E+00  0.25957445937E+04  0.25957445937E+04  0.25500000920E-02 0. -1.
        2   -1    0    0  501    0  0.00000000000E+00  0.00000000000E+00 -0.80334238849E+03  0.80334238850E+03  0.25500000920E-02 0.  1.
    10030    2    1    2    0    0  0.00000000000E+00  0.00000000000E+00  0.17924022052E+04  0.33990869822E+04  0.28880939471E+04 0.  0.
        4    1    3    3  502    0 -0.40758285018E+03 -0.10028847725E+04  0.20209975955E+04  0.22926697408E+04  0.12699999809E+01 0. -1.
       -4    1    3    3    0  502  0.40758285018E+03  0.10028847725E+04 -0.22859539032E+03  0.11064172413E+04  0.12699999809E+01 0.  1.
</event>
<event>
 5   0  0.2378690E-06  0.2766788E+04  0.7818609E-02  0.8313654E-01
       -2   -1    0    0    0  501  0.00000000000E+00  0.00000000000E+00  0.12406821769E+04  0.12406821769E+04  0.25500000920E-02 0.  1.
        2   -1    0    0  501    0  0.00000000000E+00  0.00000000000E+00 -0.15425214491E+04  0.15425214491E+04  0.25500000920E-02 0. -1.
    10030    2    1    2    0    0  0.00000000000E+00  0.00000000000E+00 -0.30183927224E+03  0.27832036260E+04  0.27667879350E+04 0.  0.
        3    1    3    3  502    0 -0.27726017182E+03 -0.12893352673E+04  0.26931514110E+03  0.13460272247E+04  0.10100000352E+00 0.  1.
       -3    1    3    3    0  502  0.27726017182E+03  0.12893352673E+04 -0.57115441334E+03  0.14371764013E+04  0.10100000352E+00 0. -1.
</event>
<event>
 5   0  0.8483636E-07  0.2901348E+04  0.7818609E-02  0.8272477E-01
       -1   -1    0    0    0  501  0.00000000000E+00  0.00000000000E+00  0.11186249809E+04  0.11186249809E+04  0.50400001928E-02 0.  1.
        1   -1    0    0  501    0  0.00000000000E+00  0.00000000000E+00 -0.18812870649E+04  0.18812870649E+04  0.50400001928E-02 0. -1.
    10030    2    1    2    0    0  0.00000000000E+00  0.00000000000E+00 -0.76266208406E+03  0.29999120458E+04  0.29013477606E+04 0.  0.
        2    1    3    3  502    0 -0.86112449543E+03 -0.11578482407E+04 -0.53575938113E+03  0.15392160536E+04  0.25500000920E-02 0. -1.
       -2    1    3    3    0  502  0.86112449543E+03  0.11578482407E+04 -0.22690270294E+03  0.14606959922E+04  0.25500000920E-02 0.  1.
</event>
<event>
 5   0  0.8355946E-07  0.2900738E+04  0.7818609E-02  0.8272658E-01
        1   -1    0    0  501    0  0.00000000000E+00  0.00000000000E+00  0.21964967022E+04  0.21964967022E+04  0.50400001928E-02 0. -1.
       -1   -1    0    0    0  501  0.00000000000E+00  0.00000000000E+00 -0.95769302580E+03  0.95769302582E+03  0.50400001928E-02 0.  1.
    10030    2    1    2    0    0  0.00000000000E+00  0.00000000000E+00  0.12388036764E+04  0.31541897281E+04  0.29007375427E+04 0.  0.
        4    1    3    3  502    0  0.37303342947E+03 -0.39874331340E+03  0.20804624606E+04  0.21509244135E+04  0.12699999809E+01 0. -1.
       -4    1    3    3    0  502 -0.37303342947E+03  0.39874331340E+03 -0.84165878421E+03  0.10032653146E+04  0.12699999809E+01 0.  1.
</event>
<event>
 5   0  0.8947674E-07  0.2935960E+04  0.7818609E-02  0.8262258E-01
        1   -1    0    0  501    0  0.00000000000E+00  0.00000000000E+00  0.22574251436E+04  0.22574251436E+04  0.50400001928E-02 0. -1.
       -1   -1    0    0    0  501  0.00000000000E+00  0.00000000000E+00 -0.95461183274E+03  0.95461183276E+03  0.50400001928E-02 0.  1.
    10030    2    1    2    0    0  0.00000000000E+00  0.00000000000E+00  0.13028133108E+04  0.32120369763E+04  0.29359596411E+04 0.  0.
        3    1    3    3  502    0 -0.30306223541E+03  0.65899935500E+03 -0.74486327243E+03  0.10396865745E+04  0.10100000352E+00 0.  1.
       -3    1    3    3    0  502  0.30306223541E+03 -0.65899935500E+03  0.20476765832E+04  0.21723504018E+04  0.10100000352E+00 0. -1.
</event>
<event>
 5   0  0.8947674E-07  0.2857814E+04  0.7818609E-02  0.8285541E-01
       -1   -1    0    0    0  501  0.00000000000E+00  0.00000000000E+00  0.10489950779E+04  0.10489950779E+04  0.50400001928E-02 0.  1.
        1   -1    0    0  501    0  0.00000000000E+00  0.00000000000E+00 -0.19464104773E+04  0.19464104773E+04  0.50400001928E-02 0. -1.
    10030    2    1    2    0    0  0.00000000000E+00  0.00000000000E+00 -0.89741539940E+03  0.29954055552E+04  0.28578138569E+04 0.  0.
        3    1    3    3  502    0 -0.11405440556E+04 -0.57344797991E+03 -0.11215582500E+04  0.16992869819E+04  0.10100000352E+00 0. -1.
       -3    1    3    3    0  502  0.11405440556E+04  0.57344797991E+03  0.22414285062E+03  0.12961185733E+04  0.10100000352E+00 0.  1.
</event>
<event>
 5   0  0.2378690E-06  0.2899188E+04  0.7818609E-02  0.8273119E-01
        2   -1    0    0  501    0  0.00000000000E+00  0.00000000000E+00  0.88833952324E+03  0.88833952324E+03  0.25500000920E-02 0.  1.
       -2   -1    0    0    0  501  0.00000000000E+00  0.00000000000E+00 -0.23654499572E+04  0.23654499572E+04  0.25500000920E-02 0. -1.
    10030    2    1    2    0    0  0.00000000000E+00  0.00000000000E+00 -0.14771104339E+04  0.32537894804E+04  0.28991879465E+04 0.  0.
        3    1    3    3  502    0  0.44993397143E+03  0.19049995338E+03 -0.22702489357E+04  0.23222319116E+04  0.10100000352E+00 0. -1.
       -3    1    3    3    0  502 -0.44993397143E+03 -0.19049995338E+03  0.79313850177E+03  0.93155756884E+03  0.10100000352E+00 0.  1.
</event>
<event>
 5   0  0.2325590E-06  0.2891520E+04  0.7818609E-02  0.8275405E-01
       -2   -1    0    0    0  501  0.00000000000E+00  0.00000000000E+00  0.11043979706E+04  0.11043979706E+04  0.25500000920E-02 0.  1.
        2   -1    0    0  501    0  0.00000000000E+00  0.00000000000E+00 -0.18926348339E+04  0.18926348339E+04  0.25500000920E-02 0. -1.
    10030    2    1    2    0    0  0.00000000000E+00  0.00000000000E+00 -0.78823686332E+03  0.29970328045E+04  0.28915200636E+04 0.  0.
        5    1    3    3  502    0 -0.10036802211E+04  0.79504207209E+03 -0.10899842320E+04  0.16815331096E+04  0.46999998093E+01 0. -1.
       -5    1    3    3    0  502  0.10036802211E+04 -0.79504207209E+03  0.30174736871E+03  0.13154996949E+04  0.46999998093E+01 0.  1.
</event>
<event>
 5   0  0.2425845E-06  0.2904827E+04  0.7818609E-02  0.8271443E-01
        2   -1    0    0  501    0  0.00000000000E+00  0.00000000000E+00  0.23063807466E+04  0.23063807466E+04  0.25500000920E-02 0.  1.
       -2   -1    0    0    0  501  0.00000000000E+00  0.00000000000E+00 -0.91463873654E+03  0.91463873655E+03  0.25500000920E-02 0. -1.
    10030    2    1    2    0    0  0.00000000000E+00  0.00000000000E+00  0.13917420101E+04  0.32210194832E+04  0.29048271357E+04 0.  0.
        2    1    3    3  502    0 -0.70811629003E+03  0.29316905400E+03 -0.67216870267E+03  0.10194054833E+04  0.25500000920E-02 0. -1.
       -2    1    3    3    0  502  0.70811629003E+03 -0.29316905400E+03  0.20639107128E+04  0.22016139999E+04  0.25500000920E-02 0.  1.
</event>
<event>
 5   0  0.8947674E-07  0.2878582E+04  0.7818609E-02  0.8279279E-01
        1   -1    0    0  501    0  0.00000000000E+00  0.00000000000E+00  0.13919047448E+04  0.13919047448E+04  0.50400001928E-02 0.  1.
       -1   -1    0    0    0  501  0.00000000000E+00  0.00000000000E+00 -0.14882900784E+04  0.14882900784E+04  0.50400001928E-02 0. -1.
    10030    2    1    2    0    0  0.00000000000E+00  0.00000000000E+00 -0.96385333566E+02  0.28801948232E+04  0.28785816103E+04 0.  0.
        3    1    3    3  502    0 -0.15399559570E+03  0.58497422433E+03  0.12585440387E+04  0.13963676430E+04  0.10100000352E+00 0.  1.
       -3    1    3    3    0  502  0.15399559570E+03 -0.58497422433E+03 -0.13549293723E+04  0.14838271802E+04  0.10100000352E+00 0. -1.
</event>
<event>
 5   0  0.2425845E-06  0.2894055E+04  0.7818609E-02  0.8274648E-01
        2   -1    0    0  501    0  0.00000000000E+00  0.00000000000E+00  0.16611925004E+04  0.16611925004E+04  0.25500000920E-02 0. -1.
       -2   -1    0    0    0  501  0.00000000000E+00  0.00000000000E+00 -0.12604734466E+04  0.12604734466E+04  0.25500000920E-02 0.  1.
    10030    2    1    2    0    0  0.00000000000E+00  0.00000000000E+00  0.40071905386E+03  0.29216659470E+04  0.28940553114E+04 0.  0.
        2    1    3    3  502    0 -0.13841250870E+04  0.33803474773E+03  0.45539448442E+03  0.14958121151E+04  0.25500000920E-02 0. -1.
       -2    1    3    3    0  502  0.13841250870E+04 -0.33803474773E+03 -0.54675430561E+02  0.14258538319E+04  0.25500000920E-02 0.  1.
</event>
<event>
 5   0  0.8357118E-07  0.2924117E+04  0.7818609E-02  0.8265738E-01
       -1   -1    0    0    0  501  0.00000000000E+00  0.00000000000E+00  0.17405661916E+04  0.17405661916E+04  0.50400001928E-02 0. -1.
        1   -1    0    0  501    0  0.00000000000E+00  0.00000000000E+00 -0.12281149479E+04  0.12281149479E+04  0.50400001928E-02 0.  1.
    10030    2    1    2    0    0  0.00000000000E+00  0.00000000000E+00  0.51245124364E+03  0.29686811395E+04  0.29241172054E+04 0.  0.
        1    1    3    3  502    0 -0.78897812077E+03  0.73851515581E+03 -0.74352781247E+03  0.13117639720E+04  0.50400001928E-02 0.  1.
       -1    1    3    3    0  502  0.78897812077E+03 -0.73851515581E+03  0.12559790561E+04  0.16569171675E+04  0.50400001928E-02 0. -1.
</event>
<event>
 5   0  0.8263673E-07  0.2901073E+04  0.7818609E-02  0.8272558E-01
        1   -1    0    0  501    0  0.00000000000E+00  0.00000000000E+00  0.12755000844E+04  0.12755000844E+04  0.50400001928E-02 0.  1.
       -1   -1    0    0    0  501  0.00000000000E+00  0.00000000000E+00 -0.16495930959E+04  0.16495930959E+04  0.50400001928E-02 0. -1.
    10030    2    1    2    0    0  0.00000000000E+00  0.00000000000E+00 -0.37409301150E+03  0.29250931803E+04  0.29010729967E+04 0.  0.
        5    1    3    3  502    0 -0.34518121652E+03  0.12745752693E+04 -0.79230152952E+03  0.15399532438E+04  0.46999998093E+01 0.  1.
       -5    1    3    3    0  502  0.34518121652E+03 -0.12745752693E+04  0.41820851802E+03  0.13851399366E+04  0.46999998093E+01 0. -1.
</event>
<event>
 5   0  0.2360103E-06  0.2895173E+04  0.7818609E-02  0.8274315E-01
        2   -1    0    0  501    0  0.00000000000E+00  0.00000000000E+00  0.24185001402E+04  0.24185001402E+04  0.25500000920E-02 0.  1.
       -2   -1    0    0    0  501  0.00000000000E+00  0.00000000000E+00 -0.86644899313E+03  0.86644899314E+03  0.25500000920E-02 0. -1.
    10030    2    1    2    0    0  0.00000000000E+00  0.00000000000E+00  0.15520511470E+04  0.32849491333E+04  0.28951732324E+04 0.  0.
        4    1    3    3  502    0  0.88549651353E+03  0.87785423172E+03  0.16104013800E+04  0.20366949564E+04  0.12699999809E+01 0.  1.
       -4    1    3    3    0  502 -0.88549651353E+03 -0.87785423172E+03 -0.58350232990E+02  0.12482541769E+04  0.12699999809E+01 0. -1.
</event>
<event>
 5   0  0.8947674E-07  0.2894465E+04  0.7818609E-02  0.8274526E-01
        1   -1    0    0  501    0  0.00000000000E+00  0.00000000000E+00  0.15280375462E+04  0.15280375462E+04  0.50400001928E-02 0. -1.
       -1   -1    0    0    0  501  0.00000000000E+00  0.00000000000E+00 -0.13707008598E+04  0.13707008598E+04  0.50400001928E-02 0.  1.
    10030    2    1    2    0    0  0.00000000000E+00  0.00000000000E+00  0.15733668639E+03  0.28987384059E+04  0.28944653242E+04 0.  0.
        3    1    3    3  502    0  0.46163772962E+03  0.72398890732E+03 -0.10880463973E+04  0.13860426776E+04  0.10100000352E+00 0.  1.
       -3    1    3    3    0  502 -0.46163772962E+03 -0.72398890732E+03  0.12453830836E+04  0.15126957283E+04  0.10100000352E+00 0. -1.
</event>
<event>
 5   0  0.8357118E-07  0.2913609E+04  0.7818609E-02  0.8268840E-01
       -1   -1    0    0    0  501  0.00000000000E+00  0.00000000000E+00  0.20719400575E+04  0.20719400575E+04  0.50400001928E-02 0. -1.
        1   -1    0    0  501    0  0.00000000000E+00  0.00000000000E+00 -0.10242954351E+04  0.10242954351E+04  0.50400001928E-02 0.  1.
    10030    2    1    2    0    0  0.00000000000E+00  0.00000000000E+00  0.10476446224E+04  0.30962354925E+04  0.29136085822E+04 0.  0.
        1    1    3    3  502    0  0.20673357705E+03  0.70672131775E+03  0.18596270975E+04  0.20001016810E+04  0.50400001928E-02 0. -1.
       -1    1    3    3    0  502 -0.20673357705E+03 -0.70672131775E+03 -0.81198247509E+03  0.10961338115E+04  0.50400001928E-02 0.  1.
</event>
<event>
 5   0  0.8483636E-07  0.2897062E+04  0.7818609E-02  0.8273752E-01
       -1   -1    0    0    0  501  0.00000000000E+00  0.00000000000E+00  0.14247928288E+04  0.14247928288E+04  0.50400001928E-02 0. -1.
        1   -1    0    0  501    0  0.00000000000E+00  0.00000000000E+00 -0.14726641638E+04  0.14726641638E+04  0.50400001928E-02 0.  1.
    10030    2    1    2    0    0  0.00000000000E+00  0.00000000000E+00 -0.47871335055E+02  0.28974569926E+04  0.28970615042E+04 0.  0.
        2    1    3    3  502    0 -0.14191642747E+04 -0.79632984053E+02  0.25515921228E+03  0.14441173340E+04  0.25500000920E-02 0. -1.
       -2    1    3    3    0  502  0.14191642747E+04  0.79632984053E+02 -0.30303054733E+03  0.14533396586E+04  0.25500000920E-02 0.  1.
</event>
<event>
 5   0  0.8355946E-07  0.2954529E+04  0.7818609E-02  0.8256836E-01
        1   -1    0    0  501    0  0.00000000000E+00  0.00000000000E+00  0.13569249471E+04  0.13569249472E+04  0.50400001928E-02 0.  1.
       -1   -1    0    0    0  501  0.00000000000E+00  0.00000000000E+00 -0.16082765473E+04  0.16082765473E+04  0.50400001928E-02 0. -1.
    10030    2    1    2    0    0  0.00000000000E+00  0.00000000000E+00 -0.25135160015E+03  0.29652014945E+04  0.29545291124E+04 0.  0.
        4    1    3    3  502    0  0.39620861556E+03 -0.39229778515E+02  0.13020622092E+04  0.13615755036E+04  0.12699999809E+01 0.  1.
       -4    1    3    3    0  502 -0.39620861556E+03  0.39229778515E+02 -0.15534138093E+04  0.16036259908E+04  0.12699999809E+01 0. -1.
</event>
<event>
 5   0  0.7621125E-07  0.2893376E+04  0.7818609E-02  0.8274851E-01
       -3   -1    0    0    0  501  0.00000000000E+00  0.00000000000E+00  0.14192441638E+04  0.14192441674E+04  0.10100000352E+00 0. -1.
        3   -1    0    0  501    0  0.00000000000E+00  0.00000000000E+00 -0.14746623408E+04  0.14746623443E+04  0.10100000352E+00 0.  1.
    10030    2    1    2    0    0  0.00000000000E+00  0.00000000000E+00 -0.55418177026E+02  0.28939065117E+04  0.28933758352E+04 0.  0.
        4    1    3    3  502    0 -0.34993802018E+03 -0.10036379521E+04  0.95387733201E+03  0.14281559209E+04  0.12699999809E+01 0. -1.
       -4    1    3    3    0  502  0.34993802018E+03  0.10036379521E+04 -0.10092955090E+04  0.14657505908E+04  0.12699999809E+01 0.  1.
</event>
<event>
 5   0  0.2304435E-06  0.2898992E+04  0.7818609E-02  0.8273177E-01
        2   -1    0    0  501    0  0.00000000000E+00  0.00000000000E+00  0.21869178336E+04  0.21869178336E+04  0.25500000920E-02 0. -1.
       -2   -1    0    0    0  501  0.00000000000E+00  0.00000000000E+00 -0.96073049677E+03  0.96073049678E+03  0.25500000920E-02 0.  1.
    10030    2    1    2    0    0  0.00000000000E+00  0.00000000000E+00  0.12261873368E+04  0.31476483303E+04  0.28989920018E+04 0.  0.
        1    1    3    3  502    0 -0.24834508631E+03 -0.13610447312E+04  0.10825203685E+04  0.17566924576E+04  0.50400001928E-02 0.  1.
       -1    1    3    3    0  502  0.24834508631E+03  0.13610447312E+04  0.14366696831E+03  0.13909558728E+04  0.50400001928E-02 0. -1.
</event>
<event>
 5   0  0.8483636E-07  0.2904502E+04  0.7818609E-02  0.8271539E-01
        1   -1    0    0  501    0  0.00000000000E+00  0.00000000000E+00  0.25021044844E+04  0.25021044844E+04  0.50400001928E-02 0. -1.
       -1   -1    0    0    0  501  0.00000000000E+00  0.00000000000E+00 -0.84290340791E+03  0.84290340793E+03  0.50400001928E-02 0.  1.
    10030    2    1    2    0    0  0.00000000000E+00  0.00000000000E+00  0.16592010765E+04  0.33450078923E+04  0.29045016074E+04 0.  0.
        2    1    3    3  502    0  0.43076996804E+03  0.10692080054E+04  0.18468940511E+04  0.21771049952E+04  0.25500000920E-02 0. -1.
       -2    1    3    3    0  502 -0.43076996804E+03 -0.10692080054E+04 -0.18769297469E+03  0.11679028970E+04  0.25500000920E-02 0.  1.
</event>
<event>
 5   0  0.2378690E-06  0.2889782E+04  0.7818609E-02  0.8275924E-01
       -2   -1    0    0    0  501  0.00000000000E+00  0.00000000000E+00  0.90336715496E+03  0.90336715496E+03  0.25500000920E-02 0. -1.
        2   -1    0    0  501    0  0.00000000000E+00  0.00000000000E+00 -0.23110322206E+04  0.23110322206E+04  0.25500000920E-02 0.  1.
    10030    2    1    2    0    0  0.00000000000E+00  0.00000000000E+00 -0.14076650656E+04  0.32143993755E+04  0.28897824154E+04 0.  0.
        3    1    3    3  502    0 -0.10499372603E+04 -0.67176741300E+03  0.10906188675E+03  0.12512130966E+04  0.10100000352E+00 0. -1.
       -3    1    3    3    0  502  0.10499372603E+04  0.67176741300E+03 -0.15167269524E+04  0.19631862790E+04  0.10100000352E+00 0.  1.
</event>
<event>
 5   0  0.8355946E-07  0.2863084E+04  0.7818609E-02  0.8283946E-01
        1   -1    0    0  501    0  0.00000000000E+00  0.00000000000E+00  0.25831589794E+04  0.25831589794E+04  0.50400001928E-02 0.  1.
       -1   -1    0    0    0  501  0.00000000000E+00  0.00000000000E+00 -0.79333603353E+03  0.79333603355E+03  0.50400001928E-02 0. -1.
    10030    2    1    2    0    0  0.00000000000E+00  0.00000000000E+00  0.17898229459E+04  0.33764950130E+04  0.28630844198E+04 0.  0.
        4    1    3    3  502    0  0.39243281504E+03 -0.71043787871E+03 -0.49578029557E+03  0.95106530176E+03  0.12699999809E+01 0. -1.
       -4    1    3    3    0  502 -0.39243281504E+03  0.71043787871E+03  0.22856032415E+04  0.24254297112E+04  0.12699999809E+01 0.  1.
</event>
<event>
 5   0  0.2304435E-06  0.2890520E+04  0.7818609E-02  0.8275704E-01
        2   -1    0    0  501    0  0.00000000000E+00  0.00000000000E+00  0.14869743241E+04  0.14869743241E+04  0.25500000920E-02 0.  1.
       -2   -1    0    0    0  501  0.00000000000E+00  0.00000000000E+00 -0.14047160614E+04  0.14047160614E+04  0.25500000920E-02 0. -1.
    10030    2    1    2    0    0  0.00000000000E+00  0.00000000000E+00  0.82258262711E+02  0.28916903854E+04  0.28905201718E+04 0.  0.
        1    1    3    3  502    0 -0.51115325489E+03  0.49702208595E+02  0.13926123034E+04  0.14842900616E+04  0.50400001928E-02 0.  1.
       -1    1    3    3    0  502  0.51115325489E+03 -0.49702208595E+02 -0.13103540407E+04  0.14074003238E+04  0.50400001928E-02 0. -1.
</event>
<event>
 5   0  0.8947674E-07  0.2889356E+04  0.7818609E-02  0.8276051E-01
       -1   -1    0    0    0  501  0.00000000000E+00  0.00000000000E+00  0.11740550703E+04  0.11740550703E+04  0.50400001928E-02 0.  1.
        1   -1    0    0  501    0  0.00000000000E+00  0.00000000000E+00 -0.17776806342E+04  0.17776806343E+04  0.50400001928E-02 0. -1.
    10030    2    1    2    0    0  0.00000000000E+00  0.00000000000E+00 -0.60362556394E+03  0.29517357046E+04  0.28893563034E+04 0.  0.
        3    1    3    3  502    0  0.14419310571E+04  0.66798324014E+02 -0.36197184147E+03  0.14881702905E+04  0.10100000352E+00 0. -1.
       -3    1    3    3    0  502 -0.14419310571E+04 -0.66798324014E+02 -0.24165372247E+03  0.14635654140E+04  0.10100000352E+00 0.  1.
</event>
<event>
 5   0  0.2360103E-06  0.2874474E+04  0.7818609E-02  0.8280513E-01
        2   -1    0    0  501    0  0.00000000000E+00  0.00000000000E+00  0.14286653861E+04  0.14286653861E+04  0.25500000920E-02 0. -1.
       -2   -1    0    0    0  501  0.00000000000E+00  0.00000000000E+00 -0.14458598204E+04  0.14458598204E+04  0.25500000920E-02 0.  1.
    10030    2    1    2    0    0  0.00000000000E+00  0.00000000000E+00 -0.17194434260E+02  0.28745252065E+04  0.28744737804E+04 0.  0.
        4    1    3    3  502    0  0.43518622733E+03  0.13078078428E+04  0.39871813458E+03  0.14348261810E+04  0.12699999809E+01 0.  1.
       -4    1    3    3    0  502 -0.43518622733E+03 -0.13078078428E+04 -0.41591256884E+03  0.14396990255E+04  0.12699999809E+01 0. -1.
</event>
<event>
 5   0  0.2360103E-06  0.2898057E+04  0.7818609E-02  0.8273456E-01
       -2   -1    0    0    0  501  0.00000000000E+00  0.00000000000E+00  0.90854522575E+03  0.90854522575E+03  0.25500000920E-02 0.  1.
        2   -1    0    0  501    0  0.00000000000E+00  0.00000000000E+00 -0.23110386696E+04  0.23110386696E+04  0.25500000920E-02 0. -1.
    10030    2    1    2    0    0  0.00000000000E+00  0.00000000000E+00 -0.14024934438E+04  0.32195838953E+04  0.28980566936E+04 0.  0.
        4    1    3    3  502    0 -0.64158651206E+03  0.12891012177E+04 -0.88129650771E+03  0.16882240222E+04  0.12699999809E+01 0.  1.
       -4    1    3    3    0  502  0.64158651206E+03 -0.12891012177E+04 -0.52119693611E+03  0.15313598731E+04  0.12699999809E+01 0. -1.
</event>
<event>
 5   0  0.2325590E-06  0.2922447E+04  0.7818609E-02  0.8266230E-01
        2   -1    0    0  501    0  0.00000000000E+00  0.00000000000E+00  0.16505877024E+04  0.16505877024E+04  0.25500000920E-02 0. -1.
       -2   -1    0    0    0  501  0.00000000000E+00  0.00000000000E+00 -0.12935843000E+04  0.12935843000E+04  0.25500000920E-02 0.  1.
    10030    2    1    2    0    0  0.00000000000E+00  0.00000000000E+00  0.35700340243E+03  0.29441720024E+04  0.29224471510E+04 0.  0.
        5    1    3    3  502    0 -0.93296311494E+03 -0.91582706614E+03  0.83603487945E+03  0.15518169346E+04  0.46999998093E+01 0. -1.
       -5    1    3    3    0  502  0.93296311494E+03  0.91582706614E+03 -0.47903147702E+03  0.13923550678E+04  0.46999998093E+01 0.  1.
</event>
<event>
 5   0  0.2425845E-06  0.2897028E+04  0.7818609E-02  0.8273762E-01
        2   -1    0    0  501    0  0.00000000000E+00  0.00000000000E+00  0.15337342655E+04  0.15337342655E+04  0.25500000920E-02 0. -1.
       -2   -1    0    0    0  501  0.00000000000E+00  0.00000000000E+00 -0.13680287449E+04  0.13680287449E+04  0.25500000920E-02 0.  1.
    10030    2    1    2    0    0  0.00000000000E+00  0.00000000000E+00  0.16570552062E+03  0.29017630104E+04  0.28970278302E+04 0.  0.
        2    1    3    3  502    0 -0.65099832413E+03 -0.12443318214E+04 -0.27273744898E+03  0.14305754842E+04  0.25500000920E-02 0.  1.
       -2    1    3    3    0  502  0.65099832413E+03  0.12443318214E+04  0.43844296960E+03  0.14711875263E+04  0.25500000920E-02 0. -1.
</event>
<event>
 5   0  0.2378690E-06  0.2890809E+04  0.7818609E-02  0.8275617E-01
       -2   -1    0    0    0  501  0.00000000000E+00  0.00000000000E+00  0.20631130295E+04  0.20631130295E+04  0.25500000920E-02 0.  1.
        2   -1    0    0  501    0  0.00000000000E+00  0.00000000000E+00 -0.10126415028E+04  0.10126415028E+04  0.25500000920E-02 0. -1.
    10030    2    1    2    0    0  0.00000000000E+00  0.00000000000E+00  0.10504715266E+04  0.30757545323E+04  0.28908087994E+04 0.  0.
        3    1    3    3  502    0  0.45128989148E+03 -0.12065641044E+04 -0.17224518058E+03  0.12996645401E+04  0.10100000352E+00 0. -1.
       -3    1    3    3    0  502 -0.45128989148E+03  0.12065641044E+04  0.12227167072E+04  0.17760899922E+04  0.10100000352E+00 0.  1.
</event>
<event>
 5   0  0.2378690E-06  0.2894032E+04  0.7818609E-02  0.8274655E-01
       -2   -1    0    0    0  501  0.00000000000E+00  0.00000000000E+00  0.70086530780E+03  0.70086530780E+03  0.25500000920E-02 0.  1.
        2   -1    0    0  501    0  0.00000000000E+00  0.00000000000E+00 -0.29875294990E+04  0.29875294990E+04  0.25500000920E-02 0. -1.
    10030    2    1    2    0    0  0.00000000000E+00  0.00000000000E+00 -0.22866641912E+04  0.36883948068E+04  0.28940323301E+04 0.  0.
        3    1    3    3  502    0 -0.58389904295E+02 -0.72693289312E+03  0.44952427886E+03  0.85668716548E+03  0.10100000352E+00 0.  1.
       -3    1    3    3    0  502  0.58389904295E+02  0.72693289312E+03 -0.27361884700E+04  0.28317076413E+04  0.10100000352E+00 0. -1.
</event>
<event>
 5   0  0.2425845E-06  0.2877518E+04  0.7818609E-02  0.8279598E-01
       -2   -1    0    0    0  501  0.00000000000E+00  0.00000000000E+00  0.86356813221E+03  0.86356813221E+03  0.25500000920E-02 0.  1.
        2   -1    0    0  501    0  0.00000000000E+00  0.00000000000E+00 -0.23970630260E+04  0.23970630260E+04  0.25500000920E-02 0. -1.
    10030    2    1    2    0    0  0.00000000000E+00  0.00000000000E+00 -0.15334948938E+04  0.32606311582E+04  0.28775178471E+04 0.  0.
        2    1    3    3  502    0 -0.80156047681E+03 -0.35937613741E+03  0.52442433886E+03  0.10230695447E+04  0.25500000920E-02 0.  1.
       -2    1    3    3    0  502  0.80156047681E+03  0.35937613741E+03 -0.20579192326E+04  0.22375616135E+04  0.25500000920E-02 0. -1.
</event>
<event>
 5   0  0.8483636E-07  0.2902771E+04  0.7818609E-02  0.8272054E-01
       -1   -1    0    0    0  501  0.00000000000E+00  0.00000000000E+00  0.22554764796E+04  0.22554764796E+04  0.50400001928E-02 0.  1.
        1   -1    0    0  501    0  0.00000000000E+00  0.00000000000E+00 -0.93395762034E+03  0.93395762035E+03  0.50400001928E-02 0. -1.
    10030    2    1    2    0    0  0.00000000000E+00  0.00000000000E+00  0.13215188592E+04  0.31894340999E+04  0.29027707079E+04 0.  0.
        2    1    3    3  502    0 -0.13219507169E+04 -0.55376528262E+03  0.40945956023E+03  0.14905927739E+04  0.25500000920E-02 0. -1.
       -2    1    3    3    0  502  0.13219507169E+04  0.55376528262E+03  0.91205929900E+03  0.16988413260E+04  0.25500000920E-02 0.  1.
</event>
<event>
 5   0  0.2378690E-06  0.2894228E+04  0.7818609E-02  0.8274597E-01
        2   -1    0    0  501    0  0.00000000000E+00  0.00000000000E+00  0.20266592054E+04  0.20266592054E+04  0.25500000920E-02 0.  1.
       -2   -1    0    0    0  501  0.00000000000E+00  0.00000000000E+00 -0.10332960877E+04  0.10332960878E+04  0.25500000920E-02 0. -1.
    10030    2    1    2    0    0  0.00000000000E+00  0.00000000000E+00  0.99336311760E+03  0.30599552931E+04  0.28942280685E+04 0.  0.
        3    1    3    3  502    0  0.10642109179E+04  0.96210245216E+03  0.69715182574E+03  0.15950569534E+04  0.10100000352E+00 0. -1.
       -3    1    3    3    0  502 -0.10642109179E+04 -0.96210245216E+03  0.29621129186E+03  0.14648983397E+04  0.10100000352E+00 0.  1.
</event>
<event>
 5   0  0.8357118E-07  0.2894674E+04  0.7818609E-02  0.8274464E-01
       -1   -1    0    0    0  501  0.00000000000E+00  0.00000000000E+00  0.81350448768E+03  0.81350448769E+03  0.50400001928E-02 0.  1.
        1   -1    0    0  501    0  0.00000000000E+00  0.00000000000E+00 -0.25750131117E+04  0.25750131117E+04  0.50400001928E-02 0. -1.
    10030    2    1    2    0    0  0.00000000000E+00  0.00000000000E+00 -0.17615086240E+04  0.33885175994E+04  0.28946742285E+04 0.  0.
        1    1    3    3  502    0  0.50974150049E+03 -0.12568342048E+04 -0.28926192746E+03  0.13867736219E+04  0.50400001928E-02 0.  1.
       -1    1    3    3    0  502 -0.50974150049E+03  0.12568342048E+04 -0.14722466966E+04  0.20017439775E+04  0.50400001928E-02 0. -1.
</event>
<event>
 5   0  0.2304435E-06  0.2805432E+04  0.7818609E-02  0.8301584E-01
        2   -1    0    0  501    0  0.00000000000E+00  0.00000000000E+00  0.11464050414E+04  0.11464050415E+04  0.25500000920E-02 0. -1.
       -2   -1    0    0    0  501  0.00000000000E+00  0.00000000000E+00 -0.17163319727E+04  0.17163319727E+04  0.25500000920E-02 0.  1.
    10030    2    1    2    0    0  0.00000000000E+00  0.00000000000E+00 -0.56992693130E+03  0.28627370142E+04  0.28054316077E+04 0.  0.
        1    1    3    3  502    0 -0.11928914279E+04  0.38748163182E+03 -0.92586907270E+03  0.15589629610E+04  0.50400001928E-02 0.  1.
       -1    1    3    3    0  502  0.11928914279E+04 -0.38748163182E+03  0.35594214140E+03  0.13037740532E+04  0.50400001928E-02 0. -1.
</event>
<event>
 5   0  0.2425845E-06  0.2904383E+04  0.7818609E-02  0.8271574E-01
        2   -1    0    0  501    0  0.00000000000E+00  0.00000000000E+00  0.12600936590E+04  0.12600936590E+04  0.25500000920E-02 0. -1.
       -2   -1    0    0    0  501  0.00000000000E+00  0.00000000000E+00 -0.16735745774E+04  0.16735745774E+04  0.25500000920E-02 0.  1.
    10030    2    1    2    0    0  0.00000000000E+00  0.00000000000E+00 -0.41348091833E+03  0.29336682364E+04  0.29043833857E+04 0.  0.
        2    1    3    3  502    0 -0.37607250472E+03  0.11095053186E+03  0.12056142497E+04  0.12677721674E+04  0.25500000920E-02 0. -1.
       -2    1    3    3    0  502  0.37607250472E+03 -0.11095053186E+03 -0.16190951681E+04  0.16658960690E+04  0.25500000920E-02 0.  1.
</event>
<event>
 5   0  0.8483636E-07  0.2881996E+04  0.7818609E-02  0.8278254E-01
        1   -1    0    0  501    0  0.00000000000E+00  0.00000000000E+00  0.14079761707E+04  0.14079761707E+04  0.50400001928E-02 0. -1.
       -1   -1    0    0    0  501  0.00000000000E+00  0.00000000000E+00 -0.14747943776E+04  0.14747943776E+04  0.50400001928E-02 0.  1.
    10030    2    1    2    0    0  0.00000000000E+00  0.00000000000E+00 -0.66818206967E+02  0.28827705483E+04  0.28819960724E+04 0.  0.
        2    1    3    3  502    0 -0.66949786590E+03 -0.11095897650E+04  0.59688601172E+03  0.14267759985E+04  0.25500000920E-02 0.  1.
       -2    1    3    3    0  502  0.66949786590E+03  0.11095897650E+04 -0.66370421869E+03  0.14559945498E+04  0.25500000920E-02 0. -1.
</event>
<event>
 5   0  0.2325590E-06  0.2871310E+04  0.7818609E-02  0.8281465E-01
       -2   -1    0    0    0  501  0.00000000000E+00  0.00000000000E+00  0.11705244625E+04  0.11705244625E+04  0.25500000920E-02 0. -1.
        2   -1    0    0  501    0  0.00000000000E+00  0.00000000000E+00 -0.17608393147E+04  0.17608393147E+04  0.25500000920E-02 0.  1.
    10030    2    1    2    0    0  0.00000000000E+00  0.00000000000E+00 -0.59031485215E+03  0.29313637772E+04  0.28713101486E+04 0.  0.
        5    1    3    3  502    0 -0.43890539529E+03 -0.13527526477E+04 -0.94824518078E+02  0.14253390653E+04  0.46999998093E+01 0.  1.
       -5    1    3    3    0  502  0.43890539529E+03  0.13527526477E+04 -0.49549033407E+03  0.15060247119E+04  0.46999998093E+01 0. -1.
</event>
<event>
 5   0  0.8947674E-07  0.2898538E+04  0.7818609E-02  0.8273313E-01
       -1   -1    0    0    0  501  0.00000000000E+00  0.00000000000E+00  0.10230842789E+04  0.10230842789E+04  0.50400001928E-02 0.  1.
        1   -1    0    0  501    0  0.00000000000E+00  0.00000000000E+00 -0.20529886870E+04  0.20529886870E+04  0.50400001928E-02 0. -1.
    10030    2    1    2    0    0  0.00000000000E+00  0.00000000000E+00 -0.10299044081E+04  0.30760729660E+04  0.28985378732E+04 0.  0.
        3    1    3    3  502    0 -0.27291802639E+03 -0.56173816093E+03  0.87295265514E+03  0.10733500635E+04  0.10100000352E+00 0.  1.
       -3    1    3    3    0  502  0.27291802639E+03  0.56173816093E+03 -0.19028570633E+04  0.20027229024E+04  0.10100000352E+00 0. -1.
</event>
<event>
 5   0  0.8947674E-07  0.2868088E+04  0.7818609E-02  0.8282436E-01
        1   -1    0    0  501    0  0.00000000000E+00  0.00000000000E+00  0.10682634436E+04  0.10682634436E+04  0.50400001928E-02 0.  1.
       -1   -1    0    0    0  501  0.00000000000E+00  0.00000000000E+00 -0.19250697621E+04  0.19250697621E+04  0.50400001928E-02 0. -1.
    10030    2    1    2    0    0  0.00000000000E+00  0.00000000000E+00 -0.85680631850E+03  0.29933332057E+04  0.28680876230E+04 0.  0.
        3    1    3    3  502    0 -0.67537097793E+03  0.64922607645E+03  0.70476400803E+03  0.11723108689E+04  0.10100000352E+00 0.  1.
       -3    1    3    3    0  502  0.67537097793E+03 -0.64922607645E+03 -0.15615703265E+04  0.18210223368E+04  0.10100000352E+00 0. -1.
</event>
<event>
 5   0  0.8355946E-07  0.2896616E+04  0.7818609E-02  0.8273885E-01
        1   -1    0    0  501    0  0.00000000000E+00  0.00000000000E+00  0.21628965248E+04  0.21628965248E+04  0.50400001928E-02 0.  1.
       -1   -1    0    0    0  501  0.00000000000E+00  0.00000000000E+00 -0.96980883962E+03  0.96980883963E+03  0.50400001928E-02 0. -1.
    10030    2    1    2    0    0  0.00000000000E+00  0.00000000000E+00  0.11930876852E+04  0.31327053645E+04  0.28966160733E+04 0.  0.
        4    1    3    3  502    0  0.64644443981E+03 -0.12527788192E+04  0.95564489502E+03  0.17031159566E+04  0.12699999809E+01 0.  1.
       -4    1    3    3    0  502 -0.64644443981E+03  0.12527788192E+04  0.23744279020E+03  0.14295894078E+04  0.12699999809E+01 0. -1.
</event>
<event>
 5   0  0.2360103E-06  0.2919197E+04  0.7818609E-02  0.8267189E-01
       -2   -1    0    0    0  501  0.00000000000E+00  0.00000000000E+00  0.93711422212E+03  0.93711422212E+03  0.25500000920E-02 0. -1.
        2   -1    0    0  501    0  0.00000000000E+00  0.00000000000E+00 -0.22733915059E+04  0.22733915059E+04  0.25500000920E-02 0.  1.
    10030    2    1    2    0    0  0.00000000000E+00  0.00000000000E+00 -0.13362772837E+04  0.32105057280E+04  0.29191968160E+04 0.  0.
        4    1    3    3  502    0  0.13470698453E+04 -0.25868864572E+03 -0.12168327533E+04  0.18336304278E+04  0.12699999809E+01 0. -1.
       -4    1    3    3    0  502 -0.13470698453E+04  0.25868864572E+03 -0.11944453048E+03  0.13768753002E+04  0.12699999809E+01 0.  1.
</event>
<event>
 5   0  0.2425845E-06  0.2898695E+04  0.7818609E-02  0.8273266E-01
       -2   -1    0    0    0  501  0.00000000000E+00  0.00000000000E+00  0.30464669940E+04  0.30464669940E+04  0.25500000920E-02 0.  1.
        2   -1    0    0  501    0  0.00000000000E+00  0.00000000000E+00 -0.68952272271E+03  0.68952272272E+03  0.25500000920E-02 0. -1.
    10030    2    1    2    0    0  0.00000000000E+00  0.00000000000E+00  0.23569442713E+04  0.37359897168E+04  0.28986950280E+04 0.  0.
        2    1    3    3  502    0  0.10254437470E+04 -0.91154272544E+02  0.24933315697E+04  0.26975074228E+04  0.25500000920E-02 0.  1.
       -2    1    3    3    0  502 -0.10254437470E+04  0.91154272544E+02 -0.13638729842E+03  0.10384822939E+04  0.25500000920E-02 0. -1.
</event>
<event>
 5   0  0.2360103E-06  0.2907755E+04  0.7818609E-02  0.8270574E-01
       -2   -1    0    0    0  501  0.00000000000E+00  0.00000000000E+00  0.18149473661E+04  0.18149473661E+04  0.25500000920E-02 0.  1.
        2   -1    0    0  501    0  0.00000000000E+00  0.00000000000E+00 -0.11646400616E+04  0.11646400616E+04  0.25500000920E-02 0. -1.
    10030    2    1    2    0    0  0.00000000000E+00  0.00000000000E+00  0.65030730450E+03  0.29795874277E+04  0.29077554315E+04 0.  0.
        4    1    3    3  502    0  0.15724974574E+02  0.13314382948E+04 -0.27303420844E+03  0.13592367342E+04  0.12699999809E+01 0. -1.
       -4    1    3    3    0  502 -0.15724974574E+02 -0.13314382948E+04  0.92334151294E+03  0.16203506935E+04  0.12699999809E+01 0.  1.
</event>
<event>
 5   0  0.2304435E-06  0.2904298E+04  0.7818609E-02  0.8271600E-01
        2   -1    0    0  501    0  0.00000000000E+00  0.00000000000E+00  0.10976322666E+04  0.10976322666E+04  0.25500000920E-02 0.  1.
       -2   -1    0    0    0  501  0.00000000000E+00  0.00000000000E+00 -0.19211684595E+04  0.19211684595E+04  0.25500000920E-02 0. -1.
    10030    2    1    2    0    0  0.00000000000E+00  0.00000000000E+00 -0.82353619290E+03  0.30188007261E+04  0.29042978433E+04 0.  0.
        1    1    3    3  502    0 -0.62015893382E+03  0.13019064781E+04 -0.23421517433E+03  0.14609634933E+04  0.50400001928E-02 0.  1.
       -1    1    3    3    0  502  0.62015893382E+03 -0.13019064781E+04 -0.58932101858E+03  0.15578372328E+04  0.50400001928E-02 0. -1.
</event>
<event>
 5   0  0.2378690E-06  0.2898582E+04  0.7818609E-02  0.8273299E-01
        2   -1    0    0  501    0  0.00000000000E+00  0.00000000000E+00  0.15544582762E+04  0.15544582762E+04  0.25500000920E-02 0. -1.
       -2   -1    0    0    0  501  0.00000000000E+00  0.00000000000E+00 -0.13512390097E+04  0.13512390097E+04  0.25500000920E-02 0.  1.
    10030    2    1    2    0    0  0.00000000000E+00  0.00000000000E+00  0.20321926654E+03  0.29056972859E+04  0.28985821788E+04 0.  0.
        3    1    3    3  502    0 -0.57794128947E+03 -0.12063574764E+04 -0.45754999030E+03  0.14137420199E+04  0.10100000352E+00 0.  1.
       -3    1    3    3    0  502  0.57794128947E+03  0.12063574764E+04  0.66076925685E+03  0.14919552661E+04  0.10100000352E+00 0. -1.
</event>
<event>
 5   0  0.8357118E-07  0.2904322E+04  0.7818609E-02  0.8271593E-01
        1   -1    0    0  501    0  0.00000000000E+00  0.00000000000E+00  0.16599332910E+04  0.16599332910E+04  0.50400001928E-02 0. -1.
       -1   -1    0    0    0  501  0.00000000000E+00  0.00000000000E+00 -0.12703953649E+04  0.12703953649E+04  0.50400001928E-02 0.  1.
    10030    2    1    2    0    0  0.00000000000E+00  0.00000000000E+00  0.38953792610E+03  0.29303286558E+04  0.29043219924E+04 0.  0.
        1    1    3    3  502    0 -0.12971342473E+04 -0.52857475013E+03 -0.19183710841E+03  0.14137715509E+04  0.50400001928E-02 0.  1.
       -1    1    3    3    0  502  0.12971342473E+04  0.52857475013E+03  0.58137503451E+03  0.15165571050E+04  0.50400001928E-02 0. -1.
</event>
<event>
 5   0  0.2425845E-06  0.2896920E+04  0.7818609E-02  0.8273795E-01
       -2   -1    0    0    0  501  0.00000000000E+00  0.00000000000E+00  0.93465874524E+03  0.93465874524E+03  0.25500000920E-02 0.  1.
        2   -1    0    0  501    0  0.00000000000E+00  0.00000000000E+00 -0.22447081167E+04  0.22447081167E+04  0.25500000920E-02 0. -1.
    10030    2    1    2    0    0  0.00000000000E+00  0.00000000000E+00 -0.13100493715E+04  0.31793668620E+04  0.28969197930E+04 0.  0.
        2    1    3    3  502    0  0.76161550764E+03  0.22438130702E+03  0.67454957383E+03  0.10418360140E+04  0.25500000920E-02 0.  1.
       -2    1    3    3    0  502 -0.76161550764E+03 -0.22438130702E+03 -0.19845989453E+04  0.21375308480E+04  0.25500000920E-02 0. -1.
</event>
<event>
 5   0  0.8355946E-07  0.2936825E+04  0.7818609E-02  0.8262004E-01
       -1   -1    0    0    0  501  0.00000000000E+00  0.00000000000E+00  0.11786250227E+04  0.11786250227E+04  0.50400001928E-02 0.  1.
        1   -1    0    0  501    0  0.00000000000E+00  0.00000000000E+00 -0.18294499830E+04  0.18294499830E+04  0.50400001928E-02 0. -1.
    10030    2    1    2    0    0  0.00000000000E+00  0.00000000000E+00 -0.65082496028E+03  0.30080750057E+04  0.29368251755E+04 0.  0.
        4    1    3    3  502    0  0.52689180838E+03  0.65871876597E+03 -0.15565333241E+04  0.17704019296E+04  0.12699999809E+01 0. -1.
       -4    1    3    3    0  502 -0.52689180838E+03 -0.65871876597E+03  0.90570836378E+03  0.12376730762E+04  0.12699999809E+01 0.  1.
</event>
<event>
 5   0  0.2360103E-06  0.2854919E+04  0.7818609E-02  0.8286418E-01
       -2   -1    0    0    0  501  0.00000000000E+00  0.00000000000E+00  0.14475685705E+04  0.14475685705E+04  0.25500000920E-02 0. -1.
        2   -1    0    0  501    0  0.00000000000E+00  0.00000000000E+00 -0.14076298835E+04  0.14076298835E+04  0.25500000920E-02 0.  1.
    10030    2    1    2    0    0  0.00000000000E+00  0.00000000000E+00  0.39938686952E+02  0.28551984540E+04  0.28549191079E+04 0.  0.
        4    1    3    3  502    0 -0.13154014681E+04 -0.42839397473E+03 -0.33196954434E+03  0.14226762848E+04  0.12699999809E+01 0.  1.
       -4    1    3    3    0  502  0.13154014681E+04  0.42839397473E+03  0.37190823130E+03  0.14325221692E+04  0.12699999809E+01 0. -1.
</event>
<event>
 5   0  0.2360103E-06  0.2848498E+04  0.7818609E-02  0.8288368E-01
        2   -1    0    0  501    0  0.00000000000E+00  0.00000000000E+00  0.30646450489E+04  0.30646450489E+04  0.25500000920E-02 0. -1.
       -2   -1    0    0    0  501  0.00000000000E+00  0.00000000000E+00 -0.66189909134E+03  0.66189909135E+03  0.25500000920E-02 0.  1.
    10030    2    1    2    0    0  0.00000000000E+00  0.00000000000E+00  0.24027459575E+04  0.37265441402E+04  0.28484983926E+04 0.  0.
        4    1    3    3  502    0  0.11799060269E+03 -0.41426784041E+03  0.29773871361E+04  0.30083841838E+04  0.12699999809E+01 0. -1.
       -4    1    3    3    0  502 -0.11799060269E+03  0.41426784041E+03 -0.57464117863E+03  0.71815995641E+03  0.12699999809E+01 0.  1.
</event>
<event>
 5   0  0.8357118E-07  0.2959421E+04  0.7818609E-02  0.8255414E-01
       -1   -1    0    0    0  501  0.00000000000E+00  0.00000000000E+00  0.12822989838E+04  0.12822989839E+04  0.50400001928E-02 0. -1.
        1   -1    0    0  501    0  0.00000000000E+00  0.00000000000E+00 -0.17075133646E+04  0.17075133646E+04  0.50400001928E-02 0.  1.
    10030    2    1    2    0    0  0.00000000000E+00  0.00000000000E+00 -0.42521438074E+03  0.29898123485E+04  0.29594206544E+04 0.  0.
        1    1    3    3  502    0 -0.84107849588E+03 -0.53641907106E+03 -0.13167093387E+04  0.16519327888E+04  0.50400001928E-02 0.  1.
       -1    1    3    3    0  502  0.84107849588E+03  0.53641907106E+03  0.89149495798E+03  0.13378795597E+04  0.50400001928E-02 0. -1.
</event>
<event>
 5   0  0.8263673E-07  0.2931987E+04  0.7818609E-02  0.8263423E-01
       -1   -1    0    0    0  501  0.00000000000E+00  0.00000000000E+00  0.11872309039E+04  0.11872309039E+04  0.50400001928E-02 0.  1.
        1   -1    0    0  501    0  0.00000000000E+00  0.00000000000E+00 -0.18102102330E+04  0.18102102330E+04  0.50400001928E-02 0. -1.
    10030    2    1    2    0    0  0.00000000000E+00  0.00000000000E+00 -0.62297932906E+03  0.29974411369E+04  0.29319874019E+04 0.  0.
        5    1    3    3  502    0 -0.11107086242E+04 -0.95664568712E+03 -0.32831373189E+03  0.15022172330E+04  0.46999998093E+01 0. -1.
       -5    1    3    3    0  502  0.11107086242E+04  0.95664568712E+03 -0.29466559717E+03  0.14952239039E+04  0.46999998093E+01 0.  1.
</event>
<event>
 5   0  0.2378690E-06  0.2951466E+04  0.7818609E-02  0.8257727E-01
        2   -1    0    0  501    0  0.00000000000E+00  0.00000000000E+00  0.20489303965E+04  0.20489303965E+04  0.25500000920E-02 0. -1.
       -2   -1    0    0    0  501  0.00000000000E+00  0.00000000000E+00 -0.10628901061E+04  0.10628901061E+04  0.25500000920E-02 0.  1.
    10030    2    1    2    0    0  0.00000000000E+00  0.00000000000E+00  0.98604029040E+03  0.31118205026E+04  0.29514659724E+04 0.  0.
        3    1    3    3  502    0 -0.48415728640E+03 -0.91156868282E+03 -0.61899719742E+03  0.12035461279E+04  0.10100000352E+00 0.  1.
       -3    1    3    3    0  502  0.48415728640E+03  0.91156868282E+03  0.16050374878E+04  0.19082743747E+04  0.10100000352E+00 0. -1.
</event>
<event>
 5   0  0.8263673E-07  0.2895767E+04  0.7818609E-02  0.8274138E-01
       -1   -1    0    0    0  501  0.00000000000E+00  0.00000000000E+00  0.73822082346E+03  0.73822082347E+03  0.50400001928E-02 0. -1.
        1   -1    0    0  501    0  0.00000000000E+00  0.00000000000E+00 -0.28397551778E+04  0.28397551778E+04  0.50400001928E-02 0.  1.
    10030    2    1    2    0    0  0.00000000000E+00  0.00000000000E+00 -0.21015343544E+04  0.35779760013E+04  0.28957668455E+04 0.  0.
        5    1    3    3  502    0 -0.45150704722E+03 -0.12958317471E+04 -0.48011017676E+03  0.14538109926E+04  0.46999998093E+01 0. -1.
       -5    1    3    3    0  502  0.45150704722E+03  0.12958317471E+04 -0.16214241776E+04  0.21241650087E+04  0.46999998093E+01 0.  1.
</event>
<event>
 5   0  0.8355946E-07  0.2958985E+04  0.7818609E-02  0.8255541E-01
       -1   -1    0    0    0  501  0.00000000000E+00  0.00000000000E+00  0.10275168287E+04  0.10275168287E+04  0.50400001928E-02 0.  1.
        1   -1    0    0  501    0  0.00000000000E+00  0.00000000000E+00 -0.21302790437E+04  0.21302790437E+04  0.50400001928E-02 0. -1.
    10030    2    1    2    0    0  0.00000000000E+00  0.00000000000E+00 -0.11027622150E+04  0.31577958724E+04  0.29589846686E+04 0.  0.
        4    1    3    3  502    0  0.38404101102E+03 -0.73518620895E+03 -0.18588116288E+04  0.20354774732E+04  0.12699999809E+01 0. -1.
       -4    1    3    3    0  502 -0.38404101102E+03  0.73518620895E+03  0.75604941380E+03  0.11223183991E+04  0.12699999809E+01 0.  1.
</event>
<event>
 5   0  0.2360103E-06  0.2895318E+04  0.7818609E-02  0.8274272E-01
        2   -1    0    0  501    0  0.00000000000E+00  0.00000000000E+00  0.16782657498E+04  0.16782657498E+04  0.25500000920E-02 0. -1.
       -2   -1    0    0    0  501  0.00000000000E+00  0.00000000000E+00 -0.12487392954E+04  0.12487392954E+04  0.25500000920E-02 0.  1.
    10030    2    1    2    0    0  0.00000000000E+00  0.00000000000E+00  0.42952645436E+03  0.29270050452E+04  0.28953178685E+04 0.  0.
        4    1    3    3  502    0  0.40153839274E+03  0.45950798079E+03 -0.11123621772E+04  0.12687521000E+04  0.12699999809E+01 0.  1.
       -4    1    3    3    0  502 -0.40153839274E+03 -0.45950798079E+03  0.15418886315E+04  0.16582529452E+04  0.12699999809E+01 0. -1.
</event>
<event>
 5   0  0.2304435E-06  0.2899491E+04  0.7818609E-02  0.8273029E-01
       -2   -1    0    0    0  501  0.00000000000E+00  0.00000000000E+00  0.11861100729E+04  0.11861100729E+04  0.25500000920E-02 0.  1.
        2   -1    0    0  501    0  0.00000000000E+00  0.00000000000E+00 -0.17719786594E+04  0.17719786594E+04  0.25500000920E-02 0. -1.
    10030    2    1    2    0    0  0.00000000000E+00  0.00000000000E+00 -0.58586858643E+03  0.29580887323E+04  0.28994908083E+04 0.  0.
        1    1    3    3  502    0 -0.40418703818E+03 -0.81362265459E+03  0.85968272569E+03  0.12507611182E+04  0.50400001928E-02 0.  1.
       -1    1    3    3    0  502  0.40418703818E+03  0.81362265459E+03 -0.14455513121E+04  0.17073276141E+04  0.50400001928E-02 0. -1.
</event>
<event>
 5   0  0.8483636E-07  0.2928719E+04  0.7818609E-02  0.8264384E-01
       -1   -1    0    0    0  501  0.00000000000E+00  0.00000000000E+00  0.10111297752E+04  0.10111297752E+04  0.50400001928E-02 0. -1.
        1   -1    0    0  501    0  0.00000000000E+00  0.00000000000E+00 -0.21207460417E+04  0.21207460417E+04  0.50400001928E-02 0.  1.
    10030    2    1    2    0    0  0.00000000000E+00  0.00000000000E+00 -0.11096162664E+04  0.31318758169E+04  0.29287194939E+04 0.  0.
        2    1    3    3  502    0  0.73950583355E+03  0.86375201304E+03  0.43191862774E+03  0.12163429282E+04  0.25500000920E-02 0. -1.
       -2    1    3    3    0  502 -0.73950583355E+03 -0.86375201304E+03 -0.15415348942E+04  0.19155328887E+04  0.25500000920E-02 0.  1.
</event>
<event>
 5   0  0.2425845E-06  0.2890225E+04  0.7818609E-02  0.8275792E-01
        2   -1    0    0  501    0  0.00000000000E+00  0.00000000000E+00  0.17291769536E+04  0.17291769536E+04  0.25500000920E-02 0. -1.
       -2   -1    0    0    0  501  0.00000000000E+00  0.00000000000E+00 -0.12077137723E+04  0.12077137723E+04  0.25500000920E-02 0.  1.
    10030    2    1    2    0    0  0.00000000000E+00  0.00000000000E+00  0.52146318132E+03  0.29368907259E+04  0.28902254733E+04 0.  0.
        2    1    3    3  502    0 -0.37374041877E+03 -0.12803735652E+04 -0.30440674352E+03  0.13681015432E+04  0.25500000920E-02 0.  1.
       -2    1    3    3    0  502  0.37374041877E+03  0.12803735652E+04  0.82586992484E+03  0.15687891827E+04  0.25500000920E-02 0. -1.
</event>
<event>
 5   0  0.2304435E-06  0.2902642E+04  0.7818609E-02  0.8272092E-01
       -2   -1    0    0    0  501  0.00000000000E+00  0.00000000000E+00  0.17194633599E+04  0.17194633599E+04  0.25500000920E-02 0. -1.
        2   -1    0    0  501    0  0.00000000000E+00  0.00000000000E+00 -0.12249940123E+04  0.12249940123E+04  0.25500000920E-02 0.  1.
    10030    2    1    2    0    0  0.00000000000E+00  0.00000000000E+00  0.49446934753E+03  0.29444573722E+04  0.29026417762E+04 0.  0.
        1    1    3    3  502    0  0.77408437430E+03 -0.11404916696E+04 -0.21362781541E+03  0.13948350120E+04  0.50400001928E-02 0.  1.
       -1    1    3    3    0  502 -0.77408437430E+03  0.11404916696E+04  0.70809716294E+03  0.15496223602E+04  0.50400001928E-02 0. -1.
</event>
<event>
 5   0  0.2378690E-06  0.2896316E+04  0.7818609E-02  0.8273974E-01
        2   -1    0    0  501    0  0.00000000000E+00  0.00000000000E+00  0.22584584405E+04  0.22584584405E+04  0.25500000920E-02 0.  1.
       -2   -1    0    0    0  501  0.00000000000E+00  0.00000000000E+00 -0.92858122574E+03  0.92858122574E+03  0.25500000920E-02 0. -1.
    10030    2    1    2    0    0  0.00000000000E+00  0.00000000000E+00  0.13298772148E+04  0.31870396662E+04  0.28963163549E+04 0.  0.
        3    1    3    3  502    0 -0.39006524213E+03  0.22788803068E+02 -0.86948240972E+03  0.95324178133E+03  0.10100000352E+00 0. -1.
       -3    1    3    3    0  502  0.39006524213E+03 -0.22788803068E+02  0.21993596245E+04  0.22337978849E+04  0.10100000352E+00 0.  1.
</event>
<event>
 5   0  0.2425845E-06  0.2906070E+04  0.7818609E-02  0.8271074E-01
       -2   -1    0    0    0  501  0.00000000000E+00  0.00000000000E+00  0.11279850265E+04  0.11279850265E+04  0.25500000920E-02 0.  1.
        2   -1    0    0  501    0  0.00000000000E+00  0.00000000000E+00 -0.18717542716E+04  0.18717542716E+04  0.25500000920E-02 0. -1.
    10030    2    1    2    0    0  0.00000000000E+00  0.00000000000E+00 -0.74376924506E+03  0.29997392981E+04  0.29060700554E+04 0.  0.
        2    1    3    3  502    0 -0.87485928706E+03 -0.38286347136E+03  0.75856175130E+03  0.12195815431E+04  0.25500000920E-02 0.  1.
       -2    1    3    3    0  502  0.87485928706E+03  0.38286347136E+03 -0.15023309964E+04  0.17801577549E+04  0.25500000920E-02 0. -1.
</event>
<event>
 5   0  0.8263673E-07  0.2895525E+04  0.7818609E-02  0.8274210E-01
        1   -1    0    0  501    0  0.00000000000E+00  0.00000000000E+00  0.19879770989E+04  0.19879770989E+04  0.50400001928E-02 0.  1.
       -1   -1    0    0    0  501  0.00000000000E+00  0.00000000000E+00 -0.10543460479E+04  0.10543460479E+04  0.50400001928E-02 0. -1.
    10030    2    1    2    0    0  0.00000000000E+00  0.00000000000E+00  0.93363105101E+03  0.30423231468E+04  0.28955246830E+04 0.  0.
        5    1    3    3  502    0  0.36731993405E+03  0.72943300722E+03  0.17228274671E+04  0.19066077251E+04  0.46999998093E+01 0.  1.
       -5    1    3    3    0  502 -0.36731993405E+03 -0.72943300722E+03 -0.78919641608E+03  0.11357154217E+04  0.46999998093E+01 0. -1.
</event>
<event>
 5   0  0.2360103E-06  0.2898092E+04  0.7818609E-02  0.8273445E-01
        2   -1    0    0  501    0  0.00000000000E+00  0.00000000000E+00  0.19298041440E+04  0.19298041440E+04  0.25500000920E-02 0.  1.
       -2   -1    0    0    0  501  0.00000000000E+00  0.00000000000E+00 -0.10880556749E+04  0.10880556749E+04  0.25500000920E-02 0. -1.
    10030    2    1    2    0    0  0.00000000000E+00  0.00000000000E+00  0.84174846907E+03  0.30178598189E+04  0.28980920278E+04 0.  0.
        4    1    3    3  502    0 -0.40958375184E+02 -0.14399756948E+04  0.58395123097E+03  0.15544157240E+04  0.12699999809E+01 0.  1.
       -4    1    3    3    0  502  0.40958375184E+02  0.14399756948E+04  0.25779723810E+03  0.14634440949E+04  0.12699999809E+01 0. -1.
</event>
<event>
 5   0  0.8947674E-07  0.2917644E+04  0.7818609E-02  0.8267647E-01
        1   -1    0    0  501    0  0.00000000000E+00  0.00000000000E+00  0.22987453823E+04  0.22987453824E+04  0.50400001928E-02 0.  1.
       -1   -1    0    0    0  501  0.00000000000E+00  0.00000000000E+00 -0.92579247320E+03  0.92579247321E+03  0.50400001928E-02 0. -1.
    10030    2    1    2    0    0  0.00000000000E+00  0.00000000000E+00  0.13729529091E+04  0.32245378556E+04  0.29176436882E+04 0.  0.
        3    1    3    3  502    0  0.64927749303E+03 -0.53559000616E+03  0.20033380493E+04  0.21729660070E+04  0.10100000352E+00 0.  1.
       -3    1    3    3    0  502 -0.64927749303E+03  0.53559000616E+03 -0.63038514011E+03  0.10515718486E+04  0.10100000352E+00 0. -1.
</event>
<event>
 5   0  0.8947674E-07  0.2889147E+04  0.7818609E-02  0.8276114E-01
       -1   -1    0    0    0  501  0.00000000000E+00  0.00000000000E+00  0.13691968730E+04  0.13691968730E+04  0.50400001928E-02 0.  1.
        1   -1    0    0  501    0  0.00000000000E+00  0.00000000000E+00 -0.15240994222E+04  0.15240994222E+04  0.50400001928E-02 0. -1.
    10030    2    1    2    0    0  0.00000000000E+00  0.00000000000E+00 -0.15490254918E+03  0.28932962951E+04  0.28891466996E+04 0.  0.
        3    1    3    3  502    0  0.12345355415E+04  0.17300858404E+03 -0.80841893243E+03  0.14857830104E+04  0.10100000352E+00 0. -1.
       -3    1    3    3    0  502 -0.12345355415E+04 -0.17300858404E+03  0.65351638326E+03  0.14075132848E+04  0.10100000352E+00 0.  1.
</event>
<event>
 5   0  0.2378690E-06  0.2890896E+04  0.7818609E-02  0.8275591E-01
        2   -1    0    0  501    0  0.00000000000E+00  0.00000000000E+00  0.20198640022E+04  0.20198640022E+04  0.25500000920E-02 0. -1.
       -2   -1    0    0    0  501  0.00000000000E+00  0.00000000000E+00 -0.10343863304E+04  0.10343863304E+04  0.25500000920E-02 0.  1.
    10030    2    1    2    0    0  0.00000000000E+00  0.00000000000E+00  0.98547767187E+03  0.30542503326E+04  0.28908958564E+04 0.  0.
        3    1    3    3  502    0  0.28520825206E+03 -0.86863590121E+03  0.16755768664E+04  0.19087770748E+04  0.10100000352E+00 0. -1.
       -3    1    3    3    0  502 -0.28520825206E+03  0.86863590121E+03 -0.69009919451E+03  0.11454732578E+04  0.10100000352E+00 0.  1.
</event>
<event>
 5   0  0.8947674E-07  0.2892239E+04  0.7818609E-02  0.8275190E-01
       -1   -1    0    0    0  501  0.00000000000E+00  0.00000000000E+00  0.26221878454E+04  0.26221878455E+04  0.50400001928E-02 0.  1.
        1   -1    0    0  501    0  0.00000000000E+00  0.00000000000E+00 -0.79752550940E+03  0.79752550942E+03  0.50400001928E-02 0. -1.
    10030    2    1    2    0    0  0.00000000000E+00  0.00000000000E+00  0.18246623360E+04  0.34197133549E+04  0.28922390615E+04 0.  0.
        3    1    3    3  502    0  0.46394111980E+03  0.13282968612E+04  0.51725525779E+03  0.14990553446E+04  0.10100000352E+00 0.  1.
       -3    1    3    3    0  502 -0.46394111980E+03 -0.13282968612E+04  0.13074070783E+04  0.19206580103E+04  0.10100000352E+00 0. -1.
</event>
<event>
 5   0  0.8355946E-07  0.2911074E+04  0.7818609E-02  0.8269590E-01
        1   -1    0    0  501    0  0.00000000000E+00  0.00000000000E+00  0.16569971419E+04  0.16569971419E+04  0.50400001928E-02 0.  1.
       -1   -1    0    0    0  501  0.00000000000E+00  0.00000000000E+00 -0.12785708384E+04  0.12785708384E+04  0.50400001928E-02 0. -1.
    10030    2    1    2    0    0  0.00000000000E+00  0.00000000000E+00  0.37842630356E+03  0.29355679803E+04  0.29110741832E+04 0.  0.
        4    1    3    3  502    0 -0.64290665647E+03  0.12773063506E+04 -0.84634162396E+02  0.14324821244E+04  0.12699999809E+01 0.  1.
       -4    1    3    3    0  502  0.64290665647E+03 -0.12773063506E+04  0.46306046595E+03  0.15030858559E+04  0.12699999809E+01 0. -1.
</event>
<event>
 5   0  0.8263673E-07  0.2895542E+04  0.7818609E-02  0.8274205E-01
        1   -1    0    0  501    0  0.00000000000E+00  0.00000000000E+00  0.18925673871E+04  0.18925673871E+04  0.50400001928E-02 0. -1.
       -1   -1    0    0    0  501  0.00000000000E+00  0.00000000000E+00 -0.11075122375E+04  0.11075122375E+04  0.50400001928E-02 0.  1.
    10030    2    1    2    0    0  0.00000000000E+00  0.00000000000E+00  0.78505514960E+03  0.30000796246E+04  0.28955424649E+04 0.  0.
        5    1    3    3  502    0 -0.54372651608E+03 -0.12008381911E+04  0.10127790379E+04  0.16623460395E+04  0.46999998093E+01 0. -1.
       -5    1    3    3    0  502  0.54372651608E+03  0.12008381911E+04 -0.22772388832E+03  0.13377335851E+04  0.46999998093E+01 0.  1.
</event>
<event>
 5   0  0.8355946E-07  0.2899207E+04  0.7818609E-02  0.8273114E-01
       -1   -1    0    0    0  501  0.00000000000E+00  0.00000000000E+00  0.15149631017E+04  0.15149631017E+04  0.50400001928E-02 0.  1.
        1   -1    0    0  501    0  0.00000000000E+00  0.00000000000E+00 -0.13870633284E+04  0.13870633284E+04  0.50400001928E-02 0. -1.
    10030    2    1    2    0    0  0.00000000000E+00  0.00000000000E+00  0.12789977327E+03  0.29020264301E+04  0.28992066241E+04 0.  0.
        4    1    3    3  502    0 -0.32571216522E+02  0.61138930469E+03 -0.12512878982E+04  0.13930473011E+04  0.12699999809E+01 0. -1.
       -4    1    3    3    0  502  0.32571216522E+02 -0.61138930469E+03  0.13791876714E+04  0.15089791291E+04  0.12699999809E+01 0.  1.
</event>
<event>
 5   0  0.2378690E-06  0.2896568E+04  0.7818609E-02  0.8273899E-01
       -2   -1    0    0    0  501  0.00000000000E+00  0.00000000000E+00  0.82663155195E+03  0.82663155195E+03  0.25500000920E-02 0.  1.
        2   -1    0    0  501    0  0.00000000000E+00  0.00000000000E+00 -0.25374385545E+04  0.25374385545E+04  0.25500000920E-02 0. -1.
    10030    2    1    2    0    0  0.00000000000E+00  0.00000000000E+00 -0.17108070025E+04  0.33640701064E+04  0.28965681558E+04 0.  0.
        3    1    3    3  502    0  0.56031014119E+03  0.15591856036E+02 -0.24063538639E+04  0.24707750785E+04  0.10100000352E+00 0.  1.
       -3    1    3    3    0  502 -0.56031014119E+03 -0.15591856036E+02  0.69554686137E+03  0.89329502789E+03  0.10100000352E+00 0. -1.
</event>
<event>
 5   0  0.8357118E-07  0.2912386E+04  0.7818609E-02  0.8269202E-01
        1   -1    0    0  501    0  0.00000000000E+00  0.00000000000E+00  0.15214510789E+04  0.15214510789E+04  0.50400001928E-02 0.  1.
       -1   -1    0    0    0  501  0.00000000000E+00  0.00000000000E+00 -0.13937337812E+04  0.13937337812E+04  0.50400001928E-02 0. -1.
    10030    2    1    2    0    0  0.00000000000E+00  0.00000000000E+00  0.12771729769E+03  0.29151848600E+04  0.29123858021E+04 0.  0.
        1    1    3    3  502    0  0.12729151173E+04  0.16800808640E+03  0.75151101327E+03  0.14877191993E+04  0.50400001928E-02 0.  1.
       -1    1    3    3    0  502 -0.12729151173E+04 -0.16800808640E+03 -0.62379371557E+03  0.14274656607E+04  0.50400001928E-02 0. -1.
</event>
<event>
 5   0  0.2378690E-06  0.2909840E+04  0.7818609E-02  0.8269956E-01
        2   -1    0    0  501    0  0.00000000000E+00  0.00000000000E+00  0.18051624139E+04  0.18051624139E+04  0.25500000920E-02 0. -1.
       -2   -1    0    0    0  501  0.00000000000E+00  0.00000000000E+00 -0.11726324864E+04  0.11726324864E+04  0.25500000920E-02 0.  1.
    10030    2    1    2    0    0  0.00000000000E+00  0.00000000000E+00  0.63252992753E+03  0.29777949002E+04  0.29098399198E+04 0.  0.
        3    1    3    3  502    0  0.14571980433E+03 -0.14135288989E+04  0.63579695040E+03  0.15567710113E+04  0.10100000352E+00 0.  1.
       -3    1    3    3    0  502 -0.14571980433E+03  0.14135288989E+04 -0.32670228700E+01  0.14210238889E+04  0.10100000352E+00 0. -1.
</event>
<event>
 5   0  0.2360103E-06  0.2899119E+04  0.7818609E-02  0.8273140E-01
        2   -1    0    0  501    0  0.00000000000E+00  0.00000000000E+00  0.16258208499E+04  0.16258208499E+04  0.25500000920E-02 0. -1.
       -2   -1    0    0    0  501  0.00000000000E+00  0.00000000000E+00 -0.12924069790E+04  0.12924069790E+04  0.25500000920E-02 0.  1.
    10030    2    1    2    0    0  0.00000000000E+00  0.00000000000E+00  0.33341387091E+03  0.29182278289E+04  0.28991186336E+04 0.  0.
        4    1    3    3  502    0  0.33224996262E+03 -0.10308384959E+03 -0.12497657527E+04  0.12972788317E+04  0.12699999809E+01 0.  1.
       -4    1    3    3    0  502 -0.33224996262E+03  0.10308384959E+03  0.15831796236E+04  0.16209489971E+04  0.12699999809E+01 0. -1.
</event>
<event>
 5   0  0.8357118E-07  0.2911284E+04  0.7818609E-02  0.8269528E-01
       -1   -1    0    0    0  501  0.00000000000E+00  0.00000000000E+00  0.11348853523E+04  0.11348853523E+04  0.50400001928E-02 0. -1.
        1   -1    0    0  501    0  0.00000000000E+00  0.00000000000E+00 -0.18670550410E+04  0.18670550410E+04  0.50400001928E-02 0.  1.
    10030    2    1    2    0    0  0.00000000000E+00  0.00000000000E+00 -0.73216968869E+03  0.30019403933E+04  0.29112838528E+04 0.  0.
        1    1    3    3  502    0  0.47796360409E+03 -0.27398632341E+03  0.10232303089E+04  0.11621178845E+04  0.50400001928E-02 0. -1.
       -1    1    3    3    0  502 -0.47796360409E+03  0.27398632341E+03 -0.17553999976E+04  0.18398225088E+04  0.50400001928E-02 0.  1.
</event>
<event>
 5   0  0.8357118E-07  0.2898922E+04  0.7818609E-02  0.8273198E-01
        1   -1    0    0  501    0  0.00000000000E+00  0.00000000000E+00  0.16601348069E+04  0.16601348069E+04  0.50400001928E-02 0. -1.
       -1   -1    0    0    0  501  0.00000000000E+00  0.00000000000E+00 -0.12655219604E+04  0.12655219604E+04  0.50400001928E-02 0.  1.
    10030    2    1    2    0    0  0.00000000000E+00  0.00000000000E+00  0.39461284645E+03  0.29256567673E+04  0.28989219068E+04 0.  0.
        1    1    3    3  502    0  0.69344995539E+03 -0.95409891112E+02  0.14782482113E+04  0.16356019266E+04  0.50400001928E-02 0. -1.
       -1    1    3    3    0  502 -0.69344995539E+03  0.95409891112E+02 -0.10836353649E+04  0.12900548407E+04  0.50400001928E-02 0.  1.
</event>
<event>
 5   0  0.2425845E-06  0.2942216E+04  0.7818609E-02  0.8260427E-01
        2   -1    0    0  501    0  0.00000000000E+00  0.00000000000E+00  0.21786757014E+04  0.21786757014E+04  0.25500000920E-02 0.  1.
       -2   -1    0    0    0  501  0.00000000000E+00  0.00000000000E+00 -0.99333674664E+03  0.99333674664E+03  0.25500000920E-02 0. -1.
    10030    2    1    2    0    0  0.00000000000E+00  0.00000000000E+00  0.11853389547E+04  0.31720124480E+04  0.29422159222E+04 0.  0.
        2    1    3    3  502    0  0.12430860062E+04  0.54834955376E+03  0.12008272831E+04  0.18132667249E+04  0.25500000920E-02 0. -1.
       -2    1    3    3    0  502 -0.12430860062E+04 -0.54834955376E+03 -0.15488328336E+02  0.13587457231E+04  0.25500000920E-02 0.  1.
</event>
<event>
 5   0  0.2378690E-06  0.2902166E+04  0.7818609E-02  0.8272233E-01
       -2   -1    0    0    0  501  0.00000000000E+00  0.00000000000E+00  0.10238800348E+04  0.10238800348E+04  0.25500000920E-02 0. -1.
        2   -1    0    0  501    0  0.00000000000E+00  0.00000000000E+00 -0.20565320931E+04  0.20565320931E+04  0.25500000920E-02 0.  1.
    10030    2    1    2    0    0  0.00000000000E+00  0.00000000000E+00 -0.10326520583E+04  0.30804121278E+04  0.29021661916E+04 0.  0.
        3    1    3    3  502    0 -0.13263103431E+03 -0.10685303560E+04 -0.15488486988E+04  0.18863404823E+04  0.10100000352E+00 0.  1.
       -3    1    3    3    0  502  0.13263103431E+03  0.10685303560E+04  0.51619664049E+03  0.11940716456E+04  0.10100000352E+00 0. -1.
</event>
<event>
 5   0  0.8355946E-07  0.2858600E+04  0.7818609E-02  0.8285303E-01
        1   -1    0    0  501    0  0.00000000000E+00  0.00000000000E+00  0.13138428970E+04  0.13138428970E+04  0.50400001928E-02 0. -1.
       -1   -1    0    0    0  501  0.00000000000E+00  0.00000000000E+00 -0.15549033160E+04  0.15549033160E+04  0.50400001928E-02 0.  1.
    10030    2    1    2    0    0  0.00000000000E+00  0.00000000000E+00 -0.24106041899E+03  0.28687462131E+04  0.28586001311E+04 0.  0.
        4    1    3    3  502    0  0.32230108546E+03  0.11882104317E+04 -0.84917546616E+03  0.14956010848E+04  0.12699999809E+01 0.  1.
       -4    1    3    3    0  502 -0.32230108546E+03 -0.11882104317E+04  0.60811504718E+03  0.13731451282E+04  0.12699999809E+01 0. -1.
</event>
<event>
 5   0  0.8483636E-07  0.2909866E+04  0.7818609E-02  0.8269948E-01
        1   -1    0    0  501    0  0.00000000000E+00  0.00000000000E+00  0.22821503287E+04  0.22821503287E+04  0.50400001928E-02 0.  1.
       -1   -1    0    0    0  501  0.00000000000E+00  0.00000000000E+00 -0.92755912749E+03  0.92755912751E+03  0.50400001928E-02 0. -1.
    10030    2    1    2    0    0  0.00000000000E+00  0.00000000000E+00  0.13545912012E+04  0.32097094562E+04  0.29098655417E+04 0.  0.
        2    1    3    3  502    0 -0.90452618169E+03 -0.84543794109E+03 -0.16557462863E+03  0.12491388567E+04  0.25500000920E-02 0. -1.
       -2    1    3    3    0  502  0.90452618169E+03  0.84543794109E+03  0.15201658298E+04  0.19605705995E+04  0.25500000920E-02 0.  1.
</event>
<event>
 5   0  0.8357118E-07  0.2899253E+04  0.7818609E-02  0.8273100E-01
        1   -1    0    0  501    0  0.00000000000E+00  0.00000000000E+00  0.18058962062E+04  0.18058962062E+04  0.50400001928E-02 0. -1.
       -1   -1    0    0    0  501  0.00000000000E+00  0.00000000000E+00 -0.11636422263E+04  0.11636422263E+04  0.50400001928E-02 0.  1.
    10030    2    1    2    0    0  0.00000000000E+00  0.00000000000E+00  0.64225397991E+03  0.29695384325E+04  0.28992530637E+04 0.  0.
        1    1    3    3  502    0 -0.97413286566E+03 -0.17260870857E+03  0.14063836456E+04  0.17194893326E+04  0.50400001928E-02 0. -1.
       -1    1    3    3    0  502  0.97413286566E+03  0.17260870857E+03 -0.76412966568E+03  0.12500490999E+04  0.50400001928E-02 0.  1.
</event>
<event>
 5   0  0.2425845E-06  0.2923584E+04  0.7818609E-02  0.8265895E-01
        2   -1    0    0  501    0  0.00000000000E+00  0.00000000000E+00  0.24529400878E+04  0.24529400878E+04  0.25500000920E-02 0. -1.
       -2   -1    0    0    0  501  0.00000000000E+00  0.00000000000E+00 -0.87113253283E+03  0.87113253283E+03  0.25500000920E-02 0.  1.
    10030    2    1    2    0    0  0.00000000000E+00  0.00000000000E+00  0.15818075550E+04  0.33240726206E+04  0.29235840413E+04 0.  0.
        2    1    3    3  502    0  0.67770346184E+03 -0.77569722974E+03 -0.38841258983E+03  0.11008417299E+04  0.25500000920E-02 0.  1.
       -2    1    3    3    0  502 -0.67770346184E+03  0.77569722974E+03  0.19702201448E+04  0.22232308907E+04  0.25500000920E-02 0. -1.
</event>
<event>
 5   0  0.8263673E-07  0.2902059E+04  0.7818609E-02  0.8272265E-01
       -1   -1    0    0    0  501  0.00000000000E+00  0.00000000000E+00  0.10477917965E+04  0.10477917965E+04  0.50400001928E-02 0.  1.
        1   -1    0    0  501    0  0.00000000000E+00  0.00000000000E+00 -0.20094515569E+04  0.20094515569E+04  0.50400001928E-02 0. -1.
    10030    2    1    2    0    0  0.00000000000E+00  0.00000000000E+00 -0.96165976042E+03  0.30572433534E+04  0.29020591701E+04 0.  0.
        5    1    3    3  502    0  0.10721590654E+04 -0.92754539829E+03 -0.15510497618E+03  0.14261644965E+04  0.46999998093E+01 0.  1.
       -5    1    3    3    0  502 -0.10721590654E+04  0.92754539829E+03 -0.80655478424E+03  0.16310788569E+04  0.46999998093E+01 0. -1.
</event>
<event>
 5   0  0.8947674E-07  0.2875484E+04  0.7818609E-02  0.8280209E-01
        1   -1    0    0  501    0  0.00000000000E+00  0.00000000000E+00  0.10624890588E+04  0.10624890588E+04  0.50400001928E-02 0.  1.
       -1   -1    0    0    0  501  0.00000000000E+00  0.00000000000E+00 -0.19455273940E+04  0.19455273940E+04  0.50400001928E-02 0. -1.
    10030    2    1    2    0    0  0.00000000000E+00  0.00000000000E+00 -0.88303833520E+03  0.30080164528E+04  0.28754836600E+04 0.  0.
        3    1    3    3  502    0 -0.14974085706E+03 -0.56414057766E+03  0.93297568152E+03  0.11005092222E+04  0.10100000352E+00 0.  1.
       -3    1    3    3    0  502  0.14974085706E+03  0.56414057766E+03 -0.18160140167E+04  0.19075072306E+04  0.10100000352E+00 0. -1.
</event>
<event>
 5   0  0.2378690E-06  0.2899156E+04  0.7818609E-02  0.8273129E-01
        2   -1    0    0  501    0  0.00000000000E+00  0.00000000000E+00  0.92986810204E+03  0.92986810204E+03  0.25500000920E-02 0.  1.
       -2   -1    0    0    0  501  0.00000000000E+00  0.00000000000E+00 -0.22597568446E+04  0.22597568446E+04  0.25500000920E-02 0. -1.
    10030    2    1    2    0    0  0.00000000000E+00  0.00000000000E+00 -0.13298887426E+04  0.31896249466E+04  0.28991556068E+04 0.  0.
        3    1    3    3  502    0 -0.20143602088E+01 -0.26335568133E+03 -0.22332146710E+04  0.22486902965E+04  0.10100000352E+00 0. -1.
       -3    1    3    3    0  502  0.20143602088E+01  0.26335568133E+03  0.90332592848E+03  0.94093465012E+03  0.10100000352E+00 0.  1.
</event>
<event>
 5   0  0.2378690E-06  0.2888323E+04  0.7818609E-02  0.8276360E-01
        2   -1    0    0  501    0  0.00000000000E+00  0.00000000000E+00  0.21858139302E+04  0.21858139302E+04  0.25500000920E-02 0. -1.
       -2   -1    0    0    0  501  0.00000000000E+00  0.00000000000E+00 -0.95415401501E+03  0.95415401501E+03  0.25500000920E-02 0.  1.
    10030    2    1    2    0    0  0.00000000000E+00  0.00000000000E+00  0.12316599152E+04  0.31399679452E+04  0.28883234844E+04 0.  0.
        3    1    3    3  502    0  0.69939377191E+03  0.52444510699E+03  0.18655075479E+04  0.20601729878E+04  0.10100000352E+00 0. -1.
       -3    1    3    3    0  502 -0.69939377191E+03 -0.52444510699E+03 -0.63384763265E+03  0.10797949574E+04  0.10100000352E+00 0.  1.
</event>
<event>
 5   0  0.8357118E-07  0.2911685E+04  0.7818609E-02  0.8269409E-01
       -1   -1    0    0    0  501  0.00000000000E+00  0.00000000000E+00  0.16815232034E+04  0.16815232034E+04  0.50400001928E-02 0. -1.
        1   -1    0    0  501    0  0.00000000000E+00  0.00000000000E+00 -0.12604509211E+04  0.12604509211E+04  0.50400001928E-02 0.  1.
    10030    2    1    2    0    0  0.00000000000E+00  0.00000000000E+00  0.42107228238E+03  0.29419741245E+04  0.29116850589E+04 0.  0.
        1    1    3    3  502    0  0.12662103953E+04 -0.66365017069E+03 -0.67567249084E+02  0.14311833032E+04  0.50400001928E-02 0. -1.
       -1    1    3    3    0  502 -0.12662103953E+04  0.66365017069E+03  0.48863953146E+03  0.15107908213E+04  0.50400001928E-02 0.  1.
</event>
<event>
 5   0  0.2304435E-06  0.2907390E+04  0.7818609E-02  0.8270682E-01
       -2   -1    0    0    0  501  0.00000000000E+00  0.00000000000E+00  0.10208588118E+04  0.10208588118E+04  0.25500000920E-02 0.  1.
        2   -1    0    0  501    0  0.00000000000E+00  0.00000000000E+00 -0.20700498943E+04  0.20700498943E+04  0.25500000920E-02 0. -1.
    10030    2    1    2    0    0  0.00000000000E+00  0.00000000000E+00 -0.10491910825E+04  0.30909087062E+04  0.29073896716E+04 0.  0.
        1    1    3    3  502    0  0.38819313826E+03 -0.31379865597E+03 -0.19760836425E+04  0.20381535937E+04  0.50400001928E-02 0. -1.
       -1    1    3    3    0  502 -0.38819313826E+03  0.31379865597E+03  0.92689256002E+03  0.10527551125E+04  0.50400001928E-02 0.  1.
</event>
<event>
 5   0  0.8355946E-07  0.2894920E+04  0.7818609E-02  0.8274391E-01
        1   -1    0    0  501    0  0.00000000000E+00  0.00000000000E+00  0.13008385983E+04  0.13008385983E+04  0.50400001928E-02 0. -1.
       -1   -1    0    0    0  501  0.00000000000E+00  0.00000000000E+00 -0.16106072753E+04  0.16106072754E+04  0.50400001928E-02 0.  1.
    10030    2    1    2    0    0  0.00000000000E+00  0.00000000000E+00 -0.30976867702E+03  0.29114458737E+04  0.28949197644E+04 0.  0.
        4    1    3    3  502    0  0.36991572493E+03  0.77757894111E+03  0.10152315790E+04  0.13312262862E+04  0.12699999809E+01 0. -1.
       -4    1    3    3    0  502 -0.36991572493E+03 -0.77757894111E+03 -0.13250002560E+04  0.15802195875E+04  0.12699999809E+01 0.  1.
</event>
<event>
 5   0  0.8357118E-07  0.2884717E+04  0.7818609E-02  0.8277439E-01
        1   -1    0    0  501    0  0.00000000000E+00  0.00000000000E+00  0.18381309110E+04  0.18381309110E+04  0.50400001928E-02 0.  1.
       -1   -1    0    0    0  501  0.00000000000E+00  0.00000000000E+00 -0.11318010951E+04  0.11318010951E+04  0.50400001928E-02 0. -1.
    10030    2    1    2    0    0  0.00000000000E+00  0.00000000000E+00  0.70632981589E+03  0.29699320061E+04  0.28847173712E+04 0.  0.
        1    1    3    3  502    0  0.84529961209E+03  0.76776031042E+03 -0.55400606708E+03  0.12692163137E+04  0.50400001928E-02 0. -1.
       -1    1    3    3    0  502 -0.84529961209E+03 -0.76776031042E+03  0.12603358830E+04  0.17007156924E+04  0.50400001928E-02 0.  1.
</event>
<event>
 5   0  0.8483636E-07  0.2901276E+04  0.7818609E-02  0.8272498E-01
       -1   -1    0    0    0  501  0.00000000000E+00  0.00000000000E+00  0.11708672382E+04  0.11708672382E+04  0.50400001928E-02 0. -1.
        1   -1    0    0  501    0  0.00000000000E+00  0.00000000000E+00 -0.17972581216E+04  0.17972581216E+04  0.50400001928E-02 0.  1.
    10030    2    1    2    0    0  0.00000000000E+00  0.00000000000E+00 -0.62639088334E+03  0.29681253598E+04  0.29012760318E+04 0.  0.
        2    1    3    3  502    0 -0.32631005056E+03 -0.48866113459E+03 -0.16700594356E+04  0.17704142091E+04  0.25500000920E-02 0.  1.
       -2    1    3    3    0  502  0.32631005056E+03  0.48866113459E+03  0.10436685522E+04  0.11977111507E+04  0.25500000920E-02 0. -1.
</event>
<event>
 5   0  0.2378690E-06  0.2856184E+04  0.7818609E-02  0.8286035E-01
        2   -1    0    0  501    0  0.00000000000E+00  0.00000000000E+00  0.17601103149E+04  0.17601103149E+04  0.25500000920E-02 0. -1.
       -2   -1    0    0    0  501  0.00000000000E+00  0.00000000000E+00 -0.11587041503E+04  0.11587041503E+04  0.25500000920E-02 0.  1.
    10030    2    1    2    0    0  0.00000000000E+00  0.00000000000E+00  0.60140616456E+03  0.29188144653E+04  0.28561842566E+04 0.  0.
        3    1    3    3  502    0 -0.54206227479E+03 -0.12858926377E+04  0.61083039731E+03  0.15233073130E+04  0.10100000352E+00 0. -1.
       -3    1    3    3    0  502  0.54206227479E+03  0.12858926377E+04 -0.94242327450E+01  0.13955071522E+04  0.10100000352E+00 0.  1.
</event>
<event>
 5   0  0.8355946E-07  0.2933498E+04  0.7818609E-02  0.8262980E-01
       -1   -1    0    0    0  501  0.00000000000E+00  0.00000000000E+00  0.12423705143E+04  0.12423705143E+04  0.50400001928E-02 0. -1.
        1   -1    0    0  501    0  0.00000000000E+00  0.00000000000E+00 -0.17316512688E+04  0.17316512688E+04  0.50400001928E-02 0.  1.
    10030    2    1    2    0    0  0.00000000000E+00  0.00000000000E+00 -0.48928075450E+03  0.29740217831E+04  0.29334978967E+04 0.  0.
        4    1    3    3  502    0  0.62486373882E+03  0.11742139088E+04  0.38205578839E+03  0.13839079572E+04  0.12699999809E+01 0.  1.
       -4    1    3    3    0  502 -0.62486373882E+03 -0.11742139088E+04 -0.87133654289E+03  0.15901138260E+04  0.12699999809E+01 0. -1.
</event>
<event>
 5   0  0.8483636E-07  0.2974991E+04  0.7818609E-02  0.8250909E-01
        1   -1    0    0  501    0  0.00000000000E+00  0.00000000000E+00  0.18801940890E+04  0.18801940890E+04  0.50400001928E-02 0.  1.
       -1   -1    0    0    0  501  0.00000000000E+00  0.00000000000E+00 -0.11768162935E+04  0.11768162935E+04  0.50400001928E-02 0. -1.
    10030    2    1    2    0    0  0.00000000000E+00  0.00000000000E+00  0.70337779546E+03  0.30570103825E+04  0.29749911185E+04 0.  0.
        2    1    3    3  502    0 -0.11447440236E+04  0.76687880957E+03  0.92758738109E+03  0.16610118415E+04  0.25500000920E-02 0. -1.
       -2    1    3    3    0  502  0.11447440236E+04 -0.76687880957E+03 -0.22420958563E+03  0.13959985410E+04  0.25500000920E-02 0.  1.
</event>
<event>
 5   0  0.2425845E-06  0.2899413E+04  0.7818609E-02  0.8273052E-01
        2   -1    0    0  501    0  0.00000000000E+00  0.00000000000E+00  0.21082499184E+04  0.21082499184E+04  0.25500000920E-02 0.  1.
       -2   -1    0    0    0  501  0.00000000000E+00  0.00000000000E+00 -0.99686929455E+03  0.99686929455E+03  0.25500000920E-02 0. -1.
    10030    2    1    2    0    0  0.00000000000E+00  0.00000000000E+00  0.11113806239E+04  0.31051192130E+04  0.28994134641E+04 0.  0.
        2    1    3    3  502    0  0.55967304891E+03 -0.64850741155E+02 -0.87482041912E+03  0.10405528848E+04  0.25500000920E-02 0. -1.
       -2    1    3    3    0  502 -0.55967304891E+03  0.64850741155E+02  0.19862010430E+04  0.20645663282E+04  0.25500000920E-02 0.  1.
</event>
<event>
 5   0  0.8947674E-07  0.2897364E+04  0.7818609E-02  0.8273662E-01
       -1   -1    0    0    0  501  0.00000000000E+00  0.00000000000E+00  0.10133663246E+04  0.10133663246E+04  0.50400001928E-02 0. -1.
        1   -1    0    0  501    0  0.00000000000E+00  0.00000000000E+00 -0.20709983352E+04  0.20709983352E+04  0.50400001928E-02 0.  1.
    10030    2    1    2    0    0  0.00000000000E+00  0.00000000000E+00 -0.10576320107E+04  0.30843646598E+04  0.28973642996E+04 0.  0.
        3    1    3    3  502    0 -0.54663256115E+03  0.27516468903E+03 -0.19266353408E+04  0.20214961068E+04  0.10100000352E+00 0.  1.
       -3    1    3    3    0  502  0.54663256115E+03 -0.27516468903E+03  0.86900333017E+03  0.10628685530E+04  0.10100000352E+00 0. -1.
</event>
<event>
 5   0  0.2325590E-06  0.2892709E+04  0.7818609E-02  0.8275050E-01
        2   -1    0    0  501    0  0.00000000000E+00  0.00000000000E+00  0.16371235667E+04  0.16371235667E+04  0.25500000920E-02 0. -1.
       -2   -1    0    0    0  501  0.00000000000E+00  0.00000000000E+00 -0.12778152013E+04  0.12778152013E+04  0.25500000920E-02 0.  1.
    10030    2    1    2    0    0  0.00000000000E+00  0.00000000000E+00  0.35930836544E+03  0.29149387680E+04  0.28927090279E+04 0.  0.
        5    1    3    3  502    0  0.12283310685E+04 -0.57426071239E+02  0.94696778998E+03  0.15520518847E+04  0.46999998093E+01 0. -1.
       -5    1    3    3    0  502 -0.12283310685E+04  0.57426071239E+02 -0.58765942454E+03  0.13628868833E+04  0.46999998093E+01 0.  1.
</event>
<event>
 5   0  0.8947674E-07  0.2893978E+04  0.7818609E-02  0.8274671E-01
        1   -1    0    0  501    0  0.00000000000E+00  0.00000000000E+00  0.22608110875E+04  0.22608110875E+04  0.50400001928E-02 0. -1.
       -1   -1    0    0    0  501  0.00000000000E+00  0.00000000000E+00 -0.92611775266E+03  0.92611775268E+03  0.50400001928E-02 0.  1.
    10030    2    1    2    0    0  0.00000000000E+00  0.00000000000E+00  0.13346933349E+04  0.31869288402E+04  0.28939780812E+04 0.  0.
        3    1    3    3  502    0 -0.26195181069E+03 -0.17887587198E+03  0.22220531958E+04  0.22445791908E+04  0.10100000352E+00 0. -1.
       -3    1    3    3    0  502  0.26195181069E+03  0.17887587198E+03 -0.88735986094E+03  0.94234964939E+03  0.10100000352E+00 0.  1.
</event>
<event>
 5   0  0.2425845E-06  0.2908482E+04  0.7818609E-02  0.8270358E-01
        2   -1    0    0  501    0  0.00000000000E+00  0.00000000000E+00  0.22369754746E+04  0.22369754746E+04  0.25500000920E-02 0. -1.
       -2   -1    0    0    0  501  0.00000000000E+00  0.00000000000E+00 -0.94539124153E+03  0.94539124153E+03  0.25500000920E-02 0.  1.
    10030    2    1    2    0    0  0.00000000000E+00  0.00000000000E+00  0.12915842331E+04  0.31823667161E+04  0.29084820929E+04 0.  0.
        2    1    3    3  502    0  0.33040202871E+03 -0.90036106015E+03 -0.55030942821E+03  0.11057377655E+04  0.25500000920E-02 0.  1.
       -2    1    3    3    0  502 -0.33040202871E+03  0.90036106015E+03  0.18418936613E+04  0.20766289507E+04  0.25500000920E-02 0. -1.
</event>
<event>
 5   0  0.2360103E-06  0.3006785E+04  0.7818609E-02  0.8241796E-01
       -2   -1    0    0    0  501  0.00000000000E+00  0.00000000000E+00  0.12982804007E+04  0.12982804007E+04  0.25500000920E-02 0.  1.
        2   -1    0    0  501    0  0.00000000000E+00  0.00000000000E+00 -0.17409099392E+04  0.17409099392E+04  0.25500000920E-02 0. -1.
    10030    2    1    2    0    0  0.00000000000E+00  0.00000000000E+00 -0.44262953850E+03  0.30391903398E+04  0.30067851625E+04 0.  0.
        4    1    3    3  502    0  0.75748265388E+03  0.67831813495E+03  0.89800063480E+03  0.13565773904E+04  0.12699999809E+01 0.  1.
       -4    1    3    3    0  502 -0.75748265388E+03 -0.67831813495E+03 -0.13406301733E+04  0.16826129494E+04  0.12699999809E+01 0. -1.
</event>
<event>
 5   0  0.8357118E-07  0.2893011E+04  0.7818609E-02  0.8274960E-01
       -1   -1    0    0    0  501  0.00000000000E+00  0.00000000000E+00  0.19904573003E+04  0.19904573003E+04  0.50400001928E-02 0. -1.
        1   -1    0    0  501    0  0.00000000000E+00  0.00000000000E+00 -0.10512044894E+04  0.10512044894E+04  0.50400001928E-02 0.  1.
    10030    2    1    2    0    0  0.00000000000E+00  0.00000000000E+00  0.93925281095E+03  0.30416617897E+04  0.28930106464E+04 0.  0.
        1    1    3    3  502    0 -0.17198875109E+03  0.54650392044E+03 -0.92682653255E+03  0.10896118974E+04  0.50400001928E-02 0.  1.
       -1    1    3    3    0  502  0.17198875109E+03 -0.54650392044E+03  0.18660793435E+04  0.19520498923E+04  0.50400001928E-02 0. -1.
</event>
<event>
 5   0  0.2378690E-06  0.2885602E+04  0.7818609E-02  0.8277174E-01
       -2   -1    0    0    0  501  0.00000000000E+00  0.00000000000E+00  0.81469880783E+03  0.81469880783E+03  0.25500000920E-02 0.  1.
        2   -1    0    0  501    0  0.00000000000E+00  0.00000000000E+00 -0.25551470353E+04  0.25551470353E+04  0.25500000920E-02 0. -1.
    10030    2    1    2    0    0  0.00000000000E+00  0.00000000000E+00 -0.17404482275E+04  0.33698458431E+04  0.28856023589E+04 0.  0.
        3    1    3    3  502    0  0.50270134189E+03  0.78226257932E+03 -0.21585464070E+04  0.23503118907E+04  0.10100000352E+00 0. -1.
       -3    1    3    3    0  502 -0.50270134189E+03 -0.78226257932E+03  0.41809817957E+03  0.10195339524E+04  0.10100000352E+00 0.  1.
</event>
<event>
 5   0  0.2425845E-06  0.2883214E+04  0.7818609E-02  0.8277889E-01
        2   -1    0    0  501    0  0.00000000000E+00  0.00000000000E+00  0.61780910565E+03  0.61780910565E+03  0.25500000920E-02 0. -1.
       -2   -1    0    0    0  501  0.00000000000E+00  0.00000000000E+00 -0.33638720124E+04  0.33638720124E+04  0.25500000920E-02 0.  1.
    10030    2    1    2    0    0  0.00000000000E+00  0.00000000000E+00 -0.27460629068E+04  0.39816811181E+04  0.28832140119E+04 0.  0.
        2    1    3    3  502    0  0.80273318770E+02  0.49338690691E+03  0.49429398531E+03  0.70299430264E+03  0.25500000920E-02 0. -1.
       -2    1    3    3    0  502 -0.80273318770E+02 -0.49338690691E+03 -0.32403568921E+04  0.32786868155E+04  0.25500000920E-02 0.  1.
</event>
<event>
 5   0  0.8947674E-07  0.2908376E+04  0.7818609E-02  0.8270390E-01
       -1   -1    0    0    0  501  0.00000000000E+00  0.00000000000E+00  0.16478642580E+04  0.16478642580E+04  0.50400001928E-02 0.  1.
        1   -1    0    0  501    0  0.00000000000E+00  0.00000000000E+00 -0.12832747281E+04  0.12832747281E+04  0.50400001928E-02 0. -1.
    10030    2    1    2    0    0  0.00000000000E+00  0.00000000000E+00  0.36458952995E+03  0.29311389861E+04  0.29083758751E+04 0.  0.
        3    1    3    3  502    0  0.10712863391E+04 -0.32335658190E+02 -0.80823155298E+03  0.13423629422E+04  0.10100000352E+00 0. -1.
       -3    1    3    3    0  502 -0.10712863391E+04  0.32335658190E+02  0.11728210829E+04  0.15887760440E+04  0.10100000352E+00 0.  1.
</event>
<event>
 5   0  0.8263673E-07  0.2925445E+04  0.7818609E-02  0.8265347E-01
        1   -1    0    0  501    0  0.00000000000E+00  0.00000000000E+00  0.18160626455E+04  0.18160626455E+04  0.50400001928E-02 0.  1.
       -1   -1    0    0    0  501  0.00000000000E+00  0.00000000000E+00 -0.11781295566E+04  0.11781295566E+04  0.50400001928E-02 0. -1.
    10030    2    1    2    0    0  0.00000000000E+00  0.00000000000E+00  0.63793308891E+03  0.29941922021E+04  0.29254449777E+04 0.  0.
        5    1    3    3  502    0 -0.25516893651E+03 -0.78426729696E+03 -0.91745699625E+03  0.12336676251E+04  0.46999998093E+01 0. -1.
       -5    1    3    3    0  502  0.25516893651E+03  0.78426729696E+03  0.15553900852E+04  0.17605245770E+04  0.46999998093E+01 0.  1.
</event>
<event>
 5   0  0.8355946E-07  0.2905034E+04  0.7818609E-02  0.8271381E-01
        1   -1    0    0  501    0  0.00000000000E+00  0.00000000000E+00  0.23460266660E+04  0.23460266660E+04  0.50400001928E-02 0. -1.
       -1   -1    0    0    0  501  0.00000000000E+00  0.00000000000E+00 -0.89931012422E+03  0.89931012424E+03  0.50400001928E-02 0.  1.
    10030    2    1    2    0    0  0.00000000000E+00  0.00000000000E+00  0.14467165418E+04  0.32453367902E+04  0.29050339292E+04 0.  0.
        4    1    3    3  502    0 -0.45882013286E+03 -0.11870344644E+04 -0.58830702195E+02  0.12739817104E+04  0.12699999809E+01 0.  1.
       -4    1    3    3    0  502  0.45882013286E+03  0.11870344644E+04  0.15055472440E+04  0.19713550798E+04  0.12699999809E+01 0. -1.
</event>
<event>
 5   0  0.2378690E-06  0.2896236E+04  0.7818609E-02  0.8273998E-01
       -2   -1    0    0    0  501  0.00000000000E+00  0.00000000000E+00  0.80261025888E+03  0.80261025889E+03  0.25500000920E-02 0. -1.
        2   -1    0    0  501    0  0.00000000000E+00  0.00000000000E+00 -0.26127824984E+04  0.26127824984E+04  0.25500000920E-02 0.  1.
    10030    2    1    2    0    0  0.00000000000E+00  0.00000000000E+00 -0.18101722396E+04  0.34153927573E+04  0.28962362041E+04 0.  0.
        3    1    3    3  502    0  0.47082064654E+02  0.31827404455E+03  0.75992893671E+03  0.82523153557E+03  0.10100000352E+00 0. -1.
       -3    1    3    3    0  502 -0.47082064654E+02 -0.31827404455E+03 -0.25701011763E+04  0.25901612218E+04  0.10100000352E+00 0.  1.
</event>
<event>
 5   0  0.2425845E-06  0.2900928E+04  0.7818609E-02  0.8272601E-01
       -2   -1    0    0    0  501  0.00000000000E+00  0.00000000000E+00  0.12488945603E+04  0.12488945603E+04  0.25500000920E-02 0. -1.
        2   -1    0    0  501    0  0.00000000000E+00  0.00000000000E+00 -0.16845662939E+04  0.16845662939E+04  0.25500000920E-02 0.  1.
    10030    2    1    2    0    0  0.00000000000E+00  0.00000000000E+00 -0.43567173356E+03  0.29334608542E+04  0.29009279073E+04 0.  0.
        2    1    3    3  502    0  0.65484549082E+03 -0.82425908578E+03  0.79116182394E+03  0.13168761100E+04  0.25500000920E-02 0.  1.
       -2    1    3    3    0  502 -0.65484549082E+03  0.82425908578E+03 -0.12268335575E+04  0.16165847442E+04  0.25500000920E-02 0. -1.
</event>
<event>
 5   0  0.2360103E-06  0.2763698E+04  0.7818609E-02  0.8314628E-01
        2   -1    0    0  501    0  0.00000000000E+00  0.00000000000E+00  0.20363355851E+04  0.20363355851E+04  0.25500000920E-02 0.  1.
       -2   -1    0    0    0  501  0.00000000000E+00  0.00000000000E+00 -0.93771678708E+03  0.93771678708E+03  0.25500000920E-02 0. -1.
    10030    2    1    2    0    0  0.00000000000E+00  0.00000000000E+00  0.10986187980E+04  0.29740523722E+04  0.27636975683E+04 0.  0.
        4    1    3    3  502    0 -0.34143192406E+03 -0.64597934197E+03 -0.71283892682E+03  0.10207869599E+04  0.12699999809E+01 0. -1.
       -4    1    3    3    0  502  0.34143192406E+03  0.64597934197E+03  0.18114577248E+04  0.19532654123E+04  0.12699999809E+01 0.  1.
</event>
<event>
 5   0  0.8483636E-07  0.2915225E+04  0.7818609E-02  0.8268362E-01
       -1   -1    0    0    0  501  0.00000000000E+00  0.00000000000E+00  0.19037718539E+04  0.19037718540E+04  0.50400001928E-02 0. -1.
        1   -1    0    0  501    0  0.00000000000E+00  0.00000000000E+00 -0.11160133748E+04  0.11160133748E+04  0.50400001928E-02 0.  1.
    10030    2    1    2    0    0  0.00000000000E+00  0.00000000000E+00  0.78775847918E+03  0.30197852287E+04  0.29152254469E+04 0.  0.
        2    1    3    3  502    0 -0.52633377682E+03  0.32499988599E+03  0.17610596489E+04  0.18665431304E+04  0.25500000920E-02 0. -1.
       -2    1    3    3    0  502  0.52633377682E+03 -0.32499988599E+03 -0.97330116971E+03  0.11532420984E+04  0.25500000920E-02 0.  1.
</event>
<event>
 5   0  0.2378690E-06  0.2845161E+04  0.7818609E-02  0.8289383E-01
        2   -1    0    0  501    0  0.00000000000E+00  0.00000000000E+00  0.16129313163E+04  0.16129313163E+04  0.25500000920E-02 0.  1.
       -2   -1    0    0    0  501  0.00000000000E+00  0.00000000000E+00 -0.12546943921E+04  0.12546943921E+04  0.25500000920E-02 0. -1.
    10030    2    1    2    0    0  0.00000000000E+00  0.00000000000E+00  0.35823692423E+03  0.28676257084E+04  0.28451614207E+04 0.  0.
        3    1    3    3  502    0  0.87741849481E+03  0.62040778894E+03 -0.76042560159E+03  0.13164407109E+04  0.10100000352E+00 0. -1.
       -3    1    3    3    0  502 -0.87741849481E+03 -0.62040778894E+03  0.11186625258E+04  0.15511849975E+04  0.10100000352E+00 0.  1.
</event>
<event>
 5   0  0.2425845E-06  0.2908517E+04  0.7818609E-02  0.8270348E-01
       -2   -1    0    0    0  501  0.00000000000E+00  0.00000000000E+00  0.80612699768E+03  0.80612699769E+03  0.25500000920E-02 0.  1.
        2   -1    0    0  501    0  0.00000000000E+00  0.00000000000E+00 -0.26234923696E+04  0.26234923696E+04  0.25500000920E-02 0. -1.
    10030    2    1    2    0    0  0.00000000000E+00  0.00000000000E+00 -0.18173653719E+04  0.34296193673E+04  0.29085171668E+04 0.  0.
        2    1    3    3  502    0 -0.63737116535E+03  0.47270247817E+03 -0.23457053000E+04  0.24762921858E+04  0.25500000920E-02 0. -1.
       -2    1    3    3    0  502  0.63737116535E+03 -0.47270247817E+03  0.52833992806E+03  0.95332718145E+03  0.25500000920E-02 0.  1.
</event>
<event>
 5   0  0.8357118E-07  0.2896448E+04  0.7818609E-02  0.8273935E-01
        1   -1    0    0  501    0  0.00000000000E+00  0.00000000000E+00  0.10884635763E+04  0.10884635763E+04  0.50400001928E-02 0. -1.
       -1   -1    0    0    0  501  0.00000000000E+00  0.00000000000E+00 -0.19268923328E+04  0.19268923328E+04  0.50400001928E-02 0.  1.
    10030    2    1    2    0    0  0.00000000000E+00  0.00000000000E+00 -0.83842875654E+03  0.30153559091E+04  0.28964475619E+04 0.  0.
        1    1    3    3  502    0  0.97899138661E+03  0.89758231657E+03 -0.10202131813E+04  0.16747874747E+04  0.50400001928E-02 0.  1.
       -1    1    3    3    0  502 -0.97899138661E+03 -0.89758231657E+03  0.18178442479E+03  0.13405684344E+04  0.50400001928E-02 0. -1.
</event>
<event>
 5   0  0.8263673E-07  0.2879789E+04  0.7818609E-02  0.8278916E-01
       -1   -1    0    0    0  501  0.00000000000E+00  0.00000000000E+00  0.11040651253E+04  0.11040651253E+04  0.50400001928E-02 0.  1.
        1   -1    0    0  501    0  0.00000000000E+00  0.00000000000E+00 -0.18778753927E+04  0.18778753927E+04  0.50400001928E-02 0. -1.
    10030    2    1    2    0    0  0.00000000000E+00  0.00000000000E+00 -0.77381026741E+03  0.29819405181E+04  0.28797893887E+04 0.  0.
        5    1    3    3  502    0  0.99066318235E+03 -0.85868028476E+03  0.22963917960E+03  0.13309776914E+04  0.46999998093E+01 0.  1.
       -5    1    3    3    0  502 -0.99066318235E+03  0.85868028476E+03 -0.10034494470E+04  0.16509628267E+04  0.46999998093E+01 0. -1.
</event>
<event>
 5   0  0.8355946E-07  0.2883891E+04  0.7818609E-02  0.8277686E-01
        1   -1    0    0  501    0  0.00000000000E+00  0.00000000000E+00  0.15079367143E+04  0.15079367143E+04  0.50400001928E-02 0.  1.
       -1   -1    0    0    0  501  0.00000000000E+00  0.00000000000E+00 -0.13788425135E+04  0.13788425135E+04  0.50400001928E-02 0. -1.
    10030    2    1    2    0    0  0.00000000000E+00  0.00000000000E+00  0.12909420075E+03  0.28867792278E+04  0.28838912943E+04 0.  0.
        4    1    3    3  502    0 -0.10338732056E+04 -0.38107194524E+03  0.99558388183E+03  0.14850247511E+04  0.12699999809E+01 0.  1.
       -4    1    3    3    0  502  0.10338732056E+04  0.38107194524E+03 -0.86648968107E+03  0.14017544767E+04  0.12699999809E+01 0. -1.
</event>
<event>
 5   0  0.8947674E-07  0.2903002E+04  0.7818609E-02  0.8271985E-01
       -1   -1    0    0    0  501  0.00000000000E+00  0.00000000000E+00  0.17833191363E+04  0.17833191363E+04  0.50400001928E-02 0. -1.
        1   -1    0    0  501    0  0.00000000000E+00  0.00000000000E+00 -0.11814232041E+04  0.11814232041E+04  0.50400001928E-02 0.  1.
    10030    2    1    2    0    0  0.00000000000E+00  0.00000000000E+00  0.60189593215E+03  0.29647423404E+04  0.29030016245E+04 0.  0.
        3    1    3    3  502    0 -0.47129292213E+03  0.37430188961E+03 -0.10479902271E+04  0.12085124945E+04  0.10100000352E+00 0.  1.
       -3    1    3    3    0  502  0.47129292213E+03 -0.37430188961E+03  0.16498861593E+04  0.17562298459E+04  0.10100000352E+00 0. -1.
</event>
<event>
 5   0  0.2378690E-06  0.2893089E+04  0.7818609E-02  0.8274937E-01
       -2   -1    0    0    0  501  0.00000000000E+00  0.00000000000E+00  0.15029182934E+04  0.15029182934E+04  0.25500000920E-02 0.  1.
        2   -1    0    0  501    0  0.00000000000E+00  0.00000000000E+00 -0.13922856418E+04  0.13922856418E+04  0.25500000920E-02 0. -1.
    10030    2    1    2    0    0  0.00000000000E+00  0.00000000000E+00  0.11063265162E+03  0.28952039352E+04  0.28930893942E+04 0.  0.
        3    1    3    3  502    0 -0.56296951490E+03 -0.31544410668E+02  0.13884167745E+04  0.14985429171E+04  0.10100000352E+00 0.  1.
       -3    1    3    3    0  502  0.56296951490E+03  0.31544410668E+02 -0.12777841229E+04  0.13966610181E+04  0.10100000352E+00 0. -1.
</event>
<event>
 5   0  0.8355946E-07  0.2910938E+04  0.7818609E-02  0.8269630E-01
        1   -1    0    0  501    0  0.00000000000E+00  0.00000000000E+00  0.11200673961E+04  0.11200673961E+04  0.50400001928E-02 0.  1.
       -1   -1    0    0    0  501  0.00000000000E+00  0.00000000000E+00 -0.18913061015E+04  0.18913061015E+04  0.50400001928E-02 0. -1.
    10030    2    1    2    0    0  0.00000000000E+00  0.00000000000E+00 -0.77123870533E+03  0.30113734976E+04  0.29109381995E+04 0.  0.
        4    1    3    3  502    0  0.63769665223E+03 -0.26292060600E+03  0.94024206384E+03  0.11661222135E+04  0.12699999809E+01 0.  1.
       -4    1    3    3    0  502 -0.63769665223E+03  0.26292060600E+03 -0.17114807692E+04  0.18452512841E+04  0.12699999809E+01 0. -1.
</event>
<event>
 5   0  0.2304435E-06  0.2905139E+04  0.7818609E-02  0.8271350E-01
        2   -1    0    0  501    0  0.00000000000E+00  0.00000000000E+00  0.12042888471E+04  0.12042888471E+04  0.25500000920E-02 0. -1.
       -2   -1    0    0    0  501  0.00000000000E+00  0.00000000000E+00 -0.17520370312E+04  0.17520370312E+04  0.25500000920E-02 0.  1.
    10030    2    1    2    0    0  0.00000000000E+00  0.00000000000E+00 -0.54774818411E+03  0.29563258784E+04  0.29051393471E+04 0.  0.
        1    1    3    3  502    0 -0.71193526785E+03 -0.51683306042E+03 -0.14500898903E+04  0.16960922521E+04  0.50400001928E-02 0.  1.
       -1    1    3    3    0  502  0.71193526785E+03  0.51683306042E+03  0.90234170615E+03  0.12602336262E+04  0.50400001928E-02 0. -1.
</event>
<event>
 5   0  0.8483636E-07  0.2896022E+04  0.7818609E-02  0.8274062E-01
        1   -1    0    0  501    0  0.00000000000E+00  0.00000000000E+00  0.14324479936E+04  0.14324479936E+04  0.50400001928E-02 0. -1.
       -1   -1    0    0    0  501  0.00000000000E+00  0.00000000000E+00 -0.14637432692E+04  0.14637432692E+04  0.50400001928E-02 0.  1.
    10030    2    1    2    0    0  0.00000000000E+00  0.00000000000E+00 -0.31295275608E+02  0.28961912628E+04  0.28960221748E+04 0.  0.
        2    1    3    3  502    0  0.26256059753E+03  0.66730749162E+03 -0.12736951533E+04  0.14616896727E+04  0.25500000920E-02 0.  1.
       -2    1    3    3    0  502 -0.26256059753E+03 -0.66730749162E+03  0.12423998777E+04  0.14345015901E+04  0.25500000920E-02 0. -1.
</event>
<event>
 5   0  0.8947674E-07  0.2905973E+04  0.7818609E-02  0.8271102E-01
        1   -1    0    0  501    0  0.00000000000E+00  0.00000000000E+00  0.22302288598E+04  0.22302288598E+04  0.50400001928E-02 0. -1.
       -1   -1    0    0    0  501  0.00000000000E+00  0.00000000000E+00 -0.94661593578E+03  0.94661593579E+03  0.50400001928E-02 0.  1.
    10030    2    1    2    0    0  0.00000000000E+00  0.00000000000E+00  0.12836129240E+04  0.31768447956E+04  0.29059732821E+04 0.  0.
        3    1    3    3  502    0 -0.43142319027E+03  0.19793478810E+03  0.21430798925E+04  0.21950160786E+04  0.10100000352E+00 0. -1.
       -3    1    3    3    0  502  0.43142319027E+03 -0.19793478810E+03 -0.85946696848E+03  0.98182871701E+03  0.10100000352E+00 0.  1.
</event>
<event>
 5   0  0.2304435E-06  0.2903421E+04  0.7818609E-02  0.8271860E-01
        2   -1    0    0  501    0  0.00000000000E+00  0.00000000000E+00  0.15707512222E+04  0.15707512222E+04  0.25500000920E-02 0. -1.
       -2   -1    0    0    0  501  0.00000000000E+00  0.00000000000E+00 -0.13416914407E+04  0.13416914407E+04  0.25500000920E-02 0.  1.
    10030    2    1    2    0    0  0.00000000000E+00  0.00000000000E+00  0.22905978144E+03  0.29124426629E+04  0.29034210651E+04 0.  0.
        1    1    3    3  502    0  0.19933661444E+03 -0.98836264163E+03  0.11622213335E+04  0.15386208842E+04  0.50400001928E-02 0. -1.
       -1    1    3    3    0  502 -0.19933661444E+03  0.98836264163E+03 -0.93316155208E+03  0.13738217787E+04  0.50400001928E-02 0.  1.
</event>
<event>
 5   0  0.8355946E-07  0.2898502E+04  0.7818609E-02  0.8273323E-01
        1   -1    0    0  501    0  0.00000000000E+00  0.00000000000E+00  0.12910416160E+04  0.12910416160E+04  0.50400001928E-02 0. -1.
       -1   -1    0    0    0  501  0.00000000000E+00  0.00000000000E+00 -0.16268481466E+04  0.16268481467E+04  0.50400001928E-02 0.  1.
    10030    2    1    2    0    0  0.00000000000E+00  0.00000000000E+00 -0.33580653063E+03  0.29178897627E+04  0.28985021375E+04 0.  0.
        4    1    3    3  502    0 -0.73187489573E+03  0.83044994883E+03  0.77378894246E+03  0.13505698504E+04  0.12699999809E+01 0. -1.
       -4    1    3    3    0  502  0.73187489573E+03 -0.83044994883E+03 -0.11095954731E+04  0.15673199122E+04  0.12699999809E+01 0.  1.
</event>
<event>
 5   0  0.2425845E-06  0.2890415E+04  0.7818609E-02  0.8275735E-01
       -2   -1    0    0    0  501  0.00000000000E+00  0.00000000000E+00  0.12035461130E+04  0.12035461130E+04  0.25500000920E-02 0. -1.
        2   -1    0    0  501    0  0.00000000000E+00  0.00000000000E+00 -0.17353923740E+04  0.17353923740E+04  0.25500000920E-02 0.  1.
    10030    2    1    2    0    0  0.00000000000E+00  0.00000000000E+00 -0.53184626100E+03  0.29389384869E+04  0.28904150194E+04 0.  0.
        2    1    3    3  502    0  0.11669908675E+04 -0.84633081702E+03 -0.37001959736E+03  0.14883071051E+04  0.25500000920E-02 0.  1.
       -2    1    3    3    0  502 -0.11669908675E+04  0.84633081702E+03 -0.16182666365E+03  0.14506313818E+04  0.25500000920E-02 0. -1.
</event>
<event>
 5   0  0.8263673E-07  0.2868722E+04  0.7818609E-02  0.8282245E-01
       -1   -1    0    0    0  501  0.00000000000E+00  0.00000000000E+00  0.94512641743E+03  0.94512641744E+03  0.50400001928E-02 0.  1.
        1   -1    0    0  501    0  0.00000000000E+00  0.00000000000E+00 -0.21768429195E+04  0.21768429195E+04  0.50400001928E-02 0. -1.
    10030    2    1    2    0    0  0.00000000000E+00  0.00000000000E+00 -0.12317165021E+04  0.31219693369E+04  0.28687221893E+04 0.  0.
        5    1    3    3  502    0 -0.82482180314E+03 -0.90047581335E+03  0.20301777253E+03  0.12379119530E+04  0.46999998093E+01 0. -1.
       -5    1    3    3    0  502  0.82482180314E+03  0.90047581335E+03 -0.14347342746E+04  0.18840573840E+04  0.46999998093E+01 0.  1.
</event>
<event>
 5   0  0.2378690E-06  0.2903028E+04  0.7818609E-02  0.8271977E-01
       -2   -1    0    0    0  501  0.00000000000E+00  0.00000000000E+00  0.17496749236E+04  0.17496749236E+04  0.25500000920E-02 0.  1.
        2   -1    0    0  501    0  0.00000000000E+00  0.00000000000E+00 -0.12041622235E+04  0.12041622235E+04  0.25500000920E-02 0. -1.
    10030    2    1    2    0    0  0.00000000000E+00  0.00000000000E+00  0.54551270011E+03  0.29538371471E+04  0.29030276929E+04 0.  0.
        3    1    3    3  502    0  0.41506878086E+02 -0.73008006180E+02  0.17472007966E+04  0.17492180034E+04  0.10100000352E+00 0.  1.
       -3    1    3    3    0  502 -0.41506878086E+02  0.73008006180E+02 -0.12016880964E+04  0.12046191436E+04  0.10100000352E+00 0. -1.
</event>
<event>
 5   0  0.8483636E-07  0.2925715E+04  0.7818609E-02  0.8265267E-01
        1   -1    0    0  501    0  0.00000000000E+00  0.00000000000E+00  0.15945603622E+04  0.15945603622E+04  0.50400001928E-02 0.  1.
       -1   -1    0    0    0  501  0.00000000000E+00  0.00000000000E+00 -0.13420323898E+04  0.13420323898E+04  0.50400001928E-02 0. -1.
    10030    2    1    2    0    0  0.00000000000E+00  0.00000000000E+00  0.25252797243E+03  0.29365927520E+04  0.29257147186E+04 0.  0.
        2    1    3    3  502    0 -0.99648391039E+03 -0.37070741958E+03  0.11347621698E+04  0.15550206933E+04  0.25500000920E-02 0.  1.
       -2    1    3    3    0  502  0.99648391039E+03  0.37070741958E+03 -0.88223419734E+03  0.13815720588E+04  0.25500000920E-02 0. -1.
</event>
<event>
 5   0  0.2425845E-06  0.2863081E+04  0.7818609E-02  0.8283947E-01
       -2   -1    0    0    0  501  0.00000000000E+00  0.00000000000E+00  0.13935924174E+04  0.13935924174E+04  0.25500000920E-02 0.  1.
        2   -1    0    0  501    0  0.00000000000E+00  0.00000000000E+00 -0.14705219143E+04  0.14705219143E+04  0.25500000920E-02 0. -1.
    10030    2    1    2    0    0  0.00000000000E+00  0.00000000000E+00 -0.76929496906E+02  0.28641143317E+04  0.28630809904E+04 0.  0.
        2    1    3    3  502    0  0.13049030896E+04  0.58816434539E+03 -0.62944356917E+02  0.14327146829E+04  0.25500000920E-02 0.  1.
       -2    1    3    3    0  502 -0.13049030896E+04 -0.58816434539E+03 -0.13985139989E+02  0.14313996488E+04  0.25500000920E-02 0. -1.
</event>
<event>
 5   0  0.2304435E-06  0.2871774E+04  0.7818609E-02  0.8281325E-01
        2   -1    0    0  501    0  0.00000000000E+00  0.00000000000E+00  0.29117590383E+04  0.29117590383E+04  0.25500000920E-02 0.  1.
       -2   -1    0    0    0  501  0.00000000000E+00  0.00000000000E+00 -0.70808462149E+03  0.70808462150E+03  0.25500000920E-02 0. -1.
    10030    2    1    2    0    0  0.00000000000E+00  0.00000000000E+00  0.22036744168E+04  0.36198436597E+04  0.28717742227E+04 0.  0.
        1    1    3    3  502    0 -0.17339212784E+03  0.30839089745E+03 -0.65228445165E+03  0.74205443298E+03  0.50400001928E-02 0. -1.
       -1    1    3    3    0  502  0.17339212784E+03 -0.30839089745E+03  0.28559588684E+04  0.28777892268E+04  0.50400001928E-02 0.  1.
</event>
<event>
 5   0  0.8947674E-07  0.2902457E+04  0.7818609E-02  0.8272147E-01
        1   -1    0    0  501    0  0.00000000000E+00  0.00000000000E+00  0.15263552151E+04  0.15263552151E+04  0.50400001928E-02 0. -1.
       -1   -1    0    0    0  501  0.00000000000E+00  0.00000000000E+00 -0.13797992335E+04  0.13797992335E+04  0.50400001928E-02 0.  1.
    10030    2    1    2    0    0  0.00000000000E+00  0.00000000000E+00  0.14655598159E+03  0.29061544486E+04  0.29024567220E+04 0.  0.
        3    1    3    3  502    0 -0.87011540433E+03 -0.99629234408E+03 -0.52444526305E+03  0.14229343259E+04  0.10100000352E+00 0.  1.
       -3    1    3    3    0  502  0.87011540433E+03  0.99629234408E+03  0.67100124464E+03  0.14832201227E+04  0.10100000352E+00 0. -1.
</event>
<event>
 5   0  0.8355946E-07  0.2897557E+04  0.7818609E-02  0.8273605E-01
       -1   -1    0    0    0  501  0.00000000000E+00  0.00000000000E+00  0.20421356668E+04  0.20421356669E+04  0.50400001928E-02 0. -1.
        1   -1    0    0  501    0  0.00000000000E+00  0.00000000000E+00 -0.10278255685E+04  0.10278255685E+04  0.50400001928E-02 0.  1.
    10030    2    1    2    0    0  0.00000000000E+00  0.00000000000E+00  0.10143100984E+04  0.30699612353E+04  0.28975570764E+04 0.  0.
        4    1    3    3  502    0 -0.87318422564E+03 -0.19033485969E+03 -0.70099051815E+03  0.11358113268E+04  0.12699999809E+01 0.  1.
       -4    1    3    3    0  502  0.87318422564E+03  0.19033485969E+03  0.17153006165E+04  0.19341499085E+04  0.12699999809E+01 0. -1.
</event>
<event>
 5   0  0.2425845E-06  0.2895745E+04  0.7818609E-02  0.8274145E-01
        2   -1    0    0  501    0  0.00000000000E+00  0.00000000000E+00  0.12710997626E+04  0.12710997626E+04  0.25500000920E-02 0.  1.
       -2   -1    0    0    0  501  0.00000000000E+00  0.00000000000E+00 -0.16492293617E+04  0.16492293617E+04  0.25500000920E-02 0. -1.
    10030    2    1    2    0    0  0.00000000000E+00  0.00000000000E+00 -0.37812959914E+03  0.29203291243E+04  0.28957451892E+04 0.  0.
        2    1    3    3  502    0 -0.14467091580E+04  0.51850936172E+02 -0.16278318903E+03  0.14567615708E+04  0.25500000920E-02 0. -1.
       -2    1    3    3    0  502  0.14467091580E+04 -0.51850936172E+02 -0.21534641011E+03  0.14635675535E+04  0.25500000920E-02 0.  1.
</event>
<event>
 5   0  0.2360103E-06  0.2886405E+04  0.7818609E-02  0.8276934E-01
       -2   -1    0    0    0  501  0.00000000000E+00  0.00000000000E+00  0.86326576068E+03  0.86326576068E+03  0.25500000920E-02 0.  1.
        2   -1    0    0  501    0  0.00000000000E+00  0.00000000000E+00 -0.24127379067E+04  0.24127379067E+04  0.25500000920E-02 0. -1.
    10030    2    1    2    0    0  0.00000000000E+00  0.00000000000E+00 -0.15494721460E+04  0.32760036674E+04  0.28864053938E+04 0.  0.
        4    1    3    3  502    0  0.45544188235E+03 -0.62608850074E+03 -0.21570887787E+04  0.22918219240E+04  0.12699999809E+01 0. -1.
       -4    1    3    3    0  502 -0.45544188235E+03  0.62608850074E+03  0.60761663267E+03  0.98418174346E+03  0.12699999809E+01 0.  1.
</event>
<event>
 5   0  0.2378690E-06  0.2894668E+04  0.7818609E-02  0.8274466E-01
        2   -1    0    0  501    0  0.00000000000E+00  0.00000000000E+00  0.17657048076E+04  0.17657048076E+04  0.25500000920E-02 0. -1.
       -2   -1    0    0    0  501  0.00000000000E+00  0.00000000000E+00 -0.11863683579E+04  0.11863683579E+04  0.25500000920E-02 0.  1.
    10030    2    1    2    0    0  0.00000000000E+00  0.00000000000E+00  0.57933644968E+03  0.29520731654E+04  0.28946684183E+04 0.  0.
        3    1    3    3  502    0 -0.33636375213E+03 -0.14323075498E+03 -0.11385035764E+04  0.11957616930E+04  0.10100000352E+00 0.  1.
       -3    1    3    3    0  502  0.33636375213E+03  0.14323075498E+03  0.17178400260E+04  0.17563114724E+04  0.10100000352E+00 0. -1.
</event>
<event>
 5   0  0.2325590E-06  0.2896325E+04  0.7818609E-02  0.8273972E-01
       -2   -1    0    0    0  501  0.00000000000E+00  0.00000000000E+00  0.76670141139E+03  0.76670141140E+03  0.25500000920E-02 0.  1.
        2   -1    0    0  501    0  0.00000000000E+00  0.00000000000E+00 -0.27353209118E+04  0.27353209118E+04  0.25500000920E-02 0. -1.
    10030    2    1    2    0    0  0.00000000000E+00  0.00000000000E+00 -0.19686195004E+04  0.35020223232E+04  0.28963248462E+04 0.  0.
        5    1    3    3  502    0  0.12129170604E+04 -0.68748899191E+03 -0.51082696834E+03  0.14848485414E+04  0.46999998093E+01 0.  1.
       -5    1    3    3    0  502 -0.12129170604E+04  0.68748899191E+03 -0.14577925321E+04  0.20171737818E+04  0.46999998093E+01 0. -1.
</event>
<event>
 5   0  0.8355946E-07  0.2901313E+04  0.7818609E-02  0.8272487E-01
        1   -1    0    0  501    0  0.00000000000E+00  0.00000000000E+00  0.21978838166E+04  0.21978838166E+04  0.50400001928E-02 0.  1.
       -1   -1    0    0    0  501  0.00000000000E+00  0.00000000000E+00 -0.95746829715E+03  0.95746829716E+03  0.50400001928E-02 0. -1.
    10030    2    1    2    0    0  0.00000000000E+00  0.00000000000E+00  0.12404155195E+04  0.31553521138E+04  0.29013128582E+04 0.  0.
        4    1    3    3  502    0 -0.24467376889E+03 -0.37837033785E+03 -0.87943197782E+03  0.98814552686E+03  0.12699999809E+01 0. -1.
       -4    1    3    3    0  502  0.24467376889E+03  0.37837033785E+03  0.21198474973E+04  0.21672065869E+04  0.12699999809E+01 0.  1.
</event>
<event>
 5   0  0.8263673E-07  0.2898101E+04  0.7818609E-02  0.8273443E-01
        1   -1    0    0  501    0  0.00000000000E+00  0.00000000000E+00  0.20034317304E+04  0.20034317304E+04  0.50400001928E-02 0. -1.
       -1   -1    0    0    0  501  0.00000000000E+00  0.00000000000E+00 -0.10480750713E+04  0.10480750713E+04  0.50400001928E-02 0.  1.
    10030    2    1    2    0    0  0.00000000000E+00  0.00000000000E+00  0.95535665912E+03  0.30515068017E+04  0.28981006564E+04 0.  0.
        5    1    3    3  502    0 -0.75939427768E+03  0.97986236095E+03 -0.31231282631E+03  0.12784253231E+04  0.46999998093E+01 0.  1.
       -5    1    3    3    0  502  0.75939427768E+03 -0.97986236095E+03  0.12676694854E+04  0.17730814786E+04  0.46999998093E+01 0. -1.
</event>
<event>
 5   0  0.8357118E-07  0.2897071E+04  0.7818609E-02  0.8273749E-01
        1   -1    0    0  501    0  0.00000000000E+00  0.00000000000E+00  0.13556145655E+04  0.13556145655E+04  0.50400001928E-02 0. -1.
       -1   -1    0    0    0  501  0.00000000000E+00  0.00000000000E+00 -0.15478261706E+04  0.15478261706E+04  0.50400001928E-02 0.  1.
    10030    2    1    2    0    0  0.00000000000E+00  0.00000000000E+00 -0.19221160504E+03  0.29034407361E+04  0.28970714191E+04 0.  0.
        1    1    3    3  502    0 -0.80252791507E+03 -0.11508695364E+04 -0.45704194945E+03  0.14756148169E+04  0.50400001928E-02 0.  1.
       -1    1    3    3    0  502  0.80252791507E+03  0.11508695364E+04  0.26483034441E+03  0.14278259192E+04  0.50400001928E-02 0. -1.
</event>
<event>
 5   0  0.2360103E-06  0.2896090E+04  0.7818609E-02  0.8274042E-01
       -2   -1    0    0    0  501  0.00000000000E+00  0.00000000000E+00  0.87682186066E+03  0.87682186066E+03  0.25500000920E-02 0.  1.
        2   -1    0    0  501    0  0.00000000000E+00  0.00000000000E+00 -0.23914036698E+04  0.23914036698E+04  0.25500000920E-02 0. -1.
    10030    2    1    2    0    0  0.00000000000E+00  0.00000000000E+00 -0.15145818091E+04  0.32682255304E+04  0.28960904788E+04 0.  0.
        4    1    3    3  502    0 -0.37807537711E+03 -0.92392773359E+03 -0.19410016011E+04  0.21826754857E+04  0.12699999809E+01 0. -1.
       -4    1    3    3    0  502  0.37807537711E+03  0.92392773359E+03  0.42641979197E+03  0.10855500447E+04  0.12699999809E+01 0.  1.
</event>
<event>
 5   0  0.2360103E-06  0.2938517E+04  0.7818609E-02  0.8261509E-01
        2   -1    0    0  501    0  0.00000000000E+00  0.00000000000E+00  0.23362952483E+04  0.23362952483E+04  0.25500000920E-02 0.  1.
       -2   -1    0    0    0  501  0.00000000000E+00  0.00000000000E+00 -0.92399306711E+03  0.92399306712E+03  0.25500000920E-02 0. -1.
    10030    2    1    2    0    0  0.00000000000E+00  0.00000000000E+00  0.14123021812E+04  0.32602883154E+04  0.29385170492E+04 0.  0.
        4    1    3    3  502    0  0.49720257673E+02  0.14015225035E+04  0.22001534146E+03  0.14195583099E+04  0.12699999809E+01 0. -1.
       -4    1    3    3    0  502 -0.49720257673E+02 -0.14015225035E+04  0.11922868397E+04  0.18407300055E+04  0.12699999809E+01 0.  1.
</event>
<event>
 5   0  0.7621125E-07  0.2926902E+04  0.7818609E-02  0.8264918E-01
       -3   -1    0    0    0  501  0.00000000000E+00  0.00000000000E+00  0.20145943808E+04  0.20145943833E+04  0.10100000352E+00 0. -1.
        3   -1    0    0  501    0  0.00000000000E+00  0.00000000000E+00 -0.10630864993E+04  0.10630865041E+04  0.10100000352E+00 0.  1.
    10030    2    1    2    0    0  0.00000000000E+00  0.00000000000E+00  0.95150788152E+03  0.30776808874E+04  0.29269015009E+04 0.  0.
        3    1    3    3  502    0 -0.87217346596E+03  0.59323584271E+03 -0.59093679512E+03  0.12090581565E+04  0.10100000352E+00 0.  1.
       -3    1    3    3    0  502  0.87217346596E+03 -0.59323584271E+03  0.15424446766E+04  0.18686227309E+04  0.10100000352E+00 0. -1.
</event>
<event>
 5   0  0.2425845E-06  0.2908740E+04  0.7818609E-02  0.8270282E-01
       -2   -1    0    0    0  501  0.00000000000E+00  0.00000000000E+00  0.11424810938E+04  0.11424810938E+04  0.25500000920E-02 0.  1.
        2   -1    0    0  501    0  0.00000000000E+00  0.00000000000E+00 -0.18514023617E+04  0.18514023617E+04  0.25500000920E-02 0. -1.
    10030    2    1    2    0    0  0.00000000000E+00  0.00000000000E+00 -0.70892126792E+03  0.29938834555E+04  0.29087400676E+04 0.  0.
        2    1    3    3  502    0 -0.12540069072E+04  0.46334225267E+03  0.23499199622E+03  0.13573653173E+04  0.25500000920E-02 0.  1.
       -2    1    3    3    0  502  0.12540069072E+04 -0.46334225267E+03 -0.94391326414E+03  0.16365181382E+04  0.25500000920E-02 0. -1.
</event>
<event>
 5   0  0.8483636E-07  0.2898655E+04  0.7818609E-02  0.8273278E-01
       -1   -1    0    0    0  501  0.00000000000E+00  0.00000000000E+00  0.13258487975E+04  0.13258487975E+04  0.50400001928E-02 0. -1.
        1   -1    0    0  501    0  0.00000000000E+00  0.00000000000E+00 -0.15843058162E+04  0.15843058162E+04  0.50400001928E-02 0.  1.
    10030    2    1    2    0    0  0.00000000000E+00  0.00000000000E+00 -0.25845701871E+03  0.29101546137E+04  0.28986548338E+04 0.  0.
        2    1    3    3  502    0  0.63501424148E+03  0.10286546674E+04  0.67342838855E+03  0.13837916412E+04  0.25500000920E-02 0. -1.
       -2    1    3    3    0  502 -0.63501424148E+03 -0.10286546674E+04 -0.93188540726E+03  0.15263629726E+04  0.25500000920E-02 0.  1.
</event>
<event>
 5   0  0.8947674E-07  0.2908600E+04  0.7818609E-02  0.8270323E-01
       -1   -1    0    0    0  501  0.00000000000E+00  0.00000000000E+00  0.74169225848E+03  0.74169225849E+03  0.50400001928E-02 0. -1.
        1   -1    0    0  501    0  0.00000000000E+00  0.00000000000E+00 -0.28515706290E+04  0.28515706290E+04  0.50400001928E-02 0.  1.
    10030    2    1    2    0    0  0.00000000000E+00  0.00000000000E+00 -0.21098783706E+04  0.35932628875E+04  0.29085995669E+04 0.  0.
        3    1    3    3  502    0 -0.90484320515E+03  0.35235811268E+03 -0.23924139862E+04  0.25819647862E+04  0.10100000352E+00 0.  1.
       -3    1    3    3    0  502  0.90484320515E+03 -0.35235811268E+03  0.28253561566E+03  0.10112981013E+04  0.10100000352E+00 0. -1.
</event>
<event>
 5   0  0.2325590E-06  0.2902905E+04  0.7818609E-02  0.8272014E-01
        2   -1    0    0  501    0  0.00000000000E+00  0.00000000000E+00  0.25718843294E+04  0.25718843294E+04  0.25500000920E-02 0.  1.
       -2   -1    0    0    0  501  0.00000000000E+00  0.00000000000E+00 -0.81913252451E+03  0.81913252452E+03  0.25500000920E-02 0. -1.
    10030    2    1    2    0    0  0.00000000000E+00  0.00000000000E+00  0.17527518049E+04  0.33910168539E+04  0.29029048234E+04 0.  0.
        5    1    3    3  502    0  0.56783634530E+03  0.73604095630E+03  0.21784776811E+04  0.23685399514E+04  0.46999998093E+01 0.  1.
       -5    1    3    3    0  502 -0.56783634530E+03 -0.73604095630E+03 -0.42572587624E+03  0.10224769025E+04  0.46999998093E+01 0. -1.
</event>
<event>
 5   0  0.2304435E-06  0.2894953E+04  0.7818609E-02  0.8274381E-01
       -2   -1    0    0    0  501  0.00000000000E+00  0.00000000000E+00  0.19428509487E+04  0.19428509487E+04  0.25500000920E-02 0. -1.
        2   -1    0    0  501    0  0.00000000000E+00  0.00000000000E+00 -0.10784091128E+04  0.10784091128E+04  0.25500000920E-02 0.  1.
    10030    2    1    2    0    0  0.00000000000E+00  0.00000000000E+00  0.86444183591E+03  0.30212600616E+04  0.28949529654E+04 0.  0.
        1    1    3    3  502    0  0.16683964857E+03 -0.12795008487E+03 -0.10623876465E+04  0.10829931690E+04  0.50400001928E-02 0.  1.
       -1    1    3    3    0  502 -0.16683964857E+03  0.12795008487E+03  0.19268294824E+04  0.19382668926E+04  0.50400001928E-02 0. -1.
</event>
<event>
 5   0  0.8355946E-07  0.2905974E+04  0.7818609E-02  0.8271102E-01
       -1   -1    0    0    0  501  0.00000000000E+00  0.00000000000E+00  0.79877502883E+03  0.79877502885E+03  0.50400001928E-02 0. -1.
        1   -1    0    0  501    0  0.00000000000E+00  0.00000000000E+00 -0.26430118710E+04  0.26430118710E+04  0.50400001928E-02 0.  1.
    10030    2    1    2    0    0  0.00000000000E+00  0.00000000000E+00 -0.18442368421E+04  0.34417868998E+04  0.29059744551E+04 0.  0.
        4    1    3    3  502    0  0.11709651986E+04 -0.86016026948E+03 -0.90835280130E+03  0.17135173212E+04  0.12699999809E+01 0.  1.
       -4    1    3    3    0  502 -0.11709651986E+04  0.86016026948E+03 -0.93588404082E+03  0.17282695786E+04  0.12699999809E+01 0. -1.
</event>
<event>
 5   0  0.8355946E-07  0.2926117E+04  0.7818609E-02  0.8265149E-01
        1   -1    0    0  501    0  0.00000000000E+00  0.00000000000E+00  0.23745051407E+04  0.23745051407E+04  0.50400001928E-02 0.  1.
       -1   -1    0    0    0  501  0.00000000000E+00  0.00000000000E+00 -0.90146786306E+03  0.90146786307E+03  0.50400001928E-02 0. -1.
    10030    2    1    2    0    0  0.00000000000E+00  0.00000000000E+00  0.14730372777E+04  0.32759730038E+04  0.29261169321E+04 0.  0.
        4    1    3    3  502    0 -0.13659429518E+04 -0.39923242821E+03  0.35627601980E+03  0.14670108706E+04  0.12699999809E+01 0. -1.
       -4    1    3    3    0  502  0.13659429518E+04  0.39923242821E+03  0.11167612579E+04  0.18089621332E+04  0.12699999809E+01 0.  1.
</event>
<event>
 5   0  0.8263673E-07  0.2896686E+04  0.7818609E-02  0.8273864E-01
        1   -1    0    0  501    0  0.00000000000E+00  0.00000000000E+00  0.17638072637E+04  0.17638072637E+04  0.50400001928E-02 0.  1.
       -1   -1    0    0    0  501  0.00000000000E+00  0.00000000000E+00 -0.11893008826E+04  0.11893008826E+04  0.50400001928E-02 0. -1.
    10030    2    1    2    0    0  0.00000000000E+00  0.00000000000E+00  0.57450638108E+03  0.29531081462E+04  0.28966860620E+04 0.  0.
        5    1    3    3  502    0  0.90739571531E+03  0.73064896167E+02 -0.86117434369E+03  0.12531355886E+04  0.46999998093E+01 0. -1.
       -5    1    3    3    0  502 -0.90739571531E+03 -0.73064896167E+02  0.14356807248E+04  0.16999725576E+04  0.46999998093E+01 0.  1.
</event>
<event>
 5   0  0.2360103E-06  0.2921186E+04  0.7818609E-02  0.8266602E-01
       -2   -1    0    0    0  501  0.00000000000E+00  0.00000000000E+00  0.22211826997E+04  0.22211826997E+04  0.25500000920E-02 0.  1.
        2   -1    0    0  501    0  0.00000000000E+00  0.00000000000E+00 -0.96044875245E+03  0.96044875246E+03  0.25500000920E-02 0. -1.
    10030    2    1    2    0    0  0.00000000000E+00  0.00000000000E+00  0.12607339473E+04  0.31816314522E+04  0.29211861652E+04 0.  0.
        4    1    3    3  502    0 -0.53747414935E+03 -0.90985318062E+03  0.17285375530E+04  0.20259701273E+04  0.12699999809E+01 0.  1.
       -4    1    3    3    0  502  0.53747414935E+03  0.90985318062E+03 -0.46780360573E+03  0.11556613249E+04  0.12699999809E+01 0. -1.
</event>
<event>
 5   0  0.8263673E-07  0.2896241E+04  0.7818609E-02  0.8273997E-01
       -1   -1    0    0    0  501  0.00000000000E+00  0.00000000000E+00  0.84794036179E+03  0.84794036180E+03  0.50400001928E-02 0. -1.
        1   -1    0    0  501    0  0.00000000000E+00  0.00000000000E+00 -0.24731134032E+04  0.24731134032E+04  0.50400001928E-02 0.  1.
    10030    2    1    2    0    0  0.00000000000E+00  0.00000000000E+00 -0.16251730414E+04  0.33210537650E+04  0.28962407869E+04 0.  0.
        5    1    3    3  502    0  0.38537197120E+03  0.13546903398E+04 -0.11986152669E+04  0.18494318373E+04  0.46999998093E+01 0.  1.
       -5    1    3    3    0  502 -0.38537197120E+03 -0.13546903398E+04 -0.42655777452E+03  0.14716219277E+04  0.46999998093E+01 0. -1.
</event>
<event>
 5   0  0.2378690E-06  0.2903075E+04  0.7818609E-02  0.8271963E-01
        2   -1    0    0  501    0  0.00000000000E+00  0.00000000000E+00  0.17486930414E+04  0.17486930414E+04  0.25500000920E-02 0. -1.
       -2   -1    0    0    0  501  0.00000000000E+00  0.00000000000E+00 -0.12048775249E+04  0.12048775249E+04  0.25500000920E-02 0.  1.
    10030    2    1    2    0    0  0.00000000000E+00  0.00000000000E+00  0.54381551649E+03  0.29535705663E+04  0.29030748826E+04 0.  0.
        3    1    3    3  502    0 -0.34599482051E+03  0.29754177084E+03 -0.11299994852E+04  0.12186641736E+04  0.10100000352E+00 0.  1.
       -3    1    3    3    0  502  0.34599482051E+03 -0.29754177084E+03  0.16738150017E+04  0.17349063927E+04  0.10100000352E+00 0. -1.
</event>
<event>
 5   0  0.2378690E-06  0.2895733E+04  0.7818609E-02  0.8274148E-01
        2   -1    0    0  501    0  0.00000000000E+00  0.00000000000E+00  0.18064992203E+04  0.18064992203E+04  0.25500000920E-02 0.  1.
       -2   -1    0    0    0  501  0.00000000000E+00  0.00000000000E+00 -0.11604304525E+04  0.11604304525E+04  0.25500000920E-02 0. -1.
    10030    2    1    2    0    0  0.00000000000E+00  0.00000000000E+00  0.64606876789E+03  0.29669296728E+04  0.28957325205E+04 0.  0.
        3    1    3    3  502    0 -0.12655299303E+03 -0.70366117260E+03 -0.96695350745E+03  0.12025613505E+04  0.10100000352E+00 0. -1.
       -3    1    3    3    0  502  0.12655299303E+03  0.70366117260E+03  0.16130222753E+04  0.17643683223E+04  0.10100000352E+00 0.  1.
</event>
<event>
 5   0  0.8263673E-07  0.2978147E+04  0.7818609E-02  0.8249999E-01
       -1   -1    0    0    0  501  0.00000000000E+00  0.00000000000E+00  0.17901046411E+04  0.17901046411E+04  0.50400001928E-02 0. -1.
        1   -1    0    0  501    0  0.00000000000E+00  0.00000000000E+00 -0.12386652920E+04  0.12386652920E+04  0.50400001928E-02 0.  1.
    10030    2    1    2    0    0  0.00000000000E+00  0.00000000000E+00  0.55143934907E+03  0.30287699331E+04  0.29781474027E+04 0.  0.
        5    1    3    3  502    0  0.38968558142E+02 -0.14841126536E+04  0.15883354589E+03  0.14931038484E+04  0.46999998093E+01 0. -1.
       -5    1    3    3    0  502 -0.38968558142E+02  0.14841126536E+04  0.39260580318E+03  0.15356660847E+04  0.46999998093E+01 0.  1.
</event>
<event>
 5   0  0.2378690E-06  0.2903542E+04  0.7818609E-02  0.8271825E-01
       -2   -1    0    0    0  501  0.00000000000E+00  0.00000000000E+00  0.19067978885E+04  0.19067978885E+04  0.25500000920E-02 0. -1.
        2   -1    0    0  501    0  0.00000000000E+00  0.00000000000E+00 -0.11053287605E+04  0.11053287605E+04  0.25500000920E-02 0.  1.
    10030    2    1    2    0    0  0.00000000000E+00  0.00000000000E+00  0.80146912799E+03  0.30121266490E+04  0.29035416626E+04 0.  0.
        3    1    3    3  502    0 -0.48822957717E+03  0.12649043524E+04 -0.13760113386E+03  0.13628225207E+04  0.10100000352E+00 0. -1.
       -3    1    3    3    0  502  0.48822957717E+03 -0.12649043524E+04  0.93907026185E+03  0.16493041283E+04  0.10100000352E+00 0.  1.
</event>
<event>
 5   0  0.2425845E-06  0.2906766E+04  0.7818609E-02  0.8270867E-01
       -2   -1    0    0    0  501  0.00000000000E+00  0.00000000000E+00  0.15946685076E+04  0.15946685076E+04  0.25500000920E-02 0.  1.
        2   -1    0    0  501    0  0.00000000000E+00  0.00000000000E+00 -0.13246147757E+04  0.13246147757E+04  0.25500000920E-02 0. -1.
    10030    2    1    2    0    0  0.00000000000E+00  0.00000000000E+00  0.27005373195E+03  0.29192832833E+04  0.29067655341E+04 0.  0.
        2    1    3    3  502    0  0.21185170217E+03 -0.51673540249E+03  0.14826043232E+04  0.15843018017E+04  0.25500000920E-02 0.  1.
       -2    1    3    3    0  502 -0.21185170217E+03  0.51673540249E+03 -0.12125505912E+04  0.13349814816E+04  0.25500000920E-02 0. -1.
</event>
<event>
 5   0  0.2304435E-06  0.2886334E+04  0.7818609E-02  0.8276955E-01
        2   -1    0    0  501    0  0.00000000000E+00  0.00000000000E+00  0.16649179698E+04  0.16649179698E+04  0.25500000920E-02 0.  1.
       -2   -1    0    0    0  501  0.00000000000E+00  0.00000000000E+00 -0.12509510938E+04  0.12509510938E+04  0.25500000920E-02 0. -1.
    10030    2    1    2    0    0  0.00000000000E+00  0.00000000000E+00  0.41396687594E+03  0.29158690636E+04  0.28863339761E+04 0.  0.
        1    1    3    3  502    0 -0.13187941835E+04  0.54195166566E+03  0.43242892947E+03  0.14899411013E+04  0.50400001928E-02 0. -1.
       -1    1    3    3    0  502  0.13187941835E+04 -0.54195166566E+03 -0.18462053531E+02  0.14259279623E+04  0.50400001928E-02 0.  1.
</event>
<event>
 5   0  0.8357118E-07  0.2896435E+04  0.7818609E-02  0.8273939E-01
       -1   -1    0    0    0  501  0.00000000000E+00  0.00000000000E+00  0.14138396555E+04  0.14138396555E+04  0.50400001928E-02 0. -1.
        1   -1    0    0  501    0  0.00000000000E+00  0.00000000000E+00 -0.14834312423E+04  0.14834312423E+04  0.50400001928E-02 0.  1.
    10030    2    1    2    0    0  0.00000000000E+00  0.00000000000E+00 -0.69591586760E+02  0.28972708978E+04  0.28964349925E+04 0.  0.
        1    1    3    3  502    0 -0.12013686743E+04  0.80310304891E+03  0.60482510415E+02  0.14463468923E+04  0.50400001928E-02 0.  1.
       -1    1    3    3    0  502  0.12013686743E+04 -0.80310304891E+03 -0.13007409717E+03  0.14509240054E+04  0.50400001928E-02 0. -1.
</event>
<event>
 5   0  0.2360103E-06  0.2878088E+04  0.7818609E-02  0.8279427E-01
       -2   -1    0    0    0  501  0.00000000000E+00  0.00000000000E+00  0.17351925831E+04  0.17351925831E+04  0.25500000920E-02 0. -1.
        2   -1    0    0  501    0  0.00000000000E+00  0.00000000000E+00 -0.11934400458E+04  0.11934400458E+04  0.25500000920E-02 0.  1.
    10030    2    1    2    0    0  0.00000000000E+00  0.00000000000E+00  0.54175253722E+03  0.29286326289E+04  0.28780884739E+04 0.  0.
        4    1    3    3  502    0 -0.26711232918E+03 -0.90048125072E+03 -0.83851392756E+03  0.12590959848E+04  0.12699999809E+01 0.  1.
       -4    1    3    3    0  502  0.26711232918E+03  0.90048125072E+03  0.13802664648E+04  0.16695366441E+04  0.12699999809E+01 0. -1.
</event>
<event>
 5   0  0.2360103E-06  0.2857003E+04  0.7818609E-02  0.8285786E-01
        2   -1    0    0  501    0  0.00000000000E+00  0.00000000000E+00  0.23860748834E+04  0.23860748834E+04  0.25500000920E-02 0. -1.
       -2   -1    0    0    0  501  0.00000000000E+00  0.00000000000E+00 -0.85521924711E+03  0.85521924712E+03  0.25500000920E-02 0.  1.
    10030    2    1    2    0    0  0.00000000000E+00  0.00000000000E+00  0.15308556363E+04  0.32412941305E+04  0.28570034409E+04 0.  0.
        4    1    3    3  502    0  0.54289750927E+03 -0.58203281484E+03 -0.58034755243E+03  0.98504050558E+03  0.12699999809E+01 0.  1.
       -4    1    3    3    0  502 -0.54289750927E+03  0.58203281484E+03  0.21112031887E+04  0.22562536249E+04  0.12699999809E+01 0. -1.
</event>
<event>
 5   0  0.2325590E-06  0.2912001E+04  0.7818609E-02  0.8269316E-01
       -2   -1    0    0    0  501  0.00000000000E+00  0.00000000000E+00  0.72164956992E+03  0.72164956993E+03  0.25500000920E-02 0.  1.
        2   -1    0    0  501    0  0.00000000000E+00  0.00000000000E+00 -0.29376262628E+04  0.29376262628E+04  0.25500000920E-02 0. -1.
    10030    2    1    2    0    0  0.00000000000E+00  0.00000000000E+00 -0.22159766929E+04  0.36592758328E+04  0.29120005008E+04 0.  0.
        5    1    3    3  502    0 -0.70827006025E+03  0.12720412962E+04 -0.10911711497E+04  0.18194537931E+04  0.46999998093E+01 0.  1.
       -5    1    3    3    0  502  0.70827006025E+03 -0.12720412962E+04 -0.11248055432E+04  0.18398220396E+04  0.46999998093E+01 0. -1.
</event>
<event>
 5   0  0.8355946E-07  0.2868456E+04  0.7818609E-02  0.8282325E-01
        1   -1    0    0  501    0  0.00000000000E+00  0.00000000000E+00  0.11016261807E+04  0.11016261807E+04  0.50400001928E-02 0.  1.
       -1   -1    0    0    0  501  0.00000000000E+00  0.00000000000E+00 -0.18672489555E+04  0.18672489555E+04  0.50400001928E-02 0. -1.
    10030    2    1    2    0    0  0.00000000000E+00  0.00000000000E+00 -0.76562277479E+03  0.29688751362E+04  0.28684562645E+04 0.  0.
        4    1    3    3  502    0 -0.95166914018E+03  0.41317353087E+03  0.64211945273E+03  0.12201252081E+04  0.12699999809E+01 0.  1.
       -4    1    3    3    0  502  0.95166914018E+03 -0.41317353087E+03 -0.14077422275E+04  0.17487499281E+04  0.12699999809E+01 0. -1.
</event>
<event>
 5   0  0.8483636E-07  0.2903386E+04  0.7818609E-02  0.8271871E-01
       -1   -1    0    0    0  501  0.00000000000E+00  0.00000000000E+00  0.14004791062E+04  0.14004791062E+04  0.50400001928E-02 0. -1.
        1   -1    0    0  501    0  0.00000000000E+00  0.00000000000E+00 -0.15047798603E+04  0.15047798603E+04  0.50400001928E-02 0.  1.
    10030    2    1    2    0    0  0.00000000000E+00  0.00000000000E+00 -0.10430075410E+03  0.29052589664E+04  0.29033861291E+04 0.  0.
        2    1    3    3  502    0 -0.53607679582E+03  0.13447221292E+04  0.56348426231E+02  0.14487343031E+04  0.25500000920E-02 0.  1.
       -2    1    3    3    0  502  0.53607679582E+03 -0.13447221292E+04 -0.16064918033E+03  0.14565246633E+04  0.25500000920E-02 0. -1.
</event>
<event>
 5   0  0.2378690E-06  0.2902707E+04  0.7818609E-02  0.8272073E-01
       -2   -1    0    0    0  501  0.00000000000E+00  0.00000000000E+00  0.12745103907E+04  0.12745103907E+04  0.25500000920E-02 0. -1.
        2   -1    0    0  501    0  0.00000000000E+00  0.00000000000E+00 -0.16527338285E+04  0.16527338285E+04  0.25500000920E-02 0.  1.
    10030    2    1    2    0    0  0.00000000000E+00  0.00000000000E+00 -0.37822343787E+03  0.29272442192E+04  0.29027066249E+04 0.  0.
        3    1    3    3  502    0  0.65081369093E+02  0.13509651066E+04  0.34172582827E+03  0.13950336397E+04  0.10100000352E+00 0. -1.
       -3    1    3    3    0  502 -0.65081369093E+02 -0.13509651066E+04 -0.71994926614E+03  0.15322105795E+04  0.10100000352E+00 0.  1.
</event>
<event>
 5   0  0.2304435E-06  0.2905073E+04  0.7818609E-02  0.8271370E-01
        2   -1    0    0  501    0  0.00000000000E+00  0.00000000000E+00  0.12875884871E+04  0.12875884871E+04  0.25500000920E-02 0.  1.
       -2   -1    0    0    0  501  0.00000000000E+00  0.00000000000E+00 -0.16386158575E+04  0.16386158575E+04  0.25500000920E-02 0. -1.
    10030    2    1    2    0    0  0.00000000000E+00  0.00000000000E+00 -0.35102737038E+03  0.29262043446E+04  0.29050734331E+04 0.  0.
        1    1    3    3  502    0 -0.72004573975E+03  0.12327231163E+04 -0.44540059709E+03  0.14954777968E+04  0.50400001928E-02 0. -1.
       -1    1    3    3    0  502  0.72004573975E+03 -0.12327231163E+04  0.94373226708E+02  0.14307265478E+04  0.50400001928E-02 0.  1.
</event>
<event>
 5   0  0.2360103E-06  0.2903399E+04  0.7818609E-02  0.8271867E-01
       -2   -1    0    0    0  501  0.00000000000E+00  0.00000000000E+00  0.13367354509E+04  0.13367354509E+04  0.25500000920E-02 0.  1.
        2   -1    0    0  501    0  0.00000000000E+00  0.00000000000E+00 -0.15765506852E+04  0.15765506852E+04  0.25500000920E-02 0. -1.
    10030    2    1    2    0    0  0.00000000000E+00  0.00000000000E+00 -0.23981523433E+03  0.29132861361E+04  0.29033988297E+04 0.  0.
        4    1    3    3  502    0  0.11579137117E+04  0.43760570038E+03  0.64107248065E+03  0.13940008791E+04  0.12699999809E+01 0.  1.
       -4    1    3    3    0  502 -0.11579137117E+04 -0.43760570038E+03 -0.88088771498E+03  0.15192852569E+04  0.12699999809E+01 0. -1.
</event>
<event>
 5   0  0.8947674E-07  0.2907558E+04  0.7818609E-02  0.8270632E-01
       -1   -1    0    0    0  501  0.00000000000E+00  0.00000000000E+00  0.11276576787E+04  0.11276576787E+04  0.50400001928E-02 0.  1.
        1   -1    0    0  501    0  0.00000000000E+00  0.00000000000E+00 -0.18742152986E+04  0.18742152986E+04  0.50400001928E-02 0. -1.
    10030    2    1    2    0    0  0.00000000000E+00  0.00000000000E+00 -0.74655761992E+03  0.30018729773E+04  0.29075579258E+04 0.  0.
        3    1    3    3  502    0  0.10125723327E+04  0.10426816397E+04 -0.34086729651E+03  0.14928758337E+04  0.10100000352E+00 0.  1.
       -3    1    3    3    0  502 -0.10125723327E+04 -0.10426816397E+04 -0.40569032340E+03  0.15089971436E+04  0.10100000352E+00 0. -1.
</event>
<event>
 5   0  0.8357118E-07  0.2914912E+04  0.7818609E-02  0.8268454E-01
        1   -1    0    0  501    0  0.00000000000E+00  0.00000000000E+00  0.85104239632E+03  0.85104239633E+03  0.50400001928E-02 0. -1.
       -1   -1    0    0    0  501  0.00000000000E+00  0.00000000000E+00 -0.24959720694E+04  0.24959720694E+04  0.50400001928E-02 0.  1.
    10030    2    1    2    0    0  0.00000000000E+00  0.00000000000E+00 -0.16449296731E+04  0.33470144657E+04  0.29149120406E+04 0.  0.
        1    1    3    3  502    0 -0.16893281683E+03  0.40450247775E+03  0.77355271549E+03  0.88912561248E+03  0.50400001928E-02 0. -1.
       -1    1    3    3    0  502  0.16893281683E+03 -0.40450247775E+03 -0.24184823886E+04  0.24578888533E+04  0.50400001928E-02 0.  1.
</event>
<event>
 5   0  0.8355946E-07  0.2894274E+04  0.7818609E-02  0.8274583E-01
        1   -1    0    0  501    0  0.00000000000E+00  0.00000000000E+00  0.27086100933E+04  0.27086100933E+04  0.50400001928E-02 0. -1.
       -1   -1    0    0    0  501  0.00000000000E+00  0.00000000000E+00 -0.77316630135E+03  0.77316630136E+03  0.50400001928E-02 0.  1.
    10030    2    1    2    0    0  0.00000000000E+00  0.00000000000E+00  0.19354437920E+04  0.34817763947E+04  0.28942743807E+04 0.  0.
        4    1    3    3  502    0  0.10408686125E+04 -0.70445063026E+03  0.18306475807E+04  0.22205698225E+04  0.12699999809E+01 0. -1.
       -4    1    3    3    0  502 -0.10408686125E+04  0.70445063026E+03  0.10479621133E+03  0.12612065722E+04  0.12699999809E+01 0.  1.
</event>
<event>
 5   0  0.2304435E-06  0.2908750E+04  0.7818609E-02  0.8270279E-01
        2   -1    0    0  501    0  0.00000000000E+00  0.00000000000E+00  0.12501939390E+04  0.12501939390E+04  0.25500000920E-02 0.  1.
       -2   -1    0    0    0  501  0.00000000000E+00  0.00000000000E+00 -0.16919031584E+04  0.16919031584E+04  0.25500000920E-02 0. -1.
    10030    2    1    2    0    0  0.00000000000E+00  0.00000000000E+00 -0.44170921938E+03  0.29420970974E+04  0.29087502980E+04 0.  0.
        1    1    3    3  502    0 -0.29136889759E+02 -0.36775228176E+03  0.12020842072E+04  0.12574168523E+04  0.50400001928E-02 0.  1.
       -1    1    3    3    0  502  0.29136889759E+02  0.36775228176E+03 -0.16437934266E+04  0.16846802452E+04  0.50400001928E-02 0. -1.
</event>
<event>
 5   0  0.2360103E-06  0.2892330E+04  0.7818609E-02  0.8275163E-01
        2   -1    0    0  501    0  0.00000000000E+00  0.00000000000E+00  0.13654718912E+04  0.13654718912E+04  0.25500000920E-02 0. -1.
       -2   -1    0    0    0  501  0.00000000000E+00  0.00000000000E+00 -0.15316267665E+04  0.15316267665E+04  0.25500000920E-02 0.  1.
    10030    2    1    2    0    0  0.00000000000E+00  0.00000000000E+00 -0.16615487529E+03  0.28970986577E+04  0.28923300624E+04 0.  0.
        4    1    3    3  502    0 -0.10660423253E+04  0.58542935647E+03 -0.86681100843E+03  0.14934981446E+04  0.12699999809E+01 0.  1.
       -4    1    3    3    0  502  0.10660423253E+04 -0.58542935647E+03  0.70065613314E+03  0.14036005131E+04  0.12699999809E+01 0. -1.
</event>
<event>
 5   0  0.8263673E-07  0.2899402E+04  0.7818609E-02  0.8273055E-01
       -1   -1    0    0    0  501  0.00000000000E+00  0.00000000000E+00  0.89049923118E+03  0.89049923120E+03  0.50400001928E-02 0. -1.
        1   -1    0    0  501    0  0.00000000000E+00  0.00000000000E+00 -0.23600611867E+04  0.23600611867E+04  0.50400001928E-02 0.  1.
    10030    2    1    2    0    0  0.00000000000E+00  0.00000000000E+00 -0.14695619555E+04  0.32505604179E+04  0.28994017813E+04 0.  0.
        5    1    3    3  502    0 -0.30897362536E+02 -0.12851306644E+04 -0.14860906930E+04  0.19649435385E+04  0.46999998093E+01 0.  1.
       -5    1    3    3    0  502  0.30897362536E+02  0.12851306644E+04  0.16528737500E+02  0.12856168794E+04  0.46999998093E+01 0. -1.
</event>
<event>
 5   0  0.2304435E-06  0.2897004E+04  0.7818609E-02  0.8273770E-01
        2   -1    0    0  501    0  0.00000000000E+00  0.00000000000E+00  0.83687522661E+03  0.83687522661E+03  0.25500000920E-02 0.  1.
       -2   -1    0    0    0  501  0.00000000000E+00  0.00000000000E+00 -0.25071328842E+04  0.25071328842E+04  0.25500000920E-02 0. -1.
    10030    2    1    2    0    0  0.00000000000E+00  0.00000000000E+00 -0.16702576576E+04  0.33440081108E+04  0.28970035558E+04 0.  0.
        1    1    3    3  502    0  0.27632473182E+03  0.83436682108E+03  0.49388689577E+03  0.10081902674E+04  0.50400001928E-02 0.  1.
       -1    1    3    3    0  502 -0.27632473182E+03 -0.83436682108E+03 -0.21641445534E+04  0.23358178434E+04  0.50400001928E-02 0. -1.
</event>
<event>
 5   0  0.8947674E-07  0.2917627E+04  0.7818609E-02  0.8267652E-01
       -1   -1    0    0    0  501  0.00000000000E+00  0.00000000000E+00  0.16269375374E+04  0.16269375374E+04  0.50400001928E-02 0.  1.
        1   -1    0    0  501    0  0.00000000000E+00  0.00000000000E+00 -0.13080634276E+04  0.13080634276E+04  0.50400001928E-02 0. -1.
    10030    2    1    2    0    0  0.00000000000E+00  0.00000000000E+00  0.31887410981E+03  0.29350009651E+04  0.29176274551E+04 0.  0.
        3    1    3    3  502    0  0.90397846304E+03 -0.85650855674E+03  0.92379945833E+03  0.15505448780E+04  0.10100000352E+00 0. -1.
       -3    1    3    3    0  502 -0.90397846304E+03  0.85650855674E+03 -0.60492534851E+03  0.13844560870E+04  0.10100000352E+00 0.  1.
</event>
<event>
 5   0  0.7621125E-07  0.2917326E+04  0.7818609E-02  0.8267741E-01
        3   -1    0    0  501    0  0.00000000000E+00  0.00000000000E+00  0.25937589760E+04  0.25937589779E+04  0.10100000352E+00 0. -1.
       -3   -1    0    0    0  501  0.00000000000E+00  0.00000000000E+00 -0.82031447210E+03  0.82031447832E+03  0.10100000352E+00 0.  1.
    10030    2    1    2    0    0  0.00000000000E+00  0.00000000000E+00  0.17734445039E+04  0.34140734563E+04  0.29173261999E+04 0.  0.
        4    1    3    3  502    0  0.14465106033E+04  0.14446198214E+03  0.10273220755E+04  0.17800714732E+04  0.12699999809E+01 0. -1.
       -4    1    3    3    0  502 -0.14465106033E+04 -0.14446198214E+03  0.74612242836E+03  0.16340019831E+04  0.12699999809E+01 0.  1.
</event>
<event>
 5   0  0.8263673E-07  0.2895020E+04  0.7818609E-02  0.8274361E-01
        1   -1    0    0  501    0  0.00000000000E+00  0.00000000000E+00  0.21427171378E+04  0.21427171378E+04  0.50400001928E-02 0.  1.
       -1   -1    0    0    0  501  0.00000000000E+00  0.00000000000E+00 -0.97786357729E+03  0.97786357730E+03  0.50400001928E-02 0. -1.
    10030    2    1    2    0    0  0.00000000000E+00  0.00000000000E+00  0.11648535605E+04  0.31205807151E+04  0.28950198932E+04 0.  0.
        5    1    3    3  502    0  0.17732484207E+03  0.14015771857E+04  0.92226921210E+03  0.16871470880E+04  0.46999998093E+01 0.  1.
       -5    1    3    3    0  502 -0.17732484207E+03 -0.14015771857E+04  0.24258434837E+03  0.14334336270E+04  0.46999998093E+01 0. -1.
</event>
<event>
 5   0  0.8483636E-07  0.2886161E+04  0.7818609E-02  0.8277007E-01
        1   -1    0    0  501    0  0.00000000000E+00  0.00000000000E+00  0.67387866598E+03  0.67387866600E+03  0.50400001928E-02 0.  1.
       -1   -1    0    0    0  501  0.00000000000E+00  0.00000000000E+00 -0.30902922232E+04  0.30902922232E+04  0.50400001928E-02 0. -1.
    10030    2    1    2    0    0  0.00000000000E+00  0.00000000000E+00 -0.24164135572E+04  0.37641708892E+04  0.28861614653E+04 0.  0.
        2    1    3    3  502    0  0.12237588281E+04  0.51831059197E+03 -0.47476728464E+03  0.14112531714E+04  0.25500000920E-02 0.  1.
       -2    1    3    3    0  502 -0.12237588281E+04 -0.51831059197E+03 -0.19416462726E+04  0.23529177179E+04  0.25500000920E-02 0. -1.
</event>
<event>
 5   0  0.2325590E-06  0.2890505E+04  0.7818609E-02  0.8275708E-01
        2   -1    0    0  501    0  0.00000000000E+00  0.00000000000E+00  0.18211444175E+04  0.18211444175E+04  0.25500000920E-02 0.  1.
       -2   -1    0    0    0  501  0.00000000000E+00  0.00000000000E+00 -0.11469464493E+04  0.11469464493E+04  0.25500000920E-02 0. -1.
    10030    2    1    2    0    0  0.00000000000E+00  0.00000000000E+00  0.67419796819E+03  0.29680908668E+04  0.28905052315E+04 0.  0.
        5    1    3    3  502    0 -0.73872546921E+03 -0.56754876374E+03  0.14717036555E+04  0.17417694043E+04  0.46999998093E+01 0.  1.
       -5    1    3    3    0  502  0.73872546921E+03  0.56754876374E+03 -0.79750568734E+03  0.12263214625E+04  0.46999998093E+01 0. -1.
</event>
<event>
 5   0  0.2360103E-06  0.2886011E+04  0.7818609E-02  0.8277052E-01
       -2   -1    0    0    0  501  0.00000000000E+00  0.00000000000E+00  0.90684949120E+03  0.90684949121E+03  0.25500000920E-02 0. -1.
        2   -1    0    0  501    0  0.00000000000E+00  0.00000000000E+00 -0.22961526860E+04  0.22961526860E+04  0.25500000920E-02 0.  1.
    10030    2    1    2    0    0  0.00000000000E+00  0.00000000000E+00 -0.13893031948E+04  0.32030021772E+04  0.28860110153E+04 0.  0.
        4    1    3    3  502    0  0.27453776949E+03  0.75504495014E+03 -0.20249752763E+04  0.21785293998E+04  0.12699999809E+01 0.  1.
       -4    1    3    3    0  502 -0.27453776949E+03 -0.75504495014E+03  0.63567208144E+03  0.10244727774E+04  0.12699999809E+01 0. -1.
</event>
<event>
 5   0  0.8357118E-07  0.2901191E+04  0.7818609E-02  0.8272523E-01
        1   -1    0    0  501    0  0.00000000000E+00  0.00000000000E+00  0.12389250973E+04  0.12389250973E+04  0.50400001928E-02 0. -1.
       -1   -1    0    0    0  501  0.00000000000E+00  0.00000000000E+00 -0.16984300712E+04  0.16984300713E+04  0.50400001928E-02 0.  1.
    10030    2    1    2    0    0  0.00000000000E+00  0.00000000000E+00 -0.45950497396E+03  0.29373551685E+04  0.29011912321E+04 0.  0.
        1    1    3    3  502    0  0.87521259420E+03  0.17073103183E+02  0.94135908714E+03  0.12854748177E+04  0.50400001928E-02 0. -1.
       -1    1    3    3    0  502 -0.87521259420E+03 -0.17073103183E+02 -0.14008640611E+04  0.16518803509E+04  0.50400001928E-02 0.  1.
</event>
<event>
 5   0  0.2325590E-06  0.2898356E+04  0.7818609E-02  0.8273367E-01
        2   -1    0    0  501    0  0.00000000000E+00  0.00000000000E+00  0.21434468505E+04  0.21434468505E+04  0.25500000920E-02 0.  1.
       -2   -1    0    0    0  501  0.00000000000E+00  0.00000000000E+00 -0.97978524233E+03  0.97978524233E+03  0.25500000920E-02 0. -1.
    10030    2    1    2    0    0  0.00000000000E+00  0.00000000000E+00  0.11636616081E+04  0.31232320928E+04  0.28983564942E+04 0.  0.
        5    1    3    3  502    0 -0.57200912005E+03  0.47506953291E+03  0.19222081818E+04  0.20610171951E+04  0.46999998093E+01 0.  1.
       -5    1    3    3    0  502  0.57200912005E+03 -0.47506953291E+03 -0.75854657362E+03  0.10622148977E+04  0.46999998093E+01 0. -1.
</event>
<event>
 5   0  0.8263673E-07  0.2845329E+04  0.7818609E-02  0.8289332E-01
       -1   -1    0    0    0  501  0.00000000000E+00  0.00000000000E+00  0.10758319047E+04  0.10758319047E+04  0.50400001928E-02 0. -1.
        1   -1    0    0  501    0  0.00000000000E+00  0.00000000000E+00 -0.18813106673E+04  0.18813106673E+04  0.50400001928E-02 0.  1.
    10030    2    1    2    0    0  0.00000000000E+00  0.00000000000E+00 -0.80547876263E+03  0.29571425720E+04  0.28453288306E+04 0.  0.
        5    1    3    3  502    0 -0.25266335021E+03  0.13043214793E+03  0.10459905936E+04  0.10839602048E+04  0.46999998093E+01 0. -1.
       -5    1    3    3    0  502  0.25266335021E+03 -0.13043214793E+03 -0.18514693562E+04  0.18731823672E+04  0.46999998093E+01 0.  1.
</event>
<event>
 5   0  0.2378690E-06  0.2891271E+04  0.7818609E-02  0.8275479E-01
        2   -1    0    0  501    0  0.00000000000E+00  0.00000000000E+00  0.11708593236E+04  0.11708593236E+04  0.25500000920E-02 0.  1.
       -2   -1    0    0    0  501  0.00000000000E+00  0.00000000000E+00 -0.17848959845E+04  0.17848959845E+04  0.25500000920E-02 0. -1.
    10030    2    1    2    0    0  0.00000000000E+00  0.00000000000E+00 -0.61403666093E+03  0.29557553082E+04  0.28912710735E+04 0.  0.
        3    1    3    3  502    0  0.10398540265E+04  0.67342355496E+03 -0.10686625353E+04  0.16361036964E+04  0.10100000352E+00 0. -1.
       -3    1    3    3    0  502 -0.10398540265E+04 -0.67342355496E+03  0.45462587435E+03  0.13196516118E+04  0.10100000352E+00 0.  1.
</event>
<event>
 5   0  0.2325590E-06  0.2889068E+04  0.7818609E-02  0.8276138E-01
       -2   -1    0    0    0  501  0.00000000000E+00  0.00000000000E+00  0.13567465490E+04  0.13567465490E+04  0.25500000920E-02 0. -1.
        2   -1    0    0  501    0  0.00000000000E+00  0.00000000000E+00 -0.15380016583E+04  0.15380016583E+04  0.25500000920E-02 0.  1.
    10030    2    1    2    0    0  0.00000000000E+00  0.00000000000E+00 -0.18125510934E+03  0.28947482073E+04  0.28890679758E+04 0.  0.
        5    1    3    3  502    0 -0.14346612565E+04  0.15023476430E+03 -0.14103663737E+02  0.14425825483E+04  0.46999998093E+01 0.  1.
       -5    1    3    3    0  502  0.14346612565E+04 -0.15023476430E+03 -0.16715144561E+03  0.14521656590E+04  0.46999998093E+01 0. -1.
</event>
<event>
 5   0  0.8355946E-07  0.2856064E+04  0.7818609E-02  0.8286071E-01
        1   -1    0    0  501    0  0.00000000000E+00  0.00000000000E+00  0.19977721133E+04  0.19977721133E+04  0.50400001928E-02 0.  1.
       -1   -1    0    0    0  501  0.00000000000E+00  0.00000000000E+00 -0.10207749717E+04  0.10207749717E+04  0.50400001928E-02 0. -1.
    10030    2    1    2    0    0  0.00000000000E+00  0.00000000000E+00  0.97699714157E+03  0.30185470850E+04  0.28560642657E+04 0.  0.
        4    1    3    3  502    0 -0.78587744144E+03 -0.11331882841E+04  0.88048258708E+03  0.16361449322E+04  0.12699999809E+01 0.  1.
       -4    1    3    3    0  502  0.78587744144E+03  0.11331882841E+04  0.96514554485E+02  0.13824021529E+04  0.12699999809E+01 0. -1.
</event>
<event>
 5   0  0.2378690E-06  0.2905569E+04  0.7818609E-02  0.8271222E-01
        2   -1    0    0  501    0  0.00000000000E+00  0.00000000000E+00  0.23508564832E+04  0.23508564832E+04  0.25500000920E-02 0. -1.
       -2   -1    0    0    0  501  0.00000000000E+00  0.00000000000E+00 -0.89779336156E+03  0.89779336157E+03  0.25500000920E-02 0.  1.
    10030    2    1    2    0    0  0.00000000000E+00  0.00000000000E+00  0.14530631216E+04  0.32486498448E+04  0.29055693725E+04 0.  0.
        3    1    3    3  502    0 -0.20969186208E+03  0.49616541604E+03  0.22350789207E+04  0.22990712449E+04  0.10100000352E+00 0. -1.
       -3    1    3    3    0  502  0.20969186208E+03 -0.49616541604E+03 -0.78201579909E+03  0.94957859986E+03  0.10100000352E+00 0.  1.
</event>
<event>
 5   0  0.2425845E-06  0.2898129E+04  0.7818609E-02  0.8273434E-01
       -2   -1    0    0    0  501  0.00000000000E+00  0.00000000000E+00  0.14576038760E+04  0.14576038760E+04  0.25500000920E-02 0.  1.
        2   -1    0    0  501    0  0.00000000000E+00  0.00000000000E+00 -0.14405751365E+04  0.14405751365E+04  0.25500000920E-02 0. -1.
    10030    2    1    2    0    0  0.00000000000E+00  0.00000000000E+00  0.17028739472E+02  0.28981790125E+04  0.28981289845E+04 0.  0.
        2    1    3    3  502    0 -0.13097046988E+04  0.39690079072E+03 -0.46786688684E+03  0.14462904479E+04  0.25500000920E-02 0. -1.
       -2    1    3    3    0  502  0.13097046988E+04 -0.39690079072E+03  0.48489562631E+03  0.14518885647E+04  0.25500000920E-02 0.  1.
</event>
<event>
 5   0  0.2360103E-06  0.2905547E+04  0.7818609E-02  0.8271229E-01
        2   -1    0    0  501    0  0.00000000000E+00  0.00000000000E+00  0.16496357099E+04  0.16496357099E+04  0.25500000920E-02 0.  1.
       -2   -1    0    0    0  501  0.00000000000E+00  0.00000000000E+00 -0.12794043482E+04  0.12794043482E+04  0.25500000920E-02 0. -1.
    10030    2    1    2    0    0  0.00000000000E+00  0.00000000000E+00  0.37023136167E+03  0.29290400581E+04  0.29055471775E+04 0.  0.
        4    1    3    3  502    0  0.35770350016E+02  0.13619296488E+04  0.69359226303E+03  0.15287915903E+04  0.12699999809E+01 0.  1.
       -4    1    3    3    0  502 -0.35770350016E+02 -0.13619296488E+04 -0.32336090136E+03  0.14002484678E+04  0.12699999809E+01 0. -1.
</event>
<event>
 5   0  0.2325590E-06  0.2904499E+04  0.7818609E-02  0.8271540E-01
       -2   -1    0    0    0  501  0.00000000000E+00  0.00000000000E+00  0.12564271701E+04  0.12564271701E+04  0.25500000920E-02 0. -1.
        2   -1    0    0  501    0  0.00000000000E+00  0.00000000000E+00 -0.16785922847E+04  0.16785922847E+04  0.25500000920E-02 0.  1.
    10030    2    1    2    0    0  0.00000000000E+00  0.00000000000E+00 -0.42216511465E+03  0.29350194548E+04  0.29044992367E+04 0.  0.
        5    1    3    3  502    0  0.13715740720E+04  0.12191637162E+03  0.25520725733E+03  0.14004398848E+04  0.46999998093E+01 0. -1.
       -5    1    3    3    0  502 -0.13715740720E+04 -0.12191637162E+03 -0.67737237198E+03  0.15345795701E+04  0.46999998093E+01 0.  1.
</event>
<event>
 5   0  0.2304435E-06  0.2933275E+04  0.7818609E-02  0.8263045E-01
        2   -1    0    0  501    0  0.00000000000E+00  0.00000000000E+00  0.15077257821E+04  0.15077257821E+04  0.25500000920E-02 0. -1.
       -2   -1    0    0    0  501  0.00000000000E+00  0.00000000000E+00 -0.14266691331E+04  0.14266691331E+04  0.25500000920E-02 0.  1.
    10030    2    1    2    0    0  0.00000000000E+00  0.00000000000E+00  0.81056648986E+02  0.29343949151E+04  0.29332751895E+04 0.  0.
        1    1    3    3  502    0 -0.89808490207E+03  0.89013425464E+03 -0.70281006689E+03  0.14466642571E+04  0.50400001928E-02 0.  1.
       -1    1    3    3    0  502  0.89808490207E+03 -0.89013425464E+03  0.78386671587E+03  0.14877306580E+04  0.50400001928E-02 0. -1.
</event>
<event>
 5   0  0.2304435E-06  0.2897597E+04  0.7818609E-02  0.8273593E-01
        2   -1    0    0  501    0  0.00000000000E+00  0.00000000000E+00  0.22701197148E+04  0.22701197148E+04  0.25500000920E-02 0. -1.
       -2   -1    0    0    0  501  0.00000000000E+00  0.00000000000E+00 -0.92462861709E+03  0.92462861709E+03  0.25500000920E-02 0.  1.
    10030    2    1    2    0    0  0.00000000000E+00  0.00000000000E+00  0.13454910977E+04  0.31947483319E+04  0.28975973858E+04 0.  0.
        1    1    3    3  502    0 -0.14220600835E+04  0.17335418662E+03  0.43445399663E+03  0.14970159753E+04  0.50400001928E-02 0. -1.
       -1    1    3    3    0  502  0.14220600835E+04 -0.17335418662E+03  0.91103710110E+03  0.16977323566E+04  0.50400001928E-02 0.  1.
</event>
<event>
 5   0  0.8357118E-07  0.2894196E+04  0.7818609E-02  0.8274606E-01
       -1   -1    0    0    0  501  0.00000000000E+00  0.00000000000E+00  0.18747712693E+04  0.18747712693E+04  0.50400001928E-02 0. -1.
        1   -1    0    0  501    0  0.00000000000E+00  0.00000000000E+00 -0.11169860368E+04  0.11169860369E+04  0.50400001928E-02 0.  1.
    10030    2    1    2    0    0  0.00000000000E+00  0.00000000000E+00  0.75778523247E+03  0.29917573062E+04  0.28941964896E+04 0.  0.
        1    1    3    3  502    0 -0.36453547909E+03 -0.93000355546E+03  0.14612312832E+04  0.17700253082E+04  0.50400001928E-02 0. -1.
       -1    1    3    3    0  502  0.36453547909E+03  0.93000355546E+03 -0.70344605068E+03  0.12217319980E+04  0.50400001928E-02 0.  1.
</event>
<event>
 5   0  0.8483636E-07  0.2877239E+04  0.7818609E-02  0.8279682E-01
        1   -1    0    0  501    0  0.00000000000E+00  0.00000000000E+00  0.89821981793E+03  0.89821981795E+03  0.50400001928E-02 0. -1.
       -1   -1    0    0    0  501  0.00000000000E+00  0.00000000000E+00 -0.23041419859E+04  0.23041419860E+04  0.50400001928E-02 0.  1.
    10030    2    1    2    0    0  0.00000000000E+00  0.00000000000E+00 -0.14059221680E+04  0.32023618039E+04  0.28772389509E+04 0.  0.
        2    1    3    3  502    0  0.11939751596E+04 -0.52448726712E+03 -0.26900629242E+02  0.13043723467E+04  0.25500000920E-02 0. -1.
       -2    1    3    3    0  502 -0.11939751596E+04  0.52448726712E+03 -0.13790215388E+04  0.18979894572E+04  0.25500000920E-02 0.  1.
</event>
<event>
 5   0  0.2304435E-06  0.2955396E+04  0.7818609E-02  0.8256584E-01
       -2   -1    0    0    0  501  0.00000000000E+00  0.00000000000E+00  0.10900581198E+04  0.10900581198E+04  0.25500000920E-02 0. -1.
        2   -1    0    0  501    0  0.00000000000E+00  0.00000000000E+00 -0.20031886988E+04  0.20031886988E+04  0.25500000920E-02 0.  1.
    10030    2    1    2    0    0  0.00000000000E+00  0.00000000000E+00 -0.91313057900E+03  0.30932468185E+04  0.29553964922E+04 0.  0.
        1    1    3    3  502    0 -0.11463256923E+04 -0.21040251871E+03  0.49424592729E+03  0.12659426722E+04  0.50400001928E-02 0. -1.
       -1    1    3    3    0  502  0.11463256923E+04  0.21040251871E+03 -0.14073765063E+04  0.18273041463E+04  0.50400001928E-02 0.  1.
</event>
<event>
 5   0  0.8263673E-07  0.2991670E+04  0.7818609E-02  0.8246114E-01
        1   -1    0    0  501    0  0.00000000000E+00  0.00000000000E+00  0.20454850085E+04  0.20454850085E+04  0.50400001928E-02 0.  1.
       -1   -1    0    0    0  501  0.00000000000E+00  0.00000000000E+00 -0.10938832137E+04  0.10938832137E+04  0.50400001928E-02 0. -1.
    10030    2    1    2    0    0  0.00000000000E+00  0.00000000000E+00  0.95160179480E+03  0.31393682222E+04  0.29916695771E+04 0.  0.
        5    1    3    3  502    0  0.13523199060E+04 -0.63264257577E+03  0.37908867123E+03  0.15403688089E+04  0.46999998093E+01 0.  1.
       -5    1    3    3    0  502 -0.13523199060E+04  0.63264257577E+03  0.57251312356E+03  0.15989994132E+04  0.46999998093E+01 0. -1.
</event>
<event>
 5   0  0.2325590E-06  0.2902113E+04  0.7818609E-02  0.8272249E-01
        2   -1    0    0  501    0  0.00000000000E+00  0.00000000000E+00  0.15980200136E+04  0.15980200136E+04  0.25500000920E-02 0.  1.
       -2   -1    0    0    0  501  0.00000000000E+00  0.00000000000E+00 -0.13176087903E+04  0.13176087903E+04  0.25500000920E-02 0. -1.
    10030    2    1    2    0    0  0.00000000000E+00  0.00000000000E+00  0.28041122329E+03  0.29156288039E+04  0.29021131728E+04 0.  0.
        5    1    3    3  502    0 -0.77132599837E+03 -0.81374651040E+03 -0.78517905547E+03  0.13688153338E+04  0.46999998093E+01 0. -1.
       -5    1    3    3    0  502  0.77132599837E+03  0.81374651040E+03  0.10655902788E+04  0.15468134700E+04  0.46999998093E+01 0.  1.
</event>
<event>
 5   0  0.8947674E-07  0.2895025E+04  0.7818609E-02  0.8274359E-01
       -1   -1    0    0    0  501  0.00000000000E+00  0.00000000000E+00  0.12841041373E+04  0.12841041373E+04  0.50400001928E-02 0.  1.
        1   -1    0    0  501    0  0.00000000000E+00  0.00000000000E+00 -0.16317156350E+04  0.16317156350E+04  0.50400001928E-02 0. -1.
    10030    2    1    2    0    0  0.00000000000E+00  0.00000000000E+00 -0.34761149768E+03  0.29158197723E+04  0.28950252488E+04 0.  0.
        3    1    3    3  502    0 -0.65789385482E+02  0.79397638619E+03 -0.13910253029E+04  0.16030215684E+04  0.10100000352E+00 0. -1.
       -3    1    3    3    0  502  0.65789385482E+02 -0.79397638619E+03  0.10434138053E+04  0.13127982039E+04  0.10100000352E+00 0.  1.
</event>
<event>
 5   0  0.2425845E-06  0.2899673E+04  0.7818609E-02  0.8272975E-01
        2   -1    0    0  501    0  0.00000000000E+00  0.00000000000E+00  0.20065952814E+04  0.20065952814E+04  0.25500000920E-02 0. -1.
       -2   -1    0    0    0  501  0.00000000000E+00  0.00000000000E+00 -0.10475585215E+04  0.10475585215E+04  0.25500000920E-02 0.  1.
    10030    2    1    2    0    0  0.00000000000E+00  0.00000000000E+00  0.95903675990E+03  0.30541538029E+04  0.28996730756E+04 0.  0.
        2    1    3    3  502    0 -0.13468568113E+04  0.52894273649E+03  0.38401066273E+03  0.14970864630E+04  0.25500000920E-02 0.  1.
       -2    1    3    3    0  502  0.13468568113E+04 -0.52894273649E+03  0.57502609717E+03  0.15570673399E+04  0.25500000920E-02 0. -1.
</event>
<event>
 5   0  0.8355946E-07  0.2896415E+04  0.7818609E-02  0.8273945E-01
       -1   -1    0    0    0  501  0.00000000000E+00  0.00000000000E+00  0.13102060970E+04  0.13102060970E+04  0.50400001928E-02 0.  1.
        1   -1    0    0  501    0  0.00000000000E+00  0.00000000000E+00 -0.16007438031E+04  0.16007438032E+04  0.50400001928E-02 0. -1.
    10030    2    1    2    0    0  0.00000000000E+00  0.00000000000E+00 -0.29053770618E+03  0.29109499001E+04  0.28964145357E+04 0.  0.
        4    1    3    3  502    0 -0.77685394114E+03 -0.78655067158E+03 -0.10854519752E+04  0.15493132699E+04  0.12699999809E+01 0. -1.
       -4    1    3    3    0  502  0.77685394114E+03  0.78655067158E+03  0.79491426904E+03  0.13616366303E+04  0.12699999809E+01 0.  1.
</event>
<event>
 5   0  0.8263673E-07  0.2882949E+04  0.7818609E-02  0.8277969E-01
        1   -1    0    0  501    0  0.00000000000E+00  0.00000000000E+00  0.21443088104E+04  0.21443088104E+04  0.50400001928E-02 0. -1.
       -1   -1    0    0    0  501  0.00000000000E+00  0.00000000000E+00 -0.96900641692E+03  0.96900641693E+03  0.50400001928E-02 0.  1.
    10030    2    1    2    0    0  0.00000000000E+00  0.00000000000E+00  0.11753023935E+04  0.31133152273E+04  0.28829491825E+04 0.  0.
        5    1    3    3  502    0  0.44912276879E+03  0.10751060015E+04  0.15041493209E+04  0.19026432786E+04  0.46999998093E+01 0. -1.
       -5    1    3    3    0  502 -0.44912276879E+03 -0.10751060015E+04 -0.32884692742E+03  0.12106719488E+04  0.46999998093E+01 0.  1.
</event>
<event>
 5   0  0.8357118E-07  0.2874575E+04  0.7818609E-02  0.8280483E-01
        1   -1    0    0  501    0  0.00000000000E+00  0.00000000000E+00  0.20371811842E+04  0.20371811842E+04  0.50400001928E-02 0.  1.
       -1   -1    0    0    0  501  0.00000000000E+00  0.00000000000E+00 -0.10140457300E+04  0.10140457301E+04  0.50400001928E-02 0. -1.
    10030    2    1    2    0    0  0.00000000000E+00  0.00000000000E+00  0.10231354541E+04  0.30512269143E+04  0.28745746685E+04 0.  0.
        1    1    3    3  502    0 -0.47328948869E+03 -0.10798497743E+04  0.13841033043E+04  0.18181915279E+04  0.50400001928E-02 0.  1.
       -1    1    3    3    0  502  0.47328948869E+03  0.10798497743E+04 -0.36096785019E+03  0.12330353863E+04  0.50400001928E-02 0. -1.
</event>
<event>
 5   0  0.8483636E-07  0.2894886E+04  0.7818609E-02  0.8274401E-01
        1   -1    0    0  501    0  0.00000000000E+00  0.00000000000E+00  0.19745269938E+04  0.19745269938E+04  0.50400001928E-02 0.  1.
       -1   -1    0    0    0  501  0.00000000000E+00  0.00000000000E+00 -0.10610596828E+04  0.10610596828E+04  0.50400001928E-02 0. -1.
    10030    2    1    2    0    0  0.00000000000E+00  0.00000000000E+00  0.91346731099E+03  0.30355866766E+04  0.28948858255E+04 0.  0.
        2    1    3    3  502    0  0.12979560038E+04  0.59194205935E+03  0.71360035153E+03  0.15950895433E+04  0.25500000920E-02 0.  1.
       -2    1    3    3    0  502 -0.12979560038E+04 -0.59194205935E+03  0.19986695946E+03  0.14404971333E+04  0.25500000920E-02 0. -1.
</event>
<event>
 5   0  0.2378690E-06  0.2876748E+04  0.7818609E-02  0.8279829E-01
        2   -1    0    0  501    0  0.00000000000E+00  0.00000000000E+00  0.19467340390E+04  0.19467340390E+04  0.25500000920E-02 0. -1.
       -2   -1    0    0    0  501  0.00000000000E+00  0.00000000000E+00 -0.10627646580E+04  0.10627646581E+04  0.25500000920E-02 0.  1.
    10030    2    1    2    0    0  0.00000000000E+00  0.00000000000E+00  0.88396938093E+03  0.30094986970E+04  0.28767482582E+04 0.  0.
        3    1    3    3  502    0 -0.13440320312E+04  0.37704758855E+03  0.80488298399E+03  0.16113421775E+04  0.10100000352E+00 0. -1.
       -3    1    3    3    0  502  0.13440320312E+04 -0.37704758855E+03  0.79086396941E+02  0.13981565196E+04  0.10100000352E+00 0.  1.
</event>
<event>
 5   0  0.2304435E-06  0.2869161E+04  0.7818609E-02  0.8282113E-01
        2   -1    0    0  501    0  0.00000000000E+00  0.00000000000E+00  0.27549865012E+04  0.27549865012E+04  0.25500000920E-02 0. -1.
       -2   -1    0    0    0  501  0.00000000000E+00  0.00000000000E+00 -0.74701659501E+03  0.74701659502E+03  0.25500000920E-02 0.  1.
    10030    2    1    2    0    0  0.00000000000E+00  0.00000000000E+00  0.20079699062E+04  0.35020030962E+04  0.28691605988E+04 0.  0.
        1    1    3    3  502    0  0.91314378043E+03  0.11047745282E+04  0.10778500768E+04  0.17933541507E+04  0.50400001928E-02 0. -1.
       -1    1    3    3    0  502 -0.91314378043E+03 -0.11047745282E+04  0.93011982939E+03  0.17086489455E+04  0.50400001928E-02 0.  1.
</event>
<event>
 5   0  0.8483636E-07  0.2889403E+04  0.7818609E-02  0.8276037E-01
        1   -1    0    0  501    0  0.00000000000E+00  0.00000000000E+00  0.16328751647E+04  0.16328751647E+04  0.50400001928E-02 0. -1.
       -1   -1    0    0    0  501  0.00000000000E+00  0.00000000000E+00 -0.12782133990E+04  0.12782133990E+04  0.50400001928E-02 0.  1.
    10030    2    1    2    0    0  0.00000000000E+00  0.00000000000E+00  0.35466176568E+03  0.29110885637E+04  0.28894033394E+04 0.  0.
        2    1    3    3  502    0 -0.43756368993E+03 -0.12514695257E+04 -0.40102000208E+03  0.13850830295E+04  0.25500000920E-02 0.  1.
       -2    1    3    3    0  502  0.43756368993E+03  0.12514695257E+04  0.75568176776E+03  0.15260055343E+04  0.25500000920E-02 0. -1.
</event>
<event>
 5   0  0.8355946E-07  0.2927336E+04  0.7818609E-02  0.8264791E-01
        1   -1    0    0  501    0  0.00000000000E+00  0.00000000000E+00  0.17551182450E+04  0.17551182450E+04  0.50400001928E-02 0. -1.
       -1   -1    0    0    0  501  0.00000000000E+00  0.00000000000E+00 -0.12206147930E+04  0.12206147930E+04  0.50400001928E-02 0.  1.
    10030    2    1    2    0    0  0.00000000000E+00  0.00000000000E+00  0.53450345207E+03  0.29757330380E+04  0.29273355075E+04 0.  0.
        4    1    3    3  502    0 -0.30990053376E+03  0.78335335204E+02 -0.11847000344E+04  0.12270658295E+04  0.12699999809E+01 0.  1.
       -4    1    3    3    0  502  0.30990053376E+03 -0.78335335204E+02  0.17192034864E+04  0.17486672085E+04  0.12699999809E+01 0. -1.
</event>
<event>
 5   0  0.8947674E-07  0.2904787E+04  0.7818609E-02  0.8271455E-01
        1   -1    0    0  501    0  0.00000000000E+00  0.00000000000E+00  0.22033468952E+04  0.22033468953E+04  0.50400001928E-02 0.  1.
       -1   -1    0    0    0  501  0.00000000000E+00  0.00000000000E+00 -0.95738297354E+03  0.95738297355E+03  0.50400001928E-02 0. -1.
    10030    2    1    2    0    0  0.00000000000E+00  0.00000000000E+00  0.12459639217E+04  0.31607298688E+04  0.29047869473E+04 0.  0.
        3    1    3    3  502    0 -0.16661558455E+03 -0.89060722657E+03 -0.61215784326E+03  0.10934711795E+04  0.10100000352E+00 0. -1.
       -3    1    3    3    0  502  0.16661558455E+03  0.89060722657E+03  0.18581217650E+04  0.20672586893E+04  0.10100000352E+00 0.  1.
</event>
<event>
 5   0  0.8355946E-07  0.2905248E+04  0.7818609E-02  0.8271318E-01
       -1   -1    0    0    0  501  0.00000000000E+00  0.00000000000E+00  0.10772516881E+04  0.10772516881E+04  0.50400001928E-02 0.  1.
        1   -1    0    0  501    0  0.00000000000E+00  0.00000000000E+00 -0.19587957322E+04  0.19587957322E+04  0.50400001928E-02 0. -1.
    10030    2    1    2    0    0  0.00000000000E+00  0.00000000000E+00 -0.88154404417E+03  0.30360474203E+04  0.29052476721E+04 0.  0.
        4    1    3    3  502    0  0.24689752241E+03  0.14274121065E+04 -0.55356996311E+03  0.15507756206E+04  0.12699999809E+01 0.  1.
       -4    1    3    3    0  502 -0.24689752241E+03 -0.14274121065E+04 -0.32797408106E+03  0.14852717997E+04  0.12699999809E+01 0. -1.
</event>
<event>
 5   0  0.2425845E-06  0.2895256E+04  0.7818609E-02  0.8274290E-01
        2   -1    0    0  501    0  0.00000000000E+00  0.00000000000E+00  0.20806341775E+04  0.20806341775E+04  0.25500000920E-02 0. -1.
       -2   -1    0    0    0  501  0.00000000000E+00  0.00000000000E+00 -0.10072059577E+04  0.10072059577E+04  0.25500000920E-02 0.  1.
    10030    2    1    2    0    0  0.00000000000E+00  0.00000000000E+00  0.10734282199E+04  0.30878401352E+04  0.28952562162E+04 0.  0.
        2    1    3    3  502    0  0.69469633266E+03  0.63722343583E+03  0.17084132780E+04  0.19512387425E+04  0.25500000920E-02 0. -1.
       -2    1    3    3    0  502 -0.69469633266E+03 -0.63722343583E+03 -0.63498505818E+03  0.11366013927E+04  0.25500000920E-02 0.  1.
</event>
<event>
 5   0  0.2304435E-06  0.2899386E+04  0.7818609E-02  0.8273060E-01
        2   -1    0    0  501    0  0.00000000000E+00  0.00000000000E+00  0.11829960269E+04  0.11829960269E+04  0.25500000920E-02 0.  1.
       -2   -1    0    0    0  501  0.00000000000E+00  0.00000000000E+00 -0.17765150753E+04  0.17765150753E+04  0.25500000920E-02 0. -1.
    10030    2    1    2    0    0  0.00000000000E+00  0.00000000000E+00 -0.59351904840E+03  0.29595111022E+04  0.28993863322E+04 0.  0.
        1    1    3    3  502    0  0.65853348274E+03  0.96911355904E+03 -0.11681383355E+04  0.16545073615E+04  0.50400001928E-02 0. -1.
       -1    1    3    3    0  502 -0.65853348274E+03 -0.96911355904E+03  0.57461928713E+03  0.13050037407E+04  0.50400001928E-02 0.  1.
</event>
<event>
 5   0  0.8357118E-07  0.2897955E+04  0.7818609E-02  0.8273486E-01
       -1   -1    0    0    0  501  0.00000000000E+00  0.00000000000E+00  0.72919559838E+03  0.72919559840E+03  0.50400001928E-02 0. -1.
        1   -1    0    0  501    0  0.00000000000E+00  0.00000000000E+00 -0.28792491026E+04  0.28792491026E+04  0.50400001928E-02 0.  1.
    10030    2    1    2    0    0  0.00000000000E+00  0.00000000000E+00 -0.21500535042E+04  0.36084447010E+04  0.28979549840E+04 0.  0.
        1    1    3    3  502    0 -0.12593412061E+04 -0.11557814637E+03 -0.19435025235E+03  0.12794805985E+04  0.50400001928E-02 0. -1.
       -1    1    3    3    0  502  0.12593412061E+04  0.11557814637E+03 -0.19557032518E+04  0.23289641025E+04  0.50400001928E-02 0.  1.
</event>
<event>
 5   0  0.2425845E-06  0.2919135E+04  0.7818609E-02  0.8267207E-01
        2   -1    0    0  501    0  0.00000000000E+00  0.00000000000E+00  0.16631970410E+04  0.16631970410E+04  0.25500000920E-02 0.  1.
       -2   -1    0    0    0  501  0.00000000000E+00  0.00000000000E+00 -0.12808685241E+04  0.12808685241E+04  0.25500000920E-02 0. -1.
    10030    2    1    2    0    0  0.00000000000E+00  0.00000000000E+00  0.38232851693E+03  0.29440655650E+04  0.29191346246E+04 0.  0.
        2    1    3    3  502    0  0.62117849620E+03  0.12769857937E+04 -0.14903142157E+03  0.14278535661E+04  0.25500000920E-02 0. -1.
       -2    1    3    3    0  502 -0.62117849620E+03 -0.12769857937E+04  0.53135993851E+03  0.15162119990E+04  0.25500000920E-02 0.  1.
</event>
<event>
 5   0  0.8947674E-07  0.2891705E+04  0.7818609E-02  0.8275350E-01
       -1   -1    0    0    0  501  0.00000000000E+00  0.00000000000E+00  0.98982023940E+03  0.98982023942E+03  0.50400001928E-02 0. -1.
        1   -1    0    0  501    0  0.00000000000E+00  0.00000000000E+00 -0.21119891197E+04  0.21119891197E+04  0.50400001928E-02 0.  1.
    10030    2    1    2    0    0  0.00000000000E+00  0.00000000000E+00 -0.11221688803E+04  0.31018093591E+04  0.28917050860E+04 0.  0.
        3    1    3    3  502    0  0.10623569980E+04  0.64955132866E+03 -0.13493018407E+04  0.18360650280E+04  0.10100000352E+00 0.  1.
       -3    1    3    3    0  502 -0.10623569980E+04 -0.64955132866E+03  0.22713296037E+03  0.12657443311E+04  0.10100000352E+00 0. -1.
</event>
<event>
 5   0  0.2304435E-06  0.2894343E+04  0.7818609E-02  0.8274562E-01
       -2   -1    0    0    0  501  0.00000000000E+00  0.00000000000E+00  0.15565189508E+04  0.15565189508E+04  0.25500000920E-02 0.  1.
        2   -1    0    0  501    0  0.00000000000E+00  0.00000000000E+00 -0.13455062317E+04  0.13455062317E+04  0.25500000920E-02 0. -1.
    10030    2    1    2    0    0  0.00000000000E+00  0.00000000000E+00  0.21101271909E+03  0.29020251825E+04  0.28943434130E+04 0.  0.
        1    1    3    3  502    0  0.63756313153E+03 -0.12224490415E+04 -0.33547628846E+03  0.14189477601E+04  0.50400001928E-02 0.  1.
       -1    1    3    3    0  502 -0.63756313153E+03  0.12224490415E+04  0.54648900755E+03  0.14830774225E+04  0.50400001928E-02 0. -1.
</event>
<event>
 5   0  0.8947674E-07  0.2898806E+04  0.7818609E-02  0.8273233E-01
       -1   -1    0    0    0  501  0.00000000000E+00  0.00000000000E+00  0.12707095016E+04  0.12707095017E+04  0.50400001928E-02 0. -1.
        1   -1    0    0  501    0  0.00000000000E+00  0.00000000000E+00 -0.16532252731E+04  0.16532252731E+04  0.50400001928E-02 0.  1.
    10030    2    1    2    0    0  0.00000000000E+00  0.00000000000E+00 -0.38251577145E+03  0.29239347748E+04  0.28988060045E+04 0.  0.
        3    1    3    3  502    0 -0.97798955302E+03  0.42059928834E+03  0.80083413587E+03  0.13321796615E+04  0.10100000352E+00 0. -1.
       -3    1    3    3    0  502  0.97798955302E+03 -0.42059928834E+03 -0.11833499073E+04  0.15917551132E+04  0.10100000352E+00 0.  1.
</event>
<event>
 5   0  0.7621125E-07  0.2918239E+04  0.7818609E-02  0.8267471E-01
        4   -1    0    0  501    0  0.00000000000E+00  0.00000000000E+00  0.16243679956E+04  0.16243684921E+04  0.12699999809E+01 0. -1.
       -4   -1    0    0    0  501  0.00000000000E+00  0.00000000000E+00 -0.13106809951E+04  0.13106816104E+04  0.12699999809E+01 0.  1.
    10030    2    1    2    0    0  0.00000000000E+00  0.00000000000E+00  0.31368700054E+03  0.29350501024E+04  0.29182391214E+04 0.  0.
        4    1    3    3  502    0  0.53796953855E+03 -0.95926607447E+02  0.15175656172E+04  0.16129538598E+04  0.12699999809E+01 0. -1.
       -4    1    3    3    0  502 -0.53796953855E+03  0.95926607447E+02 -0.12038786166E+04  0.13220962427E+04  0.12699999809E+01 0.  1.
</event>
<event>
 5   0  0.2304435E-06  0.2908562E+04  0.7818609E-02  0.8270335E-01
        2   -1    0    0  501    0  0.00000000000E+00  0.00000000000E+00  0.11964516100E+04  0.11964516100E+04  0.25500000920E-02 0.  1.
       -2   -1    0    0    0  501  0.00000000000E+00  0.00000000000E+00 -0.17676710594E+04  0.17676710594E+04  0.25500000920E-02 0. -1.
    10030    2    1    2    0    0  0.00000000000E+00  0.00000000000E+00 -0.57121944935E+03  0.29641226694E+04  0.29085617648E+04 0.  0.
        1    1    3    3  502    0  0.15816234815E+03 -0.88724600406E+03  0.87755735760E+03  0.12579060839E+04  0.50400001928E-02 0.  1.
       -1    1    3    3    0  502 -0.15816234815E+03  0.88724600406E+03 -0.14487768069E+04  0.17062165855E+04  0.50400001928E-02 0. -1.
</event>
<event>
 5   0  0.8483636E-07  0.2886845E+04  0.7818609E-02  0.8276802E-01
       -1   -1    0    0    0  501  0.00000000000E+00  0.00000000000E+00  0.11052709684E+04  0.11052709684E+04  0.50400001928E-02 0.  1.
        1   -1    0    0  501    0  0.00000000000E+00  0.00000000000E+00 -0.18850291485E+04  0.18850291485E+04  0.50400001928E-02 0. -1.
    10030    2    1    2    0    0  0.00000000000E+00  0.00000000000E+00 -0.77975818011E+03  0.29903001169E+04  0.28868446390E+04 0.  0.
        2    1    3    3  502    0 -0.49514032111E+02 -0.14244051977E+04 -0.15347627486E+03  0.14335050657E+04  0.25500000920E-02 0.  1.
       -2    1    3    3    0  502  0.49514032111E+02  0.14244051977E+04 -0.62628190525E+03  0.15567950512E+04  0.25500000920E-02 0. -1.
</event>
<event>
 5   0  0.2425845E-06  0.2944271E+04  0.7818609E-02  0.8259826E-01
       -2   -1    0    0    0  501  0.00000000000E+00  0.00000000000E+00  0.90521607457E+03  0.90521607458E+03  0.25500000920E-02 0.  1.
        2   -1    0    0  501    0  0.00000000000E+00  0.00000000000E+00 -0.23941058593E+04  0.23941058593E+04  0.25500000920E-02 0. -1.
    10030    2    1    2    0    0  0.00000000000E+00  0.00000000000E+00 -0.14888897847E+04  0.32993219339E+04  0.29442711207E+04 0.  0.
        2    1    3    3  502    0 -0.19237207298E+03 -0.53301040491E+02 -0.23788693303E+04  0.23872300488E+04  0.25500000920E-02 0. -1.
       -2    1    3    3    0  502  0.19237207298E+03  0.53301040491E+02  0.88997954553E+03  0.91209188509E+03  0.25500000920E-02 0.  1.
</event>
<event>
 5   0  0.2304435E-06  0.2803779E+04  0.7818609E-02  0.8302096E-01
       -2   -1    0    0    0  501  0.00000000000E+00  0.00000000000E+00  0.11634072854E+04  0.11634072854E+04  0.25500000920E-02 0.  1.
        2   -1    0    0  501    0  0.00000000000E+00  0.00000000000E+00 -0.16892577246E+04  0.16892577246E+04  0.25500000920E-02 0. -1.
    10030    2    1    2    0    0  0.00000000000E+00  0.00000000000E+00 -0.52585043917E+03  0.28526650100E+04  0.28037794091E+04 0.  0.
        1    1    3    3  502    0  0.11247220816E+04  0.19587650391E+03 -0.10906998374E+04  0.15789216260E+04  0.50400001928E-02 0. -1.
       -1    1    3    3    0  502 -0.11247220816E+04 -0.19587650391E+03  0.56484939821E+03  0.12737433840E+04  0.50400001928E-02 0.  1.
</event>
<event>
 5   0  0.8483636E-07  0.2860946E+04  0.7818609E-02  0.8284593E-01
        1   -1    0    0  501    0  0.00000000000E+00  0.00000000000E+00  0.68216493055E+03  0.68216493057E+03  0.50400001928E-02 0. -1.
       -1   -1    0    0    0  501  0.00000000000E+00  0.00000000000E+00 -0.29996450508E+04  0.29996450508E+04  0.50400001928E-02 0.  1.
    10030    2    1    2    0    0  0.00000000000E+00  0.00000000000E+00 -0.23174801203E+04  0.36818099814E+04  0.28609457582E+04 0.  0.
        2    1    3    3  502    0 -0.55409993891E+03 -0.13174662110E+04 -0.12349698587E+04  0.18888871092E+04  0.25500000920E-02 0.  1.
       -2    1    3    3    0  502  0.55409993891E+03  0.13174662110E+04 -0.10825102616E+04  0.17929228722E+04  0.25500000920E-02 0. -1.
</event>
<event>
 5   0  0.8355946E-07  0.2911270E+04  0.7818609E-02  0.8269532E-01
        1   -1    0    0  501    0  0.00000000000E+00  0.00000000000E+00  0.19572581722E+04  0.19572581722E+04  0.50400001928E-02 0.  1.
       -1   -1    0    0    0  501  0.00000000000E+00  0.00000000000E+00 -0.10825721614E+04  0.10825721614E+04  0.50400001928E-02 0. -1.
    10030    2    1    2    0    0  0.00000000000E+00  0.00000000000E+00  0.87468601080E+03  0.30398303335E+04  0.29112699702E+04 0.  0.
        4    1    3    3  502    0 -0.55205676451E+03 -0.27161664564E+03 -0.94012836972E+03  0.11235591831E+04  0.12699999809E+01 0. -1.
       -4    1    3    3    0  502  0.55205676451E+03  0.27161664564E+03  0.18148143805E+04  0.19162711505E+04  0.12699999809E+01 0.  1.
</event>
<event>
 5   0  0.2325590E-06  0.2904088E+04  0.7818609E-02  0.8271662E-01
        2   -1    0    0  501    0  0.00000000000E+00  0.00000000000E+00  0.15211265236E+04  0.15211265236E+04  0.25500000920E-02 0. -1.
       -2   -1    0    0    0  501  0.00000000000E+00  0.00000000000E+00 -0.13860986694E+04  0.13860986694E+04  0.25500000920E-02 0.  1.
    10030    2    1    2    0    0  0.00000000000E+00  0.00000000000E+00  0.13502785416E+03  0.29072251930E+04  0.29040877744E+04 0.  0.
        5    1    3    3  502    0 -0.22362739168E+03  0.12310712124E+04 -0.67007499275E+03  0.14193548275E+04  0.46999998093E+01 0.  1.
       -5    1    3    3    0  502  0.22362739168E+03 -0.12310712124E+04  0.80510284691E+03  0.14878703655E+04  0.46999998093E+01 0. -1.
</event>
<event>
 5   0  0.8263673E-07  0.2911748E+04  0.7818609E-02  0.8269391E-01
       -1   -1    0    0    0  501  0.00000000000E+00  0.00000000000E+00  0.80926474200E+03  0.80926474202E+03  0.50400001928E-02 0. -1.
        1   -1    0    0  501    0  0.00000000000E+00  0.00000000000E+00 -0.26191302278E+04  0.26191302278E+04  0.50400001928E-02 0.  1.
    10030    2    1    2    0    0  0.00000000000E+00  0.00000000000E+00 -0.18098654858E+04  0.34283949699E+04  0.29117484425E+04 0.  0.
        5    1    3    3  502    0 -0.72600444173E+03  0.12168330001E+04 -0.51127009035E+03  0.15063811586E+04  0.46999998093E+01 0. -1.
       -5    1    3    3    0  502  0.72600444173E+03 -0.12168330001E+04 -0.12985953955E+04  0.19220138113E+04  0.46999998093E+01 0.  1.
</event>
<event>
 5   0  0.8947674E-07  0.2896977E+04  0.7818609E-02  0.8273777E-01
        1   -1    0    0  501    0  0.00000000000E+00  0.00000000000E+00  0.21450973723E+04  0.21450973723E+04  0.50400001928E-02 0.  1.
       -1   -1    0    0    0  501  0.00000000000E+00  0.00000000000E+00 -0.97809955438E+03  0.97809955439E+03  0.50400001928E-02 0. -1.
    10030    2    1    2    0    0  0.00000000000E+00  0.00000000000E+00  0.11669978180E+04  0.31231969267E+04  0.28969768960E+04 0.  0.
        3    1    3    3  502    0  0.10153171181E+04 -0.63012586634E+03  0.14660782046E+04  0.18913785369E+04  0.10100000352E+00 0.  1.
       -3    1    3    3    0  502 -0.10153171181E+04  0.63012586634E+03 -0.29908038663E+03  0.12318183898E+04  0.10100000352E+00 0. -1.
</event>
<event>
 5   0  0.2378690E-06  0.2878978E+04  0.7818609E-02  0.8279160E-01
       -2   -1    0    0    0  501  0.00000000000E+00  0.00000000000E+00  0.11680749691E+04  0.11680749691E+04  0.25500000920E-02 0.  1.
        2   -1    0    0  501    0  0.00000000000E+00  0.00000000000E+00 -0.17739683602E+04  0.17739683602E+04  0.25500000920E-02 0. -1.
    10030    2    1    2    0    0  0.00000000000E+00  0.00000000000E+00 -0.60589339105E+03  0.29420433293E+04  0.28789776224E+04 0.  0.
        3    1    3    3  502    0  0.59940785646E+03  0.12410985795E+03 -0.16343430110E+04  0.17452134892E+04  0.10100000352E+00 0. -1.
       -3    1    3    3    0  502 -0.59940785646E+03 -0.12410985795E+03  0.10284496199E+04  0.11968298401E+04  0.10100000352E+00 0.  1.
</event>
<event>
 5   0  0.2325590E-06  0.2893217E+04  0.7818609E-02  0.8274899E-01
       -2   -1    0    0    0  501  0.00000000000E+00  0.00000000000E+00  0.12417566238E+04  0.12417566238E+04  0.25500000920E-02 0. -1.
        2   -1    0    0  501    0  0.00000000000E+00  0.00000000000E+00 -0.16852542298E+04  0.16852542298E+04  0.25500000920E-02 0.  1.
    10030    2    1    2    0    0  0.00000000000E+00  0.00000000000E+00 -0.44349760606E+03  0.29270108536E+04  0.28932166201E+04 0.  0.
        5    1    3    3  502    0  0.32739987166E+03 -0.13528338460E+04  0.17693986706E+03  0.14030965388E+04  0.46999998093E+01 0. -1.
       -5    1    3    3    0  502 -0.32739987166E+03  0.13528338460E+04 -0.62043747312E+03  0.15239143148E+04  0.46999998093E+01 0.  1.
</event>
<event>
 5   0  0.8263673E-07  0.2903477E+04  0.7818609E-02  0.8271844E-01
       -1   -1    0    0    0  501  0.00000000000E+00  0.00000000000E+00  0.13520334010E+04  0.13520334010E+04  0.50400001928E-02 0.  1.
        1   -1    0    0  501    0  0.00000000000E+00  0.00000000000E+00 -0.15587962041E+04  0.15587962041E+04  0.50400001928E-02 0. -1.
    10030    2    1    2    0    0  0.00000000000E+00  0.00000000000E+00 -0.20676280315E+03  0.29108296051E+04  0.29034769042E+04 0.  0.
        5    1    3    3  502    0  0.11668795798E+04  0.84463701775E+03 -0.28412327564E+03  0.14682533062E+04  0.46999998093E+01 0.  1.
       -5    1    3    3    0  502 -0.11668795798E+04 -0.84463701775E+03  0.77360472488E+02  0.14425762989E+04  0.46999998093E+01 0. -1.
</event>
<event>
 5   0  0.8483636E-07  0.2871685E+04  0.7818609E-02  0.8281352E-01
       -1   -1    0    0    0  501  0.00000000000E+00  0.00000000000E+00  0.32394924763E+04  0.32394924763E+04  0.50400001928E-02 0. -1.
        1   -1    0    0  501    0  0.00000000000E+00  0.00000000000E+00 -0.63640931005E+03  0.63640931007E+03  0.50400001928E-02 0.  1.
    10030    2    1    2    0    0  0.00000000000E+00  0.00000000000E+00  0.26030831663E+04  0.38759017864E+04  0.28716846427E+04 0.  0.
        2    1    3    3  502    0  0.42692539893E+03  0.32449741582E+03 -0.49618041448E+03  0.73058803224E+03  0.25500000920E-02 0.  1.
       -2    1    3    3    0  502 -0.42692539893E+03 -0.32449741582E+03  0.30992635808E+04  0.31453137542E+04  0.25500000920E-02 0. -1.
</event>
<event>
 5   0  0.2304435E-06  0.2924931E+04  0.7818609E-02  0.8265498E-01
        2   -1    0    0  501    0  0.00000000000E+00  0.00000000000E+00  0.20443100104E+04  0.20443100104E+04  0.25500000920E-02 0.  1.
       -2   -1    0    0    0  501  0.00000000000E+00  0.00000000000E+00 -0.10462234205E+04  0.10462234205E+04  0.25500000920E-02 0. -1.
    10030    2    1    2    0    0  0.00000000000E+00  0.00000000000E+00  0.99808658986E+03  0.30905334309E+04  0.29249307764E+04 0.  0.
        1    1    3    3  502    0  0.34183955620E+03 -0.12434082311E+04 -0.22985953680E+03  0.13098678247E+04  0.50400001928E-02 0. -1.
       -1    1    3    3    0  502 -0.34183955620E+03  0.12434082311E+04  0.12279461267E+04  0.17806656063E+04  0.50400001928E-02 0.  1.
</event>
<event>
 5   0  0.7621125E-07  0.2892262E+04  0.7818609E-02  0.8275184E-01
       -4   -1    0    0    0  501  0.00000000000E+00  0.00000000000E+00  0.11530437812E+04  0.11530444806E+04  0.12699999809E+01 0.  1.
        4   -1    0    0  501    0  0.00000000000E+00  0.00000000000E+00 -0.18137148872E+04  0.18137153318E+04  0.12699999809E+01 0. -1.
    10030    2    1    2    0    0  0.00000000000E+00  0.00000000000E+00 -0.66067110600E+03  0.29667598124E+04  0.28922616538E+04 0.  0.
        1    1    3    3  502    0  0.60602769735E+03  0.27593517913E+03  0.98642922803E+03  0.11901480643E+04  0.50400001928E-02 0.  1.
       -1    1    3    3    0  502 -0.60602769735E+03 -0.27593517913E+03 -0.16471003340E+04  0.17766117481E+04  0.50400001928E-02 0. -1.
</event>
<event>
 5   0  0.8357118E-07  0.2896846E+04  0.7818609E-02  0.8273817E-01
       -1   -1    0    0    0  501  0.00000000000E+00  0.00000000000E+00  0.11398459422E+04  0.11398459423E+04  0.50400001928E-02 0.  1.
        1   -1    0    0  501    0  0.00000000000E+00  0.00000000000E+00 -0.18405372843E+04  0.18405372843E+04  0.50400001928E-02 0. -1.
    10030    2    1    2    0    0  0.00000000000E+00  0.00000000000E+00 -0.70069134206E+03  0.29803832266E+04  0.28968458399E+04 0.  0.
        1    1    3    3  502    0 -0.70668129041E+03 -0.10333710465E+04  0.39913589289E+03  0.13139876815E+04  0.50400001928E-02 0.  1.
       -1    1    3    3    0  502  0.70668129041E+03  0.10333710465E+04 -0.10998272350E+04  0.16663955451E+04  0.50400001928E-02 0. -1.
</event>
<event>
 5   0  0.2425845E-06  0.2903412E+04  0.7818609E-02  0.8271863E-01
       -2   -1    0    0    0  501  0.00000000000E+00  0.00000000000E+00  0.15896336072E+04  0.15896336072E+04  0.25500000920E-02 0.  1.
        2   -1    0    0  501    0  0.00000000000E+00  0.00000000000E+00 -0.13257457802E+04  0.13257457802E+04  0.25500000920E-02 0. -1.
    10030    2    1    2    0    0  0.00000000000E+00  0.00000000000E+00  0.26388782697E+03  0.29153793874E+04  0.29034118184E+04 0.  0.
        2    1    3    3  502    0 -0.45744469227E+03  0.13763866265E+04  0.70419383234E+02  0.14521207531E+04  0.25500000920E-02 0.  1.
       -2    1    3    3    0  502  0.45744469227E+03 -0.13763866265E+04  0.19346844373E+03  0.14632586343E+04  0.25500000920E-02 0. -1.
</event>
<event>
 5   0  0.8483636E-07  0.2899477E+04  0.7818609E-02  0.8273033E-01
       -1   -1    0    0    0  501  0.00000000000E+00  0.00000000000E+00  0.16317284609E+04  0.16317284609E+04  0.50400001928E-02 0.  1.
        1   -1    0    0  501    0  0.00000000000E+00  0.00000000000E+00 -0.12880465569E+04  0.12880465569E+04  0.50400001928E-02 0. -1.
    10030    2    1    2    0    0  0.00000000000E+00  0.00000000000E+00  0.34368190393E+03  0.29197750178E+04  0.28994773501E+04 0.  0.
        2    1    3    3  502    0 -0.14139038803E+04  0.66100963667E+02  0.48748171666E+03  0.14970410630E+04  0.25500000920E-02 0.  1.
       -2    1    3    3    0  502  0.14139038803E+04 -0.66100963667E+02 -0.14379981273E+03  0.14227339548E+04  0.25500000920E-02 0. -1.
</event>
<event>
 5   0  0.2304435E-06  0.2885721E+04  0.7818609E-02  0.8277139E-01
       -2   -1    0    0    0  501  0.00000000000E+00  0.00000000000E+00  0.13894372135E+04  0.13894372135E+04  0.25500000920E-02 0.  1.
        2   -1    0    0  501    0  0.00000000000E+00  0.00000000000E+00 -0.14983378502E+04  0.14983378502E+04  0.25500000920E-02 0. -1.
    10030    2    1    2    0    0  0.00000000000E+00  0.00000000000E+00 -0.10890063669E+03  0.28877750638E+04  0.28857209620E+04 0.  0.
        1    1    3    3  502    0 -0.47579315867E+03 -0.98474704611E+03  0.88735746982E+03  0.14083710995E+04  0.50400001928E-02 0.  1.
       -1    1    3    3    0  502  0.47579315867E+03  0.98474704611E+03 -0.99625810651E+03  0.14794039643E+04  0.50400001928E-02 0. -1.
</event>
<event>
 5   0  0.8947674E-07  0.2884397E+04  0.7818609E-02  0.8277535E-01
       -1   -1    0    0    0  501  0.00000000000E+00  0.00000000000E+00  0.12120198780E+04  0.12120198780E+04  0.50400001928E-02 0.  1.
        1   -1    0    0  501    0  0.00000000000E+00  0.00000000000E+00 -0.17160908340E+04  0.17160908340E+04  0.50400001928E-02 0. -1.
    10030    2    1    2    0    0  0.00000000000E+00  0.00000000000E+00 -0.50407095601E+03  0.29281107120E+04  0.28843967850E+04 0.  0.
        3    1    3    3  502    0  0.42792710976E+03 -0.10956668906E+04  0.59507415750E+03  0.13182263879E+04  0.10100000352E+00 0.  1.
       -3    1    3    3    0  502 -0.42792710976E+03  0.10956668906E+04 -0.10991451135E+04  0.16098843242E+04  0.10100000352E+00 0. -1.
</event>
<event>
 5   0  0.8947674E-07  0.2902581E+04  0.7818609E-02  0.8272110E-01
        1   -1    0    0  501    0  0.00000000000E+00  0.00000000000E+00  0.17931034532E+04  0.17931034532E+04  0.50400001928E-02 0.  1.
       -1   -1    0    0    0  501  0.00000000000E+00  0.00000000000E+00 -0.11746364845E+04  0.11746364845E+04  0.50400001928E-02 0. -1.
    10030    2    1    2    0    0  0.00000000000E+00  0.00000000000E+00  0.61846696877E+03  0.29677399377E+04  0.29025814281E+04 0.  0.
        3    1    3    3  502    0  0.11685122044E+04 -0.85324495554E+03  0.19357019973E+03  0.14597661314E+04  0.10100000352E+00 0.  1.
       -3    1    3    3    0  502 -0.11685122044E+04  0.85324495554E+03  0.42489676904E+03  0.15079738063E+04  0.10100000352E+00 0. -1.
</event>
<event>
 5   0  0.2360103E-06  0.2881687E+04  0.7818609E-02  0.8278347E-01
       -2   -1    0    0    0  501  0.00000000000E+00  0.00000000000E+00  0.17966262789E+04  0.17966262790E+04  0.25500000920E-02 0. -1.
        2   -1    0    0  501    0  0.00000000000E+00  0.00000000000E+00 -0.11555157891E+04  0.11555157891E+04  0.25500000920E-02 0.  1.
    10030    2    1    2    0    0  0.00000000000E+00  0.00000000000E+00  0.64111048982E+03  0.29521420681E+04  0.28816870285E+04 0.  0.
        4    1    3    3  502    0  0.10585677140E+04 -0.93988692576E+03  0.45522808422E+02  0.14163428177E+04  0.12699999809E+01 0. -1.
       -4    1    3    3    0  502 -0.10585677140E+04  0.93988692576E+03  0.59558768140E+03  0.15357992504E+04  0.12699999809E+01 0.  1.
</event>
<event>
 5   0  0.2304435E-06  0.2893521E+04  0.7818609E-02  0.8274808E-01
        2   -1    0    0  501    0  0.00000000000E+00  0.00000000000E+00  0.13487696318E+04  0.13487696318E+04  0.25500000920E-02 0.  1.
       -2   -1    0    0    0  501  0.00000000000E+00  0.00000000000E+00 -0.15518701648E+04  0.15518701648E+04  0.25500000920E-02 0. -1.
    10030    2    1    2    0    0  0.00000000000E+00  0.00000000000E+00 -0.20310053298E+03  0.29006397966E+04  0.28935205897E+04 0.  0.
        1    1    3    3  502    0 -0.28855233170E+03  0.11361245791E+04 -0.95161885740E+03  0.15098410371E+04  0.50400001928E-02 0. -1.
       -1    1    3    3    0  502  0.28855233170E+03 -0.11361245791E+04  0.74851832442E+03  0.13907987595E+04  0.50400001928E-02 0.  1.
</event>
<event>
 5   0  0.8483636E-07  0.2715337E+04  0.7818609E-02  0.8330046E-01
       -1   -1    0    0    0  501  0.00000000000E+00  0.00000000000E+00  0.12048803296E+04  0.12048803296E+04  0.50400001928E-02 0.  1.
        1   -1    0    0  501    0  0.00000000000E+00  0.00000000000E+00 -0.15298317247E+04  0.15298317247E+04  0.50400001928E-02 0. -1.
    10030    2    1    2    0    0  0.00000000000E+00  0.00000000000E+00 -0.32495139510E+03  0.27347120543E+04  0.27153372922E+04 0.  0.
        2    1    3    3  502    0 -0.11140271099E+04  0.22537867003E+03  0.58539412359E+03  0.12784906048E+04  0.25500000920E-02 0.  1.
       -2    1    3    3    0  502  0.11140271099E+04 -0.22537867003E+03 -0.91034551868E+03  0.14562214495E+04  0.25500000920E-02 0. -1.
</event>
<event>
 5   0  0.8355946E-07  0.2898099E+04  0.7818609E-02  0.8273443E-01
        1   -1    0    0  501    0  0.00000000000E+00  0.00000000000E+00  0.15691925710E+04  0.15691925710E+04  0.50400001928E-02 0. -1.
       -1   -1    0    0    0  501  0.00000000000E+00  0.00000000000E+00 -0.13381045839E+04  0.13381045839E+04  0.50400001928E-02 0.  1.
    10030    2    1    2    0    0  0.00000000000E+00  0.00000000000E+00  0.23108798718E+03  0.29072971549E+04  0.28980985299E+04 0.  0.
        4    1    3    3  502    0  0.14148670511E+04  0.21259760093E+03  0.34582793209E+03  0.14719528130E+04  0.12699999809E+01 0. -1.
       -4    1    3    3    0  502 -0.14148670511E+04 -0.21259760093E+03 -0.11473994491E+03  0.14353443419E+04  0.12699999809E+01 0.  1.
</event>
<event>
 5   0  0.8263673E-07  0.2899000E+04  0.7818609E-02  0.8273175E-01
        1   -1    0    0  501    0  0.00000000000E+00  0.00000000000E+00  0.90148652481E+03  0.90148652483E+03  0.50400001928E-02 0. -1.
       -1   -1    0    0    0  501  0.00000000000E+00  0.00000000000E+00 -0.23306513041E+04  0.23306513041E+04  0.50400001928E-02 0.  1.
    10030    2    1    2    0    0  0.00000000000E+00  0.00000000000E+00 -0.14291647793E+04  0.32321378290E+04  0.28990003413E+04 0.  0.
        5    1    3    3  502    0 -0.14398792558E+04 -0.12423335100E+03 -0.83844562943E+03  0.16708379216E+04  0.46999998093E+01 0.  1.
       -5    1    3    3    0  502  0.14398792558E+04  0.12423335100E+03 -0.59071914989E+03  0.15612999074E+04  0.46999998093E+01 0. -1.
</event>
<event>
 5   0  0.2425845E-06  0.2908836E+04  0.7818609E-02  0.8270253E-01
       -2   -1    0    0    0  501  0.00000000000E+00  0.00000000000E+00  0.11773504603E+04  0.11773504603E+04  0.25500000920E-02 0. -1.
        2   -1    0    0  501    0  0.00000000000E+00  0.00000000000E+00 -0.17966877229E+04  0.17966877229E+04  0.25500000920E-02 0.  1.
    10030    2    1    2    0    0  0.00000000000E+00  0.00000000000E+00 -0.61933726258E+03  0.29740381832E+04  0.29088355867E+04 0.  0.
        2    1    3    3  502    0  0.83273528128E+02 -0.14516587439E+04 -0.27601379364E+03  0.14800105417E+04  0.25500000920E-02 0. -1.
       -2    1    3    3    0  502 -0.83273528128E+02  0.14516587439E+04 -0.34332346894E+03  0.14940276415E+04  0.25500000920E-02 0.  1.
</event>
<event>
 5   0  0.8355946E-07  0.2894194E+04  0.7818609E-02  0.8274607E-01
        1   -1    0    0  501    0  0.00000000000E+00  0.00000000000E+00  0.14286830850E+04  0.14286830850E+04  0.50400001928E-02 0. -1.
       -1   -1    0    0    0  501  0.00000000000E+00  0.00000000000E+00 -0.14657487168E+04  0.14657487168E+04  0.50400001928E-02 0.  1.
    10030    2    1    2    0    0  0.00000000000E+00  0.00000000000E+00 -0.37065631748E+02  0.28944318018E+04  0.28941944638E+04 0.  0.
        4    1    3    3  502    0 -0.44241085189E+03  0.62733992471E+03  0.12082731409E+04  0.14315056196E+04  0.12699999809E+01 0. -1.
       -4    1    3    3    0  502  0.44241085189E+03 -0.62733992471E+03 -0.12453387726E+04  0.14629261822E+04  0.12699999809E+01 0.  1.
</event>
<event>
 5   0  0.2325590E-06  0.2882737E+04  0.7818609E-02  0.8278032E-01
       -2   -1    0    0    0  501  0.00000000000E+00  0.00000000000E+00  0.17048996346E+04  0.17048996346E+04  0.25500000920E-02 0.  1.
        2   -1    0    0  501    0  0.00000000000E+00  0.00000000000E+00 -0.12185722217E+04  0.12185722217E+04  0.25500000920E-02 0. -1.
    10030    2    1    2    0    0  0.00000000000E+00  0.00000000000E+00  0.48632741294E+03  0.29234718563E+04  0.28827371267E+04 0.  0.
        5    1    3    3  502    0  0.40475254767E+03  0.19829168362E+03 -0.11452610618E+04  0.12307677304E+04  0.46999998093E+01 0. -1.
       -5    1    3    3    0  502 -0.40475254767E+03 -0.19829168362E+03  0.16315884747E+04  0.16927041258E+04  0.46999998093E+01 0.  1.
</event>
<event>
 5   0  0.8263673E-07  0.2912949E+04  0.7818609E-02  0.8269035E-01
       -1   -1    0    0    0  501  0.00000000000E+00  0.00000000000E+00  0.15572437804E+04  0.15572437804E+04  0.50400001928E-02 0. -1.
        1   -1    0    0  501    0  0.00000000000E+00  0.00000000000E+00 -0.13622256718E+04  0.13622256718E+04  0.50400001928E-02 0.  1.
    10030    2    1    2    0    0  0.00000000000E+00  0.00000000000E+00  0.19501810864E+03  0.29194694523E+04  0.29129486470E+04 0.  0.
        5    1    3    3  502    0 -0.57151804059E+03 -0.12478054339E+04  0.58608785509E+03  0.14923713799E+04  0.46999998093E+01 0. -1.
       -5    1    3    3    0  502  0.57151804059E+03  0.12478054339E+04 -0.39106974645E+03  0.14270980724E+04  0.46999998093E+01 0.  1.
</event>
<event>
 5   0  0.8357118E-07  0.2899684E+04  0.7818609E-02  0.8272971E-01
        1   -1    0    0  501    0  0.00000000000E+00  0.00000000000E+00  0.22891443691E+04  0.22891443691E+04  0.50400001928E-02 0.  1.
       -1   -1    0    0    0  501  0.00000000000E+00  0.00000000000E+00 -0.91826548722E+03  0.91826548723E+03  0.50400001928E-02 0. -1.
    10030    2    1    2    0    0  0.00000000000E+00  0.00000000000E+00  0.13708788819E+04  0.32074098564E+04  0.28996843066E+04 0.  0.
        1    1    3    3  502    0 -0.72223660092E+03 -0.11087189177E+04  0.13409136311E+04  0.18838611181E+04  0.50400001928E-02 0.  1.
       -1    1    3    3    0  502  0.72223660092E+03  0.11087189177E+04  0.29965250780E+02  0.13235487382E+04  0.50400001928E-02 0. -1.
</event>
<event>
 5   0  0.2425845E-06  0.2923410E+04  0.7818609E-02  0.8265946E-01
        2   -1    0    0  501    0  0.00000000000E+00  0.00000000000E+00  0.14136862125E+04  0.14136862125E+04  0.25500000920E-02 0. -1.
       -2   -1    0    0    0  501  0.00000000000E+00  0.00000000000E+00 -0.15113545250E+04  0.15113545250E+04  0.25500000920E-02 0.  1.
    10030    2    1    2    0    0  0.00000000000E+00  0.00000000000E+00 -0.97668312509E+02  0.29250407375E+04  0.29234096902E+04 0.  0.
        2    1    3    3  502    0  0.84375461190E+03 -0.46562197337E+03 -0.11484720747E+04  0.14992377309E+04  0.25500000920E-02 0.  1.
       -2    1    3    3    0  502 -0.84375461190E+03  0.46562197337E+03  0.10508037622E+04  0.14258030067E+04  0.25500000920E-02 0. -1.
</event>
<event>
 5   0  0.8263673E-07  0.2887242E+04  0.7818609E-02  0.8276683E-01
       -1   -1    0    0    0  501  0.00000000000E+00  0.00000000000E+00  0.16896137624E+04  0.16896137624E+04  0.50400001928E-02 0.  1.
        1   -1    0    0  501    0  0.00000000000E+00  0.00000000000E+00 -0.12334427779E+04  0.12334427779E+04  0.50400001928E-02 0. -1.
    10030    2    1    2    0    0  0.00000000000E+00  0.00000000000E+00  0.45617098450E+03  0.29230565404E+04  0.28872422086E+04 0.  0.
        5    1    3    3  502    0 -0.12444982168E+04  0.68417199596E+03  0.49043825609E+03  0.15024709331E+04  0.46999998093E+01 0.  1.
       -5    1    3    3    0  502  0.12444982168E+04 -0.68417199596E+03 -0.34267271595E+02  0.14205856073E+04  0.46999998093E+01 0. -1.
</event>
<event>
 5   0  0.2304435E-06  0.2896116E+04  0.7818609E-02  0.8274034E-01
       -2   -1    0    0    0  501  0.00000000000E+00  0.00000000000E+00  0.12647603419E+04  0.12647603419E+04  0.25500000920E-02 0.  1.
        2   -1    0    0  501    0  0.00000000000E+00  0.00000000000E+00 -0.16579204188E+04  0.16579204188E+04  0.25500000920E-02 0. -1.
    10030    2    1    2    0    0  0.00000000000E+00  0.00000000000E+00 -0.39316007691E+03  0.29226807608E+04  0.28961160169E+04 0.  0.
        1    1    3    3  502    0  0.30477748667E+03  0.13500918159E+04  0.23304163597E+03  0.14035475168E+04  0.50400001928E-02 0.  1.
       -1    1    3    3    0  502 -0.30477748667E+03 -0.13500918159E+04 -0.62620171288E+03  0.15191332440E+04  0.50400001928E-02 0. -1.
</event>
<event>
 5   0  0.8357118E-07  0.2802667E+04  0.7818609E-02  0.8302441E-01
       -1   -1    0    0    0  501  0.00000000000E+00  0.00000000000E+00  0.19400772690E+04  0.19400772690E+04  0.50400001928E-02 0. -1.
        1   -1    0    0  501    0  0.00000000000E+00  0.00000000000E+00 -0.10121942658E+04  0.10121942659E+04  0.50400001928E-02 0.  1.
    10030    2    1    2    0    0  0.00000000000E+00  0.00000000000E+00  0.92788300319E+03  0.29522715349E+04  0.28026666495E+04 0.  0.
        1    1    3    3  502    0  0.31994579310E+03 -0.61051714687E+03  0.17491674641E+04  0.18800753481E+04  0.50400001928E-02 0. -1.
       -1    1    3    3    0  502 -0.31994579310E+03  0.61051714687E+03 -0.82128446092E+03  0.10721961868E+04  0.50400001928E-02 0.  1.
</event>
<event>
 5   0  0.8483636E-07  0.2910496E+04  0.7818609E-02  0.8269762E-01
       -1   -1    0    0    0  501  0.00000000000E+00  0.00000000000E+00  0.83825450812E+03  0.83825450813E+03  0.50400001928E-02 0. -1.
        1   -1    0    0  501    0  0.00000000000E+00  0.00000000000E+00 -0.25263761130E+04  0.25263761130E+04  0.50400001928E-02 0.  1.
    10030    2    1    2    0    0  0.00000000000E+00  0.00000000000E+00 -0.16881216049E+04  0.33646306211E+04  0.29104956045E+04 0.  0.
        2    1    3    3  502    0 -0.20845601171E+03 -0.37433835815E+02 -0.25084645104E+04  0.25173894019E+04  0.25500000920E-02 0.  1.
       -2    1    3    3    0  502  0.20845601171E+03  0.37433835815E+02  0.82034290553E+03  0.84724121922E+03  0.25500000920E-02 0. -1.
</event>
<event>
 5   0  0.2360103E-06  0.2915056E+04  0.7818609E-02  0.8268412E-01
       -2   -1    0    0    0  501  0.00000000000E+00  0.00000000000E+00  0.12696874233E+04  0.12696874233E+04  0.25500000920E-02 0. -1.
        2   -1    0    0  501    0  0.00000000000E+00  0.00000000000E+00 -0.16731577974E+04  0.16731577974E+04  0.25500000920E-02 0.  1.
    10030    2    1    2    0    0  0.00000000000E+00  0.00000000000E+00 -0.40347037410E+03  0.29428452206E+04  0.29150556855E+04 0.  0.
        4    1    3    3  502    0  0.57978130838E+03  0.12602515085E+04 -0.65321840311E+03  0.15333219249E+04  0.12699999809E+01 0.  1.
       -4    1    3    3    0  502 -0.57978130838E+03 -0.12602515085E+04  0.24974802901E+03  0.14095232957E+04  0.12699999809E+01 0. -1.
</event>
<event>
 5   0  0.2425845E-06  0.2898541E+04  0.7818609E-02  0.8273312E-01
       -2   -1    0    0    0  501  0.00000000000E+00  0.00000000000E+00  0.82503532686E+03  0.82503532687E+03  0.25500000920E-02 0.  1.
        2   -1    0    0  501    0  0.00000000000E+00  0.00000000000E+00 -0.25458119562E+04  0.25458119562E+04  0.25500000920E-02 0. -1.
    10030    2    1    2    0    0  0.00000000000E+00  0.00000000000E+00 -0.17207766293E+04  0.33708472830E+04  0.28985408739E+04 0.  0.
        2    1    3    3  502    0 -0.29024562421E+02  0.22506712924E+02 -0.25452706355E+04  0.25455356185E+04  0.25500000920E-02 0. -1.
       -2    1    3    3    0  502  0.29024562421E+02 -0.22506712924E+02  0.82449400617E+03  0.82531166451E+03  0.25500000920E-02 0.  1.
</event>
<event>
 5   0  0.2360103E-06  0.2870371E+04  0.7818609E-02  0.8281748E-01
       -2   -1    0    0    0  501  0.00000000000E+00  0.00000000000E+00  0.10487486244E+04  0.10487486244E+04  0.25500000920E-02 0. -1.
        2   -1    0    0  501    0  0.00000000000E+00  0.00000000000E+00 -0.19640141922E+04  0.19640141922E+04  0.25500000920E-02 0.  1.
    10030    2    1    2    0    0  0.00000000000E+00  0.00000000000E+00 -0.91526556781E+03  0.30127628166E+04  0.28703708348E+04 0.  0.
        4    1    3    3  502    0 -0.43816364804E+03  0.12041632251E+04 -0.11360391284E+04  0.17124786041E+04  0.12699999809E+01 0.  1.
       -4    1    3    3    0  502  0.43816364804E+03 -0.12041632251E+04  0.22077356062E+03  0.13002842125E+04  0.12699999809E+01 0. -1.
</event>
<event>
 5   0  0.8483636E-07  0.2895555E+04  0.7818609E-02  0.8274201E-01
       -1   -1    0    0    0  501  0.00000000000E+00  0.00000000000E+00  0.74764867981E+03  0.74764867982E+03  0.50400001928E-02 0.  1.
        1   -1    0    0  501    0  0.00000000000E+00  0.00000000000E+00 -0.28035360581E+04  0.28035360581E+04  0.50400001928E-02 0. -1.
    10030    2    1    2    0    0  0.00000000000E+00  0.00000000000E+00 -0.20558873783E+04  0.35511847379E+04  0.28955552370E+04 0.  0.
        2    1    3    3  502    0  0.88922342093E+03  0.63271056842E+03 -0.21946734562E+04  0.24510472324E+04  0.25500000920E-02 0. -1.
       -2    1    3    3    0  502 -0.88922342093E+03 -0.63271056842E+03  0.13878607794E+03  0.11001375056E+04  0.25500000920E-02 0.  1.
</event>
<event>
 5   0  0.2304435E-06  0.2925404E+04  0.7818609E-02  0.8265359E-01
       -2   -1    0    0    0  501  0.00000000000E+00  0.00000000000E+00  0.10771416868E+04  0.10771416868E+04  0.25500000920E-02 0.  1.
        2   -1    0    0  501    0  0.00000000000E+00  0.00000000000E+00 -0.19862727991E+04  0.19862727991E+04  0.25500000920E-02 0. -1.
    10030    2    1    2    0    0  0.00000000000E+00  0.00000000000E+00 -0.90913111226E+03  0.30634144859E+04  0.29254040632E+04 0.  0.
        1    1    3    3  502    0  0.12224520114E+03  0.81769651239E+03 -0.17181070724E+04  0.19066891167E+04  0.50400001928E-02 0. -1.
       -1    1    3    3    0  502 -0.12224520114E+03 -0.81769651239E+03  0.80897596015E+03  0.11567253692E+04  0.50400001928E-02 0.  1.
</event>
<event>
 5   0  0.8355946E-07  0.2904047E+04  0.7818609E-02  0.8271675E-01
        1   -1    0    0  501    0  0.00000000000E+00  0.00000000000E+00  0.13928904250E+04  0.13928904250E+04  0.50400001928E-02 0. -1.
       -1   -1    0    0    0  501  0.00000000000E+00  0.00000000000E+00 -0.15136665914E+04  0.15136665914E+04  0.50400001928E-02 0.  1.
    10030    2    1    2    0    0  0.00000000000E+00  0.00000000000E+00 -0.12077616644E+03  0.29065570164E+04  0.29040466262E+04 0.  0.
        4    1    3    3  502    0  0.65128885370E+03  0.10600624515E+04 -0.80967435080E+03  0.14844136012E+04  0.12699999809E+01 0.  1.
       -4    1    3    3    0  502 -0.65128885370E+03 -0.10600624515E+04  0.68889818436E+03  0.14221434152E+04  0.12699999809E+01 0. -1.
</event>
<event>
 5   0  0.8483636E-07  0.2920405E+04  0.7818609E-02  0.8266832E-01
       -1   -1    0    0    0  501  0.00000000000E+00  0.00000000000E+00  0.13594622644E+04  0.13594622645E+04  0.50400001928E-02 0.  1.
        1   -1    0    0  501    0  0.00000000000E+00  0.00000000000E+00 -0.15684081745E+04  0.15684081746E+04  0.50400001928E-02 0. -1.
    10030    2    1    2    0    0  0.00000000000E+00  0.00000000000E+00 -0.20894591011E+03  0.29278704390E+04  0.29204052654E+04 0.  0.
        2    1    3    3  502    0  0.57472878509E+03 -0.46067716103E+03  0.11595652097E+04  0.13737278110E+04  0.25500000920E-02 0.  1.
       -2    1    3    3    0  502 -0.57472878509E+03  0.46067716103E+03 -0.13685111198E+04  0.15541426280E+04  0.25500000920E-02 0. -1.
</event>
<event>
 5   0  0.8357118E-07  0.2907729E+04  0.7818609E-02  0.8270582E-01
       -1   -1    0    0    0  501  0.00000000000E+00  0.00000000000E+00  0.28190543570E+04  0.28190543570E+04  0.50400001928E-02 0.  1.
        1   -1    0    0  501    0  0.00000000000E+00  0.00000000000E+00 -0.74979828131E+03  0.74979828132E+03  0.50400001928E-02 0. -1.
    10030    2    1    2    0    0  0.00000000000E+00  0.00000000000E+00  0.20692560757E+04  0.35688526383E+04  0.29077290877E+04 0.  0.
        1    1    3    3  502    0  0.77459291345E+03  0.11161501997E+04  0.16699454322E+04  0.21527896313E+04  0.50400001928E-02 0.  1.
       -1    1    3    3    0  502 -0.77459291345E+03 -0.11161501997E+04  0.39931064347E+03  0.14160630070E+04  0.50400001928E-02 0. -1.
</event>
<event>
 5   0  0.2304435E-06  0.2898865E+04  0.7818609E-02  0.8273215E-01
       -2   -1    0    0    0  501  0.00000000000E+00  0.00000000000E+00  0.14731403581E+04  0.14731403581E+04  0.25500000920E-02 0. -1.
        2   -1    0    0  501    0  0.00000000000E+00  0.00000000000E+00 -0.14261059667E+04  0.14261059667E+04  0.25500000920E-02 0.  1.
    10030    2    1    2    0    0  0.00000000000E+00  0.00000000000E+00  0.47034391336E+02  0.28992463248E+04  0.28988647809E+04 0.  0.
        1    1    3    3  502    0  0.10556389774E+03 -0.10808109510E+04 -0.93658738720E+03  0.14340474128E+04  0.50400001928E-02 0.  1.
       -1    1    3    3    0  502 -0.10556389774E+03  0.10808109510E+04  0.98362177854E+03  0.14651989119E+04  0.50400001928E-02 0. -1.
</event>
<event>
 5   0  0.8947674E-07  0.2912559E+04  0.7818609E-02  0.8269150E-01
       -1   -1    0    0    0  501  0.00000000000E+00  0.00000000000E+00  0.27630846805E+04  0.27630846805E+04  0.50400001928E-02 0.  1.
        1   -1    0    0  501    0  0.00000000000E+00  0.00000000000E+00 -0.76753010991E+03  0.76753010992E+03  0.50400001928E-02 0. -1.
    10030    2    1    2    0    0  0.00000000000E+00  0.00000000000E+00  0.19955545706E+04  0.35306147905E+04  0.29125594851E+04 0.  0.
        3    1    3    3  502    0 -0.10895696766E+04 -0.74391630455E+03  0.17452038447E+04  0.21877637025E+04  0.10100000352E+00 0. -1.
       -3    1    3    3    0  502  0.10895696766E+04  0.74391630455E+03  0.25035072596E+03  0.13428510880E+04  0.10100000352E+00 0.  1.
</event>
<event>
 5   0  0.8263673E-07  0.2891580E+04  0.7818609E-02  0.8275387E-01
       -1   -1    0    0    0  501  0.00000000000E+00  0.00000000000E+00  0.19460703300E+04  0.19460703300E+04  0.50400001928E-02 0.  1.
        1   -1    0    0  501    0  0.00000000000E+00  0.00000000000E+00 -0.10741180757E+04  0.10741180757E+04  0.50400001928E-02 0. -1.
    10030    2    1    2    0    0  0.00000000000E+00  0.00000000000E+00  0.87195225430E+03  0.30201884057E+04  0.28915804108E+04 0.  0.
        5    1    3    3  502    0  0.56900025354E+03  0.12692179020E+04  0.84799784124E+03  0.16290481270E+04  0.46999998093E+01 0.  1.
       -5    1    3    3    0  502 -0.56900025354E+03 -0.12692179020E+04  0.23954413064E+02  0.13911402787E+04  0.46999998093E+01 0. -1.
</event>
<event>
 5   0  0.8947674E-07  0.2893994E+04  0.7818609E-02  0.8274667E-01
        1   -1    0    0  501    0  0.00000000000E+00  0.00000000000E+00  0.13118109806E+04  0.13118109806E+04  0.50400001928E-02 0. -1.
       -1   -1    0    0    0  501  0.00000000000E+00  0.00000000000E+00 -0.15961144014E+04  0.15961144014E+04  0.50400001928E-02 0.  1.
    10030    2    1    2    0    0  0.00000000000E+00  0.00000000000E+00 -0.28430342079E+03  0.29079253820E+04  0.28939940553E+04 0.  0.
        3    1    3    3  502    0  0.33636841356E+03  0.51973435192E+03 -0.14563210696E+04  0.15824470210E+04  0.10100000352E+00 0.  1.
       -3    1    3    3    0  502 -0.33636841356E+03 -0.51973435192E+03  0.11720176488E+04  0.13254783610E+04  0.10100000352E+00 0. -1.
</event>
<event>
 5   0  0.2425845E-06  0.2973188E+04  0.7818609E-02  0.8251429E-01
        2   -1    0    0  501    0  0.00000000000E+00  0.00000000000E+00  0.14027717732E+04  0.14027717732E+04  0.25500000920E-02 0. -1.
       -2   -1    0    0    0  501  0.00000000000E+00  0.00000000000E+00 -0.15754245329E+04  0.15754245329E+04  0.25500000920E-02 0.  1.
    10030    2    1    2    0    0  0.00000000000E+00  0.00000000000E+00 -0.17265275968E+03  0.29781963060E+04  0.29731875591E+04 0.  0.
        2    1    3    3  502    0 -0.72149434429E+03  0.13844897712E+03 -0.13808807802E+04  0.15641463926E+04  0.25500000920E-02 0.  1.
       -2    1    3    3    0  502  0.72149434429E+03 -0.13844897712E+03  0.12082280206E+04  0.14140499135E+04  0.25500000920E-02 0. -1.
</event>
<event>
 5   0  0.2360103E-06  0.2941150E+04  0.7818609E-02  0.8260738E-01
       -2   -1    0    0    0  501  0.00000000000E+00  0.00000000000E+00  0.22499821032E+04  0.22499821032E+04  0.25500000920E-02 0. -1.
        2   -1    0    0  501    0  0.00000000000E+00  0.00000000000E+00 -0.96115941780E+03  0.96115941780E+03  0.25500000920E-02 0.  1.
    10030    2    1    2    0    0  0.00000000000E+00  0.00000000000E+00  0.12888226854E+04  0.32111415210E+04  0.29411504473E+04 0.  0.
        4    1    3    3  502    0  0.10804131816E+03 -0.58197093385E+03 -0.82535560909E+03  0.10156655890E+04  0.12699999809E+01 0.  1.
       -4    1    3    3    0  502 -0.10804131816E+03  0.58197093385E+03  0.21141782945E+04  0.21954759320E+04  0.12699999809E+01 0. -1.
</event>
<event>
 5   0  0.2360103E-06  0.2886137E+04  0.7818609E-02  0.8277014E-01
       -2   -1    0    0    0  501  0.00000000000E+00  0.00000000000E+00  0.18389090438E+04  0.18389090438E+04  0.25500000920E-02 0. -1.
        2   -1    0    0  501    0  0.00000000000E+00  0.00000000000E+00 -0.11324362797E+04  0.11324362797E+04  0.25500000920E-02 0.  1.
    10030    2    1    2    0    0  0.00000000000E+00  0.00000000000E+00  0.70647276403E+03  0.29713453235E+04  0.28861374301E+04 0.  0.
        4    1    3    3  502    0  0.88126123508E+02  0.26427127628E+03 -0.11044899520E+04  0.11390808523E+04  0.12699999809E+01 0.  1.
       -4    1    3    3    0  502 -0.88126123508E+02 -0.26427127628E+03  0.18109627160E+04  0.18322644713E+04  0.12699999809E+01 0. -1.
</event>
<event>
 5   0  0.8947674E-07  0.2895513E+04  0.7818609E-02  0.8274214E-01
        1   -1    0    0  501    0  0.00000000000E+00  0.00000000000E+00  0.28685634013E+04  0.28685634013E+04  0.50400001928E-02 0.  1.
       -1   -1    0    0    0  501  0.00000000000E+00  0.00000000000E+00 -0.73067915275E+03  0.73067915277E+03  0.50400001928E-02 0. -1.
    10030    2    1    2    0    0  0.00000000000E+00  0.00000000000E+00  0.21378842486E+04  0.35992425541E+04  0.28955134092E+04 0.  0.
        3    1    3    3  502    0  0.61843651130E+03  0.10858567718E+04  0.19776816277E+04  0.23393959216E+04  0.10100000352E+00 0.  1.
       -3    1    3    3    0  502 -0.61843651130E+03 -0.10858567718E+04  0.16020262091E+03  0.12598466325E+04  0.10100000352E+00 0. -1.
</event>
<event>
 5   0  0.8355946E-07  0.2944912E+04  0.7818609E-02  0.8259639E-01
        1   -1    0    0  501    0  0.00000000000E+00  0.00000000000E+00  0.13155609463E+04  0.13155609463E+04  0.50400001928E-02 0.  1.
       -1   -1    0    0    0  501  0.00000000000E+00  0.00000000000E+00 -0.16480628840E+04  0.16480628840E+04  0.50400001928E-02 0. -1.
    10030    2    1    2    0    0  0.00000000000E+00  0.00000000000E+00 -0.33250193769E+03  0.29636238302E+04  0.29449123363E+04 0.  0.
        4    1    3    3  502    0  0.82060341199E+03 -0.10858039836E+04 -0.73175136159E+03  0.15452578810E+04  0.12699999809E+01 0. -1.
       -4    1    3    3    0  502 -0.82060341199E+03  0.10858039836E+04  0.39924942390E+03  0.14183659493E+04  0.12699999809E+01 0.  1.
</event>
<event>
 5   0  0.2325590E-06  0.2949261E+04  0.7818609E-02  0.8258370E-01
       -2   -1    0    0    0  501  0.00000000000E+00  0.00000000000E+00  0.13765030620E+04  0.13765030620E+04  0.25500000920E-02 0. -1.
        2   -1    0    0  501    0  0.00000000000E+00  0.00000000000E+00 -0.15797534838E+04  0.15797534838E+04  0.25500000920E-02 0.  1.
    10030    2    1    2    0    0  0.00000000000E+00  0.00000000000E+00 -0.20325042176E+03  0.29562565458E+04  0.29492612686E+04 0.  0.
        5    1    3    3  502    0  0.23438956508E+03  0.11575970699E+04 -0.98663725565E+03  0.15389751813E+04  0.46999998093E+01 0.  1.
       -5    1    3    3    0  502 -0.23438956508E+03 -0.11575970699E+04  0.78338683389E+03  0.14172813645E+04  0.46999998093E+01 0. -1.
</event>
<event>
 5   0  0.8263673E-07  0.2901424E+04  0.7818609E-02  0.8272454E-01
        1   -1    0    0  501    0  0.00000000000E+00  0.00000000000E+00  0.14049617670E+04  0.14049617671E+04  0.50400001928E-02 0. -1.
       -1   -1    0    0    0  501  0.00000000000E+00  0.00000000000E+00 -0.14979525063E+04  0.14979525063E+04  0.50400001928E-02 0.  1.
    10030    2    1    2    0    0  0.00000000000E+00  0.00000000000E+00 -0.92990739269E+02  0.29029142734E+04  0.29014244779E+04 0.  0.
        5    1    3    3  502    0 -0.12910861033E+04  0.43239251033E+03 -0.54742929530E+03  0.14675038441E+04  0.46999998093E+01 0. -1.
       -5    1    3    3    0  502  0.12910861033E+04 -0.43239251033E+03  0.45443855603E+03  0.14354104293E+04  0.46999998093E+01 0.  1.
</event>
<event>
 5   0  0.8483636E-07  0.2892611E+04  0.7818609E-02  0.8275079E-01
        1   -1    0    0  501    0  0.00000000000E+00  0.00000000000E+00  0.29368595084E+04  0.29368595084E+04  0.50400001928E-02 0. -1.
       -1   -1    0    0    0  501  0.00000000000E+00  0.00000000000E+00 -0.71225725763E+03  0.71225725765E+03  0.50400001928E-02 0.  1.
    10030    2    1    2    0    0  0.00000000000E+00  0.00000000000E+00  0.22246022508E+04  0.36491167661E+04  0.28926109310E+04 0.  0.
        2    1    3    3  502    0  0.11585358584E+04  0.82814873176E+03  0.79374572124E+03  0.16303582205E+04  0.25500000920E-02 0.  1.
       -2    1    3    3    0  502 -0.11585358584E+04 -0.82814873176E+03  0.14308565296E+04  0.20187585456E+04  0.25500000920E-02 0. -1.
</event>
<event>
 5   0  0.2325590E-06  0.2892397E+04  0.7818609E-02  0.8275143E-01
        2   -1    0    0  501    0  0.00000000000E+00  0.00000000000E+00  0.24092500633E+04  0.24092500633E+04  0.25500000920E-02 0. -1.
       -2   -1    0    0    0  501  0.00000000000E+00  0.00000000000E+00 -0.86810863397E+03  0.86810863397E+03  0.25500000920E-02 0.  1.
    10030    2    1    2    0    0  0.00000000000E+00  0.00000000000E+00  0.15411414293E+04  0.32773586973E+04  0.28923974702E+04 0.  0.
        5    1    3    3  502    0 -0.55481552635E+03  0.69588146373E+03  0.20621973786E+04  0.22460524032E+04  0.46999998093E+01 0. -1.
       -5    1    3    3    0  502  0.55481552635E+03 -0.69588146373E+03 -0.52105594926E+03  0.10313062940E+04  0.46999998093E+01 0.  1.
</event>
<event>
 5   0  0.8947674E-07  0.2892139E+04  0.7818609E-02  0.8275220E-01
        1   -1    0    0  501    0  0.00000000000E+00  0.00000000000E+00  0.16174562916E+04  0.16174562916E+04  0.50400001928E-02 0. -1.
       -1   -1    0    0    0  501  0.00000000000E+00  0.00000000000E+00 -0.12928426395E+04  0.12928426395E+04  0.50400001928E-02 0.  1.
    10030    2    1    2    0    0  0.00000000000E+00  0.00000000000E+00  0.32461365208E+03  0.29102989311E+04  0.28921386283E+04 0.  0.
        3    1    3    3  502    0 -0.99971994669E+03 -0.26414246731E+03 -0.85493405648E+03  0.13416867988E+04  0.10100000352E+00 0.  1.
       -3    1    3    3    0  502  0.99971994669E+03  0.26414246731E+03  0.11795477086E+04  0.15686121324E+04  0.10100000352E+00 0. -1.
</event>
<event>
 5   0  0.8947674E-07  0.2902921E+04  0.7818609E-02  0.8272009E-01
        1   -1    0    0  501    0  0.00000000000E+00  0.00000000000E+00  0.21063088529E+04  0.21063088529E+04  0.50400001928E-02 0.  1.
       -1   -1    0    0    0  501  0.00000000000E+00  0.00000000000E+00 -0.10002032146E+04  0.10002032146E+04  0.50400001928E-02 0. -1.
    10030    2    1    2    0    0  0.00000000000E+00  0.00000000000E+00  0.11061056383E+04  0.31065120674E+04  0.29029205194E+04 0.  0.
        3    1    3    3  502    0  0.71769845212E+03  0.12366485584E+04  0.28584896389E+03  0.14581153472E+04  0.10100000352E+00 0. -1.
       -3    1    3    3    0  502 -0.71769845212E+03 -0.12366485584E+04  0.82025667440E+03  0.16483967203E+04  0.10100000352E+00 0.  1.
</event>
<event>
 5   0  0.8947674E-07  0.2900226E+04  0.7818609E-02  0.8272810E-01
        1   -1    0    0  501    0  0.00000000000E+00  0.00000000000E+00  0.30214778315E+04  0.30214778316E+04  0.50400001928E-02 0.  1.
       -1   -1    0    0    0  501  0.00000000000E+00  0.00000000000E+00 -0.69596001203E+03  0.69596001205E+03  0.50400001928E-02 0. -1.
    10030    2    1    2    0    0  0.00000000000E+00  0.00000000000E+00  0.23255178195E+04  0.37174378436E+04  0.29002260243E+04 0.  0.
        3    1    3    3  502    0 -0.13043316640E+04  0.17870982855E+03  0.19420207344E+04  0.23462017892E+04  0.10100000352E+00 0. -1.
       -3    1    3    3    0  502  0.13043316640E+04 -0.17870982855E+03  0.38349708511E+03  0.13712360544E+04  0.10100000352E+00 0.  1.
</event>
<event>
 5   0  0.8483636E-07  0.2894233E+04  0.7818609E-02  0.8274596E-01
        1   -1    0    0  501    0  0.00000000000E+00  0.00000000000E+00  0.14958530437E+04  0.14958530437E+04  0.50400001928E-02 0.  1.
       -1   -1    0    0    0  501  0.00000000000E+00  0.00000000000E+00 -0.13999674473E+04  0.13999674473E+04  0.50400001928E-02 0. -1.
    10030    2    1    2    0    0  0.00000000000E+00  0.00000000000E+00  0.95885596434E+02  0.28958204910E+04  0.28942325871E+04 0.  0.
        2    1    3    3  502    0 -0.10753969089E+04 -0.20178049286E+03  0.99553773945E+03  0.14792867436E+04  0.25500000920E-02 0.  1.
       -2    1    3    3    0  502  0.10753969089E+04  0.20178049286E+03 -0.89965214302E+03  0.14165337474E+04  0.25500000920E-02 0. -1.
</event>
<event>
 5   0  0.8355946E-07  0.2879409E+04  0.7818609E-02  0.8279030E-01
        1   -1    0    0  501    0  0.00000000000E+00  0.00000000000E+00  0.22572577663E+04  0.22572577663E+04  0.50400001928E-02 0. -1.
       -1   -1    0    0    0  501  0.00000000000E+00  0.00000000000E+00 -0.91825959394E+03  0.91825959396E+03  0.50400001928E-02 0.  1.
    10030    2    1    2    0    0  0.00000000000E+00  0.00000000000E+00  0.13389981723E+04  0.31755173602E+04  0.28794086892E+04 0.  0.
        4    1    3    3  502    0 -0.48664977175E+03  0.16804259481E+02  0.21636846461E+04  0.22178014438E+04  0.12699999809E+01 0. -1.
       -4    1    3    3    0  502  0.48664977175E+03 -0.16804259481E+02 -0.82468647382E+03  0.95771591638E+03  0.12699999809E+01 0.  1.
</event>
<event>
 5   0  0.8355946E-07  0.2898084E+04  0.7818609E-02  0.8273448E-01
       -1   -1    0    0    0  501  0.00000000000E+00  0.00000000000E+00  0.12567339477E+04  0.12567339477E+04  0.50400001928E-02 0.  1.
        1   -1    0    0  501    0  0.00000000000E+00  0.00000000000E+00 -0.16707774569E+04  0.16707774569E+04  0.50400001928E-02 0. -1.
    10030    2    1    2    0    0  0.00000000000E+00  0.00000000000E+00 -0.41404350912E+03  0.29275114046E+04  0.28980840217E+04 0.  0.
        4    1    3    3  502    0  0.15524227689E+03 -0.10090058674E+04  0.83178218410E+03  0.13168356844E+04  0.12699999809E+01 0.  1.
       -4    1    3    3    0  502 -0.15524227689E+03  0.10090058674E+04 -0.12458256932E+04  0.16106757202E+04  0.12699999809E+01 0. -1.
</event>
<event>
 5   0  0.2378690E-06  0.2875747E+04  0.7818609E-02  0.8280130E-01
       -2   -1    0    0    0  501  0.00000000000E+00  0.00000000000E+00  0.10155500582E+04  0.10155500582E+04  0.25500000920E-02 0.  1.
        2   -1    0    0  501    0  0.00000000000E+00  0.00000000000E+00 -0.20358230116E+04  0.20358230116E+04  0.25500000920E-02 0. -1.
    10030    2    1    2    0    0  0.00000000000E+00  0.00000000000E+00 -0.10202729533E+04  0.30513730698E+04  0.28757469833E+04 0.  0.
        3    1    3    3  502    0  0.92223014118E+03  0.47804919825E+03  0.54478454227E+03  0.11729576620E+04  0.10100000352E+00 0.  1.
       -3    1    3    3    0  502 -0.92223014118E+03 -0.47804919825E+03 -0.15650574956E+04  0.18784154077E+04  0.10100000352E+00 0. -1.
</event>
<event>
 5   0  0.2360103E-06  0.2922037E+04  0.7818609E-02  0.8266351E-01
       -2   -1    0    0    0  501  0.00000000000E+00  0.00000000000E+00  0.90756998951E+03  0.90756998951E+03  0.25500000920E-02 0.  1.
        2   -1    0    0  501    0  0.00000000000E+00  0.00000000000E+00 -0.23519667441E+04  0.23519667441E+04  0.25500000920E-02 0. -1.
    10030    2    1    2    0    0  0.00000000000E+00  0.00000000000E+00 -0.14443967546E+04  0.32595367336E+04  0.29220365729E+04 0.  0.
        4    1    3    3  502    0  0.66120165307E+03  0.75702800237E+02  0.72866339636E+03  0.98684877164E+03  0.12699999809E+01 0.  1.
       -4    1    3    3    0  502 -0.66120165307E+03 -0.75702800237E+02 -0.21730601510E+04  0.22726879620E+04  0.12699999809E+01 0. -1.
</event>
<event>
 5   0  0.2360103E-06  0.2893523E+04  0.7818609E-02  0.8274807E-01
        2   -1    0    0  501    0  0.00000000000E+00  0.00000000000E+00  0.15511711939E+04  0.15511711939E+04  0.25500000920E-02 0. -1.
       -2   -1    0    0    0  501  0.00000000000E+00  0.00000000000E+00 -0.13493798738E+04  0.13493798738E+04  0.25500000920E-02 0.  1.
    10030    2    1    2    0    0  0.00000000000E+00  0.00000000000E+00  0.20179132011E+03  0.29005510677E+04  0.28935232433E+04 0.  0.
        4    1    3    3  502    0  0.98608745094E+03 -0.84396740470E+03  0.74156307008E+03  0.14948467617E+04  0.12699999809E+01 0. -1.
       -4    1    3    3    0  502 -0.98608745094E+03  0.84396740470E+03 -0.53977174997E+03  0.14057043061E+04  0.12699999809E+01 0.  1.
</event>
<event>
 5   0  0.8263673E-07  0.2896989E+04  0.7818609E-02  0.8273774E-01
        1   -1    0    0  501    0  0.00000000000E+00  0.00000000000E+00  0.15968905367E+04  0.15968905367E+04  0.50400001928E-02 0.  1.
       -1   -1    0    0    0  501  0.00000000000E+00  0.00000000000E+00 -0.13138890661E+04  0.13138890661E+04  0.50400001928E-02 0. -1.
    10030    2    1    2    0    0  0.00000000000E+00  0.00000000000E+00  0.28300147058E+03  0.29107796028E+04  0.28969894829E+04 0.  0.
        5    1    3    3  502    0  0.79173924952E+03  0.10258127116E+04 -0.50886101503E+03  0.13921581739E+04  0.46999998093E+01 0. -1.
       -5    1    3    3    0  502 -0.79173924952E+03 -0.10258127116E+04  0.79186248561E+03  0.15186214290E+04  0.46999998093E+01 0.  1.
</event>
<event>
 5   0  0.8947674E-07  0.2892086E+04  0.7818609E-02  0.8275236E-01
       -1   -1    0    0    0  501  0.00000000000E+00  0.00000000000E+00  0.16748551627E+04  0.16748551627E+04  0.50400001928E-02 0.  1.
        1   -1    0    0  501    0  0.00000000000E+00  0.00000000000E+00 -0.12484906140E+04  0.12484906140E+04  0.50400001928E-02 0. -1.
    10030    2    1    2    0    0  0.00000000000E+00  0.00000000000E+00  0.42636454871E+03  0.29233457768E+04  0.28920864099E+04 0.  0.
        3    1    3    3  502    0 -0.59847067711E+03  0.75040144178E+03  0.13064321438E+04  0.16211213501E+04  0.10100000352E+00 0.  1.
       -3    1    3    3    0  502  0.59847067711E+03 -0.75040144178E+03 -0.88006759512E+03  0.13022244266E+04  0.10100000352E+00 0. -1.
</event>
<event>
 5   0  0.2360103E-06  0.2906989E+04  0.7818609E-02  0.8270801E-01
       -2   -1    0    0    0  501  0.00000000000E+00  0.00000000000E+00  0.11574915703E+04  0.11574915703E+04  0.25500000920E-02 0. -1.
        2   -1    0    0  501    0  0.00000000000E+00  0.00000000000E+00 -0.18251934228E+04  0.18251934228E+04  0.25500000920E-02 0.  1.
    10030    2    1    2    0    0  0.00000000000E+00  0.00000000000E+00 -0.66770185248E+03  0.29826849931E+04  0.29069888208E+04 0.  0.
        4    1    3    3  502    0 -0.96719793663E+03 -0.92265729420E+03  0.25186934379E+03  0.13602235516E+04  0.12699999809E+01 0. -1.
       -4    1    3    3    0  502  0.96719793663E+03  0.92265729420E+03 -0.91957119628E+03  0.16224614415E+04  0.12699999809E+01 0.  1.
</event>
<event>
 5   0  0.2325590E-06  0.2880939E+04  0.7818609E-02  0.8278571E-01
       -2   -1    0    0    0  501  0.00000000000E+00  0.00000000000E+00  0.15321983786E+04  0.15321983786E+04  0.25500000920E-02 0.  1.
        2   -1    0    0  501    0  0.00000000000E+00  0.00000000000E+00 -0.13542325240E+04  0.13542325240E+04  0.25500000920E-02 0. -1.
    10030    2    1    2    0    0  0.00000000000E+00  0.00000000000E+00  0.17796585462E+03  0.28864309026E+04  0.28809393451E+04 0.  0.
        5    1    3    3  502    0 -0.82855677888E+03 -0.16619102563E+03 -0.10797761531E+04  0.13711544128E+04  0.46999998093E+01 0. -1.
       -5    1    3    3    0  502  0.82855677888E+03  0.16619102563E+03  0.12577420077E+04  0.15152764899E+04  0.46999998093E+01 0.  1.
</event>
<event>
 5   0  0.8263673E-07  0.2888825E+04  0.7818609E-02  0.8276210E-01
        1   -1    0    0  501    0  0.00000000000E+00  0.00000000000E+00  0.18538825152E+04  0.18538825152E+04  0.50400001928E-02 0.  1.
       -1   -1    0    0    0  501  0.00000000000E+00  0.00000000000E+00 -0.11253825965E+04  0.11253825966E+04  0.50400001928E-02 0. -1.
    10030    2    1    2    0    0  0.00000000000E+00  0.00000000000E+00  0.72849991865E+03  0.29792651118E+04  0.28888247567E+04 0.  0.
        5    1    3    3  502    0 -0.92460760174E+03  0.53169382319E+03 -0.64025970235E+03  0.12440064772E+04  0.46999998093E+01 0. -1.
       -5    1    3    3    0  502  0.92460760174E+03 -0.53169382319E+03  0.13687596210E+04  0.17352586346E+04  0.46999998093E+01 0.  1.
</event>
<event>
 5   0  0.8947674E-07  0.2896858E+04  0.7818609E-02  0.8273813E-01
        1   -1    0    0  501    0  0.00000000000E+00  0.00000000000E+00  0.18270826608E+04  0.18270826608E+04  0.50400001928E-02 0.  1.
       -1   -1    0    0    0  501  0.00000000000E+00  0.00000000000E+00 -0.11482495967E+04  0.11482495967E+04  0.50400001928E-02 0. -1.
    10030    2    1    2    0    0  0.00000000000E+00  0.00000000000E+00  0.67883306406E+03  0.29753322575E+04  0.28968582489E+04 0.  0.
        3    1    3    3  502    0  0.30409305868E+03  0.10897711963E+03 -0.11107806452E+04  0.11567982767E+04  0.10100000352E+00 0. -1.
       -3    1    3    3    0  502 -0.30409305868E+03 -0.10897711963E+03  0.17896137093E+04  0.18185339809E+04  0.10100000352E+00 0.  1.
</event>
<event>
 5   0  0.2425845E-06  0.2888187E+04  0.7818609E-02  0.8276401E-01
       -2   -1    0    0    0  501  0.00000000000E+00  0.00000000000E+00  0.13907846741E+04  0.13907846741E+04  0.25500000920E-02 0. -1.
        2   -1    0    0  501    0  0.00000000000E+00  0.00000000000E+00 -0.14994453679E+04  0.14994453679E+04  0.25500000920E-02 0.  1.
    10030    2    1    2    0    0  0.00000000000E+00  0.00000000000E+00 -0.10866069384E+03  0.28902300419E+04  0.28881867234E+04 0.  0.
        2    1    3    3  502    0 -0.11049126680E+04  0.52526767351E+03 -0.82211985829E+03  0.14739807306E+04  0.25500000920E-02 0.  1.
       -2    1    3    3    0  502  0.11049126680E+04 -0.52526767351E+03  0.71345916445E+03  0.14162493114E+04  0.25500000920E-02 0. -1.
</event>
<event>
 5   0  0.2325590E-06  0.2898085E+04  0.7818609E-02  0.8273447E-01
        2   -1    0    0  501    0  0.00000000000E+00  0.00000000000E+00  0.14942060296E+04  0.14942060296E+04  0.25500000920E-02 0. -1.
       -2   -1    0    0    0  501  0.00000000000E+00  0.00000000000E+00 -0.14052443857E+04  0.14052443857E+04  0.25500000920E-02 0.  1.
    10030    2    1    2    0    0  0.00000000000E+00  0.00000000000E+00  0.88961643933E+02  0.28994504154E+04  0.28980853226E+04 0.  0.
        5    1    3    3  502    0 -0.72906774280E+03 -0.15719735172E+03  0.12874233540E+04  0.14878614732E+04  0.46999998093E+01 0. -1.
       -5    1    3    3    0  502  0.72906774280E+03  0.15719735172E+03 -0.11984617101E+04  0.14115889421E+04  0.46999998093E+01 0.  1.
</event>
<event>
 5   0  0.2304435E-06  0.2892264E+04  0.7818609E-02  0.8275183E-01
        2   -1    0    0  501    0  0.00000000000E+00  0.00000000000E+00  0.11633091889E+04  0.11633091889E+04  0.25500000920E-02 0. -1.
       -2   -1    0    0    0  501  0.00000000000E+00  0.00000000000E+00 -0.17977142894E+04  0.17977142894E+04  0.25500000920E-02 0.  1.
    10030    2    1    2    0    0  0.00000000000E+00  0.00000000000E+00 -0.63440510050E+03  0.29610234782E+04  0.28922638550E+04 0.  0.
        1    1    3    3  502    0  0.55407856760E+03 -0.12634574080E+04  0.12665954842E+03  0.13854134120E+04  0.50400001928E-02 0. -1.
       -1    1    3    3    0  502 -0.55407856760E+03  0.12634574080E+04 -0.76106464892E+03  0.15756100662E+04  0.50400001928E-02 0.  1.
</event>
<event>
 5   0  0.2360103E-06  0.2891370E+04  0.7818609E-02  0.8275450E-01
        2   -1    0    0  501    0  0.00000000000E+00  0.00000000000E+00  0.15580176040E+04  0.15580176040E+04  0.25500000920E-02 0.  1.
       -2   -1    0    0    0  501  0.00000000000E+00  0.00000000000E+00 -0.13414516833E+04  0.13414516833E+04  0.25500000920E-02 0. -1.
    10030    2    1    2    0    0  0.00000000000E+00  0.00000000000E+00  0.21656592069E+03  0.28994692873E+04  0.28913701510E+04 0.  0.
        4    1    3    3  502    0  0.13569717666E+04 -0.37405932771E+03 -0.22235407792E+03  0.14250388433E+04  0.12699999809E+01 0. -1.
       -4    1    3    3    0  502 -0.13569717666E+04  0.37405932771E+03  0.43891999860E+03  0.14744304440E+04  0.12699999809E+01 0.  1.
</event>
<event>
 5   0  0.2325590E-06  0.2910127E+04  0.7818609E-02  0.8269871E-01
       -2   -1    0    0    0  501  0.00000000000E+00  0.00000000000E+00  0.12048768472E+04  0.12048768472E+04  0.25500000920E-02 0.  1.
        2   -1    0    0  501    0  0.00000000000E+00  0.00000000000E+00 -0.17572004218E+04  0.17572004218E+04  0.25500000920E-02 0. -1.
    10030    2    1    2    0    0  0.00000000000E+00  0.00000000000E+00 -0.55232357461E+03  0.29620772690E+04  0.29101272166E+04 0.  0.
        5    1    3    3  502    0 -0.10950559781E+04  0.95183491518E+03 -0.38789718645E+03  0.15018733695E+04  0.46999998093E+01 0. -1.
       -5    1    3    3    0  502  0.10950559781E+04 -0.95183491518E+03 -0.16442638816E+03  0.14602038995E+04  0.46999998093E+01 0.  1.
</event>
<event>
 5   0  0.2378690E-06  0.2895904E+04  0.7818609E-02  0.8274097E-01
       -2   -1    0    0    0  501  0.00000000000E+00  0.00000000000E+00  0.10254070836E+04  0.10254070836E+04  0.25500000920E-02 0. -1.
        2   -1    0    0  501    0  0.00000000000E+00  0.00000000000E+00 -0.20446168259E+04  0.20446168259E+04  0.25500000920E-02 0.  1.
    10030    2    1    2    0    0  0.00000000000E+00  0.00000000000E+00 -0.10192097423E+04  0.30700239095E+04  0.28959037114E+04 0.  0.
        3    1    3    3  502    0 -0.72725452279E+02  0.12935596947E+04  0.17578047543E+03  0.13074725469E+04  0.10100000352E+00 0. -1.
       -3    1    3    3    0  502  0.72725452279E+02 -0.12935596947E+04 -0.11949902177E+04  0.17625513626E+04  0.10100000352E+00 0.  1.
</event>
<event>
 5   0  0.8355946E-07  0.2900368E+04  0.7818609E-02  0.8272768E-01
       -1   -1    0    0    0  501  0.00000000000E+00  0.00000000000E+00  0.11467596776E+04  0.11467596776E+04  0.50400001928E-02 0.  1.
        1   -1    0    0  501    0  0.00000000000E+00  0.00000000000E+00 -0.18338928259E+04  0.18338928259E+04  0.50400001928E-02 0. -1.
    10030    2    1    2    0    0  0.00000000000E+00  0.00000000000E+00 -0.68713314830E+03  0.29806525036E+04  0.29003684910E+04 0.  0.
        4    1    3    3  502    0  0.13273859616E+03 -0.74005123563E+03  0.93081432262E+03  0.11965418013E+04  0.12699999809E+01 0.  1.
       -4    1    3    3    0  502 -0.13273859616E+03  0.74005123563E+03 -0.16179474709E+04  0.17841107022E+04  0.12699999809E+01 0. -1.
</event>
<event>
 5   0  0.2325590E-06  0.2911486E+04  0.7818609E-02  0.8269468E-01
        2   -1    0    0  501    0  0.00000000000E+00  0.00000000000E+00  0.86623075073E+03  0.86623075073E+03  0.25500000920E-02 0. -1.
       -2   -1    0    0    0  501  0.00000000000E+00  0.00000000000E+00 -0.24464469342E+04  0.24464469342E+04  0.25500000920E-02 0.  1.
    10030    2    1    2    0    0  0.00000000000E+00  0.00000000000E+00 -0.15802161834E+04  0.33126776849E+04  0.29114859192E+04 0.  0.
        5    1    3    3  502    0  0.55335234325E+03 -0.97030457254E+03 -0.18522734371E+04  0.21630138129E+04  0.46999998093E+01 0. -1.
       -5    1    3    3    0  502 -0.55335234325E+03  0.97030457254E+03  0.27205725361E+03  0.11496638720E+04  0.46999998093E+01 0.  1.
</event>
<event>
 5   0  0.8263673E-07  0.2898752E+04  0.7818609E-02  0.8273249E-01
       -1   -1    0    0    0  501  0.00000000000E+00  0.00000000000E+00  0.13509994474E+04  0.13509994474E+04  0.50400001928E-02 0. -1.
        1   -1    0    0  501    0  0.00000000000E+00  0.00000000000E+00 -0.15549160752E+04  0.15549160752E+04  0.50400001928E-02 0.  1.
    10030    2    1    2    0    0  0.00000000000E+00  0.00000000000E+00 -0.20391662781E+03  0.29059155226E+04  0.28987519786E+04 0.  0.
        5    1    3    3  502    0  0.10638344634E+04 -0.73051426585E+03 -0.76334156907E+03  0.14993689670E+04  0.46999998093E+01 0.  1.
       -5    1    3    3    0  502 -0.10638344634E+04  0.73051426585E+03  0.55942494126E+03  0.14065465556E+04  0.46999998093E+01 0. -1.
</event>
<event>
 5   0  0.8263673E-07  0.2916129E+04  0.7818609E-02  0.8268095E-01
       -1   -1    0    0    0  501  0.00000000000E+00  0.00000000000E+00  0.90792377604E+03  0.90792377605E+03  0.50400001928E-02 0. -1.
        1   -1    0    0  501    0  0.00000000000E+00  0.00000000000E+00 -0.23415528267E+04  0.23415528267E+04  0.50400001928E-02 0.  1.
    10030    2    1    2    0    0  0.00000000000E+00  0.00000000000E+00 -0.14336290507E+04  0.32494766028E+04  0.29161285872E+04 0.  0.
        5    1    3    3  502    0 -0.17117179335E+03  0.13912862796E+04 -0.26976558768E+03  0.14275058168E+04  0.46999998093E+01 0.  1.
       -5    1    3    3    0  502  0.17117179335E+03 -0.13912862796E+04 -0.11638634630E+04  0.18219707860E+04  0.46999998093E+01 0. -1.
</event>
<event>
 5   0  0.8263673E-07  0.2895903E+04  0.7818609E-02  0.8274098E-01
       -1   -1    0    0    0  501  0.00000000000E+00  0.00000000000E+00  0.11969674447E+04  0.11969674447E+04  0.50400001928E-02 0. -1.
        1   -1    0    0  501    0  0.00000000000E+00  0.00000000000E+00 -0.17515625088E+04  0.17515625088E+04  0.50400001928E-02 0.  1.
    10030    2    1    2    0    0  0.00000000000E+00  0.00000000000E+00 -0.55459506413E+03  0.29485299535E+04  0.28959028302E+04 0.  0.
        5    1    3    3  502    0  0.28123342305E+03 -0.25536563557E+03  0.11453190580E+04  0.12066820960E+04  0.46999998093E+01 0. -1.
       -5    1    3    3    0  502 -0.28123342305E+03  0.25536563557E+03 -0.16999141222E+04  0.17418478575E+04  0.46999998093E+01 0.  1.
</event>
<event>
 5   0  0.8357118E-07  0.2891137E+04  0.7818609E-02  0.8275519E-01
       -1   -1    0    0    0  501  0.00000000000E+00  0.00000000000E+00  0.93620844577E+03  0.93620844578E+03  0.50400001928E-02 0. -1.
        1   -1    0    0  501    0  0.00000000000E+00  0.00000000000E+00 -0.22320546445E+04  0.22320546445E+04  0.50400001928E-02 0.  1.
    10030    2    1    2    0    0  0.00000000000E+00  0.00000000000E+00 -0.12958461987E+04  0.31682630902E+04  0.28911370840E+04 0.  0.
        1    1    3    3  502    0 -0.13045267147E+04 -0.49349383970E+03 -0.23158193757E+03  0.14138445151E+04  0.50400001928E-02 0.  1.
       -1    1    3    3    0  502  0.13045267147E+04  0.49349383970E+03 -0.10642642611E+04  0.17544185751E+04  0.50400001928E-02 0. -1.
</event>
<event>
 5   0  0.2378690E-06  0.3050129E+04  0.7818609E-02  0.8229559E-01
       -2   -1    0    0    0  501  0.00000000000E+00  0.00000000000E+00  0.96788960287E+03  0.96788960287E+03  0.25500000920E-02 0. -1.
        2   -1    0    0  501    0  0.00000000000E+00  0.00000000000E+00 -0.24029819625E+04  0.24029819625E+04  0.25500000920E-02 0.  1.
    10030    2    1    2    0    0  0.00000000000E+00  0.00000000000E+00 -0.14350923597E+04  0.33708715654E+04  0.30501286907E+04 0.  0.
        3    1    3    3  502    0  0.20833420567E+03 -0.13069509344E+04  0.11996854720E+03  0.13288778532E+04  0.10100000352E+00 0. -1.
       -3    1    3    3    0  502 -0.20833420567E+03  0.13069509344E+04 -0.15550609069E+04  0.20419937122E+04  0.10100000352E+00 0.  1.
</event>
<event>
 5   0  0.8483636E-07  0.2902852E+04  0.7818609E-02  0.8272029E-01
       -1   -1    0    0    0  501  0.00000000000E+00  0.00000000000E+00  0.17430614895E+04  0.17430614895E+04  0.50400001928E-02 0. -1.
        1   -1    0    0  501    0  0.00000000000E+00  0.00000000000E+00 -0.12085845065E+04  0.12085845065E+04  0.50400001928E-02 0.  1.
    10030    2    1    2    0    0  0.00000000000E+00  0.00000000000E+00  0.53447698302E+03  0.29516459960E+04  0.29028517772E+04 0.  0.
        2    1    3    3  502    0 -0.85854606900E+03 -0.95690456429E+03  0.95226103854E+03  0.15998652391E+04  0.25500000920E-02 0. -1.
       -2    1    3    3    0  502  0.85854606900E+03  0.95690456429E+03 -0.41778405552E+03  0.13517807569E+04  0.25500000920E-02 0.  1.
</event>
<event>
 5   0  0.8355946E-07  0.2899047E+04  0.7818609E-02  0.8273161E-01
        1   -1    0    0  501    0  0.00000000000E+00  0.00000000000E+00  0.21083658328E+04  0.21083658328E+04  0.50400001928E-02 0. -1.
       -1   -1    0    0    0  501  0.00000000000E+00  0.00000000000E+00 -0.99656238469E+03  0.99656238470E+03  0.50400001928E-02 0.  1.
    10030    2    1    2    0    0  0.00000000000E+00  0.00000000000E+00  0.11118034481E+04  0.31049282175E+04  0.28990467966E+04 0.  0.
        4    1    3    3  502    0  0.33790316568E+03 -0.10599538838E+03 -0.94951645720E+03  0.10134084503E+04  0.12699999809E+01 0.  1.
       -4    1    3    3    0  502 -0.33790316568E+03  0.10599538838E+03  0.20613199053E+04  0.20915197672E+04  0.12699999809E+01 0. -1.
</event>
<event>
 5   0  0.2360103E-06  0.2898348E+04  0.7818609E-02  0.8273369E-01
       -2   -1    0    0    0  501  0.00000000000E+00  0.00000000000E+00  0.10414830483E+04  0.10414830483E+04  0.25500000920E-02 0.  1.
        2   -1    0    0  501    0  0.00000000000E+00  0.00000000000E+00 -0.20164569229E+04  0.20164569229E+04  0.25500000920E-02 0. -1.
    10030    2    1    2    0    0  0.00000000000E+00  0.00000000000E+00 -0.97497387460E+03  0.30579399711E+04  0.28983482901E+04 0.  0.
        4    1    3    3  502    0 -0.24239938140E+03 -0.89821449952E+03  0.68480024471E+03  0.11552054948E+04  0.12699999809E+01 0.  1.
       -4    1    3    3    0  502  0.24239938140E+03  0.89821449952E+03 -0.16597741193E+04  0.19027344763E+04  0.12699999809E+01 0. -1.
</event>
<event>
 5   0  0.2425845E-06  0.2902745E+04  0.7818609E-02  0.8272061E-01
       -2   -1    0    0    0  501  0.00000000000E+00  0.00000000000E+00  0.13708725440E+04  0.13708725440E+04  0.25500000920E-02 0. -1.
        2   -1    0    0  501    0  0.00000000000E+00  0.00000000000E+00 -0.15365997071E+04  0.15365997071E+04  0.25500000920E-02 0.  1.
    10030    2    1    2    0    0  0.00000000000E+00  0.00000000000E+00 -0.16572716313E+03  0.29074722510E+04  0.29027451486E+04 0.  0.
        2    1    3    3  502    0  0.61209279189E+03  0.68640142668E+03 -0.12074911646E+04  0.15178403793E+04  0.25500000920E-02 0.  1.
       -2    1    3    3    0  502 -0.61209279189E+03 -0.68640142668E+03  0.10417640014E+04  0.13896318718E+04  0.25500000920E-02 0. -1.
</event>
<event>
 5   0  0.8357118E-07  0.2884268E+04  0.7818609E-02  0.8277574E-01
       -1   -1    0    0    0  501  0.00000000000E+00  0.00000000000E+00  0.13641965744E+04  0.13641965744E+04  0.50400001928E-02 0. -1.
        1   -1    0    0  501    0  0.00000000000E+00  0.00000000000E+00 -0.15245243513E+04  0.15245243513E+04  0.50400001928E-02 0.  1.
    10030    2    1    2    0    0  0.00000000000E+00  0.00000000000E+00 -0.16032777693E+03  0.28887209257E+04  0.28842682938E+04 0.  0.
        1    1    3    3  502    0 -0.14000666917E+04 -0.33168440400E+03  0.17709090097E+02  0.14389283850E+04  0.50400001928E-02 0.  1.
       -1    1    3    3    0  502  0.14000666917E+04  0.33168440400E+03 -0.17803686703E+03  0.14497925407E+04  0.50400001928E-02 0. -1.
</event>
<event>
 5   0  0.2325590E-06  0.2899809E+04  0.7818609E-02  0.8272934E-01
       -2   -1    0    0    0  501  0.00000000000E+00  0.00000000000E+00  0.15149310382E+04  0.15149310382E+04  0.25500000920E-02 0. -1.
        2   -1    0    0  501    0  0.00000000000E+00  0.00000000000E+00 -0.13876692507E+04  0.13876692507E+04  0.25500000920E-02 0.  1.
    10030    2    1    2    0    0  0.00000000000E+00  0.00000000000E+00  0.12726178753E+03  0.29026002890E+04  0.28998091101E+04 0.  0.
        5    1    3    3  502    0  0.25547158500E+03 -0.15936342264E+03 -0.13560215036E+04  0.13890568165E+04  0.46999998093E+01 0.  1.
       -5    1    3    3    0  502 -0.25547158500E+03  0.15936342264E+03  0.14832832911E+04  0.15135434725E+04  0.46999998093E+01 0. -1.
</event>
<event>
 5   0  0.8947674E-07  0.2932623E+04  0.7818609E-02  0.8263237E-01
        1   -1    0    0  501    0  0.00000000000E+00  0.00000000000E+00  0.14900062928E+04  0.14900062928E+04  0.50400001928E-02 0. -1.
       -1   -1    0    0    0  501  0.00000000000E+00  0.00000000000E+00 -0.14429931095E+04  0.14429931095E+04  0.50400001928E-02 0.  1.
    10030    2    1    2    0    0  0.00000000000E+00  0.00000000000E+00  0.47013183307E+02  0.29329994024E+04  0.29326225899E+04 0.  0.
        3    1    3    3  502    0 -0.97671737058E+03 -0.10640243535E+04 -0.22939771863E+03  0.14624458863E+04  0.10100000352E+00 0.  1.
       -3    1    3    3    0  502  0.97671737058E+03  0.10640243535E+04  0.27641090193E+03  0.14705535161E+04  0.10100000352E+00 0. -1.
</event>
<event>
 5   0  0.2360103E-06  0.2903768E+04  0.7818609E-02  0.8271757E-01
        2   -1    0    0  501    0  0.00000000000E+00  0.00000000000E+00  0.23424083434E+04  0.23424083434E+04  0.25500000920E-02 0.  1.
       -2   -1    0    0    0  501  0.00000000000E+00  0.00000000000E+00 -0.89991443163E+03  0.89991443164E+03  0.25500000920E-02 0. -1.
    10030    2    1    2    0    0  0.00000000000E+00  0.00000000000E+00  0.14424939118E+04  0.32423227751E+04  0.29037679474E+04 0.  0.
        4    1    3    3  502    0  0.60236721845E+03 -0.66171921354E+03  0.19979007677E+04  0.21891385690E+04  0.12699999809E+01 0.  1.
       -4    1    3    3    0  502 -0.60236721845E+03  0.66171921354E+03 -0.55540685596E+03  0.10531842061E+04  0.12699999809E+01 0. -1.
</event>
<event>
 5   0  0.8483636E-07  0.2882655E+04  0.7818609E-02  0.8278057E-01
        1   -1    0    0  501    0  0.00000000000E+00  0.00000000000E+00  0.16448278933E+04  0.16448278933E+04  0.50400001928E-02 0.  1.
       -1   -1    0    0    0  501  0.00000000000E+00  0.00000000000E+00 -0.12630042449E+04  0.12630042449E+04  0.50400001928E-02 0. -1.
    10030    2    1    2    0    0  0.00000000000E+00  0.00000000000E+00  0.38182364838E+03  0.29078321382E+04  0.28826547566E+04 0.  0.
        2    1    3    3  502    0  0.86794149471E+03 -0.72585368340E+02  0.13493468805E+04  0.16060286666E+04  0.25500000920E-02 0.  1.
       -2    1    3    3    0  502 -0.86794149471E+03  0.72585368340E+02 -0.96752323215E+03  0.13018034716E+04  0.25500000920E-02 0. -1.
</event>
<event>
 5   0  0.8947674E-07  0.2899860E+04  0.7818609E-02  0.8272919E-01
       -1   -1    0    0    0  501  0.00000000000E+00  0.00000000000E+00  0.11186490281E+04  0.11186490281E+04  0.50400001928E-02 0.  1.
        1   -1    0    0  501    0  0.00000000000E+00  0.00000000000E+00 -0.18793175351E+04  0.18793175351E+04  0.50400001928E-02 0. -1.
    10030    2    1    2    0    0  0.00000000000E+00  0.00000000000E+00 -0.76066850696E+03  0.29979665632E+04  0.28998598133E+04 0.  0.
        3    1    3    3  502    0 -0.61410090830E+03  0.92336122325E+03 -0.13460573539E+04  0.17440144164E+04  0.10100000352E+00 0. -1.
       -3    1    3    3    0  502  0.61410090830E+03 -0.92336122325E+03  0.58538884698E+03  0.12539521468E+04  0.10100000352E+00 0.  1.
</event>
<event>
 5   0  0.8357118E-07  0.2905886E+04  0.7818609E-02  0.8271128E-01
       -1   -1    0    0    0  501  0.00000000000E+00  0.00000000000E+00  0.12042556381E+04  0.12042556381E+04  0.50400001928E-02 0.  1.
        1   -1    0    0  501    0  0.00000000000E+00  0.00000000000E+00 -0.17529855883E+04  0.17529855884E+04  0.50400001928E-02 0. -1.
    10030    2    1    2    0    0  0.00000000000E+00  0.00000000000E+00 -0.54872995021E+03  0.29572412265E+04  0.29058855988E+04 0.  0.
        1    1    3    3  502    0  0.20996516501E+03  0.41772752543E+02 -0.17368472328E+04  0.17499910409E+04  0.50400001928E-02 0. -1.
       -1    1    3    3    0  502 -0.20996516501E+03 -0.41772752543E+02  0.11881172826E+04  0.12072501856E+04  0.50400001928E-02 0.  1.
</event>
<event>
 5   0  0.8947674E-07  0.2891854E+04  0.7818609E-02  0.8275305E-01
       -1   -1    0    0    0  501  0.00000000000E+00  0.00000000000E+00  0.15262186500E+04  0.15262186500E+04  0.50400001928E-02 0.  1.
        1   -1    0    0  501    0  0.00000000000E+00  0.00000000000E+00 -0.13698590052E+04  0.13698590053E+04  0.50400001928E-02 0. -1.
    10030    2    1    2    0    0  0.00000000000E+00  0.00000000000E+00  0.15635964479E+03  0.28960776553E+04  0.28918536351E+04 0.  0.
        3    1    3    3  502    0 -0.16047434073E+03 -0.43855158303E+03  0.14486174843E+04  0.15220289521E+04  0.10100000352E+00 0.  1.
       -3    1    3    3    0  502  0.16047434073E+03  0.43855158303E+03 -0.12922578395E+04  0.13740487032E+04  0.10100000352E+00 0. -1.
</event>
<event>
 5   0  0.2360103E-06  0.2900768E+04  0.7818609E-02  0.8272649E-01
       -2   -1    0    0    0  501  0.00000000000E+00  0.00000000000E+00  0.91918365736E+03  0.91918365736E+03  0.25500000920E-02 0. -1.
        2   -1    0    0  501    0  0.00000000000E+00  0.00000000000E+00 -0.22885677016E+04  0.22885677016E+04  0.25500000920E-02 0.  1.
    10030    2    1    2    0    0  0.00000000000E+00  0.00000000000E+00 -0.13693840443E+04  0.32077513590E+04  0.29007681949E+04 0.  0.
        4    1    3    3  502    0  0.28935585883E+03 -0.90196149710E+02  0.88377252143E+03  0.93430061597E+03  0.12699999809E+01 0. -1.
       -4    1    3    3    0  502 -0.28935585883E+03  0.90196149710E+02 -0.22531565657E+04  0.22734507430E+04  0.12699999809E+01 0.  1.
</event>
<event>
 5   0  0.2304435E-06  0.2901049E+04  0.7818609E-02  0.8272566E-01
       -2   -1    0    0    0  501  0.00000000000E+00  0.00000000000E+00  0.16162038462E+04  0.16162038462E+04  0.25500000920E-02 0. -1.
        2   -1    0    0  501    0  0.00000000000E+00  0.00000000000E+00 -0.13018287704E+04  0.13018287704E+04  0.25500000920E-02 0.  1.
    10030    2    1    2    0    0  0.00000000000E+00  0.00000000000E+00  0.31437507586E+03  0.29180326166E+04  0.29010485455E+04 0.  0.
        1    1    3    3  502    0  0.53928753819E+03  0.62169546469E+03 -0.10442441900E+04  0.13295797186E+04  0.50400001928E-02 0.  1.
       -1    1    3    3    0  502 -0.53928753819E+03 -0.62169546469E+03  0.13586192658E+04  0.15884528980E+04  0.50400001928E-02 0. -1.
</event>
<event>
 5   0  0.8483636E-07  0.2903084E+04  0.7818609E-02  0.8271960E-01
        1   -1    0    0  501    0  0.00000000000E+00  0.00000000000E+00  0.99067119002E+03  0.99067119004E+03  0.50400001928E-02 0.  1.
       -1   -1    0    0    0  501  0.00000000000E+00  0.00000000000E+00 -0.21268152043E+04  0.21268152044E+04  0.50400001928E-02 0. -1.
    10030    2    1    2    0    0  0.00000000000E+00  0.00000000000E+00 -0.11361440143E+04  0.31174863944E+04  0.29030842561E+04 0.  0.
        2    1    3    3  502    0 -0.14358006418E+04  0.21313790737E+03 -0.57325538721E+03  0.15606322403E+04  0.25500000920E-02 0. -1.
       -2    1    3    3    0  502  0.14358006418E+04 -0.21313790737E+03 -0.56288862711E+03  0.15568541541E+04  0.25500000920E-02 0.  1.
</event>
<event>
 5   0  0.8483636E-07  0.2917930E+04  0.7818609E-02  0.8267563E-01
       -1   -1    0    0    0  501  0.00000000000E+00  0.00000000000E+00  0.76147208651E+03  0.76147208653E+03  0.50400001928E-02 0.  1.
        1   -1    0    0  501    0  0.00000000000E+00  0.00000000000E+00 -0.27953478100E+04  0.27953478100E+04  0.50400001928E-02 0. -1.
    10030    2    1    2    0    0  0.00000000000E+00  0.00000000000E+00 -0.20338757235E+04  0.35568198966E+04  0.29179303141E+04 0.  0.
        2    1    3    3  502    0 -0.54436291686E+03 -0.16399742891E+03 -0.26547649415E+04  0.27149591225E+04  0.25500000920E-02 0. -1.
       -2    1    3    3    0  502  0.54436291686E+03  0.16399742891E+03  0.62088921799E+03  0.84186077410E+03  0.25500000920E-02 0.  1.
</event>
<event>
 5   0  0.7621125E-07  0.2903331E+04  0.7818609E-02  0.8271887E-01
       -3   -1    0    0    0  501  0.00000000000E+00  0.00000000000E+00  0.86708584709E+03  0.86708585298E+03  0.10100000352E+00 0.  1.
        3   -1    0    0  501    0  0.00000000000E+00  0.00000000000E+00 -0.24303621603E+04  0.24303621624E+04  0.10100000352E+00 0. -1.
    10030    2    1    2    0    0  0.00000000000E+00  0.00000000000E+00 -0.15632763132E+04  0.32974480154E+04  0.29033309461E+04 0.  0.
        4    1    3    3  502    0  0.34677283298E+03  0.76790334977E+03 -0.21242250955E+04  0.22852266456E+04  0.12699999809E+01 0. -1.
       -4    1    3    3    0  502 -0.34677283298E+03 -0.76790334977E+03  0.56094878229E+03  0.10122213698E+04  0.12699999809E+01 0.  1.
</event>
<event>
 5   0  0.2360103E-06  0.2910548E+04  0.7818609E-02  0.8269746E-01
       -2   -1    0    0    0  501  0.00000000000E+00  0.00000000000E+00  0.11636216389E+04  0.11636216389E+04  0.25500000920E-02 0. -1.
        2   -1    0    0  501    0  0.00000000000E+00  0.00000000000E+00 -0.18200264227E+04  0.18200264227E+04  0.25500000920E-02 0.  1.
    10030    2    1    2    0    0  0.00000000000E+00  0.00000000000E+00 -0.65640478372E+03  0.29836480616E+04  0.29105478033E+04 0.  0.
        4    1    3    3  502    0  0.94880715105E+03  0.40481180853E+03 -0.13804889126E+04  0.17233278448E+04  0.12699999809E+01 0.  1.
       -4    1    3    3    0  502 -0.94880715105E+03 -0.40481180853E+03  0.72408412884E+03  0.12603202167E+04  0.12699999809E+01 0. -1.
</event>
<event>
 5   0  0.8947674E-07  0.2759656E+04  0.7818609E-02  0.8315904E-01
       -1   -1    0    0    0  501  0.00000000000E+00  0.00000000000E+00  0.75427858087E+03  0.75427858089E+03  0.50400001928E-02 0.  1.
        1   -1    0    0  501    0  0.00000000000E+00  0.00000000000E+00 -0.25241675263E+04  0.25241675263E+04  0.50400001928E-02 0. -1.
    10030    2    1    2    0    0  0.00000000000E+00  0.00000000000E+00 -0.17698889454E+04  0.32784461072E+04  0.27596561378E+04 0.  0.
        3    1    3    3  502    0  0.19417619588E+03 -0.13554184690E+04 -0.68242124407E+03  0.15298896646E+04  0.10100000352E+00 0. -1.
       -3    1    3    3    0  502 -0.19417619588E+03  0.13554184690E+04 -0.10874677014E+04  0.17485564426E+04  0.10100000352E+00 0.  1.
</event>
<event>
 5   0  0.2360103E-06  0.2896736E+04  0.7818609E-02  0.8273849E-01
        2   -1    0    0  501    0  0.00000000000E+00  0.00000000000E+00  0.18407103063E+04  0.18407103064E+04  0.25500000920E-02 0. -1.
       -2   -1    0    0    0  501  0.00000000000E+00  0.00000000000E+00 -0.11396523480E+04  0.11396523480E+04  0.25500000920E-02 0.  1.
    10030    2    1    2    0    0  0.00000000000E+00  0.00000000000E+00  0.70105795835E+03  0.29803626544E+04  0.28967359718E+04 0.  0.
        4    1    3    3  502    0 -0.96939486001E+03  0.66410295211E+03  0.12217383324E+04  0.16951121766E+04  0.12699999809E+01 0. -1.
       -4    1    3    3    0  502  0.96939486001E+03 -0.66410295211E+03 -0.52068037407E+03  0.12852504777E+04  0.12699999809E+01 0.  1.
</event>
<event>
 5   0  0.8947674E-07  0.2865274E+04  0.7818609E-02  0.8283285E-01
       -1   -1    0    0    0  501  0.00000000000E+00  0.00000000000E+00  0.81574864904E+03  0.81574864905E+03  0.50400001928E-02 0. -1.
        1   -1    0    0  501    0  0.00000000000E+00  0.00000000000E+00 -0.25160304382E+04  0.25160304382E+04  0.50400001928E-02 0.  1.
    10030    2    1    2    0    0  0.00000000000E+00  0.00000000000E+00 -0.17002817892E+04  0.33317790873E+04  0.28652737607E+04 0.  0.
        3    1    3    3  502    0  0.26502941352E+03 -0.76883753568E+03 -0.22216185346E+04  0.23657854234E+04  0.10100000352E+00 0.  1.
       -3    1    3    3    0  502 -0.26502941352E+03  0.76883753568E+03  0.52133674540E+03  0.96599366385E+03  0.10100000352E+00 0. -1.
</event>
<event>
 5   0  0.8947674E-07  0.2898003E+04  0.7818609E-02  0.8273472E-01
        1   -1    0    0  501    0  0.00000000000E+00  0.00000000000E+00  0.25762546892E+04  0.25762546892E+04  0.50400001928E-02 0.  1.
       -1   -1    0    0    0  501  0.00000000000E+00  0.00000000000E+00 -0.81498383320E+03  0.81498383322E+03  0.50400001928E-02 0. -1.
    10030    2    1    2    0    0  0.00000000000E+00  0.00000000000E+00  0.17612708560E+04  0.33912385224E+04  0.28980033968E+04 0.  0.
        3    1    3    3  502    0 -0.75198166285E+02  0.14391247881E+04  0.70366449232E+03  0.16037077813E+04  0.10100000352E+00 0.  1.
       -3    1    3    3    0  502  0.75198166285E+02 -0.14391247881E+04  0.10576063637E+04  0.17875307411E+04  0.10100000352E+00 0. -1.
</event>
<event>
 5   0  0.2304435E-06  0.2896816E+04  0.7818609E-02  0.8273825E-01
        2   -1    0    0  501    0  0.00000000000E+00  0.00000000000E+00  0.15116268797E+04  0.15116268798E+04  0.25500000920E-02 0. -1.
       -2   -1    0    0    0  501  0.00000000000E+00  0.00000000000E+00 -0.13878335219E+04  0.13878335219E+04  0.25500000920E-02 0.  1.
    10030    2    1    2    0    0  0.00000000000E+00  0.00000000000E+00  0.12379335785E+03  0.28994604016E+04  0.28968164984E+04 0.  0.
        1    1    3    3  502    0  0.12914684121E+04 -0.59328365167E+03  0.34145484721E+03  0.14616660232E+04  0.50400001928E-02 0. -1.
       -1    1    3    3    0  502 -0.12914684121E+04  0.59328365167E+03 -0.21766148935E+03  0.14377943784E+04  0.50400001928E-02 0.  1.
</event>
<event>
 5   0  0.2304435E-06  0.2899873E+04  0.7818609E-02  0.8272915E-01
        2   -1    0    0  501    0  0.00000000000E+00  0.00000000000E+00  0.21988603825E+04  0.21988603825E+04  0.25500000920E-02 0.  1.
       -2   -1    0    0    0  501  0.00000000000E+00  0.00000000000E+00 -0.95609320774E+03  0.95609320774E+03  0.25500000920E-02 0. -1.
    10030    2    1    2    0    0  0.00000000000E+00  0.00000000000E+00  0.12427671748E+04  0.31549535902E+04  0.28998727396E+04 0.  0.
        1    1    3    3  502    0 -0.87524811992E+03 -0.66767234867E+03  0.16480364986E+04  0.19818854501E+04  0.50400001928E-02 0.  1.
       -1    1    3    3    0  502  0.87524811992E+03  0.66767234867E+03 -0.40526932382E+03  0.11730681402E+04  0.50400001928E-02 0. -1.
</event>
<event>
 5   0  0.2360103E-06  0.2900841E+04  0.7818609E-02  0.8272627E-01
        2   -1    0    0  501    0  0.00000000000E+00  0.00000000000E+00  0.13120907087E+04  0.13120907087E+04  0.25500000920E-02 0. -1.
       -2   -1    0    0    0  501  0.00000000000E+00  0.00000000000E+00 -0.16033335138E+04  0.16033335138E+04  0.25500000920E-02 0.  1.
    10030    2    1    2    0    0  0.00000000000E+00  0.00000000000E+00 -0.29124280511E+03  0.29154242225E+04  0.29008405722E+04 0.  0.
        4    1    3    3  502    0 -0.12439461046E+02 -0.14282186632E+04  0.10814374040E+03  0.14323616763E+04  0.12699999809E+01 0. -1.
       -4    1    3    3    0  502  0.12439461046E+02  0.14282186632E+04 -0.39938654551E+03  0.14830625462E+04  0.12699999809E+01 0.  1.
</event>
<event>
 5   0  0.2360103E-06  0.2900227E+04  0.7818609E-02  0.8272810E-01
       -2   -1    0    0    0  501  0.00000000000E+00  0.00000000000E+00  0.12162174480E+04  0.12162174480E+04  0.25500000920E-02 0. -1.
        2   -1    0    0  501    0  0.00000000000E+00  0.00000000000E+00 -0.17289915405E+04  0.17289915405E+04  0.25500000920E-02 0.  1.
    10030    2    1    2    0    0  0.00000000000E+00  0.00000000000E+00 -0.51277409245E+03  0.29452089885E+04  0.29002273559E+04 0.  0.
        4    1    3    3  502    0 -0.86296563688E+03 -0.83820323559E+03  0.56582074519E+03  0.13294544306E+04  0.12699999809E+01 0. -1.
       -4    1    3    3    0  502  0.86296563688E+03  0.83820323559E+03 -0.10785948376E+04  0.16157545579E+04  0.12699999809E+01 0.  1.
</event>
<event>
 5   0  0.8357118E-07  0.2884919E+04  0.7818609E-02  0.8277379E-01
        1   -1    0    0  501    0  0.00000000000E+00  0.00000000000E+00  0.18302165912E+04  0.18302165912E+04  0.50400001928E-02 0. -1.
       -1   -1    0    0    0  501  0.00000000000E+00  0.00000000000E+00 -0.11368538147E+04  0.11368538147E+04  0.50400001928E-02 0.  1.
    10030    2    1    2    0    0  0.00000000000E+00  0.00000000000E+00  0.69336277649E+03  0.29670704060E+04  0.28849185178E+04 0.  0.
        1    1    3    3  502    0 -0.50327963860E+03 -0.32966224911E+03 -0.10016511260E+04  0.11684487885E+04  0.50400001928E-02 0.  1.
       -1    1    3    3    0  502  0.50327963860E+03  0.32966224911E+03  0.16950139025E+04  0.17986216175E+04  0.50400001928E-02 0. -1.
</event>
<event>
 5   0  0.8947674E-07  0.2912586E+04  0.7818609E-02  0.8269143E-01
       -1   -1    0    0    0  501  0.00000000000E+00  0.00000000000E+00  0.87260740802E+03  0.87260740803E+03  0.50400001928E-02 0.  1.
        1   -1    0    0  501    0  0.00000000000E+00  0.00000000000E+00 -0.24304048530E+04  0.24304048530E+04  0.50400001928E-02 0. -1.
    10030    2    1    2    0    0  0.00000000000E+00  0.00000000000E+00 -0.15577974449E+04  0.33030122610E+04  0.29125859845E+04 0.  0.
        3    1    3    3  502    0  0.71510569829E+03 -0.11199790360E+04 -0.10315449176E+03  0.13328053347E+04  0.10100000352E+00 0.  1.
       -3    1    3    3    0  502 -0.71510569829E+03  0.11199790360E+04 -0.14546429532E+04  0.19702069263E+04  0.10100000352E+00 0. -1.
</event>
<event>
 5   0  0.2425845E-06  0.2896218E+04  0.7818609E-02  0.8274004E-01
        2   -1    0    0  501    0  0.00000000000E+00  0.00000000000E+00  0.14641910930E+04  0.14641910930E+04  0.25500000920E-02 0.  1.
       -2   -1    0    0    0  501  0.00000000000E+00  0.00000000000E+00 -0.14322038724E+04  0.14322038724E+04  0.25500000920E-02 0. -1.
    10030    2    1    2    0    0  0.00000000000E+00  0.00000000000E+00  0.31987220590E+02  0.28963949653E+04  0.28962183297E+04 0.  0.
        2    1    3    3  502    0  0.18187433380E+03 -0.66734438465E+03 -0.12563234842E+04  0.14341462611E+04  0.25500000920E-02 0. -1.
       -2    1    3    3    0  502 -0.18187433380E+03  0.66734438465E+03  0.12883107048E+04  0.14622487043E+04  0.25500000920E-02 0.  1.
</event>
<event>
 5   0  0.8483636E-07  0.2911646E+04  0.7818609E-02  0.8269421E-01
        1   -1    0    0  501    0  0.00000000000E+00  0.00000000000E+00  0.11484481831E+04  0.11484481831E+04  0.50400001928E-02 0. -1.
       -1   -1    0    0    0  501  0.00000000000E+00  0.00000000000E+00 -0.18454648588E+04  0.18454648588E+04  0.50400001928E-02 0.  1.
    10030    2    1    2    0    0  0.00000000000E+00  0.00000000000E+00 -0.69701667571E+03  0.29939130420E+04  0.29116461077E+04 0.  0.
        2    1    3    3  502    0  0.10296517600E+04  0.61813578359E+03  0.49763084622E+03  0.12999657891E+04  0.25500000920E-02 0.  1.
       -2    1    3    3    0  502 -0.10296517600E+04 -0.61813578359E+03 -0.11946475219E+04  0.16939472528E+04  0.25500000920E-02 0. -1.
</event>
<event>
 5   0  0.8355946E-07  0.2905300E+04  0.7818609E-02  0.8271302E-01
       -1   -1    0    0    0  501  0.00000000000E+00  0.00000000000E+00  0.18682427944E+04  0.18682427944E+04  0.50400001928E-02 0.  1.
        1   -1    0    0  501    0  0.00000000000E+00  0.00000000000E+00 -0.11295065910E+04  0.11295065910E+04  0.50400001928E-02 0. -1.
    10030    2    1    2    0    0  0.00000000000E+00  0.00000000000E+00  0.73873620341E+03  0.29977493854E+04  0.29053003630E+04 0.  0.
        4    1    3    3  502    0  0.67394505167E+02 -0.66355185478E+03 -0.96217970958E+03  0.11707410003E+04  0.12699999809E+01 0. -1.
       -4    1    3    3    0  502 -0.67394505167E+02  0.66355185478E+03  0.17009159130E+04  0.18270083851E+04  0.12699999809E+01 0.  1.
</event>
<event>
 5   0  0.8355946E-07  0.2897435E+04  0.7818609E-02  0.8273641E-01
        1   -1    0    0  501    0  0.00000000000E+00  0.00000000000E+00  0.22622142100E+04  0.22622142100E+04  0.50400001928E-02 0.  1.
       -1   -1    0    0    0  501  0.00000000000E+00  0.00000000000E+00 -0.92775574908E+03  0.92775574909E+03  0.50400001928E-02 0. -1.
    10030    2    1    2    0    0  0.00000000000E+00  0.00000000000E+00  0.13344584609E+04  0.31899699591E+04  0.28974348924E+04 0.  0.
        4    1    3    3  502    0  0.34839589205E+03  0.22585265407E+03  0.21953060400E+04  0.22342245503E+04  0.12699999809E+01 0.  1.
       -4    1    3    3    0  502 -0.34839589205E+03 -0.22585265407E+03 -0.86084757913E+03  0.95574540875E+03  0.12699999809E+01 0. -1.
</event>
<event>
 5   0  0.2425845E-06  0.2908493E+04  0.7818609E-02  0.8270355E-01
       -2   -1    0    0    0  501  0.00000000000E+00  0.00000000000E+00  0.97246853535E+03  0.97246853535E+03  0.25500000920E-02 0. -1.
        2   -1    0    0  501    0  0.00000000000E+00  0.00000000000E+00 -0.21747052989E+04  0.21747052989E+04  0.25500000920E-02 0.  1.
    10030    2    1    2    0    0  0.00000000000E+00  0.00000000000E+00 -0.12022367635E+04  0.31471738342E+04  0.29084927209E+04 0.  0.
        2    1    3    3  502    0  0.11015131301E+04 -0.51618872393E+03 -0.14634153964E+04  0.19029888589E+04  0.25500000920E-02 0.  1.
       -2    1    3    3    0  502 -0.11015131301E+04  0.51618872393E+03  0.26117863290E+03  0.12441849753E+04  0.25500000920E-02 0. -1.
</event>
<event>
 5   0  0.8357118E-07  0.2919628E+04  0.7818609E-02  0.8267061E-01
       -1   -1    0    0    0  501  0.00000000000E+00  0.00000000000E+00  0.13138529890E+04  0.13138529891E+04  0.50400001928E-02 0. -1.
        1   -1    0    0  501    0  0.00000000000E+00  0.00000000000E+00 -0.16219902827E+04  0.16219902827E+04  0.50400001928E-02 0.  1.
    10030    2    1    2    0    0  0.00000000000E+00  0.00000000000E+00 -0.30813729367E+03  0.29358432718E+04  0.29196279086E+04 0.  0.
        1    1    3    3  502    0  0.81896955079E+02  0.10597424903E+04 -0.11602737100E+04  0.15735298978E+04  0.50400001928E-02 0.  1.
       -1    1    3    3    0  502 -0.81896955079E+02 -0.10597424903E+04  0.85213641637E+03  0.13623133740E+04  0.50400001928E-02 0. -1.
</event>
<event>
 5   0  0.2425845E-06  0.2900700E+04  0.7818609E-02  0.8272669E-01
       -2   -1    0    0    0  501  0.00000000000E+00  0.00000000000E+00  0.15040719118E+04  0.15040719118E+04  0.25500000920E-02 0. -1.
        2   -1    0    0  501    0  0.00000000000E+00  0.00000000000E+00 -0.13985465216E+04  0.13985465216E+04  0.25500000920E-02 0.  1.
    10030    2    1    2    0    0  0.00000000000E+00  0.00000000000E+00  0.10552539015E+03  0.29026184334E+04  0.29006995987E+04 0.  0.
        2    1    3    3  502    0  0.33862371628E+03 -0.58455314280E+03  0.13370235963E+04  0.14979988302E+04  0.25500000920E-02 0. -1.
       -2    1    3    3    0  502 -0.33862371628E+03  0.58455314280E+03 -0.12314982062E+04  0.14046196033E+04  0.25500000920E-02 0.  1.
</event>
<event>
 5   0  0.2425845E-06  0.2906785E+04  0.7818609E-02  0.8270862E-01
        2   -1    0    0  501    0  0.00000000000E+00  0.00000000000E+00  0.13433798133E+04  0.13433798133E+04  0.25500000920E-02 0. -1.
       -2   -1    0    0    0  501  0.00000000000E+00  0.00000000000E+00 -0.15724139423E+04  0.15724139423E+04  0.25500000920E-02 0.  1.
    10030    2    1    2    0    0  0.00000000000E+00  0.00000000000E+00 -0.22903412892E+03  0.29157937556E+04  0.29067845797E+04 0.  0.
        2    1    3    3  502    0  0.22484677263E+03  0.64927239856E+03  0.11701702785E+04  0.13569853349E+04  0.25500000920E-02 0. -1.
       -2    1    3    3    0  502 -0.22484677263E+03 -0.64927239856E+03 -0.13992044074E+04  0.15588084207E+04  0.25500000920E-02 0.  1.
</event>
<event>
 5   0  0.2425845E-06  0.2899274E+04  0.7818609E-02  0.8273094E-01
       -2   -1    0    0    0  501  0.00000000000E+00  0.00000000000E+00  0.15099861005E+04  0.15099861005E+04  0.25500000920E-02 0. -1.
        2   -1    0    0  501    0  0.00000000000E+00  0.00000000000E+00 -0.13916997901E+04  0.13916997901E+04  0.25500000920E-02 0.  1.
    10030    2    1    2    0    0  0.00000000000E+00  0.00000000000E+00  0.11828631043E+03  0.29016858906E+04  0.28992739361E+04 0.  0.
        2    1    3    3  502    0  0.48355044178E+03 -0.83509181570E+03 -0.10235367958E+04  0.14067078385E+04  0.25500000920E-02 0.  1.
       -2    1    3    3    0  502 -0.48355044178E+03  0.83509181570E+03  0.11418231063E+04  0.14949780522E+04  0.25500000920E-02 0. -1.
</event>
<event>
 5   0  0.2304435E-06  0.2899052E+04  0.7818609E-02  0.8273160E-01
        2   -1    0    0  501    0  0.00000000000E+00  0.00000000000E+00  0.17264388396E+04  0.17264388396E+04  0.25500000920E-02 0.  1.
       -2   -1    0    0    0  501  0.00000000000E+00  0.00000000000E+00 -0.12170286698E+04  0.12170286698E+04  0.25500000920E-02 0. -1.
    10030    2    1    2    0    0  0.00000000000E+00  0.00000000000E+00  0.50941016988E+03  0.29434675094E+04  0.28990519585E+04 0.  0.
        1    1    3    3  502    0 -0.95935710170E+03  0.51186937577E+03  0.12279042954E+04  0.16401601340E+04  0.50400001928E-02 0.  1.
       -1    1    3    3    0  502  0.95935710170E+03 -0.51186937577E+03 -0.71849412551E+03  0.13033073754E+04  0.50400001928E-02 0. -1.
</event>
<event>
 5   0  0.8483636E-07  0.2907300E+04  0.7818609E-02  0.8270709E-01
       -1   -1    0    0    0  501  0.00000000000E+00  0.00000000000E+00  0.13615167983E+04  0.13615167983E+04  0.50400001928E-02 0.  1.
        1   -1    0    0  501    0  0.00000000000E+00  0.00000000000E+00 -0.15520175939E+04  0.15520175939E+04  0.50400001928E-02 0. -1.
    10030    2    1    2    0    0  0.00000000000E+00  0.00000000000E+00 -0.19050079557E+03  0.29135343922E+04  0.29072997956E+04 0.  0.
        2    1    3    3  502    0  0.84322668677E+03 -0.60196280877E+03  0.92659673702E+03  0.13899539494E+04  0.25500000920E-02 0.  1.
       -2    1    3    3    0  502 -0.84322668677E+03  0.60196280877E+03 -0.11170975326E+04  0.15235804428E+04  0.25500000920E-02 0. -1.
</event>
<event>
 5   0  0.2360103E-06  0.2909160E+04  0.7818609E-02  0.8270157E-01
        2   -1    0    0  501    0  0.00000000000E+00  0.00000000000E+00  0.24357814604E+04  0.24357814604E+04  0.25500000920E-02 0. -1.
       -2   -1    0    0    0  501  0.00000000000E+00  0.00000000000E+00 -0.86863389283E+03  0.86863389283E+03  0.25500000920E-02 0.  1.
    10030    2    1    2    0    0  0.00000000000E+00  0.00000000000E+00  0.15671475675E+04  0.33044153532E+04  0.29091595570E+04 0.  0.
        4    1    3    3  502    0  0.69491377399E+03  0.70809019321E+03 -0.42467149503E+03  0.10791869007E+04  0.12699999809E+01 0.  1.
       -4    1    3    3    0  502 -0.69491377399E+03 -0.70809019321E+03  0.19918190626E+04  0.22252284525E+04  0.12699999809E+01 0. -1.
</event>
<event>
 5   0  0.2325590E-06  0.2900261E+04  0.7818609E-02  0.8272800E-01
        2   -1    0    0  501    0  0.00000000000E+00  0.00000000000E+00  0.70501349072E+03  0.70501349072E+03  0.25500000920E-02 0. -1.
       -2   -1    0    0    0  501  0.00000000000E+00  0.00000000000E+00 -0.29827494863E+04  0.29827494863E+04  0.25500000920E-02 0.  1.
    10030    2    1    2    0    0  0.00000000000E+00  0.00000000000E+00 -0.22777359956E+04  0.36877629771E+04  0.29002611105E+04 0.  0.
        5    1    3    3  502    0  0.26435552024E+03 -0.60908305141E+03  0.50036305875E+03  0.83141523029E+03  0.46999998093E+01 0. -1.
       -5    1    3    3    0  502 -0.26435552024E+03  0.60908305141E+03 -0.27780990544E+04  0.28563477468E+04  0.46999998093E+01 0.  1.
</event>
<event>
 5   0  0.8263673E-07  0.2899246E+04  0.7818609E-02  0.8273102E-01
        1   -1    0    0  501    0  0.00000000000E+00  0.00000000000E+00  0.27237645796E+04  0.27237645796E+04  0.50400001928E-02 0.  1.
       -1   -1    0    0    0  501  0.00000000000E+00  0.00000000000E+00 -0.77150812981E+03  0.77150812983E+03  0.50400001928E-02 0. -1.
    10030    2    1    2    0    0  0.00000000000E+00  0.00000000000E+00  0.19522564497E+04  0.34952727094E+04  0.28992457756E+04 0.  0.
        5    1    3    3  502    0 -0.95048015350E+03 -0.33176448033E+03  0.22335800819E+04  0.24499759723E+04  0.46999998093E+01 0.  1.
       -5    1    3    3    0  502  0.95048015350E+03  0.33176448033E+03 -0.28132363213E+03  0.10452967371E+04  0.46999998093E+01 0. -1.
</event>
<event>
 5   0  0.2325590E-06  0.2894366E+04  0.7818609E-02  0.8274556E-01
        2   -1    0    0  501    0  0.00000000000E+00  0.00000000000E+00  0.15684218999E+04  0.15684218999E+04  0.25500000920E-02 0. -1.
       -2   -1    0    0    0  501  0.00000000000E+00  0.00000000000E+00 -0.13353154019E+04  0.13353154019E+04  0.25500000920E-02 0.  1.
    10030    2    1    2    0    0  0.00000000000E+00  0.00000000000E+00  0.23310649794E+03  0.29037373018E+04  0.28943655053E+04 0.  0.
        5    1    3    3  502    0 -0.12606019235E+04  0.56126239464E+03  0.55406524128E+03  0.14869912800E+04  0.46999998093E+01 0. -1.
       -5    1    3    3    0  502  0.12606019235E+04 -0.56126239464E+03 -0.32095874334E+03  0.14167460218E+04  0.46999998093E+01 0.  1.
</event>
<event>
 5   0  0.8263673E-07  0.2892814E+04  0.7818609E-02  0.8275019E-01
        1   -1    0    0  501    0  0.00000000000E+00  0.00000000000E+00  0.21919860868E+04  0.21919860868E+04  0.50400001928E-02 0.  1.
       -1   -1    0    0    0  501  0.00000000000E+00  0.00000000000E+00 -0.95442836411E+03  0.95442836412E+03  0.50400001928E-02 0. -1.
    10030    2    1    2    0    0  0.00000000000E+00  0.00000000000E+00  0.12375577227E+04  0.31464144509E+04  0.28928143355E+04 0.  0.
        5    1    3    3  502    0  0.11762423942E+04  0.41393031770E+03 -0.17840438980E+03  0.12596565778E+04  0.46999998093E+01 0. -1.
       -5    1    3    3    0  502 -0.11762423942E+04 -0.41393031770E+03  0.14159621125E+04  0.18867578731E+04  0.46999998093E+01 0.  1.
</event>
<event>
 5   0  0.2325590E-06  0.2910226E+04  0.7818609E-02  0.8269842E-01
        2   -1    0    0  501    0  0.00000000000E+00  0.00000000000E+00  0.25101149576E+04  0.25101149576E+04  0.25500000920E-02 0. -1.
       -2   -1    0    0    0  501  0.00000000000E+00  0.00000000000E+00 -0.84352841201E+03  0.84352841202E+03  0.25500000920E-02 0.  1.
    10030    2    1    2    0    0  0.00000000000E+00  0.00000000000E+00  0.16665865455E+04  0.33536433696E+04  0.29102256161E+04 0.  0.
        5    1    3    3  502    0 -0.13560091453E+04 -0.45174358167E+03  0.51876267564E+03  0.15205163167E+04  0.46999998093E+01 0.  1.
       -5    1    3    3    0  502  0.13560091453E+04  0.45174358167E+03  0.11478238699E+04  0.18331270529E+04  0.46999998093E+01 0. -1.
</event>
<event>
 5   0  0.2425845E-06  0.2904372E+04  0.7818609E-02  0.8271578E-01
       -2   -1    0    0    0  501  0.00000000000E+00  0.00000000000E+00  0.20780156675E+04  0.20780156675E+04  0.25500000920E-02 0.  1.
        2   -1    0    0  501    0  0.00000000000E+00  0.00000000000E+00 -0.10148356112E+04  0.10148356112E+04  0.25500000920E-02 0. -1.
    10030    2    1    2    0    0  0.00000000000E+00  0.00000000000E+00  0.10631800563E+04  0.30928512786E+04  0.29043720835E+04 0.  0.
        2    1    3    3  502    0 -0.11807327183E+04  0.64120744740E+03  0.11183148496E+04  0.17481146546E+04  0.25500000920E-02 0.  1.
       -2    1    3    3    0  502  0.11807327183E+04 -0.64120744740E+03 -0.55134793307E+02  0.13447366241E+04  0.25500000920E-02 0. -1.
</event>
<event>
 5   0  0.8357118E-07  0.2926779E+04  0.7818609E-02  0.8264954E-01
       -1   -1    0    0    0  501  0.00000000000E+00  0.00000000000E+00  0.30144452597E+04  0.30144452597E+04  0.50400001928E-02 0. -1.
        1   -1    0    0  501    0  0.00000000000E+00  0.00000000000E+00 -0.71041560736E+03  0.71041560738E+03  0.50400001928E-02 0.  1.
    10030    2    1    2    0    0  0.00000000000E+00  0.00000000000E+00  0.23040296523E+04  0.37248608671E+04  0.29267790898E+04 0.  0.
        1    1    3    3  502    0  0.34746949811E+03 -0.11863301075E+04  0.15525585964E+03  0.12458806356E+04  0.50400001928E-02 0. -1.
       -1    1    3    3    0  502 -0.34746949811E+03  0.11863301075E+04  0.21487737927E+04  0.24789802315E+04  0.50400001928E-02 0.  1.
</event>
<event>
 5   0  0.8947674E-07  0.2893998E+04  0.7818609E-02  0.8274666E-01
        1   -1    0    0  501    0  0.00000000000E+00  0.00000000000E+00  0.17524458508E+04  0.17524458508E+04  0.50400001928E-02 0. -1.
       -1   -1    0    0    0  501  0.00000000000E+00  0.00000000000E+00 -0.11947904870E+04  0.11947904871E+04  0.50400001928E-02 0.  1.
    10030    2    1    2    0    0  0.00000000000E+00  0.00000000000E+00  0.55765536379E+03  0.29472363379E+04  0.28939976722E+04 0.  0.
        3    1    3    3  502    0  0.64157616933E+02 -0.98105784200E+02  0.17476024567E+04  0.17515294178E+04  0.10100000352E+00 0. -1.
       -3    1    3    3    0  502 -0.64157616933E+02  0.98105784200E+02 -0.11899470929E+04  0.11957069201E+04  0.10100000352E+00 0.  1.
</event>
<event>
 5   0  0.2360103E-06  0.2857814E+04  0.7818609E-02  0.8285541E-01
        2   -1    0    0  501    0  0.00000000000E+00  0.00000000000E+00  0.11941438794E+04  0.11941438794E+04  0.25500000920E-02 0.  1.
       -2   -1    0    0    0  501  0.00000000000E+00  0.00000000000E+00 -0.17098236168E+04  0.17098236168E+04  0.25500000920E-02 0. -1.
    10030    2    1    2    0    0  0.00000000000E+00  0.00000000000E+00 -0.51567973735E+03  0.29039674962E+04  0.28578141345E+04 0.  0.
        4    1    3    3  502    0  0.42287006246E+03  0.10010306417E+04 -0.12006672738E+04  0.16194088275E+04  0.12699999809E+01 0. -1.
       -4    1    3    3    0  502 -0.42287006246E+03 -0.10010306417E+04  0.68498753643E+03  0.12845586687E+04  0.12699999809E+01 0.  1.
</event>
<event>
 5   0  0.2360103E-06  0.2900171E+04  0.7818609E-02  0.8272827E-01
        2   -1    0    0  501    0  0.00000000000E+00  0.00000000000E+00  0.20265702848E+04  0.20265702848E+04  0.25500000920E-02 0. -1.
       -2   -1    0    0    0  501  0.00000000000E+00  0.00000000000E+00 -0.10375891525E+04  0.10375891526E+04  0.25500000920E-02 0.  1.
    10030    2    1    2    0    0  0.00000000000E+00  0.00000000000E+00  0.98898113224E+03  0.30641594373E+04  0.29001705773E+04 0.  0.
        4    1    3    3  502    0  0.68880454311E+03  0.12463963816E+04  0.20554911280E+03  0.14388216322E+04  0.12699999809E+01 0.  1.
       -4    1    3    3    0  502 -0.68880454311E+03 -0.12463963816E+04  0.78343201945E+03  0.16253378051E+04  0.12699999809E+01 0. -1.
</event>
<event>
 5   0  0.2304435E-06  0.2895284E+04  0.7818609E-02  0.8274282E-01
        2   -1    0    0  501    0  0.00000000000E+00  0.00000000000E+00  0.21349423832E+04  0.21349423832E+04  0.25500000920E-02 0. -1.
       -2   -1    0    0    0  501  0.00000000000E+00  0.00000000000E+00 -0.98160400999E+03  0.98160400999E+03  0.25500000920E-02 0.  1.
    10030    2    1    2    0    0  0.00000000000E+00  0.00000000000E+00  0.11533383732E+04  0.31165463932E+04  0.28952844451E+04 0.  0.
        1    1    3    3  502    0 -0.54304415328E+03  0.42985386758E+02 -0.86706979774E+03  0.10239896142E+04  0.50400001928E-02 0.  1.
       -1    1    3    3    0  502  0.54304415328E+03 -0.42985386758E+02  0.20204081710E+04  0.20925567790E+04  0.50400001928E-02 0. -1.
</event>
<event>
 5   0  0.8483636E-07  0.2899439E+04  0.7818609E-02  0.8273044E-01
        1   -1    0    0  501    0  0.00000000000E+00  0.00000000000E+00  0.11006019959E+04  0.11006019960E+04  0.50400001928E-02 0.  1.
       -1   -1    0    0    0  501  0.00000000000E+00  0.00000000000E+00 -0.19095796640E+04  0.19095796640E+04  0.50400001928E-02 0. -1.
    10030    2    1    2    0    0  0.00000000000E+00  0.00000000000E+00 -0.80897766805E+03  0.30101816600E+04  0.28994393869E+04 0.  0.
        2    1    3    3  502    0  0.21204478921E+03 -0.12218556883E+04  0.37505126932E+03  0.12955916681E+04  0.25500000920E-02 0.  1.
       -2    1    3    3    0  502 -0.21204478921E+03  0.12218556883E+04 -0.11840289374E+04  0.17145899919E+04  0.25500000920E-02 0. -1.
</event>
<event>
 5   0  0.8947674E-07  0.2879173E+04  0.7818609E-02  0.8279101E-01
        1   -1    0    0  501    0  0.00000000000E+00  0.00000000000E+00  0.20665754371E+04  0.20665754371E+04  0.50400001928E-02 0. -1.
       -1   -1    0    0    0  501  0.00000000000E+00  0.00000000000E+00 -0.10028227119E+04  0.10028227119E+04  0.50400001928E-02 0.  1.
    10030    2    1    2    0    0  0.00000000000E+00  0.00000000000E+00  0.10637527253E+04  0.30693981490E+04  0.28791726479E+04 0.  0.
        3    1    3    3  502    0 -0.24369640908E+03 -0.63121151391E+03  0.18864949568E+04  0.20041654491E+04  0.10100000352E+00 0. -1.
       -3    1    3    3    0  502  0.24369640908E+03  0.63121151391E+03 -0.82274223156E+03  0.10652326999E+04  0.10100000352E+00 0.  1.
</event>
<event>
 5   0  0.8357118E-07  0.2839481E+04  0.7818609E-02  0.8291115E-01
       -1   -1    0    0    0  501  0.00000000000E+00  0.00000000000E+00  0.13081931802E+04  0.13081931802E+04  0.50400001928E-02 0. -1.
        1   -1    0    0  501    0  0.00000000000E+00  0.00000000000E+00 -0.15407997759E+04  0.15407997759E+04  0.50400001928E-02 0.  1.
    10030    2    1    2    0    0  0.00000000000E+00  0.00000000000E+00 -0.23260659571E+03  0.28489929560E+04  0.28394814729E+04 0.  0.
        1    1    3    3  502    0 -0.11172059970E+04  0.81269945417E+03 -0.44455988509E+03  0.14512970523E+04  0.50400001928E-02 0. -1.
       -1    1    3    3    0  502  0.11172059970E+04 -0.81269945417E+03  0.21195328938E+03  0.13976959038E+04  0.50400001928E-02 0.  1.
</event>
<event>
 5   0  0.2425845E-06  0.2901817E+04  0.7818609E-02  0.8272337E-01
        2   -1    0    0  501    0  0.00000000000E+00  0.00000000000E+00  0.18087640527E+04  0.18087640527E+04  0.25500000920E-02 0. -1.
       -2   -1    0    0    0  501  0.00000000000E+00  0.00000000000E+00 -0.11638532445E+04  0.11638532445E+04  0.25500000920E-02 0.  1.
    10030    2    1    2    0    0  0.00000000000E+00  0.00000000000E+00  0.64491080820E+03  0.29726172971E+04  0.29018173003E+04 0.  0.
        2    1    3    3  502    0  0.49772752089E+03  0.13612002398E+04  0.25345371840E+03  0.14713386984E+04  0.25500000920E-02 0.  1.
       -2    1    3    3    0  502 -0.49772752089E+03 -0.13612002398E+04  0.39145708981E+03  0.15012785988E+04  0.25500000920E-02 0. -1.
</event>
<event>
 5   0  0.8263673E-07  0.2884996E+04  0.7818609E-02  0.8277356E-01
       -1   -1    0    0    0  501  0.00000000000E+00  0.00000000000E+00  0.11328915548E+04  0.11328915548E+04  0.50400001928E-02 0. -1.
        1   -1    0    0  501    0  0.00000000000E+00  0.00000000000E+00 -0.18367157879E+04  0.18367157879E+04  0.50400001928E-02 0.  1.
    10030    2    1    2    0    0  0.00000000000E+00  0.00000000000E+00 -0.70382423308E+03  0.29696073427E+04  0.28849955319E+04 0.  0.
        5    1    3    3  502    0 -0.44970218017E+03  0.13074670813E+04  0.71335204253E+02  0.13844901664E+04  0.46999998093E+01 0. -1.
       -5    1    3    3    0  502  0.44970218017E+03 -0.13074670813E+04 -0.77515943734E+03  0.15851171763E+04  0.46999998093E+01 0.  1.
</event>
<event>
 5   0  0.8947674E-07  0.2900543E+04  0.7818609E-02  0.8272716E-01
        1   -1    0    0  501    0  0.00000000000E+00  0.00000000000E+00  0.10522944338E+04  0.10522944338E+04  0.50400001928E-02 0.  1.
       -1   -1    0    0    0  501  0.00000000000E+00  0.00000000000E+00 -0.19987626655E+04  0.19987626655E+04  0.50400001928E-02 0. -1.
    10030    2    1    2    0    0  0.00000000000E+00  0.00000000000E+00 -0.94646823176E+03  0.30510570993E+04  0.29005425888E+04 0.  0.
        3    1    3    3  502    0 -0.76234747101E+02 -0.27778061467E+02 -0.19963733133E+04  0.19980214647E+04  0.10100000352E+00 0. -1.
       -3    1    3    3    0  502  0.76234747101E+02  0.27778061467E+02  0.10499050815E+04  0.10530356346E+04  0.10100000352E+00 0.  1.
</event>
<event>
 5   0  0.8483636E-07  0.2896438E+04  0.7818609E-02  0.8273938E-01
        1   -1    0    0  501    0  0.00000000000E+00  0.00000000000E+00  0.22479334622E+04  0.22479334622E+04  0.50400001928E-02 0.  1.
       -1   -1    0    0    0  501  0.00000000000E+00  0.00000000000E+00 -0.93300728548E+03  0.93300728549E+03  0.50400001928E-02 0. -1.
    10030    2    1    2    0    0  0.00000000000E+00  0.00000000000E+00  0.13149261767E+04  0.31809407477E+04  0.28964380176E+04 0.  0.
        2    1    3    3  502    0  0.13196557120E+04  0.32530149640E+03  0.12066041988E+04  0.18174724082E+04  0.25500000920E-02 0. -1.
       -2    1    3    3    0  502 -0.13196557120E+04 -0.32530149640E+03  0.10832197787E+03  0.13634683395E+04  0.25500000920E-02 0.  1.
</event>
<event>
 5   0  0.2425845E-06  0.2900064E+04  0.7818609E-02  0.8272858E-01
        2   -1    0    0  501    0  0.00000000000E+00  0.00000000000E+00  0.20750310978E+04  0.20750310978E+04  0.25500000920E-02 0.  1.
       -2   -1    0    0    0  501  0.00000000000E+00  0.00000000000E+00 -0.10132824624E+04  0.10132824624E+04  0.25500000920E-02 0. -1.
    10030    2    1    2    0    0  0.00000000000E+00  0.00000000000E+00  0.10617486354E+04  0.30883135602E+04  0.29000638754E+04 0.  0.
        2    1    3    3  502    0  0.85365591277E+02  0.19899808343E+03 -0.99596815139E+03  0.10192350465E+04  0.25500000920E-02 0. -1.
       -2    1    3    3    0  502 -0.85365591277E+02 -0.19899808343E+03  0.20577167868E+04  0.20690785137E+04  0.25500000920E-02 0.  1.
</event>
<event>
 5   0  0.2325590E-06  0.2911631E+04  0.7818609E-02  0.8269425E-01
        2   -1    0    0  501    0  0.00000000000E+00  0.00000000000E+00  0.15270030551E+04  0.15270030551E+04  0.25500000920E-02 0. -1.
       -2   -1    0    0    0  501  0.00000000000E+00  0.00000000000E+00 -0.13879461744E+04  0.13879461744E+04  0.25500000920E-02 0.  1.
    10030    2    1    2    0    0  0.00000000000E+00  0.00000000000E+00  0.13905688075E+03  0.29149492295E+04  0.29116305044E+04 0.  0.
        5    1    3    3  502    0  0.21260683828E+03  0.94059982571E+03  0.11613889193E+04  0.15095615296E+04  0.46999998093E+01 0. -1.
       -5    1    3    3    0  502 -0.21260683828E+03 -0.94059982571E+03 -0.10223320386E+04  0.14053876998E+04  0.46999998093E+01 0.  1.
</event>
<event>
 5   0  0.8263673E-07  0.2904378E+04  0.7818609E-02  0.8271576E-01
       -1   -1    0    0    0  501  0.00000000000E+00  0.00000000000E+00  0.13088665030E+04  0.13088665030E+04  0.50400001928E-02 0.  1.
        1   -1    0    0  501    0  0.00000000000E+00  0.00000000000E+00 -0.16112054691E+04  0.16112054692E+04  0.50400001928E-02 0. -1.
    10030    2    1    2    0    0  0.00000000000E+00  0.00000000000E+00 -0.30233896619E+03  0.29200719721E+04  0.29043779836E+04 0.  0.
        5    1    3    3  502    0 -0.22162695620E+03 -0.12707602443E+04  0.51942841647E+03  0.13906034934E+04  0.46999998093E+01 0.  1.
       -5    1    3    3    0  502  0.22162695620E+03  0.12707602443E+04 -0.82176738266E+03  0.15294684787E+04  0.46999998093E+01 0. -1.
</event>
<event>
 5   0  0.8357118E-07  0.2861638E+04  0.7818609E-02  0.8284384E-01
        1   -1    0    0  501    0  0.00000000000E+00  0.00000000000E+00  0.17215024848E+04  0.17215024849E+04  0.50400001928E-02 0.  1.
       -1   -1    0    0    0  501  0.00000000000E+00  0.00000000000E+00 -0.11892184437E+04  0.11892184437E+04  0.50400001928E-02 0. -1.
    10030    2    1    2    0    0  0.00000000000E+00  0.00000000000E+00  0.53228404116E+03  0.29107209285E+04  0.28616376471E+04 0.  0.
        1    1    3    3  502    0  0.78450179209E+03  0.76074968435E+03  0.12055960956E+04  0.16271585940E+04  0.50400001928E-02 0.  1.
       -1    1    3    3    0  502 -0.78450179209E+03 -0.76074968435E+03 -0.67331205449E+03  0.12835623346E+04  0.50400001928E-02 0. -1.
</event>
<event>
 5   0  0.8263673E-07  0.2884402E+04  0.7818609E-02  0.8277533E-01
       -1   -1    0    0    0  501  0.00000000000E+00  0.00000000000E+00  0.22082627980E+04  0.22082627980E+04  0.50400001928E-02 0.  1.
        1   -1    0    0  501    0  0.00000000000E+00  0.00000000000E+00 -0.94189167787E+03  0.94189167788E+03  0.50400001928E-02 0. -1.
    10030    2    1    2    0    0  0.00000000000E+00  0.00000000000E+00  0.12663711201E+04  0.31501544758E+04  0.28844024352E+04 0.  0.
        5    1    3    3  502    0 -0.94923624395E+03  0.91740498036E+03  0.12674146071E+04  0.18300391310E+04  0.46999998093E+01 0.  1.
       -5    1    3    3    0  502  0.94923624395E+03 -0.91740498036E+03 -0.10434869705E+01  0.13201153448E+04  0.46999998093E+01 0. -1.
</event>
<event>
 5   0  0.2325590E-06  0.2897988E+04  0.7818609E-02  0.8273476E-01
       -2   -1    0    0    0  501  0.00000000000E+00  0.00000000000E+00  0.10991439720E+04  0.10991439720E+04  0.25500000920E-02 0. -1.
        2   -1    0    0  501    0  0.00000000000E+00  0.00000000000E+00 -0.19101990140E+04  0.19101990140E+04  0.25500000920E-02 0.  1.
    10030    2    1    2    0    0  0.00000000000E+00  0.00000000000E+00 -0.81105504200E+03  0.30093429860E+04  0.28979880825E+04 0.  0.
        5    1    3    3  502    0  0.47280953384E+03  0.10300931258E+04 -0.13429445355E+04  0.17573169374E+04  0.46999998093E+01 0.  1.
       -5    1    3    3    0  502 -0.47280953384E+03 -0.10300931258E+04  0.53188949353E+03  0.12520260486E+04  0.46999998093E+01 0. -1.
</event>
<event>
 5   0  0.2425845E-06  0.2909241E+04  0.7818609E-02  0.8270133E-01
        2   -1    0    0  501    0  0.00000000000E+00  0.00000000000E+00  0.20217612777E+04  0.20217612777E+04  0.25500000920E-02 0. -1.
       -2   -1    0    0    0  501  0.00000000000E+00  0.00000000000E+00 -0.10465726679E+04  0.10465726679E+04  0.25500000920E-02 0.  1.
    10030    2    1    2    0    0  0.00000000000E+00  0.00000000000E+00  0.97518860981E+03  0.30683339457E+04  0.29092405156E+04 0.  0.
        2    1    3    3  502    0 -0.56390486844E+03  0.61287667778E+03  0.17454206150E+04  0.19339337233E+04  0.25500000920E-02 0. -1.
       -2    1    3    3    0  502  0.56390486844E+03 -0.61287667778E+03 -0.77023200516E+03  0.11344002224E+04  0.25500000920E-02 0.  1.
</event>
<event>
 5   0  0.2425845E-06  0.2929031E+04  0.7818609E-02  0.8264292E-01
       -2   -1    0    0    0  501  0.00000000000E+00  0.00000000000E+00  0.10141550810E+04  0.10141550810E+04  0.25500000920E-02 0.  1.
        2   -1    0    0  501    0  0.00000000000E+00  0.00000000000E+00 -0.21148696847E+04  0.21148696847E+04  0.25500000920E-02 0. -1.
    10030    2    1    2    0    0  0.00000000000E+00  0.00000000000E+00 -0.11007146037E+04  0.31290247656E+04  0.29290311274E+04 0.  0.
        2    1    3    3  502    0  0.14461956962E+04 -0.22791844994E+03 -0.51071527086E+03  0.15505672831E+04  0.25500000920E-02 0. -1.
       -2    1    3    3    0  502 -0.14461956962E+04  0.22791844994E+03 -0.58999933284E+03  0.15784574825E+04  0.25500000920E-02 0.  1.
</event>
<event>
 5   0  0.2325590E-06  0.2760730E+04  0.7818609E-02  0.8315565E-01
       -2   -1    0    0    0  501  0.00000000000E+00  0.00000000000E+00  0.12466514783E+04  0.12466514783E+04  0.25500000920E-02 0.  1.
        2   -1    0    0  501    0  0.00000000000E+00  0.00000000000E+00 -0.15284204787E+04  0.15284204787E+04  0.25500000920E-02 0. -1.
    10030    2    1    2    0    0  0.00000000000E+00  0.00000000000E+00 -0.28176900036E+03  0.27750719570E+04  0.27607300841E+04 0.  0.
        5    1    3    3  502    0 -0.30879342234E+02 -0.12395368150E+04  0.46888080395E+03  0.13256230037E+04  0.46999998093E+01 0.  1.
       -5    1    3    3    0  502  0.30879342234E+02  0.12395368150E+04 -0.75064980431E+03  0.14494489533E+04  0.46999998093E+01 0. -1.
</event>
<event>
 5   0  0.2304435E-06  0.2930944E+04  0.7818609E-02  0.8263730E-01
        2   -1    0    0  501    0  0.00000000000E+00  0.00000000000E+00  0.18286829662E+04  0.18286829662E+04  0.25500000920E-02 0.  1.
       -2   -1    0    0    0  501  0.00000000000E+00  0.00000000000E+00 -0.11744012440E+04  0.11744012440E+04  0.25500000920E-02 0. -1.
    10030    2    1    2    0    0  0.00000000000E+00  0.00000000000E+00  0.65428172222E+03  0.30030842102E+04  0.29309435684E+04 0.  0.
        1    1    3    3  502    0 -0.87772466165E+03  0.39428763450E+03 -0.80539040905E+03  0.12547976058E+04  0.50400001928E-02 0. -1.
       -1    1    3    3    0  502  0.87772466165E+03 -0.39428763450E+03  0.14596721313E+04  0.17482866044E+04  0.50400001928E-02 0.  1.
</event>
<event>
 5   0  0.2425845E-06  0.2803549E+04  0.7818609E-02  0.8302167E-01
        2   -1    0    0  501    0  0.00000000000E+00  0.00000000000E+00  0.19516995882E+04  0.19516995882E+04  0.25500000920E-02 0.  1.
       -2   -1    0    0    0  501  0.00000000000E+00  0.00000000000E+00 -0.10068005018E+04  0.10068005018E+04  0.25500000920E-02 0. -1.
    10030    2    1    2    0    0  0.00000000000E+00  0.00000000000E+00  0.94489908636E+03  0.29585000900E+04  0.28035492682E+04 0.  0.
        2    1    3    3  502    0 -0.13742773576E+03 -0.95695589033E+03  0.15435980954E+04  0.18213582950E+04  0.25500000920E-02 0.  1.
       -2    1    3    3    0  502  0.13742773576E+03  0.95695589033E+03 -0.59869900902E+03  0.11371417950E+04  0.25500000920E-02 0. -1.
</event>
<event>
 5   0  0.2304435E-06  0.2913541E+04  0.7818609E-02  0.8268860E-01
       -2   -1    0    0    0  501  0.00000000000E+00  0.00000000000E+00  0.96646007689E+03  0.96646007690E+03  0.25500000920E-02 0.  1.
        2   -1    0    0  501    0  0.00000000000E+00  0.00000000000E+00 -0.21958275861E+04  0.21958275861E+04  0.25500000920E-02 0. -1.
    10030    2    1    2    0    0  0.00000000000E+00  0.00000000000E+00 -0.12293675092E+04  0.31622876630E+04  0.29135405937E+04 0.  0.
        1    1    3    3  502    0  0.15066197478E+03  0.63967416582E+03 -0.20257970750E+04  0.21297267097E+04  0.50400001928E-02 0. -1.
       -1    1    3    3    0  502 -0.15066197478E+03 -0.63967416582E+03  0.79642956575E+03  0.10325609533E+04  0.50400001928E-02 0.  1.
</event>
<event>
 5   0  0.8355946E-07  0.2898119E+04  0.7818609E-02  0.8273437E-01
        1   -1    0    0  501    0  0.00000000000E+00  0.00000000000E+00  0.26395290338E+04  0.26395290338E+04  0.50400001928E-02 0.  1.
       -1   -1    0    0    0  501  0.00000000000E+00  0.00000000000E+00 -0.79551080094E+03  0.79551080095E+03  0.50400001928E-02 0. -1.
    10030    2    1    2    0    0  0.00000000000E+00  0.00000000000E+00  0.18440182329E+04  0.34350398348E+04  0.28981192907E+04 0.  0.
        4    1    3    3  502    0  0.76327819597E+03  0.92151957706E+03 -0.46708839480E+02  0.11974870621E+04  0.12699999809E+01 0. -1.
       -4    1    3    3    0  502 -0.76327819597E+03 -0.92151957706E+03  0.18907270724E+04  0.22375527726E+04  0.12699999809E+01 0.  1.
</event>
<event>
 5   0  0.8357118E-07  0.2898007E+04  0.7818609E-02  0.8273471E-01
       -1   -1    0    0    0  501  0.00000000000E+00  0.00000000000E+00  0.94151790803E+03  0.94151790805E+03  0.50400001928E-02 0. -1.
        1   -1    0    0  501    0  0.00000000000E+00  0.00000000000E+00 -0.22300272394E+04  0.22300272394E+04  0.50400001928E-02 0.  1.
    10030    2    1    2    0    0  0.00000000000E+00  0.00000000000E+00 -0.12885093313E+04  0.31715451474E+04  0.28980066124E+04 0.  0.
        1    1    3    3  502    0  0.30977770866E+03  0.56592818220E+03  0.77565850554E+03  0.10089019048E+04  0.50400001928E-02 0. -1.
       -1    1    3    3    0  502 -0.30977770866E+03 -0.56592818220E+03 -0.20641678369E+04  0.21626432427E+04  0.50400001928E-02 0.  1.
</event>
<event>
 5   0  0.8357118E-07  0.2888731E+04  0.7818609E-02  0.8276238E-01
       -1   -1    0    0    0  501  0.00000000000E+00  0.00000000000E+00  0.12789522204E+04  0.12789522204E+04  0.50400001928E-02 0. -1.
        1   -1    0    0  501    0  0.00000000000E+00  0.00000000000E+00 -0.16311724863E+04  0.16311724863E+04  0.50400001928E-02 0.  1.
    10030    2    1    2    0    0  0.00000000000E+00  0.00000000000E+00 -0.35222026587E+03  0.29101247067E+04  0.28887309832E+04 0.  0.
        1    1    3    3  502    0  0.60780467918E+03  0.51141271465E+02 -0.14950617846E+04  0.16146986399E+04  0.50400001928E-02 0.  1.
       -1    1    3    3    0  502 -0.60780467918E+03 -0.51141271465E+02  0.11428415188E+04  0.12954260669E+04  0.50400001928E-02 0. -1.
</event>
<event>
 5   0  0.2360103E-06  0.2935762E+04  0.7818609E-02  0.8262316E-01
        2   -1    0    0  501    0  0.00000000000E+00  0.00000000000E+00  0.27255401229E+04  0.27255401229E+04  0.25500000920E-02 0.  1.
       -2   -1    0    0    0  501  0.00000000000E+00  0.00000000000E+00 -0.79054955997E+03  0.79054955997E+03  0.25500000920E-02 0. -1.
    10030    2    1    2    0    0  0.00000000000E+00  0.00000000000E+00  0.19349905629E+04  0.35160896828E+04  0.29357619419E+04 0.  0.
        4    1    3    3  502    0 -0.11011316706E+04  0.43711778406E+03  0.20054798217E+04  0.23292732431E+04  0.12699999809E+01 0.  1.
       -4    1    3    3    0  502  0.11011316706E+04 -0.43711778406E+03 -0.70489258784E+02  0.11868164397E+04  0.12699999809E+01 0. -1.
</event>
<event>
 5   0  0.8263673E-07  0.2870166E+04  0.7818609E-02  0.8281810E-01
       -1   -1    0    0    0  501  0.00000000000E+00  0.00000000000E+00  0.15161604490E+04  0.15161604490E+04  0.50400001928E-02 0.  1.
        1   -1    0    0  501    0  0.00000000000E+00  0.00000000000E+00 -0.13583409313E+04  0.13583409313E+04  0.50400001928E-02 0. -1.
    10030    2    1    2    0    0  0.00000000000E+00  0.00000000000E+00  0.15781951766E+03  0.28745013803E+04  0.28701657069E+04 0.  0.
        5    1    3    3  502    0 -0.81147137010E+03 -0.48083982363E+03 -0.10042729121E+04  0.13777804224E+04  0.46999998093E+01 0. -1.
       -5    1    3    3    0  502  0.81147137010E+03  0.48083982363E+03  0.11620924297E+04  0.14967209579E+04  0.46999998093E+01 0.  1.
</event>
<event>
 5   0  0.8483636E-07  0.2906290E+04  0.7818609E-02  0.8271009E-01
       -1   -1    0    0    0  501  0.00000000000E+00  0.00000000000E+00  0.11359895228E+04  0.11359895228E+04  0.50400001928E-02 0. -1.
        1   -1    0    0  501    0  0.00000000000E+00  0.00000000000E+00 -0.18588463571E+04  0.18588463571E+04  0.50400001928E-02 0.  1.
    10030    2    1    2    0    0  0.00000000000E+00  0.00000000000E+00 -0.72285683429E+03  0.29948358799E+04  0.29062897214E+04 0.  0.
        2    1    3    3  502    0 -0.57254261162E+03 -0.13276057872E+04 -0.21107971153E+03  0.14611286093E+04  0.25500000920E-02 0.  1.
       -2    1    3    3    0  502  0.57254261162E+03  0.13276057872E+04 -0.51177712276E+03  0.15337072706E+04  0.25500000920E-02 0. -1.
</event>
<event>
 5   0  0.8355946E-07  0.2896114E+04  0.7818609E-02  0.8274035E-01
       -1   -1    0    0    0  501  0.00000000000E+00  0.00000000000E+00  0.10194180873E+04  0.10194180873E+04  0.50400001928E-02 0.  1.
        1   -1    0    0  501    0  0.00000000000E+00  0.00000000000E+00 -0.20569274766E+04  0.20569274767E+04  0.50400001928E-02 0. -1.
    10030    2    1    2    0    0  0.00000000000E+00  0.00000000000E+00 -0.10375093894E+04  0.30763455639E+04  0.28961139991E+04 0.  0.
        4    1    3    3  502    0  0.11344617590E+04  0.18080206138E+03 -0.14551921200E+04  0.18539899102E+04  0.12699999809E+01 0. -1.
       -4    1    3    3    0  502 -0.11344617590E+04 -0.18080206138E+03  0.41768273060E+03  0.12223556538E+04  0.12699999809E+01 0.  1.
</event>
<event>
 5   0  0.8357118E-07  0.2898980E+04  0.7818609E-02  0.8273181E-01
        1   -1    0    0  501    0  0.00000000000E+00  0.00000000000E+00  0.17543639404E+04  0.17543639404E+04  0.50400001928E-02 0.  1.
       -1   -1    0    0    0  501  0.00000000000E+00  0.00000000000E+00 -0.11975971058E+04  0.11975971058E+04  0.50400001928E-02 0. -1.
    10030    2    1    2    0    0  0.00000000000E+00  0.00000000000E+00  0.55676683457E+03  0.29519610463E+04  0.28989799431E+04 0.  0.
        1    1    3    3  502    0 -0.29990718499E+03  0.14161981033E+04  0.20314262059E+03  0.14617894212E+04  0.50400001928E-02 0.  1.
       -1    1    3    3    0  502  0.29990718499E+03 -0.14161981033E+04  0.35362421398E+03  0.14901716251E+04  0.50400001928E-02 0. -1.
</event>
<event>
 5   0  0.2378690E-06  0.2917293E+04  0.7818609E-02  0.8267751E-01
       -2   -1    0    0    0  501  0.00000000000E+00  0.00000000000E+00  0.12138768609E+04  0.12138768609E+04  0.25500000920E-02 0. -1.
        2   -1    0    0  501    0  0.00000000000E+00  0.00000000000E+00 -0.17527723379E+04  0.17527723379E+04  0.25500000920E-02 0.  1.
    10030    2    1    2    0    0  0.00000000000E+00  0.00000000000E+00 -0.53889547701E+03  0.29666491989E+04  0.29172931176E+04 0.  0.
        3    1    3    3  502    0 -0.14223809537E+04 -0.33404888029E+02  0.57497963421E+02  0.14239345104E+04  0.10100000352E+00 0.  1.
       -3    1    3    3    0  502  0.14223809537E+04  0.33404888029E+02 -0.59639344043E+03  0.15427146885E+04  0.10100000352E+00 0. -1.
</event>
<event>
 5   0  0.8483636E-07  0.2941625E+04  0.7818609E-02  0.8260599E-01
       -1   -1    0    0    0  501  0.00000000000E+00  0.00000000000E+00  0.10551507845E+04  0.10551507846E+04  0.50400001928E-02 0.  1.
        1   -1    0    0  501    0  0.00000000000E+00  0.00000000000E+00 -0.20502187017E+04  0.20502187018E+04  0.50400001928E-02 0. -1.
    10030    2    1    2    0    0  0.00000000000E+00  0.00000000000E+00 -0.99506791720E+03  0.31053694863E+04  0.29416253138E+04 0.  0.
        2    1    3    3  502    0  0.13207392244E+04 -0.34998032837E+03  0.77247545182E+02  0.13685048456E+04  0.25500000920E-02 0.  1.
       -2    1    3    3    0  502 -0.13207392244E+04  0.34998032837E+03 -0.10723154624E+04  0.17368646407E+04  0.25500000920E-02 0. -1.
</event>
<event>
 5   0  0.2378690E-06  0.2896777E+04  0.7818609E-02  0.8273837E-01
       -2   -1    0    0    0  501  0.00000000000E+00  0.00000000000E+00  0.84506155220E+03  0.84506155221E+03  0.25500000920E-02 0. -1.
        2   -1    0    0  501    0  0.00000000000E+00  0.00000000000E+00 -0.24824572490E+04  0.24824572490E+04  0.25500000920E-02 0.  1.
    10030    2    1    2    0    0  0.00000000000E+00  0.00000000000E+00 -0.16373956968E+04  0.33275188012E+04  0.28967769511E+04 0.  0.
        3    1    3    3  502    0  0.82313756349E+03  0.11908519773E+04 -0.76549338943E+03  0.16375787064E+04  0.10100000352E+00 0.  1.
       -3    1    3    3    0  502 -0.82313756349E+03 -0.11908519773E+04 -0.87190230739E+03  0.16899400948E+04  0.10100000352E+00 0. -1.
</event>
<event>
 5   0  0.8263673E-07  0.2935600E+04  0.7818609E-02  0.8262363E-01
       -1   -1    0    0    0  501  0.00000000000E+00  0.00000000000E+00  0.12746549388E+04  0.12746549388E+04  0.50400001928E-02 0. -1.
        1   -1    0    0  501    0  0.00000000000E+00  0.00000000000E+00 -0.16902121407E+04  0.16902121407E+04  0.50400001928E-02 0.  1.
    10030    2    1    2    0    0  0.00000000000E+00  0.00000000000E+00 -0.41555720189E+03  0.29648670794E+04  0.29356002811E+04 0.  0.
        5    1    3    3  502    0  0.26661652578E+03  0.11759567020E+04 -0.10530553658E+04  0.16009079393E+04  0.46999998093E+01 0.  1.
       -5    1    3    3    0  502 -0.26661652578E+03 -0.11759567020E+04  0.63749816388E+03  0.13639591401E+04  0.46999998093E+01 0. -1.
</event>
<event>
 5   0  0.2325590E-06  0.2889185E+04  0.7818609E-02  0.8276102E-01
        2   -1    0    0  501    0  0.00000000000E+00  0.00000000000E+00  0.20849570082E+04  0.20849570082E+04  0.25500000920E-02 0.  1.
       -2   -1    0    0    0  501  0.00000000000E+00  0.00000000000E+00 -0.10009068924E+04  0.10009068924E+04  0.25500000920E-02 0. -1.
    10030    2    1    2    0    0  0.00000000000E+00  0.00000000000E+00  0.10840501158E+04  0.30858639006E+04  0.28891852415E+04 0.  0.
        5    1    3    3  502    0 -0.19899698878E+03 -0.37542557465E+03 -0.93264515053E+03  0.10248869354E+04  0.46999998093E+01 0. -1.
       -5    1    3    3    0  502  0.19899698878E+03  0.37542557465E+03  0.20166952664E+04  0.20609769652E+04  0.46999998093E+01 0.  1.
</event>
<event>
 5   0  0.8947674E-07  0.2887745E+04  0.7818609E-02  0.8276533E-01
       -1   -1    0    0    0  501  0.00000000000E+00  0.00000000000E+00  0.17351819658E+04  0.17351819658E+04  0.50400001928E-02 0.  1.
        1   -1    0    0  501    0  0.00000000000E+00  0.00000000000E+00 -0.12014692165E+04  0.12014692165E+04  0.50400001928E-02 0. -1.
    10030    2    1    2    0    0  0.00000000000E+00  0.00000000000E+00  0.53371274937E+03  0.29366511823E+04  0.28877449450E+04 0.  0.
        3    1    3    3  502    0  0.51543897149E+02 -0.91419460671E+03  0.14021681319E+04  0.16746593781E+04  0.10100000352E+00 0.  1.
       -3    1    3    3    0  502 -0.51543897149E+02  0.91419460671E+03 -0.86845538253E+03  0.12619918042E+04  0.10100000352E+00 0. -1.
</event>
<event>
 5   0  0.8263673E-07  0.2886048E+04  0.7818609E-02  0.8277041E-01
        1   -1    0    0  501    0  0.00000000000E+00  0.00000000000E+00  0.18303816384E+04  0.18303816384E+04  0.50400001928E-02 0.  1.
       -1   -1    0    0    0  501  0.00000000000E+00  0.00000000000E+00 -0.11376418721E+04  0.11376418721E+04  0.50400001928E-02 0. -1.
    10030    2    1    2    0    0  0.00000000000E+00  0.00000000000E+00  0.69273976631E+03  0.29680235105E+04  0.28860483667E+04 0.  0.
        5    1    3    3  502    0  0.14185478471E+04  0.11020863986E+03  0.59377053957E+03  0.15417553251E+04  0.46999998093E+01 0. -1.
       -5    1    3    3    0  502 -0.14185478471E+04 -0.11020863986E+03  0.98969226740E+02  0.14262681854E+04  0.46999998093E+01 0.  1.
</event>
<event>
 5   0  0.2325590E-06  0.2912051E+04  0.7818609E-02  0.8269301E-01
       -2   -1    0    0    0  501  0.00000000000E+00  0.00000000000E+00  0.80139763851E+03  0.80139763851E+03  0.25500000920E-02 0.  1.
        2   -1    0    0  501    0  0.00000000000E+00  0.00000000000E+00 -0.26453919168E+04  0.26453919168E+04  0.25500000920E-02 0. -1.
    10030    2    1    2    0    0  0.00000000000E+00  0.00000000000E+00 -0.18439942783E+04  0.34467895553E+04  0.29120513973E+04 0.  0.
        5    1    3    3  502    0  0.12065351934E+04  0.68190733864E+03 -0.39363692961E+03  0.14407279111E+04  0.46999998093E+01 0.  1.
       -5    1    3    3    0  502 -0.12065351934E+04 -0.68190733864E+03 -0.14503573487E+04  0.20060616442E+04  0.46999998093E+01 0. -1.
</event>
<event>
 5   0  0.8947674E-07  0.2899001E+04  0.7818609E-02  0.8273175E-01
        1   -1    0    0  501    0  0.00000000000E+00  0.00000000000E+00  0.12167157515E+04  0.12167157515E+04  0.50400001928E-02 0.  1.
       -1   -1    0    0    0  501  0.00000000000E+00  0.00000000000E+00 -0.17268219280E+04  0.17268219281E+04  0.50400001928E-02 0. -1.
    10030    2    1    2    0    0  0.00000000000E+00  0.00000000000E+00 -0.51010617657E+03  0.29435376795E+04  0.28990008209E+04 0.  0.
        3    1    3    3  502    0  0.90243969373E+03  0.62782253377E+03 -0.12142850584E+04  0.16380008388E+04  0.10100000352E+00 0. -1.
       -3    1    3    3    0  502 -0.90243969373E+03 -0.62782253377E+03  0.70417888182E+03  0.13055368407E+04  0.10100000352E+00 0.  1.
</event>
<event>
 5   0  0.8483636E-07  0.2901309E+04  0.7818609E-02  0.8272488E-01
       -1   -1    0    0    0  501  0.00000000000E+00  0.00000000000E+00  0.17491195746E+04  0.17491195746E+04  0.50400001928E-02 0.  1.
        1   -1    0    0  501    0  0.00000000000E+00  0.00000000000E+00 -0.12031186727E+04  0.12031186727E+04  0.50400001928E-02 0. -1.
    10030    2    1    2    0    0  0.00000000000E+00  0.00000000000E+00  0.54600090191E+03  0.29522382473E+04  0.29013089605E+04 0.  0.
        2    1    3    3  502    0  0.47692235704E+03  0.10959327093E+04  0.11095479573E+04  0.16308341753E+04  0.25500000920E-02 0.  1.
       -2    1    3    3    0  502 -0.47692235704E+03 -0.10959327093E+04 -0.56354705537E+03  0.13214040720E+04  0.25500000920E-02 0. -1.
</event>
<event>
 5   0  0.2425845E-06  0.2897491E+04  0.7818609E-02  0.8273624E-01
        2   -1    0    0  501    0  0.00000000000E+00  0.00000000000E+00  0.11231214094E+04  0.11231214094E+04  0.25500000920E-02 0.  1.
       -2   -1    0    0    0  501  0.00000000000E+00  0.00000000000E+00 -0.18687764962E+04  0.18687764962E+04  0.25500000920E-02 0. -1.
    10030    2    1    2    0    0  0.00000000000E+00  0.00000000000E+00 -0.74565508682E+03  0.29918979056E+04  0.28974905641E+04 0.  0.
        2    1    3    3  502    0  0.75366402064E+03 -0.66779973623E+03  0.70269367616E+03  0.12279024172E+04  0.25500000920E-02 0.  1.
       -2    1    3    3    0  502 -0.75366402064E+03  0.66779973623E+03 -0.14483487630E+04  0.17639954884E+04  0.25500000920E-02 0. -1.
</event>
<event>
 5   0  0.2425845E-06  0.2891700E+04  0.7818609E-02  0.8275351E-01
       -2   -1    0    0    0  501  0.00000000000E+00  0.00000000000E+00  0.20094680860E+04  0.20094680860E+04  0.25500000920E-02 0. -1.
        2   -1    0    0  501    0  0.00000000000E+00  0.00000000000E+00 -0.10403164231E+04  0.10403164231E+04  0.25500000920E-02 0.  1.
    10030    2    1    2    0    0  0.00000000000E+00  0.00000000000E+00  0.96915166294E+03  0.30497845091E+04  0.28917002967E+04 0.  0.
        2    1    3    3  502    0  0.43548656405E+03  0.44407518875E+03 -0.89201123159E+03  0.10874444161E+04  0.25500000920E-02 0.  1.
       -2    1    3    3    0  502 -0.43548656405E+03 -0.44407518875E+03  0.18611628945E+04  0.19623400930E+04  0.25500000920E-02 0. -1.
</event>
<event>
 5   0  0.2360103E-06  0.2858193E+04  0.7818609E-02  0.8285426E-01
        2   -1    0    0  501    0  0.00000000000E+00  0.00000000000E+00  0.23159760778E+04  0.23159760778E+04  0.25500000920E-02 0. -1.
       -2   -1    0    0    0  501  0.00000000000E+00  0.00000000000E+00 -0.88183860251E+03  0.88183860251E+03  0.25500000920E-02 0.  1.
    10030    2    1    2    0    0  0.00000000000E+00  0.00000000000E+00  0.14341374753E+04  0.31978146803E+04  0.28581932110E+04 0.  0.
        4    1    3    3  502    0 -0.28889557397E+03  0.11499040864E+04  0.16097299126E+04  0.19992428729E+04  0.12699999809E+01 0. -1.
       -4    1    3    3    0  502  0.28889557397E+03 -0.11499040864E+04 -0.17559243730E+03  0.11985718074E+04  0.12699999809E+01 0.  1.
</event>
<event>
 5   0  0.2304435E-06  0.2900642E+04  0.7818609E-02  0.8272687E-01
       -2   -1    0    0    0  501  0.00000000000E+00  0.00000000000E+00  0.89734063836E+03  0.89734063836E+03  0.25500000920E-02 0. -1.
        2   -1    0    0  501    0  0.00000000000E+00  0.00000000000E+00 -0.23440712591E+04  0.23440712591E+04  0.25500000920E-02 0.  1.
    10030    2    1    2    0    0  0.00000000000E+00  0.00000000000E+00 -0.14467306208E+04  0.32414118975E+04  0.29006415842E+04 0.  0.
        1    1    3    3  502    0 -0.45925205011E+03 -0.27144955540E+03  0.78371562761E+03  0.94805458263E+03  0.50400001928E-02 0. -1.
       -1    1    3    3    0  502  0.45925205011E+03  0.27144955540E+03 -0.22304462484E+04  0.22933573149E+04  0.50400001928E-02 0.  1.
</event>
<event>
 5   0  0.8483636E-07  0.2893638E+04  0.7818609E-02  0.8274773E-01
        1   -1    0    0  501    0  0.00000000000E+00  0.00000000000E+00  0.23529004497E+04  0.23529004497E+04  0.50400001928E-02 0. -1.
       -1   -1    0    0    0  501  0.00000000000E+00  0.00000000000E+00 -0.88966191676E+03  0.88966191677E+03  0.50400001928E-02 0.  1.
    10030    2    1    2    0    0  0.00000000000E+00  0.00000000000E+00  0.14632385329E+04  0.32425623665E+04  0.28936384875E+04 0.  0.
        2    1    3    3  502    0  0.11788912902E+04  0.59950278126E+01  0.16714841183E+04  0.20454045497E+04  0.25500000920E-02 0. -1.
       -2    1    3    3    0  502 -0.11788912902E+04 -0.59950278126E+01 -0.20824558536E+03  0.11971578167E+04  0.25500000920E-02 0.  1.
</event>
<event>
 5   0  0.2360103E-06  0.2892489E+04  0.7818609E-02  0.8275116E-01
       -2   -1    0    0    0  501  0.00000000000E+00  0.00000000000E+00  0.14515022979E+04  0.14515022979E+04  0.25500000920E-02 0.  1.
        2   -1    0    0  501    0  0.00000000000E+00  0.00000000000E+00 -0.14410053323E+04  0.14410053323E+04  0.25500000920E-02 0. -1.
    10030    2    1    2    0    0  0.00000000000E+00  0.00000000000E+00  0.10496965629E+02  0.28925076302E+04  0.28924885833E+04 0.  0.
        4    1    3    3  502    0  0.48541339442E+03 -0.73618386558E+03 -0.11410697088E+04  0.14420938044E+04  0.12699999809E+01 0. -1.
       -4    1    3    3    0  502 -0.48541339442E+03  0.73618386558E+03  0.11515666744E+04  0.14504138258E+04  0.12699999809E+01 0.  1.
</event>
<event>
 5   0  0.2378690E-06  0.2903747E+04  0.7818609E-02  0.8271764E-01
        2   -1    0    0  501    0  0.00000000000E+00  0.00000000000E+00  0.10683870215E+04  0.10683870215E+04  0.25500000920E-02 0. -1.
       -2   -1    0    0    0  501  0.00000000000E+00  0.00000000000E+00 -0.19730079355E+04  0.19730079355E+04  0.25500000920E-02 0.  1.
    10030    2    1    2    0    0  0.00000000000E+00  0.00000000000E+00 -0.90462091405E+03  0.30413949570E+04  0.29037465947E+04 0.  0.
        3    1    3    3  502    0 -0.80921157779E+03 -0.51901676094E+02  0.80911279778E+03  0.11455045575E+04  0.10100000352E+00 0. -1.
       -3    1    3    3    0  502  0.80921157779E+03  0.51901676094E+02 -0.17137337118E+04  0.18958903995E+04  0.10100000352E+00 0.  1.
</event>
<event>
 5   0  0.8947674E-07  0.2890528E+04  0.7818609E-02  0.8275701E-01
       -1   -1    0    0    0  501  0.00000000000E+00  0.00000000000E+00  0.92911730067E+03  0.92911730068E+03  0.50400001928E-02 0. -1.
        1   -1    0    0  501    0  0.00000000000E+00  0.00000000000E+00 -0.22481425890E+04  0.22481425890E+04  0.50400001928E-02 0.  1.
    10030    2    1    2    0    0  0.00000000000E+00  0.00000000000E+00 -0.13190252883E+04  0.31772598897E+04  0.28905280997E+04 0.  0.
        3    1    3    3  502    0 -0.32124758995E+03 -0.11515256671E+04 -0.15522181762E+04  0.19592326694E+04  0.10100000352E+00 0.  1.
       -3    1    3    3    0  502  0.32124758995E+03  0.11515256671E+04  0.23319288791E+03  0.12180272203E+04  0.10100000352E+00 0. -1.
</event>
<event>
 5   0  0.2325590E-06  0.2909554E+04  0.7818609E-02  0.8270041E-01
       -2   -1    0    0    0  501  0.00000000000E+00  0.00000000000E+00  0.87980518997E+03  0.87980518998E+03  0.25500000920E-02 0.  1.
        2   -1    0    0  501    0  0.00000000000E+00  0.00000000000E+00 -0.24055056670E+04  0.24055056670E+04  0.25500000920E-02 0. -1.
    10030    2    1    2    0    0  0.00000000000E+00  0.00000000000E+00 -0.15257004770E+04  0.32853108569E+04  0.29095541723E+04 0.  0.
        5    1    3    3  502    0 -0.34765292221E+03 -0.11117279567E+03  0.82725500320E+03  0.90420953055E+03  0.46999998093E+01 0.  1.
       -5    1    3    3    0  502  0.34765292221E+03  0.11117279567E+03 -0.23529554802E+04  0.23811013264E+04  0.46999998093E+01 0. -1.
</event>
<event>
 5   0  0.8355946E-07  0.2766764E+04  0.7818609E-02  0.8313662E-01
        1   -1    0    0  501    0  0.00000000000E+00  0.00000000000E+00  0.16031852154E+04  0.16031852154E+04  0.50400001928E-02 0. -1.
       -1   -1    0    0    0  501  0.00000000000E+00  0.00000000000E+00 -0.11937147865E+04  0.11937147865E+04  0.50400001928E-02 0.  1.
    10030    2    1    2    0    0  0.00000000000E+00  0.00000000000E+00  0.40947042891E+03  0.27969000020E+04  0.27667641007E+04 0.  0.
        4    1    3    3  502    0 -0.11438544085E+04 -0.57139091605E+03 -0.32908263191E+03  0.13202982536E+04  0.12699999809E+01 0.  1.
       -4    1    3    3    0  502  0.11438544085E+04  0.57139091605E+03  0.73855306081E+03  0.14766017484E+04  0.12699999809E+01 0. -1.
</event>
<event>
 5   0  0.2304435E-06  0.2900462E+04  0.7818609E-02  0.8272740E-01
       -2   -1    0    0    0  501  0.00000000000E+00  0.00000000000E+00  0.10891733701E+04  0.10891733702E+04  0.25500000920E-02 0. -1.
        2   -1    0    0  501    0  0.00000000000E+00  0.00000000000E+00 -0.19309774927E+04  0.19309774927E+04  0.25500000920E-02 0.  1.
    10030    2    1    2    0    0  0.00000000000E+00  0.00000000000E+00 -0.84180412259E+03  0.30201508629E+04  0.29004615243E+04 0.  0.
        1    1    3    3  502    0  0.57766333740E+03 -0.73402885557E+03 -0.15760387803E+04  0.18320457224E+04  0.50400001928E-02 0.  1.
       -1    1    3    3    0  502 -0.57766333740E+03  0.73402885557E+03  0.73423465768E+03  0.11881051404E+04  0.50400001928E-02 0. -1.
</event>
<event>
 5   0  0.2425845E-06  0.2866446E+04  0.7818609E-02  0.8282931E-01
       -2   -1    0    0    0  501  0.00000000000E+00  0.00000000000E+00  0.11447160344E+04  0.11447160344E+04  0.25500000920E-02 0. -1.
        2   -1    0    0  501    0  0.00000000000E+00  0.00000000000E+00 -0.17944438288E+04  0.17944438288E+04  0.25500000920E-02 0.  1.
    10030    2    1    2    0    0  0.00000000000E+00  0.00000000000E+00 -0.64972779440E+03  0.29391598632E+04  0.28664463181E+04 0.  0.
        2    1    3    3  502    0  0.68345223117E+02  0.14092401080E+04 -0.58324801810E+03  0.15266980717E+04  0.25500000920E-02 0.  1.
       -2    1    3    3    0  502 -0.68345223117E+02 -0.14092401080E+04 -0.66479776308E+02  0.14124617914E+04  0.25500000920E-02 0. -1.
</event>
<event>
 5   0  0.8263673E-07  0.2892783E+04  0.7818609E-02  0.8275028E-01
        1   -1    0    0  501    0  0.00000000000E+00  0.00000000000E+00  0.24376492411E+04  0.24376492411E+04  0.50400001928E-02 0. -1.
       -1   -1    0    0    0  501  0.00000000000E+00  0.00000000000E+00 -0.85822378811E+03  0.85822378813E+03  0.50400001928E-02 0.  1.
    10030    2    1    2    0    0  0.00000000000E+00  0.00000000000E+00  0.15794254530E+04  0.32958730292E+04  0.28927831345E+04 0.  0.
        5    1    3    3  502    0 -0.13367712492E+04  0.48639889335E+03  0.10878752271E+04  0.17908198837E+04  0.46999998093E+01 0. -1.
       -5    1    3    3    0  502  0.13367712492E+04 -0.48639889335E+03  0.49155022591E+03  0.15050531455E+04  0.46999998093E+01 0.  1.
</event>
<event>
 5   0  0.2360103E-06  0.2895100E+04  0.7818609E-02  0.8274337E-01
       -2   -1    0    0    0  501  0.00000000000E+00  0.00000000000E+00  0.14800893688E+04  0.14800893688E+04  0.25500000920E-02 0.  1.
        2   -1    0    0  501    0  0.00000000000E+00  0.00000000000E+00 -0.14157259897E+04  0.14157259897E+04  0.25500000920E-02 0. -1.
    10030    2    1    2    0    0  0.00000000000E+00  0.00000000000E+00  0.64363379137E+02  0.28958153585E+04  0.28950999889E+04 0.  0.
        4    1    3    3  502    0  0.11692195301E+04  0.82632698320E+03 -0.18119889489E+03  0.14431650096E+04  0.12699999809E+01 0. -1.
       -4    1    3    3    0  502 -0.11692195301E+04 -0.82632698320E+03  0.24556227403E+03  0.14526503488E+04  0.12699999809E+01 0.  1.
</event>
<event>
 5   0  0.2325590E-06  0.2900896E+04  0.7818609E-02  0.8272611E-01
       -2   -1    0    0    0  501  0.00000000000E+00  0.00000000000E+00  0.98869755340E+03  0.98869755341E+03  0.25500000920E-02 0. -1.
        2   -1    0    0  501    0  0.00000000000E+00  0.00000000000E+00 -0.21278486755E+04  0.21278486755E+04  0.25500000920E-02 0.  1.
    10030    2    1    2    0    0  0.00000000000E+00  0.00000000000E+00 -0.11391511221E+04  0.31165462289E+04  0.29008955717E+04 0.  0.
        5    1    3    3  502    0  0.11446140651E+04  0.83013995259E+03 -0.91687640416E+03  0.16852175318E+04  0.46999998093E+01 0.  1.
       -5    1    3    3    0  502 -0.11446140651E+04 -0.83013995259E+03 -0.22227471792E+03  0.14313286971E+04  0.46999998093E+01 0. -1.
</event>
<event>
 5   0  0.8355946E-07  0.2906545E+04  0.7818609E-02  0.8270933E-01
        1   -1    0    0  501    0  0.00000000000E+00  0.00000000000E+00  0.11966608624E+04  0.11966608624E+04  0.50400001928E-02 0. -1.
       -1   -1    0    0    0  501  0.00000000000E+00  0.00000000000E+00 -0.17649115225E+04  0.17649115225E+04  0.50400001928E-02 0.  1.
    10030    2    1    2    0    0  0.00000000000E+00  0.00000000000E+00 -0.56825066007E+03  0.29615723849E+04  0.29065447147E+04 0.  0.
        4    1    3    3  502    0 -0.82101479161E+01  0.14478515321E+04 -0.41162412665E+03  0.15052499792E+04  0.12699999809E+01 0. -1.
       -4    1    3    3    0  502  0.82101479161E+01 -0.14478515321E+04 -0.15662653342E+03  0.14563224057E+04  0.12699999809E+01 0.  1.
</event>
<event>
 5   0  0.2378690E-06  0.2895140E+04  0.7818609E-02  0.8274325E-01
       -2   -1    0    0    0  501  0.00000000000E+00  0.00000000000E+00  0.10862750377E+04  0.10862750377E+04  0.25500000920E-02 0. -1.
        2   -1    0    0  501    0  0.00000000000E+00  0.00000000000E+00 -0.19290316267E+04  0.19290316267E+04  0.25500000920E-02 0.  1.
    10030    2    1    2    0    0  0.00000000000E+00  0.00000000000E+00 -0.84275658897E+03  0.30153066643E+04  0.28951399986E+04 0.  0.
        3    1    3    3  502    0  0.41642699426E+03 -0.12830141795E+04 -0.96846370717E+03  0.16605597817E+04  0.10100000352E+00 0.  1.
       -3    1    3    3    0  502 -0.41642699426E+03  0.12830141795E+04  0.12570711820E+03  0.13547468826E+04  0.10100000352E+00 0. -1.
</event>
<event>
 5   0  0.7621125E-07  0.2901748E+04  0.7818609E-02  0.8272358E-01
       -3   -1    0    0    0  501  0.00000000000E+00  0.00000000000E+00  0.86274738320E+03  0.86274738911E+03  0.10100000352E+00 0. -1.
        3   -1    0    0  501    0  0.00000000000E+00  0.00000000000E+00 -0.24399201672E+04  0.24399201693E+04  0.10100000352E+00 0.  1.
    10030    2    1    2    0    0  0.00000000000E+00  0.00000000000E+00 -0.15771727840E+04  0.33026675584E+04  0.29017475787E+04 0.  0.
        4    1    3    3  502    0  0.26924226703E+03  0.19769812612E+02  0.83390800698E+03  0.87651949256E+03  0.12699999809E+01 0. -1.
       -4    1    3    3    0  502 -0.26924226703E+03 -0.19769812612E+02 -0.24110807910E+04  0.24261480658E+04  0.12699999809E+01 0.  1.
</event>
<event>
 5   0  0.8947674E-07  0.2901030E+04  0.7818609E-02  0.8272571E-01
       -1   -1    0    0    0  501  0.00000000000E+00  0.00000000000E+00  0.95571868879E+03  0.95571868881E+03  0.50400001928E-02 0. -1.
        1   -1    0    0  501    0  0.00000000000E+00  0.00000000000E+00 -0.22014777990E+04  0.22014777990E+04  0.50400001928E-02 0.  1.
    10030    2    1    2    0    0  0.00000000000E+00  0.00000000000E+00 -0.12457591102E+04  0.31571964878E+04  0.29010298003E+04 0.  0.
        3    1    3    3  502    0  0.23212295651E+03 -0.11614412356E+04  0.28841767039E+03  0.12190207437E+04  0.10100000352E+00 0. -1.
       -3    1    3    3    0  502 -0.23212295651E+03  0.11614412356E+04 -0.15341767806E+04  0.19381757441E+04  0.10100000352E+00 0.  1.
</event>
<event>
 5   0  0.8947674E-07  0.2897181E+04  0.7818609E-02  0.8273717E-01
        1   -1    0    0  501    0  0.00000000000E+00  0.00000000000E+00  0.27191236095E+04  0.27191236095E+04  0.50400001928E-02 0. -1.
       -1   -1    0    0    0  501  0.00000000000E+00  0.00000000000E+00 -0.77172432177E+03  0.77172432179E+03  0.50400001928E-02 0.  1.
    10030    2    1    2    0    0  0.00000000000E+00  0.00000000000E+00  0.19473992877E+04  0.34908479312E+04  0.28971805766E+04 0.  0.
        3    1    3    3  502    0  0.77085384690E+03 -0.48265149986E+03 -0.38483310561E+03  0.98755488605E+03  0.10100000352E+00 0.  1.
       -3    1    3    3    0  502 -0.77085384690E+03  0.48265149986E+03  0.23322323933E+04  0.25032930452E+04  0.10100000352E+00 0. -1.
</event>
<event>
 5   0  0.8357118E-07  0.2894941E+04  0.7818609E-02  0.8274384E-01
       -1   -1    0    0    0  501  0.00000000000E+00  0.00000000000E+00  0.13805580244E+04  0.13805580244E+04  0.50400001928E-02 0. -1.
        1   -1    0    0  501    0  0.00000000000E+00  0.00000000000E+00 -0.15176261126E+04  0.15176261126E+04  0.50400001928E-02 0.  1.
    10030    2    1    2    0    0  0.00000000000E+00  0.00000000000E+00 -0.13706808821E+03  0.28981841370E+04  0.28949410411E+04 0.  0.
        1    1    3    3  502    0  0.11443987805E+04 -0.88408759794E+03 -0.13114575928E+03  0.14520532565E+04  0.50400001928E-02 0.  1.
       -1    1    3    3    0  502 -0.11443987805E+04  0.88408759794E+03 -0.59223289203E+01  0.14461308805E+04  0.50400001928E-02 0. -1.
</event>
<event>
 5   0  0.2378690E-06  0.2903140E+04  0.7818609E-02  0.8271944E-01
       -2   -1    0    0    0  501  0.00000000000E+00  0.00000000000E+00  0.16415584294E+04  0.16415584294E+04  0.25500000920E-02 0.  1.
        2   -1    0    0  501    0  0.00000000000E+00  0.00000000000E+00 -0.12835701983E+04  0.12835701983E+04  0.25500000920E-02 0. -1.
    10030    2    1    2    0    0  0.00000000000E+00  0.00000000000E+00  0.35798823111E+03  0.29251286277E+04  0.29031400096E+04 0.  0.
        3    1    3    3  502    0 -0.58927253795E+03 -0.87024738243E+03  0.11878182429E+04  0.15860280007E+04  0.10100000352E+00 0.  1.
       -3    1    3    3    0  502  0.58927253795E+03  0.87024738243E+03 -0.82983001180E+03  0.13391006270E+04  0.10100000352E+00 0. -1.
</event>
<event>
 5   0  0.7621125E-07  0.2894314E+04  0.7818609E-02  0.8274571E-01
        3   -1    0    0  501    0  0.00000000000E+00  0.00000000000E+00  0.13969308778E+04  0.13969308815E+04  0.10100000352E+00 0. -1.
       -3   -1    0    0    0  501  0.00000000000E+00  0.00000000000E+00 -0.14991887344E+04  0.14991887378E+04  0.10100000352E+00 0.  1.
    10030    2    1    2    0    0  0.00000000000E+00  0.00000000000E+00 -0.10225785661E+03  0.28961196193E+04  0.28943137667E+04 0.  0.
        5    1    3    3  502    0  0.26244668741E+03  0.13055997066E+04 -0.61784976063E+03  0.14680699146E+04  0.46999998093E+01 0.  1.
       -5    1    3    3    0  502 -0.26244668741E+03 -0.13055997066E+04  0.51559190402E+03  0.14280497047E+04  0.46999998093E+01 0. -1.
</event>
<event>
 5   0  0.2378690E-06  0.2923652E+04  0.7818609E-02  0.8265875E-01
        2   -1    0    0  501    0  0.00000000000E+00  0.00000000000E+00  0.27845269780E+04  0.27845269780E+04  0.25500000920E-02 0.  1.
       -2   -1    0    0    0  501  0.00000000000E+00  0.00000000000E+00 -0.76743183150E+03  0.76743183150E+03  0.25500000920E-02 0. -1.
    10030    2    1    2    0    0  0.00000000000E+00  0.00000000000E+00  0.20170951465E+04  0.35519588095E+04  0.29236515788E+04 0.  0.
        3    1    3    3  502    0  0.11277887552E+04  0.38338072810E+03 -0.20933937166E+02  0.11913549005E+04  0.10100000352E+00 0. -1.
       -3    1    3    3    0  502 -0.11277887552E+04 -0.38338072810E+03  0.20380290837E+04  0.23606039090E+04  0.10100000352E+00 0.  1.
</event>
<event>
 5   0  0.2325590E-06  0.2890810E+04  0.7818609E-02  0.8275617E-01
        2   -1    0    0  501    0  0.00000000000E+00  0.00000000000E+00  0.19014744462E+04  0.19014744462E+04  0.25500000920E-02 0. -1.
       -2   -1    0    0    0  501  0.00000000000E+00  0.00000000000E+00 -0.10987243724E+04  0.10987243724E+04  0.25500000920E-02 0.  1.
    10030    2    1    2    0    0  0.00000000000E+00  0.00000000000E+00  0.80275007375E+03  0.30001988186E+04  0.28908104868E+04 0.  0.
        5    1    3    3  502    0  0.99861537321E+03  0.89370443838E+03 -0.16062653812E+03  0.13497271063E+04  0.46999998093E+01 0.  1.
       -5    1    3    3    0  502 -0.99861537321E+03 -0.89370443838E+03  0.96337661188E+03  0.16504717123E+04  0.46999998093E+01 0. -1.
</event>
<event>
 5   0  0.8355946E-07  0.2893147E+04  0.7818609E-02  0.8274919E-01
        1   -1    0    0  501    0  0.00000000000E+00  0.00000000000E+00  0.14253352335E+04  0.14253352335E+04  0.50400001928E-02 0. -1.
       -1   -1    0    0    0  501  0.00000000000E+00  0.00000000000E+00 -0.14681278827E+04  0.14681278827E+04  0.50400001928E-02 0.  1.
    10030    2    1    2    0    0  0.00000000000E+00  0.00000000000E+00 -0.42792649163E+02  0.28934631163E+04  0.28931466597E+04 0.  0.
        4    1    3    3  502    0  0.48591516552E+03  0.45911291321E+03 -0.13043751252E+04  0.14657060740E+04  0.12699999809E+01 0.  1.
       -4    1    3    3    0  502 -0.48591516552E+03 -0.45911291321E+03  0.12615824760E+04  0.14277570423E+04  0.12699999809E+01 0. -1.
</event>
<event>
 5   0  0.8357118E-07  0.2876525E+04  0.7818609E-02  0.8279896E-01
       -1   -1    0    0    0  501  0.00000000000E+00  0.00000000000E+00  0.13145975015E+04  0.13145975015E+04  0.50400001928E-02 0. -1.
        1   -1    0    0  501    0  0.00000000000E+00  0.00000000000E+00 -0.15735609726E+04  0.15735609726E+04  0.50400001928E-02 0.  1.
    10030    2    1    2    0    0  0.00000000000E+00  0.00000000000E+00 -0.25896347118E+03  0.28881584741E+04  0.28765252115E+04 0.  0.
        1    1    3    3  502    0  0.38105166903E+03 -0.12486107075E+04  0.47659036105E+03  0.13897364663E+04  0.50400001928E-02 0. -1.
       -1    1    3    3    0  502 -0.38105166903E+03  0.12486107075E+04 -0.73555383223E+03  0.14984220078E+04  0.50400001928E-02 0.  1.
</event>
<event>
 5   0  0.2425845E-06  0.2901742E+04  0.7818609E-02  0.8272359E-01
       -2   -1    0    0    0  501  0.00000000000E+00  0.00000000000E+00  0.15174401416E+04  0.15174401416E+04  0.25500000920E-02 0. -1.
        2   -1    0    0  501    0  0.00000000000E+00  0.00000000000E+00 -0.13872222760E+04  0.13872222760E+04  0.25500000920E-02 0.  1.
    10030    2    1    2    0    0  0.00000000000E+00  0.00000000000E+00  0.13021786558E+03  0.29046624176E+04  0.29017420746E+04 0.  0.
        2    1    3    3  502    0  0.11453954841E+04 -0.53691747174E+03  0.77632774223E+03  0.14842156009E+04  0.25500000920E-02 0.  1.
       -2    1    3    3    0  502 -0.11453954841E+04  0.53691747174E+03 -0.64610987665E+03  0.14204468167E+04  0.25500000920E-02 0. -1.
</event>
<event>
 5   0  0.2378690E-06  0.2887628E+04  0.7818609E-02  0.8276568E-01
        2   -1    0    0  501    0  0.00000000000E+00  0.00000000000E+00  0.16300669906E+04  0.16300669906E+04  0.25500000920E-02 0.  1.
       -2   -1    0    0    0  501  0.00000000000E+00  0.00000000000E+00 -0.12788426938E+04  0.12788426938E+04  0.25500000920E-02 0. -1.
    10030    2    1    2    0    0  0.00000000000E+00  0.00000000000E+00  0.35122429683E+03  0.29089096844E+04  0.28876282734E+04 0.  0.
        3    1    3    3  502    0 -0.84615926165E+03 -0.11241058836E+04 -0.15081255448E+03  0.14150420384E+04  0.10100000352E+00 0.  1.
       -3    1    3    3    0  502  0.84615926165E+03  0.11241058836E+04  0.50203685131E+03  0.14938676460E+04  0.10100000352E+00 0. -1.
</event>
<event>
 5   0  0.8357118E-07  0.2899566E+04  0.7818609E-02  0.8273007E-01
       -1   -1    0    0    0  501  0.00000000000E+00  0.00000000000E+00  0.17726328133E+04  0.17726328133E+04  0.50400001928E-02 0. -1.
        1   -1    0    0  501    0  0.00000000000E+00  0.00000000000E+00 -0.11857338953E+04  0.11857338953E+04  0.50400001928E-02 0.  1.
    10030    2    1    2    0    0  0.00000000000E+00  0.00000000000E+00  0.58689891803E+03  0.29583667086E+04  0.28995660439E+04 0.  0.
        1    1    3    3  502    0 -0.92687417649E+03  0.18502854336E+03  0.14150789713E+04  0.17016990909E+04  0.50400001928E-02 0. -1.
       -1    1    3    3    0  502  0.92687417649E+03 -0.18502854336E+03 -0.82818005323E+03  0.12566676178E+04  0.50400001928E-02 0.  1.
</event>
<event>
 5   0  0.2325590E-06  0.2904221E+04  0.7818609E-02  0.8271623E-01
        2   -1    0    0  501    0  0.00000000000E+00  0.00000000000E+00  0.23048129094E+04  0.23048129094E+04  0.25500000920E-02 0. -1.
       -2   -1    0    0    0  501  0.00000000000E+00  0.00000000000E+00 -0.91487869558E+03  0.91487869559E+03  0.25500000920E-02 0.  1.
    10030    2    1    2    0    0  0.00000000000E+00  0.00000000000E+00  0.13899342139E+04  0.32196916050E+04  0.29042205344E+04 0.  0.
        5    1    3    3  502    0 -0.85765582684E+03  0.10400086024E+04  0.12934303079E+04  0.18682011299E+04  0.46999998093E+01 0. -1.
       -5    1    3    3    0  502  0.85765582684E+03 -0.10400086024E+04  0.96503905921E+02  0.13514904751E+04  0.46999998093E+01 0.  1.
</event>
<event>
 5   0  0.8357118E-07  0.2896295E+04  0.7818609E-02  0.8273981E-01
        1   -1    0    0  501    0  0.00000000000E+00  0.00000000000E+00  0.19184091608E+04  0.19184091608E+04  0.50400001928E-02 0.  1.
       -1   -1    0    0    0  501  0.00000000000E+00  0.00000000000E+00 -0.10931619384E+04  0.10931619384E+04  0.50400001928E-02 0. -1.
    10030    2    1    2    0    0  0.00000000000E+00  0.00000000000E+00  0.82524722234E+03  0.30115710992E+04  0.28962954800E+04 0.  0.
        1    1    3    3  502    0 -0.92524082565E+03  0.41449349881E+02  0.15701903939E+04  0.18229883453E+04  0.50400001928E-02 0.  1.
       -1    1    3    3    0  502  0.92524082565E+03 -0.41449349881E+02 -0.74494317151E+03  0.11885827539E+04  0.50400001928E-02 0. -1.
</event>
<event>
 5   0  0.8263673E-07  0.2915063E+04  0.7818609E-02  0.8268410E-01
       -1   -1    0    0    0  501  0.00000000000E+00  0.00000000000E+00  0.89141942349E+03  0.89141942350E+03  0.50400001928E-02 0.  1.
        1   -1    0    0  501    0  0.00000000000E+00  0.00000000000E+00 -0.23831632616E+04  0.23831632616E+04  0.50400001928E-02 0. -1.
    10030    2    1    2    0    0  0.00000000000E+00  0.00000000000E+00 -0.14917438381E+04  0.32745826851E+04  0.29150629638E+04 0.  0.
        5    1    3    3  502    0  0.30523383909E+03 -0.14250750569E+04 -0.72428416853E+03  0.16274569921E+04  0.46999998093E+01 0. -1.
       -5    1    3    3    0  502 -0.30523383909E+03  0.14250750569E+04 -0.76745966961E+03  0.16471256931E+04  0.46999998093E+01 0.  1.
</event>
<event>
 5   0  0.2425845E-06  0.2904067E+04  0.7818609E-02  0.8271668E-01
        2   -1    0    0  501    0  0.00000000000E+00  0.00000000000E+00  0.10785077728E+04  0.10785077728E+04  0.25500000920E-02 0. -1.
       -2   -1    0    0    0  501  0.00000000000E+00  0.00000000000E+00 -0.19549247711E+04  0.19549247711E+04  0.25500000920E-02 0.  1.
    10030    2    1    2    0    0  0.00000000000E+00  0.00000000000E+00 -0.87641699822E+03  0.30334325439E+04  0.29040671899E+04 0.  0.
        2    1    3    3  502    0  0.45534786375E+03 -0.10709664295E+04 -0.13452757767E+04  0.17787854524E+04  0.25500000920E-02 0.  1.
       -2    1    3    3    0  502 -0.45534786375E+03  0.10709664295E+04  0.46885877852E+03  0.12546470915E+04  0.25500000920E-02 0. -1.
</event>
<event>
 5   0  0.8357118E-07  0.2909650E+04  0.7818609E-02  0.8270012E-01
       -1   -1    0    0    0  501  0.00000000000E+00  0.00000000000E+00  0.18010877464E+04  0.18010877465E+04  0.50400001928E-02 0. -1.
        1   -1    0    0  501    0  0.00000000000E+00  0.00000000000E+00 -0.11751319419E+04  0.11751319419E+04  0.50400001928E-02 0.  1.
    10030    2    1    2    0    0  0.00000000000E+00  0.00000000000E+00  0.62595580458E+03  0.29762196883E+04  0.29096499728E+04 0.  0.
        1    1    3    3  502    0 -0.37893484193E+03  0.37421900893E+02 -0.11232562262E+04  0.11860423950E+04  0.50400001928E-02 0.  1.
       -1    1    3    3    0  502  0.37893484193E+03 -0.37421900893E+02  0.17492120307E+04  0.17901772933E+04  0.50400001928E-02 0. -1.
</event>
<event>
 5   0  0.8483636E-07  0.2889988E+04  0.7818609E-02  0.8275863E-01
        1   -1    0    0  501    0  0.00000000000E+00  0.00000000000E+00  0.15274854502E+04  0.15274854503E+04  0.50400001928E-02 0.  1.
       -1   -1    0    0    0  501  0.00000000000E+00  0.00000000000E+00 -0.13669570142E+04  0.13669570142E+04  0.50400001928E-02 0. -1.
    10030    2    1    2    0    0  0.00000000000E+00  0.00000000000E+00  0.16052843607E+03  0.28944424644E+04  0.28899875088E+04 0.  0.
        2    1    3    3  502    0 -0.56892300494E+03 -0.21755412266E+03 -0.12321006011E+04  0.13744362746E+04  0.25500000920E-02 0. -1.
       -2    1    3    3    0  502  0.56892300494E+03  0.21755412266E+03  0.13926290372E+04  0.15200061898E+04  0.25500000920E-02 0.  1.
</event>
<event>
 5   0  0.2325590E-06  0.2893474E+04  0.7818609E-02  0.8274822E-01
       -2   -1    0    0    0  501  0.00000000000E+00  0.00000000000E+00  0.11453714629E+04  0.11453714629E+04  0.25500000920E-02 0.  1.
        2   -1    0    0  501    0  0.00000000000E+00  0.00000000000E+00 -0.18273960925E+04  0.18273960925E+04  0.25500000920E-02 0. -1.
    10030    2    1    2    0    0  0.00000000000E+00  0.00000000000E+00 -0.68202462963E+03  0.29727675555E+04  0.28934735775E+04 0.  0.
        5    1    3    3  502    0 -0.11717986260E+04 -0.84436391970E+03 -0.42674240955E+03  0.15060523307E+04  0.46999998093E+01 0.  1.
       -5    1    3    3    0  502  0.11717986260E+04  0.84436391970E+03 -0.25528222008E+03  0.14667152248E+04  0.46999998093E+01 0. -1.
</event>
<event>
 5   0  0.2360103E-06  0.2905227E+04  0.7818609E-02  0.8271324E-01
       -2   -1    0    0    0  501  0.00000000000E+00  0.00000000000E+00  0.94791428631E+03  0.94791428632E+03  0.25500000920E-02 0. -1.
        2   -1    0    0  501    0  0.00000000000E+00  0.00000000000E+00 -0.22260296717E+04  0.22260296717E+04  0.25500000920E-02 0.  1.
    10030    2    1    2    0    0  0.00000000000E+00  0.00000000000E+00 -0.12781153854E+04  0.31739439580E+04  0.29052265506E+04 0.  0.
        4    1    3    3  502    0 -0.37569537980E+03  0.67930043082E+03 -0.19804200884E+04  0.21271251569E+04  0.12699999809E+01 0.  1.
       -4    1    3    3    0  502  0.37569537980E+03 -0.67930043082E+03  0.70230470297E+03  0.10468188011E+04  0.12699999809E+01 0. -1.
</event>
<event>
 5   0  0.8483636E-07  0.2905674E+04  0.7818609E-02  0.8271191E-01
       -1   -1    0    0    0  501  0.00000000000E+00  0.00000000000E+00  0.11512348801E+04  0.11512348801E+04  0.50400001928E-02 0.  1.
        1   -1    0    0  501    0  0.00000000000E+00  0.00000000000E+00 -0.18334528518E+04  0.18334528518E+04  0.50400001928E-02 0. -1.
    10030    2    1    2    0    0  0.00000000000E+00  0.00000000000E+00 -0.68221797177E+03  0.29846877319E+04  0.29056736733E+04 0.  0.
        2    1    3    3  502    0 -0.72739292372E+03  0.45868956421E+03 -0.15439508312E+04  0.17672806090E+04  0.25500000920E-02 0. -1.
       -2    1    3    3    0  502  0.72739292372E+03 -0.45868956421E+03  0.86173285945E+03  0.12174071229E+04  0.25500000920E-02 0.  1.
</event>
<event>
 5   0  0.8947674E-07  0.2901853E+04  0.7818609E-02  0.8272326E-01
       -1   -1    0    0    0  501  0.00000000000E+00  0.00000000000E+00  0.89939103810E+03  0.89939103812E+03  0.50400001928E-02 0.  1.
        1   -1    0    0  501    0  0.00000000000E+00  0.00000000000E+00 -0.23406809735E+04  0.23406809735E+04  0.50400001928E-02 0. -1.
    10030    2    1    2    0    0  0.00000000000E+00  0.00000000000E+00 -0.14412899354E+04  0.32400720116E+04  0.29018528499E+04 0.  0.
        3    1    3    3  502    0  0.65212326578E+03 -0.30383411038E+03  0.68621494769E+03  0.99421873098E+03  0.10100000352E+00 0.  1.
       -3    1    3    3    0  502 -0.65212326578E+03  0.30383411038E+03 -0.21275048831E+04  0.22458532806E+04  0.10100000352E+00 0. -1.
</event>
<event>
 5   0  0.8483636E-07  0.2887402E+04  0.7818609E-02  0.8276636E-01
        1   -1    0    0  501    0  0.00000000000E+00  0.00000000000E+00  0.18452211672E+04  0.18452211672E+04  0.50400001928E-02 0. -1.
       -1   -1    0    0    0  501  0.00000000000E+00  0.00000000000E+00 -0.11295515013E+04  0.11295515013E+04  0.50400001928E-02 0.  1.
    10030    2    1    2    0    0  0.00000000000E+00  0.00000000000E+00  0.71566966590E+03  0.29747726684E+04  0.28874018353E+04 0.  0.
        2    1    3    3  502    0 -0.37211846169E+03 -0.65275960264E+03 -0.91223094377E+03  0.11818343975E+04  0.25500000920E-02 0.  1.
       -2    1    3    3    0  502  0.37211846169E+03  0.65275960264E+03  0.16279006097E+04  0.17929382709E+04  0.25500000920E-02 0. -1.
</event>
<event>
 5   0  0.2378690E-06  0.2909938E+04  0.7818609E-02  0.8269927E-01
        2   -1    0    0  501    0  0.00000000000E+00  0.00000000000E+00  0.16386439800E+04  0.16386439800E+04  0.25500000920E-02 0.  1.
       -2   -1    0    0    0  501  0.00000000000E+00  0.00000000000E+00 -0.12918817985E+04  0.12918817985E+04  0.25500000920E-02 0. -1.
    10030    2    1    2    0    0  0.00000000000E+00  0.00000000000E+00  0.34676218151E+03  0.29305257786E+04  0.29099376846E+04 0.  0.
        3    1    3    3  502    0  0.63836203870E+03 -0.13065792539E+04  0.12530569819E+03  0.14595742418E+04  0.10100000352E+00 0. -1.
       -3    1    3    3    0  502 -0.63836203870E+03  0.13065792539E+04  0.22145648331E+03  0.14709515367E+04  0.10100000352E+00 0.  1.
</event>
<event>
 5   0  0.7621125E-07  0.2841305E+04  0.7818609E-02  0.8290558E-01
        3   -1    0    0  501    0  0.00000000000E+00  0.00000000000E+00  0.13341135237E+04  0.13341135276E+04  0.10100000352E+00 0. -1.
       -3   -1    0    0    0  501  0.00000000000E+00  0.00000000000E+00 -0.15128052184E+04  0.15128052218E+04  0.10100000352E+00 0.  1.
    10030    2    1    2    0    0  0.00000000000E+00  0.00000000000E+00 -0.17869169466E+03  0.28469187493E+04  0.28413052711E+04 0.  0.
        1    1    3    3  502    0  0.35017768048E+03  0.66558851451E+03  0.11182827794E+04  0.13476605111E+04  0.50400001928E-02 0. -1.
       -1    1    3    3    0  502 -0.35017768048E+03 -0.66558851451E+03 -0.12969744740E+04  0.14992582382E+04  0.50400001928E-02 0.  1.
</event>
<event>
 5   0  0.8355946E-07  0.2868491E+04  0.7818609E-02  0.8282314E-01
        1   -1    0    0  501    0  0.00000000000E+00  0.00000000000E+00  0.14446467941E+04  0.14446467941E+04  0.50400001928E-02 0. -1.
       -1   -1    0    0    0  501  0.00000000000E+00  0.00000000000E+00 -0.14239192274E+04  0.14239192274E+04  0.50400001928E-02 0.  1.
    10030    2    1    2    0    0  0.00000000000E+00  0.00000000000E+00  0.20727566650E+02  0.28685660215E+04  0.28684911344E+04 0.  0.
        4    1    3    3  502    0  0.52654452552E+03  0.12956940081E+04 -0.30742845535E+03  0.14319867206E+04  0.12699999809E+01 0.  1.
       -4    1    3    3    0  502 -0.52654452552E+03 -0.12956940081E+04  0.32815602200E+03  0.14365793009E+04  0.12699999809E+01 0. -1.
</event>
<event>
 5   0  0.8947674E-07  0.2900211E+04  0.7818609E-02  0.8272815E-01
       -1   -1    0    0    0  501  0.00000000000E+00  0.00000000000E+00  0.13806585279E+04  0.13806585279E+04  0.50400001928E-02 0. -1.
        1   -1    0    0  501    0  0.00000000000E+00  0.00000000000E+00 -0.15230452572E+04  0.15230452572E+04  0.50400001928E-02 0.  1.
    10030    2    1    2    0    0  0.00000000000E+00  0.00000000000E+00 -0.14238672929E+03  0.29037037851E+04  0.29002106287E+04 0.  0.
        3    1    3    3  502    0  0.36072888533E+03  0.69660387908E+03 -0.12922618838E+04  0.15117285072E+04  0.10100000352E+00 0.  1.
       -3    1    3    3    0  502 -0.36072888533E+03 -0.69660387908E+03  0.11498751545E+04  0.13919752778E+04  0.10100000352E+00 0. -1.
</event>
<event>
 5   0  0.2304435E-06  0.2886626E+04  0.7818609E-02  0.8276868E-01
        2   -1    0    0  501    0  0.00000000000E+00  0.00000000000E+00  0.13663504741E+04  0.13663504741E+04  0.25500000920E-02 0.  1.
       -2   -1    0    0    0  501  0.00000000000E+00  0.00000000000E+00 -0.15246110295E+04  0.15246110295E+04  0.25500000920E-02 0. -1.
    10030    2    1    2    0    0  0.00000000000E+00  0.00000000000E+00 -0.15826055541E+03  0.28909615036E+04  0.28866264067E+04 0.  0.
        1    1    3    3  502    0 -0.12094293261E+04  0.34987292007E+03  0.62763674091E+03  0.14067900460E+04  0.50400001928E-02 0.  1.
       -1    1    3    3    0  502  0.12094293261E+04 -0.34987292007E+03 -0.78589729632E+03  0.14841714575E+04  0.50400001928E-02 0. -1.
</event>
<event>
 5   0  0.8357118E-07  0.2893381E+04  0.7818609E-02  0.8274850E-01
       -1   -1    0    0    0  501  0.00000000000E+00  0.00000000000E+00  0.14644066481E+04  0.14644066481E+04  0.50400001928E-02 0.  1.
        1   -1    0    0  501    0  0.00000000000E+00  0.00000000000E+00 -0.14291883518E+04  0.14291883518E+04  0.50400001928E-02 0. -1.
    10030    2    1    2    0    0  0.00000000000E+00  0.00000000000E+00  0.35218296341E+02  0.28935949999E+04  0.28933806689E+04 0.  0.
        1    1    3    3  502    0 -0.74536097983E+03 -0.97487613477E+03 -0.74858496513E+03  0.14374720583E+04  0.50400001928E-02 0. -1.
       -1    1    3    3    0  502  0.74536097983E+03  0.97487613477E+03  0.78380326147E+03  0.14561229416E+04  0.50400001928E-02 0.  1.
</event>
<event>
 5   0  0.2378690E-06  0.2910078E+04  0.7818609E-02  0.8269885E-01
       -2   -1    0    0    0  501  0.00000000000E+00  0.00000000000E+00  0.29539447505E+04  0.29539447505E+04  0.25500000920E-02 0.  1.
        2   -1    0    0  501    0  0.00000000000E+00  0.00000000000E+00 -0.71671567496E+03  0.71671567496E+03  0.25500000920E-02 0. -1.
    10030    2    1    2    0    0  0.00000000000E+00  0.00000000000E+00  0.22372290756E+04  0.36706604255E+04  0.29100780097E+04 0.  0.
        3    1    3    3  502    0  0.28774573075E+02 -0.14436433105E+04  0.13449736267E+04  0.19732937061E+04  0.10100000352E+00 0.  1.
       -3    1    3    3    0  502 -0.28774573075E+02  0.14436433105E+04  0.89225544891E+03  0.16973667194E+04  0.10100000352E+00 0. -1.
</event>
<event>
 5   0  0.2378690E-06  0.2894434E+04  0.7818609E-02  0.8274536E-01
        2   -1    0    0  501    0  0.00000000000E+00  0.00000000000E+00  0.17339906195E+04  0.17339906195E+04  0.25500000920E-02 0.  1.
       -2   -1    0    0    0  501  0.00000000000E+00  0.00000000000E+00 -0.12078706594E+04  0.12078706594E+04  0.25500000920E-02 0. -1.
    10030    2    1    2    0    0  0.00000000000E+00  0.00000000000E+00  0.52611996004E+03  0.29418612789E+04  0.28944335494E+04 0.  0.
        3    1    3    3  502    0 -0.13461457646E+04  0.34121023469E+02 -0.27587732491E+03  0.13745475518E+04  0.10100000352E+00 0. -1.
       -3    1    3    3    0  502  0.13461457646E+04 -0.34121023469E+02  0.80199728495E+03  0.15673137270E+04  0.10100000352E+00 0.  1.
</event>
<event>
 5   0  0.2360103E-06  0.2891177E+04  0.7818609E-02  0.8275507E-01
       -2   -1    0    0    0  501  0.00000000000E+00  0.00000000000E+00  0.18756011103E+04  0.18756011103E+04  0.25500000920E-02 0. -1.
        2   -1    0    0  501    0  0.00000000000E+00  0.00000000000E+00 -0.11141636074E+04  0.11141636074E+04  0.25500000920E-02 0.  1.
    10030    2    1    2    0    0  0.00000000000E+00  0.00000000000E+00  0.76143750295E+03  0.29897647177E+04  0.28911772682E+04 0.  0.
        4    1    3    3  502    0  0.10166735490E+04  0.10051389661E+04  0.15942283038E+03  0.14385224010E+04  0.12699999809E+01 0.  1.
       -4    1    3    3    0  502 -0.10166735490E+04 -0.10051389661E+04  0.60201467257E+03  0.15512423167E+04  0.12699999809E+01 0. -1.
</event>
<event>
 5   0  0.8263673E-07  0.2897555E+04  0.7818609E-02  0.8273605E-01
        1   -1    0    0  501    0  0.00000000000E+00  0.00000000000E+00  0.23282367345E+04  0.23282367345E+04  0.50400001928E-02 0.  1.
       -1   -1    0    0    0  501  0.00000000000E+00  0.00000000000E+00 -0.90152187842E+03  0.90152187843E+03  0.50400001928E-02 0. -1.
    10030    2    1    2    0    0  0.00000000000E+00  0.00000000000E+00  0.14267148561E+04  0.32297586129E+04  0.28975550758E+04 0.  0.
        5    1    3    3  502    0 -0.15162985039E+03  0.94120695359E+03 -0.50261858116E+03  0.10777335798E+04  0.46999998093E+01 0. -1.
       -5    1    3    3    0  502  0.15162985039E+03 -0.94120695359E+03  0.19293334372E+04  0.21520250331E+04  0.46999998093E+01 0.  1.
</event>
<event>
 5   0  0.2360103E-06  0.2904023E+04  0.7818609E-02  0.8271681E-01
        2   -1    0    0  501    0  0.00000000000E+00  0.00000000000E+00  0.25634827625E+04  0.25634827625E+04  0.25500000920E-02 0. -1.
       -2   -1    0    0    0  501  0.00000000000E+00  0.00000000000E+00 -0.82245050682E+03  0.82245050683E+03  0.25500000920E-02 0.  1.
    10030    2    1    2    0    0  0.00000000000E+00  0.00000000000E+00  0.17410322557E+04  0.33859332693E+04  0.29040232074E+04 0.  0.
        4    1    3    3  502    0 -0.10779744542E+04  0.38423958756E+03 -0.17146825357E+03  0.11571827684E+04  0.12699999809E+01 0.  1.
       -4    1    3    3    0  502  0.10779744542E+04 -0.38423958756E+03  0.19125005093E+04  0.22287505009E+04  0.12699999809E+01 0. -1.
</event>
<event>
 5   0  0.8263673E-07  0.2903538E+04  0.7818609E-02  0.8271826E-01
       -1   -1    0    0    0  501  0.00000000000E+00  0.00000000000E+00  0.17073901735E+04  0.17073901735E+04  0.50400001928E-02 0.  1.
        1   -1    0    0  501    0  0.00000000000E+00  0.00000000000E+00 -0.12344179994E+04  0.12344179995E+04  0.50400001928E-02 0. -1.
    10030    2    1    2    0    0  0.00000000000E+00  0.00000000000E+00  0.47297217406E+03  0.29418081730E+04  0.29035379538E+04 0.  0.
        5    1    3    3  502    0  0.13313271688E+04  0.50260399940E+03 -0.54648238967E+02  0.14240966718E+04  0.46999998093E+01 0. -1.
       -5    1    3    3    0  502 -0.13313271688E+04 -0.50260399940E+03  0.52762041303E+03  0.15177115012E+04  0.46999998093E+01 0.  1.
</event>
<event>
 5   0  0.2304435E-06  0.2905622E+04  0.7818609E-02  0.8271207E-01
        2   -1    0    0  501    0  0.00000000000E+00  0.00000000000E+00  0.91980438925E+03  0.91980438925E+03  0.25500000920E-02 0.  1.
       -2   -1    0    0    0  501  0.00000000000E+00  0.00000000000E+00 -0.22946832446E+04  0.22946832446E+04  0.25500000920E-02 0. -1.
    10030    2    1    2    0    0  0.00000000000E+00  0.00000000000E+00 -0.13748788553E+04  0.32144876338E+04  0.29056219439E+04 0.  0.
        1    1    3    3  502    0  0.90701972278E+03  0.76712118922E+03  0.23782639258E+03  0.12114953939E+04  0.50400001928E-02 0.  1.
       -1    1    3    3    0  502 -0.90701972278E+03 -0.76712118922E+03 -0.16127052479E+04  0.20029922399E+04  0.50400001928E-02 0. -1.
</event>
<event>
 5   0  0.8483636E-07  0.2896734E+04  0.7818609E-02  0.8273850E-01
       -1   -1    0    0    0  501  0.00000000000E+00  0.00000000000E+00  0.74681867123E+03  0.74681867125E+03  0.50400001928E-02 0. -1.
        1   -1    0    0  501    0  0.00000000000E+00  0.00000000000E+00 -0.28089374692E+04  0.28089374692E+04  0.50400001928E-02 0.  1.
    10030    2    1    2    0    0  0.00000000000E+00  0.00000000000E+00 -0.20621187980E+04  0.35557561405E+04  0.28967339874E+04 0.  0.
        2    1    3    3  502    0  0.69842613780E+02 -0.13757366851E+04 -0.48177647936E+03  0.14593279253E+04  0.25500000920E-02 0. -1.
       -2    1    3    3    0  502 -0.69842613780E+02  0.13757366851E+04 -0.15803423187E+04  0.20964282152E+04  0.25500000920E-02 0.  1.
</event>
<event>
 5   0  0.2325590E-06  0.2898959E+04  0.7818609E-02  0.8273187E-01
       -2   -1    0    0    0  501  0.00000000000E+00  0.00000000000E+00  0.89721599001E+03  0.89721599002E+03  0.25500000920E-02 0. -1.
        2   -1    0    0  501    0  0.00000000000E+00  0.00000000000E+00 -0.23416782267E+04  0.23416782267E+04  0.25500000920E-02 0.  1.
    10030    2    1    2    0    0  0.00000000000E+00  0.00000000000E+00 -0.14444622367E+04  0.32388942167E+04  0.28989592260E+04 0.  0.
        5    1    3    3  502    0 -0.96981744066E+02 -0.14300778471E+04 -0.96300269098E+03  0.17268249420E+04  0.46999998093E+01 0.  1.
       -5    1    3    3    0  502  0.96981744066E+02  0.14300778471E+04 -0.48145954567E+03  0.15120692747E+04  0.46999998093E+01 0. -1.
</event>
<event>
 5   0  0.8947674E-07  0.2874056E+04  0.7818609E-02  0.8280639E-01
        1   -1    0    0  501    0  0.00000000000E+00  0.00000000000E+00  0.17375426711E+04  0.17375426711E+04  0.50400001928E-02 0. -1.
       -1   -1    0    0    0  501  0.00000000000E+00  0.00000000000E+00 -0.11884887175E+04  0.11884887175E+04  0.50400001928E-02 0.  1.
    10030    2    1    2    0    0  0.00000000000E+00  0.00000000000E+00  0.54905395364E+03  0.29260313886E+04  0.28740562700E+04 0.  0.
        3    1    3    3  502    0 -0.13572720442E+04  0.19085404263E+03 -0.16506522549E+03  0.13805285967E+04  0.10100000352E+00 0.  1.
       -3    1    3    3    0  502  0.13572720442E+04 -0.19085404263E+03  0.71411917913E+03  0.15455027919E+04  0.10100000352E+00 0. -1.
</event>
<event>
 5   0  0.8947674E-07  0.2902139E+04  0.7818609E-02  0.8272241E-01
       -1   -1    0    0    0  501  0.00000000000E+00  0.00000000000E+00  0.18669287238E+04  0.18669287238E+04  0.50400001928E-02 0. -1.
        1   -1    0    0  501    0  0.00000000000E+00  0.00000000000E+00 -0.11278431856E+04  0.11278431856E+04  0.50400001928E-02 0.  1.
    10030    2    1    2    0    0  0.00000000000E+00  0.00000000000E+00  0.73908553818E+03  0.29947719095E+04  0.29021391002E+04 0.  0.
        3    1    3    3  502    0  0.10092354361E+04  0.27261768192E+03  0.14080070492E+04  0.17536705582E+04  0.10100000352E+00 0. -1.
       -3    1    3    3    0  502 -0.10092354361E+04 -0.27261768192E+03 -0.66892151098E+03  0.12411013513E+04  0.10100000352E+00 0.  1.
</event>
<event>
 5   0  0.8947674E-07  0.2863515E+04  0.7818609E-02  0.8283816E-01
       -1   -1    0    0    0  501  0.00000000000E+00  0.00000000000E+00  0.99599593614E+03  0.99599593616E+03  0.50400001928E-02 0.  1.
        1   -1    0    0  501    0  0.00000000000E+00  0.00000000000E+00 -0.20581707049E+04  0.20581707049E+04  0.50400001928E-02 0. -1.
    10030    2    1    2    0    0  0.00000000000E+00  0.00000000000E+00 -0.10621747687E+04  0.30541666410E+04  0.28635150832E+04 0.  0.
        3    1    3    3  502    0  0.74327747928E+03  0.10842511350E+04 -0.11361940836E+04  0.17375266734E+04  0.10100000352E+00 0. -1.
       -3    1    3    3    0  502 -0.74327747928E+03 -0.10842511350E+04  0.74019314911E+02  0.13166399676E+04  0.10100000352E+00 0.  1.
</event>
<event>
 5   0  0.8355946E-07  0.2936891E+04  0.7818609E-02  0.8261985E-01
        1   -1    0    0  501    0  0.00000000000E+00  0.00000000000E+00  0.16744950523E+04  0.16744950523E+04  0.50400001928E-02 0. -1.
       -1   -1    0    0    0  501  0.00000000000E+00  0.00000000000E+00 -0.12877506874E+04  0.12877506874E+04  0.50400001928E-02 0.  1.
    10030    2    1    2    0    0  0.00000000000E+00  0.00000000000E+00  0.38674436494E+03  0.29622457397E+04  0.29368909783E+04 0.  0.
        4    1    3    3  502    0  0.88355327773E+03  0.11714291272E+04  0.25234011835E+03  0.14888215954E+04  0.12699999809E+01 0.  1.
       -4    1    3    3    0  502 -0.88355327773E+03 -0.11714291272E+04  0.13440424660E+03  0.14734241443E+04  0.12699999809E+01 0. -1.
</event>
<event>
 5   0  0.8263673E-07  0.2898632E+04  0.7818609E-02  0.8273285E-01
        1   -1    0    0  501    0  0.00000000000E+00  0.00000000000E+00  0.11210674572E+04  0.11210674572E+04  0.50400001928E-02 0.  1.
       -1   -1    0    0    0  501  0.00000000000E+00  0.00000000000E+00 -0.18736757788E+04  0.18736757788E+04  0.50400001928E-02 0. -1.
    10030    2    1    2    0    0  0.00000000000E+00  0.00000000000E+00 -0.75260832162E+03  0.29947432361E+04  0.28986320505E+04 0.  0.
        5    1    3    3  502    0 -0.11562512678E+04 -0.76239368803E+02  0.52305651183E+03  0.12713534679E+04  0.46999998093E+01 0.  1.
       -5    1    3    3    0  502  0.11562512678E+04  0.76239368803E+02 -0.12756648335E+04  0.17233897682E+04  0.46999998093E+01 0. -1.
</event>
<event>
 5   0  0.2325590E-06  0.2862856E+04  0.7818609E-02  0.8284015E-01
       -2   -1    0    0    0  501  0.00000000000E+00  0.00000000000E+00  0.80431591428E+03  0.80431591428E+03  0.25500000920E-02 0.  1.
        2   -1    0    0  501    0  0.00000000000E+00  0.00000000000E+00 -0.25474893153E+04  0.25474893153E+04  0.25500000920E-02 0. -1.
    10030    2    1    2    0    0  0.00000000000E+00  0.00000000000E+00 -0.17431734010E+04  0.33518052296E+04  0.28628560549E+04 0.  0.
        5    1    3    3  502    0 -0.81381933009E+03  0.78912951944E+03 -0.18948984950E+04  0.22080963966E+04  0.46999998093E+01 0. -1.
       -5    1    3    3    0  502  0.81381933009E+03 -0.78912951944E+03  0.15172509395E+03  0.11437088330E+04  0.46999998093E+01 0.  1.
</event>
<event>
 5   0  0.7621125E-07  0.2903690E+04  0.7818609E-02  0.8271780E-01
        3   -1    0    0  501    0  0.00000000000E+00  0.00000000000E+00  0.81557239400E+03  0.81557240026E+03  0.10100000352E+00 0. -1.
       -3   -1    0    0    0  501  0.00000000000E+00  0.00000000000E+00 -0.25845090887E+04  0.25845090907E+04  0.10100000352E+00 0.  1.
    10030    2    1    2    0    0  0.00000000000E+00  0.00000000000E+00 -0.17689366947E+04  0.34000814909E+04  0.29036902581E+04 0.  0.
        4    1    3    3  502    0 -0.45741749407E+03  0.13774898197E+04 -0.92406831701E+03  0.17206431456E+04  0.12699999809E+01 0. -1.
       -4    1    3    3    0  502  0.45741749407E+03 -0.13774898197E+04 -0.84486837766E+03  0.16794383453E+04  0.12699999809E+01 0.  1.
</event>
<event>
 5   0  0.2304435E-06  0.2897715E+04  0.7818609E-02  0.8273558E-01
        2   -1    0    0  501    0  0.00000000000E+00  0.00000000000E+00  0.17375187068E+04  0.17375187068E+04  0.25500000920E-02 0.  1.
       -2   -1    0    0    0  501  0.00000000000E+00  0.00000000000E+00 -0.12081523792E+04  0.12081523792E+04  0.25500000920E-02 0. -1.
    10030    2    1    2    0    0  0.00000000000E+00  0.00000000000E+00  0.52936632760E+03  0.29456710859E+04  0.28977145197E+04 0.  0.
        1    1    3    3  502    0  0.67575477800E+03 -0.11119357886E+04  0.91252264955E+03  0.15892587278E+04  0.50400001928E-02 0.  1.
       -1    1    3    3    0  502 -0.67575477800E+03  0.11119357886E+04 -0.38315632195E+03  0.13564123581E+04  0.50400001928E-02 0. -1.
</event>
<event>
 5   0  0.8357118E-07  0.2891066E+04  0.7818609E-02  0.8275541E-01
        1   -1    0    0  501    0  0.00000000000E+00  0.00000000000E+00  0.13167155045E+04  0.13167155045E+04  0.50400001928E-02 0.  1.
       -1   -1    0    0    0  501  0.00000000000E+00  0.00000000000E+00 -0.15869529730E+04  0.15869529730E+04  0.50400001928E-02 0. -1.
    10030    2    1    2    0    0  0.00000000000E+00  0.00000000000E+00 -0.27023746849E+03  0.29036684775E+04  0.28910659518E+04 0.  0.
        1    1    3    3  502    0  0.82712448616E+03 -0.10186071994E+04 -0.74428555648E+03  0.15085279354E+04  0.50400001928E-02 0. -1.
       -1    1    3    3    0  502 -0.82712448616E+03  0.10186071994E+04  0.47404808799E+03  0.13951405421E+04  0.50400001928E-02 0.  1.
</event>
<event>
 5   0  0.2360103E-06  0.2856211E+04  0.7818609E-02  0.8286027E-01
        2   -1    0    0  501    0  0.00000000000E+00  0.00000000000E+00  0.18554473071E+04  0.18554473071E+04  0.25500000920E-02 0. -1.
       -2   -1    0    0    0  501  0.00000000000E+00  0.00000000000E+00 -0.10991878825E+04  0.10991878825E+04  0.25500000920E-02 0.  1.
    10030    2    1    2    0    0  0.00000000000E+00  0.00000000000E+00  0.75625942457E+03  0.29546351897E+04  0.28562109143E+04 0.  0.
        4    1    3    3  502    0  0.77333871423E+03 -0.25224125549E+03 -0.83611856494E+03  0.11665223039E+04  0.12699999809E+01 0.  1.
       -4    1    3    3    0  502 -0.77333871423E+03  0.25224125549E+03  0.15923779895E+04  0.17881128858E+04  0.12699999809E+01 0. -1.
</event>
<event>
 5   0  0.2378690E-06  0.2914350E+04  0.7818609E-02  0.8268621E-01
        2   -1    0    0  501    0  0.00000000000E+00  0.00000000000E+00  0.23044577241E+04  0.23044577241E+04  0.25500000920E-02 0. -1.
       -2   -1    0    0    0  501  0.00000000000E+00  0.00000000000E+00 -0.92141391143E+03  0.92141391143E+03  0.25500000920E-02 0.  1.
    10030    2    1    2    0    0  0.00000000000E+00  0.00000000000E+00  0.13830438126E+04  0.32258716355E+04  0.29143502914E+04 0.  0.
        3    1    3    3  502    0 -0.18834381501E+03  0.64551629024E+03 -0.73940964160E+03  0.99944549722E+03  0.10100000352E+00 0.  1.
       -3    1    3    3    0  502  0.18834381501E+03 -0.64551629024E+03  0.21224534542E+04  0.22264261383E+04  0.10100000352E+00 0. -1.
</event>
<event>
 5   0  0.8947674E-07  0.2909899E+04  0.7818609E-02  0.8269938E-01
        1   -1    0    0  501    0  0.00000000000E+00  0.00000000000E+00  0.11439880227E+04  0.11439880227E+04  0.50400001928E-02 0.  1.
       -1   -1    0    0    0  501  0.00000000000E+00  0.00000000000E+00 -0.18504373430E+04  0.18504373430E+04  0.50400001928E-02 0. -1.
    10030    2    1    2    0    0  0.00000000000E+00  0.00000000000E+00 -0.70644932025E+03  0.29944253657E+04  0.29098990753E+04 0.  0.
        3    1    3    3  502    0  0.10122259990E+04 -0.10258106091E+04 -0.14744270219E+03  0.14486642949E+04  0.10100000352E+00 0.  1.
       -3    1    3    3    0  502 -0.10122259990E+04  0.10258106091E+04 -0.55900661807E+03  0.15457610708E+04  0.10100000352E+00 0. -1.
</event>
<event>
 5   0  0.8263673E-07  0.2901145E+04  0.7818609E-02  0.8272537E-01
        1   -1    0    0  501    0  0.00000000000E+00  0.00000000000E+00  0.23850999332E+04  0.23850999332E+04  0.50400001928E-02 0.  1.
       -1   -1    0    0    0  501  0.00000000000E+00  0.00000000000E+00 -0.88221054266E+03  0.88221054267E+03  0.50400001928E-02 0. -1.
    10030    2    1    2    0    0  0.00000000000E+00  0.00000000000E+00  0.15028893905E+04  0.32673104759E+04  0.29011448129E+04 0.  0.
        5    1    3    3  502    0  0.54808535909E+03 -0.44346679021E+03 -0.67626351487E+03  0.97694154708E+03  0.46999998093E+01 0. -1.
       -5    1    3    3    0  502 -0.54808535909E+03  0.44346679021E+03  0.21791529054E+04  0.22903689288E+04  0.46999998093E+01 0.  1.
</event>
<event>
 5   0  0.8355946E-07  0.2899669E+04  0.7818609E-02  0.8272976E-01
       -1   -1    0    0    0  501  0.00000000000E+00  0.00000000000E+00  0.15198496427E+04  0.15198496427E+04  0.50400001928E-02 0.  1.
        1   -1    0    0  501    0  0.00000000000E+00  0.00000000000E+00 -0.13830446541E+04  0.13830446541E+04  0.50400001928E-02 0. -1.
    10030    2    1    2    0    0  0.00000000000E+00  0.00000000000E+00  0.13680498868E+03  0.29028942968E+04  0.28996688938E+04 0.  0.
        4    1    3    3  502    0 -0.15272429758E+03  0.81556600690E+03  0.12586512538E+04  0.15075401203E+04  0.12699999809E+01 0.  1.
       -4    1    3    3    0  502  0.15272429758E+03 -0.81556600690E+03 -0.11218462651E+04  0.13953541766E+04  0.12699999809E+01 0. -1.
</event>
<event>
 5   0  0.2325590E-06  0.2898751E+04  0.7818609E-02  0.8273249E-01
       -2   -1    0    0    0  501  0.00000000000E+00  0.00000000000E+00  0.15509486653E+04  0.15509486653E+04  0.25500000920E-02 0. -1.
        2   -1    0    0  501    0  0.00000000000E+00  0.00000000000E+00 -0.13544543121E+04  0.13544543121E+04  0.25500000920E-02 0.  1.
    10030    2    1    2    0    0  0.00000000000E+00  0.00000000000E+00  0.19649435327E+03  0.29054029774E+04  0.28987508396E+04 0.  0.
        5    1    3    3  502    0  0.11661321172E+04  0.41110096020E+03  0.85615632434E+03  0.15039593930E+04  0.46999998093E+01 0. -1.
       -5    1    3    3    0  502 -0.11661321172E+04 -0.41110096020E+03 -0.65966197107E+03  0.14014435844E+04  0.46999998093E+01 0.  1.
</event>
<event>
 5   0  0.2425845E-06  0.2885809E+04  0.7818609E-02  0.8277112E-01
       -2   -1    0    0    0  501  0.00000000000E+00  0.00000000000E+00  0.74869131305E+03  0.74869131306E+03  0.25500000920E-02 0. -1.
        2   -1    0    0  501    0  0.00000000000E+00  0.00000000000E+00 -0.27808171782E+04  0.27808171782E+04  0.25500000920E-02 0.  1.
    10030    2    1    2    0    0  0.00000000000E+00  0.00000000000E+00 -0.20321258652E+04  0.35295084913E+04  0.28858091860E+04 0.  0.
        2    1    3    3  502    0  0.13708552126E+03 -0.68590328001E+03 -0.25595964057E+04  0.26534486070E+04  0.25500000920E-02 0.  1.
       -2    1    3    3    0  502 -0.13708552126E+03  0.68590328001E+03  0.52747054058E+03  0.87605988428E+03  0.25500000920E-02 0. -1.
</event>
<event>
 5   0  0.2378690E-06  0.2881367E+04  0.7818609E-02  0.8278443E-01
        2   -1    0    0  501    0  0.00000000000E+00  0.00000000000E+00  0.13864384005E+04  0.13864384005E+04  0.25500000920E-02 0. -1.
       -2   -1    0    0    0  501  0.00000000000E+00  0.00000000000E+00 -0.14970508460E+04  0.14970508460E+04  0.25500000920E-02 0.  1.
    10030    2    1    2    0    0  0.00000000000E+00  0.00000000000E+00 -0.11061244550E+03  0.28834892465E+04  0.28813668842E+04 0.  0.
        3    1    3    3  502    0 -0.12494747261E+04  0.48955077370E+02 -0.77136459667E+03  0.14692130690E+04  0.10100000352E+00 0.  1.
       -3    1    3    3    0  502  0.12494747261E+04 -0.48955077370E+02  0.66075215117E+03  0.14142761775E+04  0.10100000352E+00 0. -1.
</event>
<event>
 5   0  0.2425845E-06  0.2895601E+04  0.7818609E-02  0.8274187E-01
       -2   -1    0    0    0  501  0.00000000000E+00  0.00000000000E+00  0.18262859076E+04  0.18262859076E+04  0.25500000920E-02 0.  1.
        2   -1    0    0  501    0  0.00000000000E+00  0.00000000000E+00 -0.11477537861E+04  0.11477537861E+04  0.25500000920E-02 0. -1.
    10030    2    1    2    0    0  0.00000000000E+00  0.00000000000E+00  0.67853212158E+03  0.29740396937E+04  0.28956011914E+04 0.  0.
        2    1    3    3  502    0  0.63990148696E+03  0.12967770742E+04  0.26648123865E+03  0.14704138682E+04  0.25500000920E-02 0.  1.
       -2    1    3    3    0  502 -0.63990148696E+03 -0.12967770742E+04  0.41205088293E+03  0.15036258255E+04  0.25500000920E-02 0. -1.
</event>
<event>
 5   0  0.2378690E-06  0.2896524E+04  0.7818609E-02  0.8273912E-01
        2   -1    0    0  501    0  0.00000000000E+00  0.00000000000E+00  0.10941786505E+04  0.10941786505E+04  0.25500000920E-02 0. -1.
       -2   -1    0    0    0  501  0.00000000000E+00  0.00000000000E+00 -0.19169296805E+04  0.19169296805E+04  0.25500000920E-02 0.  1.
    10030    2    1    2    0    0  0.00000000000E+00  0.00000000000E+00 -0.82275102995E+03  0.30111083310E+04  0.28965244905E+04 0.  0.
        3    1    3    3  502    0  0.92265231654E+03 -0.40284065962E+03 -0.14936636754E+04  0.18012770691E+04  0.10100000352E+00 0.  1.
       -3    1    3    3    0  502 -0.92265231654E+03  0.40284065962E+03  0.67091264546E+03  0.12098312619E+04  0.10100000352E+00 0. -1.
</event>
<event>
 5   0  0.2325590E-06  0.2885429E+04  0.7818609E-02  0.8277226E-01
       -2   -1    0    0    0  501  0.00000000000E+00  0.00000000000E+00  0.14544100139E+04  0.14544100139E+04  0.25500000920E-02 0.  1.
        2   -1    0    0  501    0  0.00000000000E+00  0.00000000000E+00 -0.14311132189E+04  0.14311132189E+04  0.25500000920E-02 0. -1.
    10030    2    1    2    0    0  0.00000000000E+00  0.00000000000E+00  0.23296794997E+02  0.28855232329E+04  0.28854291859E+04 0.  0.
        5    1    3    3  502    0 -0.11006065003E+03 -0.11478265644E+04  0.87873152260E+03  0.14497621693E+04  0.46999998093E+01 0.  1.
       -5    1    3    3    0  502  0.11006065003E+03  0.11478265644E+04 -0.85543472761E+03  0.14357610636E+04  0.46999998093E+01 0. -1.
</event>
<event>
 5   0  0.2360103E-06  0.2901822E+04  0.7818609E-02  0.8272335E-01
       -2   -1    0    0    0  501  0.00000000000E+00  0.00000000000E+00  0.16548154565E+04  0.16548154565E+04  0.25500000920E-02 0. -1.
        2   -1    0    0  501    0  0.00000000000E+00  0.00000000000E+00 -0.12721317796E+04  0.12721317796E+04  0.25500000920E-02 0.  1.
    10030    2    1    2    0    0  0.00000000000E+00  0.00000000000E+00  0.38268367693E+03  0.29269472362E+04  0.29018224147E+04 0.  0.
        4    1    3    3  502    0 -0.35147233973E+03  0.13570268281E+04  0.56886459591E+03  0.15128328259E+04  0.12699999809E+01 0. -1.
       -4    1    3    3    0  502  0.35147233973E+03 -0.13570268281E+04 -0.18618091898E+03  0.14141144103E+04  0.12699999809E+01 0.  1.
</event>
<event>
 5   0  0.2360103E-06  0.2903420E+04  0.7818609E-02  0.8271861E-01
       -2   -1    0    0    0  501  0.00000000000E+00  0.00000000000E+00  0.11699743818E+04  0.11699743818E+04  0.25500000920E-02 0. -1.
        2   -1    0    0  501    0  0.00000000000E+00  0.00000000000E+00 -0.18012884839E+04  0.18012884839E+04  0.25500000920E-02 0.  1.
    10030    2    1    2    0    0  0.00000000000E+00  0.00000000000E+00 -0.63131410213E+03  0.29712628657E+04  0.29034196254E+04 0.  0.
        4    1    3    3  502    0 -0.11175454664E+03  0.72323237815E+03  0.96739566379E+03  0.12130169557E+04  0.12699999809E+01 0. -1.
       -4    1    3    3    0  502  0.11175454664E+03 -0.72323237815E+03 -0.15987097659E+04  0.17582459100E+04  0.12699999809E+01 0.  1.
</event>
<event>
 5   0  0.8357118E-07  0.2897683E+04  0.7818609E-02  0.8273567E-01
        1   -1    0    0  501    0  0.00000000000E+00  0.00000000000E+00  0.89756194916E+03  0.89756194918E+03  0.50400001928E-02 0. -1.
       -1   -1    0    0    0  501  0.00000000000E+00  0.00000000000E+00 -0.23387144288E+04  0.23387144288E+04  0.50400001928E-02 0.  1.
    10030    2    1    2    0    0  0.00000000000E+00  0.00000000000E+00 -0.14411524797E+04  0.32362763780E+04  0.28976825784E+04 0.  0.
        1    1    3    3  502    0 -0.13979194595E+04  0.28994075971E+03 -0.44496850955E+03  0.14954067787E+04  0.50400001928E-02 0. -1.
       -1    1    3    3    0  502  0.13979194595E+04 -0.28994075971E+03 -0.99618397010E+03  0.17408695993E+04  0.50400001928E-02 0.  1.
</event>
<event>
 5   0  0.2425845E-06  0.2914744E+04  0.7818609E-02  0.8268504E-01
        2   -1    0    0  501    0  0.00000000000E+00  0.00000000000E+00  0.11572271103E+04  0.11572271103E+04  0.25500000920E-02 0. -1.
       -2   -1    0    0    0  501  0.00000000000E+00  0.00000000000E+00 -0.18353639539E+04  0.18353639539E+04  0.25500000920E-02 0.  1.
    10030    2    1    2    0    0  0.00000000000E+00  0.00000000000E+00 -0.67813684352E+03  0.29925910642E+04  0.29147438479E+04 0.  0.
        2    1    3    3  502    0 -0.11222141685E+04 -0.55578230907E+03  0.42627638532E+03  0.13228643815E+04  0.25500000920E-02 0.  1.
       -2    1    3    3    0  502  0.11222141685E+04  0.55578230907E+03 -0.11044132288E+04  0.16697266827E+04  0.25500000920E-02 0. -1.
</event>
<event>
 5   0  0.8263673E-07  0.2892329E+04  0.7818609E-02  0.8275164E-01
       -1   -1    0    0    0  501  0.00000000000E+00  0.00000000000E+00  0.20759450096E+04  0.20759450097E+04  0.50400001928E-02 0. -1.
        1   -1    0    0  501    0  0.00000000000E+00  0.00000000000E+00 -0.10074407664E+04  0.10074407664E+04  0.50400001928E-02 0.  1.
    10030    2    1    2    0    0  0.00000000000E+00  0.00000000000E+00  0.10685042433E+04  0.30833857760E+04  0.28923289104E+04 0.  0.
        5    1    3    3  502    0 -0.11013539838E+04 -0.93510318148E+03  0.60143045823E+03  0.15649726016E+04  0.46999998093E+01 0. -1.
       -5    1    3    3    0  502  0.11013539838E+04  0.93510318148E+03  0.46707378505E+03  0.15184131744E+04  0.46999998093E+01 0.  1.
</event>
<event>
 5   0  0.8357118E-07  0.2950775E+04  0.7818609E-02  0.8257929E-01
       -1   -1    0    0    0  501  0.00000000000E+00  0.00000000000E+00  0.10561012406E+04  0.10561012406E+04  0.50400001928E-02 0. -1.
        1   -1    0    0  501    0  0.00000000000E+00  0.00000000000E+00 -0.20611357214E+04  0.20611357214E+04  0.50400001928E-02 0.  1.
    10030    2    1    2    0    0  0.00000000000E+00  0.00000000000E+00 -0.10050344807E+04  0.31172369620E+04  0.29507748084E+04 0.  0.
        1    1    3    3  502    0  0.11066497465E+03 -0.66043002134E+03  0.88631576721E+03  0.11108421080E+04  0.50400001928E-02 0. -1.
       -1    1    3    3    0  502 -0.11066497465E+03  0.66043002134E+03 -0.18913502480E+04  0.20063948540E+04  0.50400001928E-02 0.  1.
</event>
<event>
 5   0  0.8263673E-07  0.2877171E+04  0.7818609E-02  0.8279702E-01
       -1   -1    0    0    0  501  0.00000000000E+00  0.00000000000E+00  0.19027234316E+04  0.19027234317E+04  0.50400001928E-02 0. -1.
        1   -1    0    0  501    0  0.00000000000E+00  0.00000000000E+00 -0.10876665523E+04  0.10876665523E+04  0.50400001928E-02 0.  1.
    10030    2    1    2    0    0  0.00000000000E+00  0.00000000000E+00  0.81505687938E+03  0.29903899839E+04  0.28771712739E+04 0.  0.
        5    1    3    3  502    0 -0.54779860637E+03 -0.10254724926E+04 -0.47305950219E+03  0.12551830658E+04  0.46999998093E+01 0.  1.
       -5    1    3    3    0  502  0.54779860637E+03  0.10254724926E+04  0.12881163816E+04  0.17352069181E+04  0.46999998093E+01 0. -1.
</event>
<event>
 5   0  0.2304435E-06  0.3038707E+04  0.7818609E-02  0.8232764E-01
        2   -1    0    0  501    0  0.00000000000E+00  0.00000000000E+00  0.16576206651E+04  0.16576206651E+04  0.25500000920E-02 0. -1.
       -2   -1    0    0    0  501  0.00000000000E+00  0.00000000000E+00 -0.13926193772E+04  0.13926193772E+04  0.25500000920E-02 0.  1.
    10030    2    1    2    0    0  0.00000000000E+00  0.00000000000E+00  0.26500128793E+03  0.30502400422E+04  0.30387067369E+04 0.  0.
        1    1    3    3  502    0  0.11905652281E+04  0.67520501238E+03  0.79461564295E+03  0.15826437980E+04  0.50400001928E-02 0. -1.
       -1    1    3    3    0  502 -0.11905652281E+04 -0.67520501238E+03 -0.52961435502E+03  0.14675962443E+04  0.50400001928E-02 0.  1.
</event>
<event>
 5   0  0.2378690E-06  0.2900422E+04  0.7818609E-02  0.8272752E-01
       -2   -1    0    0    0  501  0.00000000000E+00  0.00000000000E+00  0.11712786316E+04  0.11712786316E+04  0.25500000920E-02 0.  1.
        2   -1    0    0  501    0  0.00000000000E+00  0.00000000000E+00 -0.17955695771E+04  0.17955695771E+04  0.25500000920E-02 0. -1.
    10030    2    1    2    0    0  0.00000000000E+00  0.00000000000E+00 -0.62429094553E+03  0.29668482087E+04  0.29004222294E+04 0.  0.
        3    1    3    3  502    0  0.90336606779E+03  0.11258282266E+04 -0.45517931022E+03  0.15135216096E+04  0.10100000352E+00 0.  1.
       -3    1    3    3    0  502 -0.90336606779E+03 -0.11258282266E+04 -0.16911163531E+03  0.14533265991E+04  0.10100000352E+00 0. -1.
</event>
<event>
 5   0  0.2325590E-06  0.2905093E+04  0.7818609E-02  0.8271364E-01
       -2   -1    0    0    0  501  0.00000000000E+00  0.00000000000E+00  0.10392022953E+04  0.10392022953E+04  0.25500000920E-02 0.  1.
        2   -1    0    0  501    0  0.00000000000E+00  0.00000000000E+00 -0.20302996388E+04  0.20302996388E+04  0.25500000920E-02 0. -1.
    10030    2    1    2    0    0  0.00000000000E+00  0.00000000000E+00 -0.99109734352E+03  0.30695019341E+04  0.29050934888E+04 0.  0.
        5    1    3    3  502    0  0.40213606725E+03 -0.91696689340E+03 -0.16073981309E+04  0.18937509185E+04  0.46999998093E+01 0. -1.
       -5    1    3    3    0  502 -0.40213606725E+03  0.91696689340E+03  0.61630078734E+03  0.11757510156E+04  0.46999998093E+01 0.  1.
</event>
<event>
 5   0  0.8263673E-07  0.2900139E+04  0.7818609E-02  0.8272836E-01
        1   -1    0    0  501    0  0.00000000000E+00  0.00000000000E+00  0.20145671818E+04  0.20145671818E+04  0.50400001928E-02 0. -1.
       -1   -1    0    0    0  501  0.00000000000E+00  0.00000000000E+00 -0.10437486487E+04  0.10437486487E+04  0.50400001928E-02 0.  1.
    10030    2    1    2    0    0  0.00000000000E+00  0.00000000000E+00  0.97081853306E+03  0.30583158305E+04  0.29001391510E+04 0.  0.
        5    1    3    3  502    0  0.15571527055E+03  0.68372113514E+02 -0.10331876074E+04  0.10471010999E+04  0.46999998093E+01 0.  1.
       -5    1    3    3    0  502 -0.15571527055E+03 -0.68372113514E+02  0.20040061405E+04  0.20112147306E+04  0.46999998093E+01 0. -1.
</event>
<event>
 5   0  0.2378690E-06  0.2892944E+04  0.7818609E-02  0.8274980E-01
        2   -1    0    0  501    0  0.00000000000E+00  0.00000000000E+00  0.16999175746E+04  0.16999175746E+04  0.25500000920E-02 0.  1.
       -2   -1    0    0    0  501  0.00000000000E+00  0.00000000000E+00 -0.12308136315E+04  0.12308136315E+04  0.25500000920E-02 0. -1.
    10030    2    1    2    0    0  0.00000000000E+00  0.00000000000E+00  0.46910394318E+03  0.29307312061E+04  0.28929443294E+04 0.  0.
        3    1    3    3  502    0 -0.69101734645E+02 -0.11848964541E+04  0.10721078043E+04  0.15994279636E+04  0.10100000352E+00 0.  1.
       -3    1    3    3    0  502  0.69101734645E+02  0.11848964541E+04 -0.60300386110E+03  0.13313032425E+04  0.10100000352E+00 0. -1.
</event>
<event>
 5   0  0.2304435E-06  0.2896111E+04  0.7818609E-02  0.8274036E-01
       -2   -1    0    0    0  501  0.00000000000E+00  0.00000000000E+00  0.80390284859E+03  0.80390284859E+03  0.25500000920E-02 0. -1.
        2   -1    0    0  501    0  0.00000000000E+00  0.00000000000E+00 -0.26083555841E+04  0.26083555841E+04  0.25500000920E-02 0.  1.
    10030    2    1    2    0    0  0.00000000000E+00  0.00000000000E+00 -0.18044527355E+04  0.34122584327E+04  0.28961108295E+04 0.  0.
        1    1    3    3  502    0 -0.83146780162E+03  0.14972286289E+03 -0.22878807423E+04  0.24388837471E+04  0.50400001928E-02 0.  1.
       -1    1    3    3    0  502  0.83146780162E+03 -0.14972286289E+03  0.48342800678E+03  0.97337468560E+03  0.50400001928E-02 0. -1.
</event>
<event>
 5   0  0.2325590E-06  0.2885136E+04  0.7818609E-02  0.8277314E-01
        2   -1    0    0  501    0  0.00000000000E+00  0.00000000000E+00  0.19145983745E+04  0.19145983745E+04  0.25500000920E-02 0. -1.
       -2   -1    0    0    0  501  0.00000000000E+00  0.00000000000E+00 -0.10869133654E+04  0.10869133654E+04  0.25500000920E-02 0.  1.
    10030    2    1    2    0    0  0.00000000000E+00  0.00000000000E+00  0.82768500913E+03  0.30015117399E+04  0.28851360887E+04 0.  0.
        5    1    3    3  502    0  0.35802175453E+03  0.13091501252E+04  0.92236037286E+03  0.16409827466E+04  0.46999998093E+01 0. -1.
       -5    1    3    3    0  502 -0.35802175453E+03 -0.13091501252E+04 -0.94675363734E+02  0.13605289933E+04  0.46999998093E+01 0.  1.
</event>
<event>
 5   0  0.8263673E-07  0.2889540E+04  0.7818609E-02  0.8275996E-01
       -1   -1    0    0    0  501  0.00000000000E+00  0.00000000000E+00  0.11702168729E+04  0.11702168729E+04  0.50400001928E-02 0. -1.
        1   -1    0    0  501    0  0.00000000000E+00  0.00000000000E+00 -0.17837380629E+04  0.17837380629E+04  0.50400001928E-02 0.  1.
    10030    2    1    2    0    0  0.00000000000E+00  0.00000000000E+00 -0.61352119004E+03  0.29539549358E+04  0.28895400174E+04 0.  0.
        5    1    3    3  502    0  0.34462252607E+03 -0.13944270123E+04 -0.14790375001E+03  0.14439837213E+04  0.46999998093E+01 0. -1.
       -5    1    3    3    0  502 -0.34462252607E+03  0.13944270123E+04 -0.46561744003E+03  0.15099712145E+04  0.46999998093E+01 0.  1.
</event>
<event>
 5   0  0.2378690E-06  0.2902045E+04  0.7818609E-02  0.8272269E-01
       -2   -1    0    0    0  501  0.00000000000E+00  0.00000000000E+00  0.15634491174E+04  0.15634491174E+04  0.25500000920E-02 0.  1.
        2   -1    0    0  501    0  0.00000000000E+00  0.00000000000E+00 -0.13466806952E+04  0.13466806952E+04  0.25500000920E-02 0. -1.
    10030    2    1    2    0    0  0.00000000000E+00  0.00000000000E+00  0.21676842215E+03  0.29101298126E+04  0.29020453093E+04 0.  0.
        3    1    3    3  502    0  0.12237631580E+04 -0.76738135667E+03 -0.29826887466E+02  0.14447699010E+04  0.10100000352E+00 0. -1.
       -3    1    3    3    0  502 -0.12237631580E+04  0.76738135667E+03  0.24659530962E+03  0.14653599116E+04  0.10100000352E+00 0.  1.
</event>
<event>
 5   0  0.2304435E-06  0.2893238E+04  0.7818609E-02  0.8274892E-01
        2   -1    0    0  501    0  0.00000000000E+00  0.00000000000E+00  0.18488523919E+04  0.18488523919E+04  0.25500000920E-02 0. -1.
       -2   -1    0    0    0  501  0.00000000000E+00  0.00000000000E+00 -0.11318949404E+04  0.11318949404E+04  0.25500000920E-02 0.  1.
    10030    2    1    2    0    0  0.00000000000E+00  0.00000000000E+00  0.71695745158E+03  0.29807473323E+04  0.28932380945E+04 0.  0.
        1    1    3    3  502    0 -0.12125011170E+04  0.39735459550E+03 -0.34379633735E+03  0.13214558467E+04  0.50400001928E-02 0.  1.
       -1    1    3    3    0  502  0.12125011170E+04 -0.39735459550E+03  0.10607537889E+04  0.16592914856E+04  0.50400001928E-02 0. -1.
</event>
<event>
 5   0  0.2360103E-06  0.2909391E+04  0.7818609E-02  0.8270089E-01
        2   -1    0    0  501    0  0.00000000000E+00  0.00000000000E+00  0.16696352782E+04  0.16696352782E+04  0.25500000920E-02 0.  1.
       -2   -1    0    0    0  501  0.00000000000E+00  0.00000000000E+00 -0.12674257270E+04  0.12674257270E+04  0.25500000920E-02 0. -1.
    10030    2    1    2    0    0  0.00000000000E+00  0.00000000000E+00  0.40220955116E+03  0.29370610052E+04  0.29093907997E+04 0.  0.
        4    1    3    3  502    0 -0.67835907699E+03  0.10360944679E+04 -0.56935380068E+03  0.13630216972E+04  0.12699999809E+01 0. -1.
       -4    1    3    3    0  502  0.67835907699E+03 -0.10360944679E+04  0.97156335184E+03  0.15740393080E+04  0.12699999809E+01 0.  1.
</event>
<event>
 5   0  0.2304435E-06  0.2912291E+04  0.7818609E-02  0.8269230E-01
       -2   -1    0    0    0  501  0.00000000000E+00  0.00000000000E+00  0.10343825173E+04  0.10343825173E+04  0.25500000920E-02 0.  1.
        2   -1    0    0  501    0  0.00000000000E+00  0.00000000000E+00 -0.20498798664E+04  0.20498798664E+04  0.25500000920E-02 0. -1.
    10030    2    1    2    0    0  0.00000000000E+00  0.00000000000E+00 -0.10154973492E+04  0.30842623837E+04  0.29122911230E+04 0.  0.
        1    1    3    3  502    0  0.21372439605E+03  0.43086595398E+03  0.94783334905E+03  0.10628789420E+04  0.50400001928E-02 0.  1.
       -1    1    3    3    0  502 -0.21372439605E+03 -0.43086595398E+03 -0.19633306982E+04  0.20213834417E+04  0.50400001928E-02 0. -1.
</event>
<event>
 5   0  0.2378690E-06  0.2900463E+04  0.7818609E-02  0.8272740E-01
        2   -1    0    0  501    0  0.00000000000E+00  0.00000000000E+00  0.68784387038E+03  0.68784387038E+03  0.25500000920E-02 0. -1.
       -2   -1    0    0    0  501  0.00000000000E+00  0.00000000000E+00 -0.30576299710E+04  0.30576299710E+04  0.25500000920E-02 0.  1.
    10030    2    1    2    0    0  0.00000000000E+00  0.00000000000E+00 -0.23697861006E+04  0.37454738414E+04  0.29004634343E+04 0.  0.
        3    1    3    3  502    0 -0.10372640759E+04 -0.95629033720E+03 -0.16185284299E+04  0.21471008967E+04  0.10100000352E+00 0.  1.
       -3    1    3    3    0  502  0.10372640759E+04  0.95629033720E+03 -0.75125767071E+03  0.15983729446E+04  0.10100000352E+00 0. -1.
</event>
<event>
 5   0  0.2425845E-06  0.2913662E+04  0.7818609E-02  0.8268824E-01
        2   -1    0    0  501    0  0.00000000000E+00  0.00000000000E+00  0.21186355212E+04  0.21186355212E+04  0.25500000920E-02 0.  1.
       -2   -1    0    0    0  501  0.00000000000E+00  0.00000000000E+00 -0.10017566451E+04  0.10017566451E+04  0.25500000920E-02 0. -1.
    10030    2    1    2    0    0  0.00000000000E+00  0.00000000000E+00  0.11168788761E+04  0.31203921662E+04  0.29136624456E+04 0.  0.
        2    1    3    3  502    0  0.50630867793E+01  0.62298962896E+03 -0.85189293280E+03  0.10553972151E+04  0.25500000920E-02 0. -1.
       -2    1    3    3    0  502 -0.50630867793E+01 -0.62298962896E+03  0.19687718089E+04  0.20649949511E+04  0.25500000920E-02 0.  1.
</event>
<event>
 5   0  0.2304435E-06  0.2958075E+04  0.7818609E-02  0.8255805E-01
       -2   -1    0    0    0  501  0.00000000000E+00  0.00000000000E+00  0.87552478109E+03  0.87552478109E+03  0.25500000920E-02 0. -1.
        2   -1    0    0  501    0  0.00000000000E+00  0.00000000000E+00 -0.24985600262E+04  0.24985600262E+04  0.25500000920E-02 0.  1.
    10030    2    1    2    0    0  0.00000000000E+00  0.00000000000E+00 -0.16230352451E+04  0.33740848073E+04  0.29580745224E+04 0.  0.
        1    1    3    3  502    0 -0.57304631630E+03 -0.91094842878E+03 -0.19687664547E+04  0.22437135454E+04  0.50400001928E-02 0.  1.
       -1    1    3    3    0  502  0.57304631630E+03  0.91094842878E+03  0.34573120958E+03  0.11303712619E+04  0.50400001928E-02 0. -1.
</event>
<event>
 5   0  0.2425845E-06  0.2881836E+04  0.7818609E-02  0.8278302E-01
       -2   -1    0    0    0  501  0.00000000000E+00  0.00000000000E+00  0.13897780893E+04  0.13897780893E+04  0.25500000920E-02 0. -1.
        2   -1    0    0  501    0  0.00000000000E+00  0.00000000000E+00 -0.14939395754E+04  0.14939395754E+04  0.25500000920E-02 0.  1.
    10030    2    1    2    0    0  0.00000000000E+00  0.00000000000E+00 -0.10416148609E+03  0.28837176647E+04  0.28818358653E+04 0.  0.
        2    1    3    3  502    0 -0.85080360203E+03 -0.25715947917E+03  0.10827880040E+04  0.14008667419E+04  0.25500000920E-02 0. -1.
       -2    1    3    3    0  502  0.85080360203E+03  0.25715947917E+03 -0.11869494901E+04  0.14828509227E+04  0.25500000920E-02 0.  1.
</event>
<event>
 5   0  0.8357118E-07  0.2901202E+04  0.7818609E-02  0.8272520E-01
        1   -1    0    0  501    0  0.00000000000E+00  0.00000000000E+00  0.21779008527E+04  0.21779008527E+04  0.50400001928E-02 0. -1.
       -1   -1    0    0    0  501  0.00000000000E+00  0.00000000000E+00 -0.96617927676E+03  0.96617927677E+03  0.50400001928E-02 0.  1.
    10030    2    1    2    0    0  0.00000000000E+00  0.00000000000E+00  0.12117215759E+04  0.31440801294E+04  0.29012015929E+04 0.  0.
        1    1    3    3  502    0  0.53811556735E+03 -0.11454269402E+04  0.13742084965E+04  0.18681595839E+04  0.50400001928E-02 0. -1.
       -1    1    3    3    0  502 -0.53811556735E+03  0.11454269402E+04 -0.16248692062E+03  0.12759205455E+04  0.50400001928E-02 0.  1.
</event>
<event>
 5   0  0.8483636E-07  0.2898158E+04  0.7818609E-02  0.8273426E-01
       -1   -1    0    0    0  501  0.00000000000E+00  0.00000000000E+00  0.15666105117E+04  0.15666105117E+04  0.50400001928E-02 0.  1.
        1   -1    0    0  501    0  0.00000000000E+00  0.00000000000E+00 -0.13403649711E+04  0.13403649711E+04  0.50400001928E-02 0. -1.
    10030    2    1    2    0    0  0.00000000000E+00  0.00000000000E+00  0.22624554066E+03  0.29069754828E+04  0.28981579344E+04 0.  0.
        2    1    3    3  502    0  0.93239744144E+03 -0.53678537077E+03 -0.86056560151E+03  0.13777070362E+04  0.25500000920E-02 0. -1.
       -2    1    3    3    0  502 -0.93239744144E+03  0.53678537077E+03  0.10868111422E+04  0.15292684466E+04  0.25500000920E-02 0.  1.
</event>
<event>
 5   0  0.8355946E-07  0.2902219E+04  0.7818609E-02  0.8272218E-01
       -1   -1    0    0    0  501  0.00000000000E+00  0.00000000000E+00  0.10559887680E+04  0.10559887680E+04  0.50400001928E-02 0.  1.
        1   -1    0    0  501    0  0.00000000000E+00  0.00000000000E+00 -0.19940728495E+04  0.19940728495E+04  0.50400001928E-02 0. -1.
    10030    2    1    2    0    0  0.00000000000E+00  0.00000000000E+00 -0.93808408150E+03  0.30500616175E+04  0.29022188282E+04 0.  0.
        4    1    3    3  502    0 -0.58904283697E+03  0.10170237049E+04 -0.13635210393E+04  0.18001388607E+04  0.12699999809E+01 0. -1.
       -4    1    3    3    0  502  0.58904283697E+03 -0.10170237049E+04  0.42543695778E+03  0.12499227569E+04  0.12699999809E+01 0.  1.
</event>
<event>
 5   0  0.7621125E-07  0.2907322E+04  0.7818609E-02  0.8270702E-01
       -3   -1    0    0    0  501  0.00000000000E+00  0.00000000000E+00  0.11578385925E+04  0.11578385969E+04  0.10100000352E+00 0.  1.
        3   -1    0    0  501    0  0.00000000000E+00  0.00000000000E+00 -0.18250646140E+04  0.18250646168E+04  0.10100000352E+00 0. -1.
    10030    2    1    2    0    0  0.00000000000E+00  0.00000000000E+00 -0.66722602148E+03  0.29829032137E+04  0.29073219668E+04 0.  0.
        2    1    3    3  502    0 -0.46749408875E+03  0.10322956996E+04  0.60052043524E+03  0.12825014338E+04  0.25500000920E-02 0.  1.
       -2    1    3    3    0  502  0.46749408875E+03 -0.10322956996E+04 -0.12677464567E+04  0.17004017799E+04  0.25500000920E-02 0. -1.
</event>
<event>
 5   0  0.2378690E-06  0.2903291E+04  0.7818609E-02  0.8271899E-01
       -2   -1    0    0    0  501  0.00000000000E+00  0.00000000000E+00  0.13800322617E+04  0.13800322617E+04  0.25500000920E-02 0.  1.
        2   -1    0    0  501    0  0.00000000000E+00  0.00000000000E+00 -0.15269745970E+04  0.15269745970E+04  0.25500000920E-02 0. -1.
    10030    2    1    2    0    0  0.00000000000E+00  0.00000000000E+00 -0.14694233537E+03  0.29070068587E+04  0.29032906893E+04 0.  0.
        3    1    3    3  502    0 -0.10180191799E+04 -0.52311028178E+03  0.82056969530E+03  0.14083117739E+04  0.10100000352E+00 0.  1.
       -3    1    3    3    0  502  0.10180191799E+04  0.52311028178E+03 -0.96751203067E+03  0.14986950848E+04  0.10100000352E+00 0. -1.
</event>
<event>
 5   0  0.2378690E-06  0.2890724E+04  0.7818609E-02  0.8275643E-01
        2   -1    0    0  501    0  0.00000000000E+00  0.00000000000E+00  0.16335576228E+04  0.16335576228E+04  0.25500000920E-02 0.  1.
       -2   -1    0    0    0  501  0.00000000000E+00  0.00000000000E+00 -0.12788476630E+04  0.12788476630E+04  0.25500000920E-02 0. -1.
    10030    2    1    2    0    0  0.00000000000E+00  0.00000000000E+00  0.35470995988E+03  0.29124052858E+04  0.28907240258E+04 0.  0.
        3    1    3    3  502    0 -0.10542751420E+03  0.67916452337E+03  0.14583835435E+04  0.16122226833E+04  0.10100000352E+00 0.  1.
       -3    1    3    3    0  502  0.10542751420E+03 -0.67916452337E+03 -0.11036735836E+04  0.13001826025E+04  0.10100000352E+00 0. -1.
</event>
<event>
 5   0  0.8947674E-07  0.2908257E+04  0.7818609E-02  0.8270425E-01
       -1   -1    0    0    0  501  0.00000000000E+00  0.00000000000E+00  0.14278352320E+04  0.14278352320E+04  0.50400001928E-02 0. -1.
        1   -1    0    0  501    0  0.00000000000E+00  0.00000000000E+00 -0.14809062019E+04  0.14809062019E+04  0.50400001928E-02 0.  1.
    10030    2    1    2    0    0  0.00000000000E+00  0.00000000000E+00 -0.53070969946E+02  0.29087414339E+04  0.29082572447E+04 0.  0.
        3    1    3    3  502    0  0.31337399304E+03  0.17790666015E+03 -0.14355411241E+04  0.14800785007E+04  0.10100000352E+00 0.  1.
       -3    1    3    3    0  502 -0.31337399304E+03 -0.17790666015E+03  0.13824701541E+04  0.14286629331E+04  0.10100000352E+00 0. -1.
</event>
<event>
 5   0  0.8355946E-07  0.2898590E+04  0.7818609E-02  0.8273297E-01
        1   -1    0    0  501    0  0.00000000000E+00  0.00000000000E+00  0.19193425433E+04  0.19193425433E+04  0.50400001928E-02 0. -1.
       -1   -1    0    0    0  501  0.00000000000E+00  0.00000000000E+00 -0.10943622591E+04  0.10943622591E+04  0.50400001928E-02 0.  1.
    10030    2    1    2    0    0  0.00000000000E+00  0.00000000000E+00  0.82498028425E+03  0.30137048024E+04  0.28985900308E+04 0.  0.
        4    1    3    3  502    0  0.47911915052E+03  0.42062393788E+03 -0.94072667071E+03  0.11364189102E+04  0.12699999809E+01 0.  1.
       -4    1    3    3    0  502 -0.47911915052E+03 -0.42062393788E+03  0.17657069550E+04  0.18772858922E+04  0.12699999809E+01 0. -1.
</event>
<event>
 5   0  0.8263673E-07  0.2903370E+04  0.7818609E-02  0.8271876E-01
       -1   -1    0    0    0  501  0.00000000000E+00  0.00000000000E+00  0.16854076797E+04  0.16854076797E+04  0.50400001928E-02 0. -1.
        1   -1    0    0  501    0  0.00000000000E+00  0.00000000000E+00 -0.12503733026E+04  0.12503733026E+04  0.50400001928E-02 0.  1.
    10030    2    1    2    0    0  0.00000000000E+00  0.00000000000E+00  0.43503437714E+03  0.29357809824E+04  0.29033696057E+04 0.  0.
        5    1    3    3  502    0  0.41717185098E+03 -0.85686987573E+02 -0.11857765048E+04  0.12599454839E+04  0.46999998093E+01 0.  1.
       -5    1    3    3    0  502 -0.41717185098E+03  0.85686987573E+02  0.16208108819E+04  0.16758354985E+04  0.46999998093E+01 0. -1.
</event>
<event>
 5   0  0.2360103E-06  0.2897558E+04  0.7818609E-02  0.8273604E-01
        2   -1    0    0  501    0  0.00000000000E+00  0.00000000000E+00  0.12246865194E+04  0.12246865194E+04  0.25500000920E-02 0. -1.
       -2   -1    0    0    0  501  0.00000000000E+00  0.00000000000E+00 -0.17138762162E+04  0.17138762163E+04  0.25500000920E-02 0.  1.
    10030    2    1    2    0    0  0.00000000000E+00  0.00000000000E+00 -0.48918969688E+03  0.29385627356E+04  0.28975583500E+04 0.  0.
        4    1    3    3  502    0  0.15618316326E+03 -0.14169637567E+04  0.17480419222E+02  0.14256530596E+04  0.12699999809E+01 0. -1.
       -4    1    3    3    0  502 -0.15618316326E+03  0.14169637567E+04 -0.50667011610E+03  0.15129096760E+04  0.12699999809E+01 0.  1.
</event>
<event>
 5   0  0.2360103E-06  0.2893738E+04  0.7818609E-02  0.8274743E-01
       -2   -1    0    0    0  501  0.00000000000E+00  0.00000000000E+00  0.17243937260E+04  0.17243937260E+04  0.25500000920E-02 0. -1.
        2   -1    0    0  501    0  0.00000000000E+00  0.00000000000E+00 -0.12140090389E+04  0.12140090389E+04  0.25500000920E-02 0.  1.
    10030    2    1    2    0    0  0.00000000000E+00  0.00000000000E+00  0.51038468715E+03  0.29384027649E+04  0.28937377697E+04 0.  0.
        4    1    3    3  502    0 -0.17172533096E+03  0.55289197580E+03 -0.10912641335E+04  0.12353291659E+04  0.12699999809E+01 0.  1.
       -4    1    3    3    0  502  0.17172533096E+03 -0.55289197580E+03  0.16016488206E+04  0.17030735990E+04  0.12699999809E+01 0. -1.
</event>
<event>
 5   0  0.2378690E-06  0.2907353E+04  0.7818609E-02  0.8270693E-01
       -2   -1    0    0    0  501  0.00000000000E+00  0.00000000000E+00  0.13967380601E+04  0.13967380601E+04  0.25500000920E-02 0. -1.
        2   -1    0    0  501    0  0.00000000000E+00  0.00000000000E+00 -0.15129356950E+04  0.15129356950E+04  0.25500000920E-02 0.  1.
    10030    2    1    2    0    0  0.00000000000E+00  0.00000000000E+00 -0.11619763494E+03  0.29096737551E+04  0.29073526567E+04 0.  0.
        3    1    3    3  502    0 -0.33407411207E+03  0.22048453478E+03  0.13404988596E+04  0.13989839689E+04  0.10100000352E+00 0. -1.
       -3    1    3    3    0  502  0.33407411207E+03 -0.22048453478E+03 -0.14566964946E+04  0.15106897861E+04  0.10100000352E+00 0.  1.
</event>
<event>
 5   0  0.8357118E-07  0.2896387E+04  0.7818609E-02  0.8273953E-01
       -1   -1    0    0    0  501  0.00000000000E+00  0.00000000000E+00  0.15516571463E+04  0.15516571463E+04  0.50400001928E-02 0.  1.
        1   -1    0    0  501    0  0.00000000000E+00  0.00000000000E+00 -0.13516285566E+04  0.13516285566E+04  0.50400001928E-02 0. -1.
    10030    2    1    2    0    0  0.00000000000E+00  0.00000000000E+00  0.20002858971E+03  0.29032857028E+04  0.28963867897E+04 0.  0.
        1    1    3    3  502    0 -0.10360927170E+04  0.24938073164E+03 -0.88292593882E+03  0.13839209085E+04  0.50400001928E-02 0. -1.
       -1    1    3    3    0  502  0.10360927170E+04 -0.24938073164E+03  0.10829545285E+04  0.15193647944E+04  0.50400001928E-02 0.  1.
</event>
<event>
 5   0  0.2360103E-06  0.3008683E+04  0.7818609E-02  0.8241256E-01
       -2   -1    0    0    0  501  0.00000000000E+00  0.00000000000E+00  0.11488729126E+04  0.11488729126E+04  0.25500000920E-02 0. -1.
        2   -1    0    0  501    0  0.00000000000E+00  0.00000000000E+00 -0.19697937822E+04  0.19697937822E+04  0.25500000920E-02 0.  1.
    10030    2    1    2    0    0  0.00000000000E+00  0.00000000000E+00 -0.82092086958E+03  0.31186666948E+04  0.30086825820E+04 0.  0.
        4    1    3    3  502    0 -0.92200330123E+02 -0.62514026234E+03  0.10046333945E+04  0.11868408144E+04  0.12699999809E+01 0. -1.
       -4    1    3    3    0  502  0.92200330123E+02  0.62514026234E+03 -0.18255542640E+04  0.19318258804E+04  0.12699999809E+01 0.  1.
</event>
<event>
 5   0  0.8355946E-07  0.2893262E+04  0.7818609E-02  0.8274885E-01
        1   -1    0    0  501    0  0.00000000000E+00  0.00000000000E+00  0.13770454937E+04  0.13770454937E+04  0.50400001928E-02 0. -1.
       -1   -1    0    0    0  501  0.00000000000E+00  0.00000000000E+00 -0.15197328202E+04  0.15197328202E+04  0.50400001928E-02 0.  1.
    10030    2    1    2    0    0  0.00000000000E+00  0.00000000000E+00 -0.14268732652E+03  0.28967783139E+04  0.28932619873E+04 0.  0.
        4    1    3    3  502    0  0.85754990671E+03 -0.80146926310E+03  0.77525765433E+03  0.14066879063E+04  0.12699999809E+01 0. -1.
       -4    1    3    3    0  502 -0.85754990671E+03  0.80146926310E+03 -0.91794498086E+03  0.14900904076E+04  0.12699999809E+01 0.  1.
</event>
<event>
 5   0  0.2304435E-06  0.2887512E+04  0.7818609E-02  0.8276603E-01
        2   -1    0    0  501    0  0.00000000000E+00  0.00000000000E+00  0.23757315953E+04  0.23757315953E+04  0.25500000920E-02 0.  1.
       -2   -1    0    0    0  501  0.00000000000E+00  0.00000000000E+00 -0.87738478319E+03  0.87738478320E+03  0.25500000920E-02 0. -1.
    10030    2    1    2    0    0  0.00000000000E+00  0.00000000000E+00  0.14983468121E+04  0.32531163785E+04  0.28875115589E+04 0.  0.
        1    1    3    3  502    0  0.25496786629E+03 -0.12709622013E+04  0.33016716433E+02  0.12967049138E+04  0.50400001928E-02 0. -1.
       -1    1    3    3    0  502 -0.25496786629E+03  0.12709622013E+04  0.14653300956E+04  0.19564114647E+04  0.50400001928E-02 0.  1.
</event>
<event>
 5   0  0.2325590E-06  0.2893985E+04  0.7818609E-02  0.8274669E-01
       -2   -1    0    0    0  501  0.00000000000E+00  0.00000000000E+00  0.13198173650E+04  0.13198173650E+04  0.25500000920E-02 0. -1.
        2   -1    0    0  501    0  0.00000000000E+00  0.00000000000E+00 -0.15864222289E+04  0.15864222289E+04  0.25500000920E-02 0.  1.
    10030    2    1    2    0    0  0.00000000000E+00  0.00000000000E+00 -0.26660486394E+03  0.29062395938E+04  0.28939852148E+04 0.  0.
        5    1    3    3  502    0 -0.33214250111E+02 -0.13921112784E+04 -0.52827246503E+03  0.14893525054E+04  0.46999998093E+01 0.  1.
       -5    1    3    3    0  502  0.33214250111E+02  0.13921112784E+04  0.26166760109E+03  0.14168870885E+04  0.46999998093E+01 0. -1.
</event>
<event>
 5   0  0.8357118E-07  0.2917837E+04  0.7818609E-02  0.8267590E-01
       -1   -1    0    0    0  501  0.00000000000E+00  0.00000000000E+00  0.19662342196E+04  0.19662342196E+04  0.50400001928E-02 0.  1.
        1   -1    0    0  501    0  0.00000000000E+00  0.00000000000E+00 -0.10824972617E+04  0.10824972617E+04  0.50400001928E-02 0. -1.
    10030    2    1    2    0    0  0.00000000000E+00  0.00000000000E+00  0.88373695788E+03  0.30487314813E+04  0.29178369787E+04 0.  0.
        1    1    3    3  502    0  0.84316901527E+03  0.11712773503E+04  0.66503489379E+03  0.15890550745E+04  0.50400001928E-02 0.  1.
       -1    1    3    3    0  502 -0.84316901527E+03 -0.11712773503E+04  0.21870206409E+03  0.14596764068E+04  0.50400001928E-02 0. -1.
</event>
<event>
 5   0  0.8357118E-07  0.3010797E+04  0.7818609E-02  0.8240654E-01
        1   -1    0    0  501    0  0.00000000000E+00  0.00000000000E+00  0.11785652315E+04  0.11785652315E+04  0.50400001928E-02 0. -1.
       -1   -1    0    0    0  501  0.00000000000E+00  0.00000000000E+00 -0.19228672130E+04  0.19228672130E+04  0.50400001928E-02 0.  1.
    10030    2    1    2    0    0  0.00000000000E+00  0.00000000000E+00 -0.74430198149E+03  0.31014324444E+04  0.30107968659E+04 0.  0.
        1    1    3    3  502    0  0.62045417099E+02  0.11592456659E+04 -0.13593988354E+04  0.17876423975E+04  0.50400001928E-02 0.  1.
       -1    1    3    3    0  502 -0.62045417099E+02 -0.11592456659E+04  0.61509685393E+03  0.13137900469E+04  0.50400001928E-02 0. -1.
</event>
<event>
 5   0  0.8355946E-07  0.2879588E+04  0.7818609E-02  0.8278977E-01
       -1   -1    0    0    0  501  0.00000000000E+00  0.00000000000E+00  0.10617547910E+04  0.10617547910E+04  0.50400001928E-02 0.  1.
        1   -1    0    0  501    0  0.00000000000E+00  0.00000000000E+00 -0.19524346089E+04  0.19524346089E+04  0.50400001928E-02 0. -1.
    10030    2    1    2    0    0  0.00000000000E+00  0.00000000000E+00 -0.89067981792E+03  0.30141894000E+04  0.28795880262E+04 0.  0.
        4    1    3    3  502    0  0.13324905516E+04 -0.45471787038E+03 -0.13008805497E+03  0.14139391524E+04  0.12699999809E+01 0.  1.
       -4    1    3    3    0  502 -0.13324905516E+04  0.45471787038E+03 -0.76059176295E+03  0.16002502475E+04  0.12699999809E+01 0. -1.
</event>
<event>
 5   0  0.2360103E-06  0.2888711E+04  0.7818609E-02  0.8276244E-01
       -2   -1    0    0    0  501  0.00000000000E+00  0.00000000000E+00  0.26621689341E+04  0.26621689341E+04  0.25500000920E-02 0. -1.
        2   -1    0    0  501    0  0.00000000000E+00  0.00000000000E+00 -0.78363279223E+03  0.78363279223E+03  0.25500000920E-02 0.  1.
    10030    2    1    2    0    0  0.00000000000E+00  0.00000000000E+00  0.18785361419E+04  0.34458017263E+04  0.28887110449E+04 0.  0.
        4    1    3    3  502    0  0.97588020907E+03 -0.99893116927E+03  0.49943818986E+03  0.14831202857E+04  0.12699999809E+01 0. -1.
       -4    1    3    3    0  502 -0.97588020907E+03  0.99893116927E+03  0.13790979520E+04  0.19626814407E+04  0.12699999809E+01 0.  1.
</event>
<event>
 5   0  0.8357118E-07  0.2910504E+04  0.7818609E-02  0.8269759E-01
        1   -1    0    0  501    0  0.00000000000E+00  0.00000000000E+00  0.18140542455E+04  0.18140542455E+04  0.50400001928E-02 0. -1.
       -1   -1    0    0    0  501  0.00000000000E+00  0.00000000000E+00 -0.11674172873E+04  0.11674172873E+04  0.50400001928E-02 0.  1.
    10030    2    1    2    0    0  0.00000000000E+00  0.00000000000E+00  0.64663695813E+03  0.29814715328E+04  0.29105039332E+04 0.  0.
        1    1    3    3  502    0  0.25047181139E+03  0.72561932376E+03 -0.94315185467E+03  0.12160571337E+04  0.50400001928E-02 0.  1.
       -1    1    3    3    0  502 -0.25047181139E+03 -0.72561932376E+03  0.15897888128E+04  0.17654143991E+04  0.50400001928E-02 0. -1.
</event>
<event>
 5   0  0.2304435E-06  0.2897804E+04  0.7818609E-02  0.8273531E-01
       -2   -1    0    0    0  501  0.00000000000E+00  0.00000000000E+00  0.22564455676E+04  0.22564455676E+04  0.25500000920E-02 0.  1.
        2   -1    0    0  501    0  0.00000000000E+00  0.00000000000E+00 -0.93036447434E+03  0.93036447434E+03  0.25500000920E-02 0. -1.
    10030    2    1    2    0    0  0.00000000000E+00  0.00000000000E+00  0.13260810933E+04  0.31868100420E+04  0.28978038543E+04 0.  0.
        1    1    3    3  502    0 -0.49380899078E+03 -0.63965757607E+03  0.19856070969E+04  0.21437454786E+04  0.50400001928E-02 0.  1.
       -1    1    3    3    0  502  0.49380899078E+03  0.63965757607E+03 -0.65952600355E+03  0.10430645634E+04  0.50400001928E-02 0. -1.
</event>
<event>
 5   0  0.7621125E-07  0.2891631E+04  0.7818609E-02  0.8275372E-01
        3   -1    0    0  501    0  0.00000000000E+00  0.00000000000E+00  0.15172816552E+04  0.15172816586E+04  0.10100000352E+00 0. -1.
       -3   -1    0    0    0  501  0.00000000000E+00  0.00000000000E+00 -0.13777154016E+04  0.13777154053E+04  0.10100000352E+00 0.  1.
    10030    2    1    2    0    0  0.00000000000E+00  0.00000000000E+00  0.13956625363E+03  0.28949970639E+04  0.28916308998E+04 0.  0.
        2    1    3    3  502    0 -0.56042641621E+03 -0.10678974284E+04  0.86814457384E+03  0.14859871085E+04  0.25500000920E-02 0. -1.
       -2    1    3    3    0  502  0.56042641621E+03  0.10678974284E+04 -0.72857832021E+03  0.14090099553E+04  0.25500000920E-02 0.  1.
</event>
<event>
 5   0  0.2378690E-06  0.2902251E+04  0.7818609E-02  0.8272208E-01
       -2   -1    0    0    0  501  0.00000000000E+00  0.00000000000E+00  0.10471824653E+04  0.10471824653E+04  0.25500000920E-02 0.  1.
        2   -1    0    0  501    0  0.00000000000E+00  0.00000000000E+00 -0.20108862151E+04  0.20108862151E+04  0.25500000920E-02 0. -1.
    10030    2    1    2    0    0  0.00000000000E+00  0.00000000000E+00 -0.96370374981E+03  0.30580686804E+04  0.29022507019E+04 0.  0.
        3    1    3    3  502    0 -0.29918933133E+03  0.50231272592E+03 -0.18812886556E+04  0.19700455188E+04  0.10100000352E+00 0. -1.
       -3    1    3    3    0  502  0.29918933133E+03 -0.50231272592E+03  0.91758490574E+03  0.10880231615E+04  0.10100000352E+00 0.  1.
</event>
<event>
 5   0  0.8357118E-07  0.2906728E+04  0.7818609E-02  0.8270878E-01
        1   -1    0    0  501    0  0.00000000000E+00  0.00000000000E+00  0.14243753695E+04  0.14243753695E+04  0.50400001928E-02 0.  1.
       -1   -1    0    0    0  501  0.00000000000E+00  0.00000000000E+00 -0.14829427625E+04  0.14829427625E+04  0.50400001928E-02 0. -1.
    10030    2    1    2    0    0  0.00000000000E+00  0.00000000000E+00 -0.58567393010E+02  0.29073181320E+04  0.29067281575E+04 0.  0.
        1    1    3    3  502    0  0.84684820354E+03 -0.10203786067E+04 -0.62433533936E+03  0.14656462727E+04  0.50400001928E-02 0. -1.
       -1    1    3    3    0  502 -0.84684820354E+03  0.10203786067E+04  0.56576794635E+03  0.14416718593E+04  0.50400001928E-02 0.  1.
</event>
<event>
 5   0  0.7621125E-07  0.2877079E+04  0.7818609E-02  0.8279730E-01
       -3   -1    0    0    0  501  0.00000000000E+00  0.00000000000E+00  0.10130712621E+04  0.10130712671E+04  0.10100000352E+00 0. -1.
        3   -1    0    0  501    0  0.00000000000E+00  0.00000000000E+00 -0.20426950825E+04  0.20426950850E+04  0.10100000352E+00 0.  1.
    10030    2    1    2    0    0  0.00000000000E+00  0.00000000000E+00 -0.10296238205E+04  0.30557663521E+04  0.28770788636E+04 0.  0.
        2    1    3    3  502    0 -0.10146003914E+04  0.35161874290E+03  0.50190049527E+03  0.11853074714E+04  0.25500000920E-02 0. -1.
       -2    1    3    3    0  502  0.10146003914E+04 -0.35161874290E+03 -0.15315243158E+04  0.18704588807E+04  0.25500000920E-02 0.  1.
</event>
<event>
 5   0  0.2325590E-06  0.2887909E+04  0.7818609E-02  0.8276484E-01
        2   -1    0    0  501    0  0.00000000000E+00  0.00000000000E+00  0.23002336437E+04  0.23002336437E+04  0.25500000920E-02 0.  1.
       -2   -1    0    0    0  501  0.00000000000E+00  0.00000000000E+00 -0.90643181287E+03  0.90643181287E+03  0.25500000920E-02 0. -1.
    10030    2    1    2    0    0  0.00000000000E+00  0.00000000000E+00  0.13938018308E+04  0.32066654566E+04  0.28879092449E+04 0.  0.
        5    1    3    3  502    0  0.42160970279E+03  0.89357663059E+03  0.18660952933E+04  0.21115320670E+04  0.46999998093E+01 0.  1.
       -5    1    3    3    0  502 -0.42160970279E+03 -0.89357663059E+03 -0.47229346250E+03  0.10951333896E+04  0.46999998093E+01 0. -1.
</event>
<event>
 5   0  0.8357118E-07  0.2837279E+04  0.7818609E-02  0.8291787E-01
        1   -1    0    0  501    0  0.00000000000E+00  0.00000000000E+00  0.64846514622E+03  0.64846514623E+03  0.50400001928E-02 0.  1.
       -1   -1    0    0    0  501  0.00000000000E+00  0.00000000000E+00 -0.31035404610E+04  0.31035404610E+04  0.50400001928E-02 0. -1.
    10030    2    1    2    0    0  0.00000000000E+00  0.00000000000E+00 -0.24550753148E+04  0.37520056073E+04  0.28372788505E+04 0.  0.
        1    1    3    3  502    0 -0.39355785228E+03  0.12986050273E+04 -0.17748162620E+04  0.22341073304E+04  0.50400001928E-02 0. -1.
       -1    1    3    3    0  502  0.39355785228E+03 -0.12986050273E+04 -0.68025905285E+03  0.15178982769E+04  0.50400001928E-02 0.  1.
</event>
<event>
 5   0  0.8263673E-07  0.2901089E+04  0.7818609E-02  0.8272554E-01
       -1   -1    0    0    0  501  0.00000000000E+00  0.00000000000E+00  0.96051545665E+03  0.96051545666E+03  0.50400001928E-02 0.  1.
        1   -1    0    0  501    0  0.00000000000E+00  0.00000000000E+00 -0.21905723800E+04  0.21905723800E+04  0.50400001928E-02 0. -1.
    10030    2    1    2    0    0  0.00000000000E+00  0.00000000000E+00 -0.12300569234E+04  0.31510878367E+04  0.29010885060E+04 0.  0.
        5    1    3    3  502    0 -0.13730540383E+04  0.20381233572E+03 -0.15775077583E+03  0.13970412512E+04  0.46999998093E+01 0. -1.
       -5    1    3    3    0  502  0.13730540383E+04 -0.20381233572E+03 -0.10723061475E+04  0.17540465855E+04  0.46999998093E+01 0.  1.
</event>
<event>
 5   0  0.8947674E-07  0.2899332E+04  0.7818609E-02  0.8273076E-01
        1   -1    0    0  501    0  0.00000000000E+00  0.00000000000E+00  0.18082564350E+04  0.18082564350E+04  0.50400001928E-02 0. -1.
       -1   -1    0    0    0  501  0.00000000000E+00  0.00000000000E+00 -0.11621864561E+04  0.11621864561E+04  0.50400001928E-02 0.  1.
    10030    2    1    2    0    0  0.00000000000E+00  0.00000000000E+00  0.64606997885E+03  0.29704428911E+04  0.28993317423E+04 0.  0.
        3    1    3    3  502    0 -0.66657173825E+03  0.72575978366E+03  0.14123560184E+04  0.17221482743E+04  0.10100000352E+00 0. -1.
       -3    1    3    3    0  502  0.66657173825E+03 -0.72575978366E+03 -0.76628603950E+03  0.12482946168E+04  0.10100000352E+00 0.  1.
</event>
<event>
 5   0  0.2360103E-06  0.2888169E+04  0.7818609E-02  0.8276406E-01
        2   -1    0    0  501    0  0.00000000000E+00  0.00000000000E+00  0.19385794236E+04  0.19385794236E+04  0.25500000920E-02 0. -1.
       -2   -1    0    0    0  501  0.00000000000E+00  0.00000000000E+00 -0.10757261606E+04  0.10757261606E+04  0.25500000920E-02 0.  1.
    10030    2    1    2    0    0  0.00000000000E+00  0.00000000000E+00  0.86285326303E+03  0.30143055842E+04  0.28881693859E+04 0.  0.
        4    1    3    3  502    0  0.13527415822E+04 -0.25524993294E+03 -0.23879012576E+02  0.13768202994E+04  0.12699999809E+01 0. -1.
       -4    1    3    3    0  502 -0.13527415822E+04  0.25524993294E+03  0.88673227561E+03  0.16374852848E+04  0.12699999809E+01 0.  1.
</event>
<event>
 5   0  0.8483636E-07  0.2905127E+04  0.7818609E-02  0.8271354E-01
       -1   -1    0    0    0  501  0.00000000000E+00  0.00000000000E+00  0.20097608705E+04  0.20097608706E+04  0.50400001928E-02 0. -1.
        1   -1    0    0  501    0  0.00000000000E+00  0.00000000000E+00 -0.10498469515E+04  0.10498469515E+04  0.50400001928E-02 0.  1.
    10030    2    1    2    0    0  0.00000000000E+00  0.00000000000E+00  0.95991391902E+03  0.30596078221E+04  0.29051274143E+04 0.  0.
        2    1    3    3  502    0  0.11194774839E+04 -0.80424140992E+03 -0.25618949637E+01  0.13784196188E+04  0.25500000920E-02 0.  1.
       -2    1    3    3    0  502 -0.11194774839E+04  0.80424140992E+03  0.96247581398E+03  0.16811882033E+04  0.25500000920E-02 0. -1.
</event>
<event>
 5   0  0.2304435E-06  0.2895076E+04  0.7818609E-02  0.8274344E-01
       -2   -1    0    0    0  501  0.00000000000E+00  0.00000000000E+00  0.99632174723E+03  0.99632174723E+03  0.25500000920E-02 0.  1.
        2   -1    0    0  501    0  0.00000000000E+00  0.00000000000E+00 -0.21031013360E+04  0.21031013360E+04  0.25500000920E-02 0. -1.
    10030    2    1    2    0    0  0.00000000000E+00  0.00000000000E+00 -0.11067795888E+04  0.30994230833E+04  0.28950755415E+04 0.  0.
        1    1    3    3  502    0  0.13281340497E+04  0.36724552299E+03 -0.78749708969E+02  0.13802213028E+04  0.50400001928E-02 0.  1.
       -1    1    3    3    0  502 -0.13281340497E+04 -0.36724552299E+03 -0.10280298798E+04  0.17192017804E+04  0.50400001928E-02 0. -1.
</event>
<event>
 5   0  0.2304435E-06  0.2897276E+04  0.7818609E-02  0.8273688E-01
       -2   -1    0    0    0  501  0.00000000000E+00  0.00000000000E+00  0.14740065615E+04  0.14740065615E+04  0.25500000920E-02 0. -1.
        2   -1    0    0  501    0  0.00000000000E+00  0.00000000000E+00 -0.14237061762E+04  0.14237061762E+04  0.25500000920E-02 0.  1.
    10030    2    1    2    0    0  0.00000000000E+00  0.00000000000E+00  0.50300385304E+02  0.28977127378E+04  0.28972761314E+04 0.  0.
        1    1    3    3  502    0  0.10119406364E+04 -0.97880595482E+03 -0.31617428859E+03  0.14429314362E+04  0.50400001928E-02 0.  1.
       -1    1    3    3    0  502 -0.10119406364E+04  0.97880595482E+03  0.36647467390E+03  0.14547813016E+04  0.50400001928E-02 0. -1.
</event>
<event>
 5   0  0.2360103E-06  0.2907268E+04  0.7818609E-02  0.8270718E-01
        2   -1    0    0  501    0  0.00000000000E+00  0.00000000000E+00  0.18503017230E+04  0.18503017230E+04  0.25500000920E-02 0.  1.
       -2   -1    0    0    0  501  0.00000000000E+00  0.00000000000E+00 -0.11420039857E+04  0.11420039857E+04  0.25500000920E-02 0. -1.
    10030    2    1    2    0    0  0.00000000000E+00  0.00000000000E+00  0.70829773734E+03  0.29923057087E+04  0.29072680938E+04 0.  0.
        4    1    3    3  502    0  0.44584934634E+03  0.10221861584E+03  0.17742975881E+04  0.18323110623E+04  0.12699999809E+01 0.  1.
       -4    1    3    3    0  502 -0.44584934634E+03 -0.10221861584E+03 -0.10659998507E+04  0.11599946464E+04  0.12699999809E+01 0. -1.
</event>
<event>
 5   0  0.2360103E-06  0.2908522E+04  0.7818609E-02  0.8270346E-01
       -2   -1    0    0    0  501  0.00000000000E+00  0.00000000000E+00  0.14499133844E+04  0.14499133844E+04  0.25500000920E-02 0.  1.
        2   -1    0    0  501    0  0.00000000000E+00  0.00000000000E+00 -0.14586216576E+04  0.14586216576E+04  0.25500000920E-02 0. -1.
    10030    2    1    2    0    0  0.00000000000E+00  0.00000000000E+00 -0.87082732103E+01  0.29085350420E+04  0.29085220055E+04 0.  0.
        4    1    3    3  502    0 -0.10089079831E+04 -0.79579149094E+03 -0.68530802086E+03  0.14563063249E+04  0.12699999809E+01 0. -1.
       -4    1    3    3    0  502  0.10089079831E+04  0.79579149094E+03  0.67659974765E+03  0.14522287171E+04  0.12699999809E+01 0.  1.
</event>
<event>
 5   0  0.2378690E-06  0.2902322E+04  0.7818609E-02  0.8272187E-01
        2   -1    0    0  501    0  0.00000000000E+00  0.00000000000E+00  0.28206099313E+04  0.28206099313E+04  0.25500000920E-02 0. -1.
       -2   -1    0    0    0  501  0.00000000000E+00  0.00000000000E+00 -0.74660047804E+03  0.74660047804E+03  0.25500000920E-02 0.  1.
    10030    2    1    2    0    0  0.00000000000E+00  0.00000000000E+00  0.20740094533E+04  0.35672104093E+04  0.29023223274E+04 0.  0.
        3    1    3    3  502    0 -0.45557226189E+02 -0.14446337847E+04  0.87757117461E+03  0.16909090483E+04  0.10100000352E+00 0.  1.
       -3    1    3    3    0  502  0.45557226189E+02  0.14446337847E+04  0.11964382786E+04  0.18763013611E+04  0.10100000352E+00 0. -1.
</event>
<event>
 5   0  0.8947674E-07  0.2899481E+04  0.7818609E-02  0.8273032E-01
       -1   -1    0    0    0  501  0.00000000000E+00  0.00000000000E+00  0.12604620661E+04  0.12604620661E+04  0.50400001928E-02 0.  1.
        1   -1    0    0  501    0  0.00000000000E+00  0.00000000000E+00 -0.16674425813E+04  0.16674425813E+04  0.50400001928E-02 0. -1.
    10030    2    1    2    0    0  0.00000000000E+00  0.00000000000E+00 -0.40698051514E+03  0.29279046474E+04  0.28994814165E+04 0.  0.
        3    1    3    3  502    0  0.70105578165E+03 -0.15857794393E+03  0.10678679693E+04  0.12872327619E+04  0.10100000352E+00 0.  1.
       -3    1    3    3    0  502 -0.70105578165E+03  0.15857794393E+03 -0.14748484845E+04  0.16406718854E+04  0.10100000352E+00 0. -1.
</event>
<event>
 5   0  0.8355946E-07  0.2916571E+04  0.7818609E-02  0.8267964E-01
       -1   -1    0    0    0  501  0.00000000000E+00  0.00000000000E+00  0.14517463543E+04  0.14517463543E+04  0.50400001928E-02 0. -1.
        1   -1    0    0  501    0  0.00000000000E+00  0.00000000000E+00 -0.14648543457E+04  0.14648543457E+04  0.50400001928E-02 0.  1.
    10030    2    1    2    0    0  0.00000000000E+00  0.00000000000E+00 -0.13107991411E+02  0.29166007000E+04  0.29165712444E+04 0.  0.
        4    1    3    3  502    0 -0.11429749060E+04 -0.47833207070E+03  0.76248051794E+03  0.14548441012E+04  0.12699999809E+01 0.  1.
       -4    1    3    3    0  502  0.11429749060E+04  0.47833207070E+03 -0.77558850936E+03  0.14617565989E+04  0.12699999809E+01 0. -1.
</event>
<event>
 5   0  0.2378690E-06  0.2894573E+04  0.7818609E-02  0.8274494E-01
        2   -1    0    0  501    0  0.00000000000E+00  0.00000000000E+00  0.22883461527E+04  0.22883461527E+04  0.25500000920E-02 0.  1.
       -2   -1    0    0    0  501  0.00000000000E+00  0.00000000000E+00 -0.91534995873E+03  0.91534995873E+03  0.25500000920E-02 0. -1.
    10030    2    1    2    0    0  0.00000000000E+00  0.00000000000E+00  0.13729961940E+04  0.32036961115E+04  0.28945725463E+04 0.  0.
        3    1    3    3  502    0 -0.37642139540E+03  0.10608901768E+04  0.16932894214E+04  0.20333248901E+04  0.10100000352E+00 0.  1.
       -3    1    3    3    0  502  0.37642139540E+03 -0.10608901768E+04 -0.32029322736E+03  0.11703712213E+04  0.10100000352E+00 0. -1.
</event>
<event>
 5   0  0.2425845E-06  0.2897557E+04  0.7818609E-02  0.8273605E-01
        2   -1    0    0  501    0  0.00000000000E+00  0.00000000000E+00  0.14427560754E+04  0.14427560754E+04  0.25500000920E-02 0.  1.
       -2   -1    0    0    0  501  0.00000000000E+00  0.00000000000E+00 -0.14548265051E+04  0.14548265051E+04  0.25500000920E-02 0. -1.
    10030    2    1    2    0    0  0.00000000000E+00  0.00000000000E+00 -0.12070429700E+02  0.28975825806E+04  0.28975574396E+04 0.  0.
        2    1    3    3  502    0  0.10867230066E+03 -0.11578282345E+03  0.14340274345E+04  0.14427924362E+04  0.25500000920E-02 0.  1.
       -2    1    3    3    0  502 -0.10867230066E+03  0.11578282345E+03 -0.14460978642E+04  0.14547901443E+04  0.25500000920E-02 0. -1.
</event>
<event>
 5   0  0.8357118E-07  0.2910643E+04  0.7818609E-02  0.8269718E-01
        1   -1    0    0  501    0  0.00000000000E+00  0.00000000000E+00  0.15546409503E+04  0.15546409503E+04  0.50400001928E-02 0.  1.
       -1   -1    0    0    0  501  0.00000000000E+00  0.00000000000E+00 -0.13623472136E+04  0.13623472136E+04  0.50400001928E-02 0. -1.
    10030    2    1    2    0    0  0.00000000000E+00  0.00000000000E+00  0.19229373669E+03  0.29169881638E+04  0.29106430676E+04 0.  0.
        1    1    3    3  502    0 -0.10053963193E+03  0.12806308469E+04 -0.58933044171E+03  0.14133060366E+04  0.50400001928E-02 0. -1.
       -1    1    3    3    0  502  0.10053963193E+03 -0.12806308469E+04  0.78162417841E+03  0.15036821272E+04  0.50400001928E-02 0.  1.
</event>
<event>
 5   0  0.2304435E-06  0.2895313E+04  0.7818609E-02  0.8274273E-01
        2   -1    0    0  501    0  0.00000000000E+00  0.00000000000E+00  0.16414002528E+04  0.16414002528E+04  0.25500000920E-02 0.  1.
       -2   -1    0    0    0  501  0.00000000000E+00  0.00000000000E+00 -0.12767815717E+04  0.12767815717E+04  0.25500000920E-02 0. -1.
    10030    2    1    2    0    0  0.00000000000E+00  0.00000000000E+00  0.36461868118E+03  0.29181818245E+04  0.28953131745E+04 0.  0.
        1    1    3    3  502    0  0.15507949017E+03  0.51384964992E+03  0.15374057310E+04  0.16284064273E+04  0.50400001928E-02 0.  1.
       -1    1    3    3    0  502 -0.15507949017E+03 -0.51384964992E+03 -0.11727870498E+04  0.12897753972E+04  0.50400001928E-02 0. -1.
</event>
<event>
 5   0  0.8483636E-07  0.2907487E+04  0.7818609E-02  0.8270653E-01
       -1   -1    0    0    0  501  0.00000000000E+00  0.00000000000E+00  0.12581590383E+04  0.12581590383E+04  0.50400001928E-02 0.  1.
        1   -1    0    0  501    0  0.00000000000E+00  0.00000000000E+00 -0.16797322118E+04  0.16797322119E+04  0.50400001928E-02 0. -1.
    10030    2    1    2    0    0  0.00000000000E+00  0.00000000000E+00 -0.42157317353E+03  0.29378912502E+04  0.29074870692E+04 0.  0.
        2    1    3    3  502    0  0.47024410849E+03  0.27558936091E+03  0.11510050694E+04  0.12735351142E+04  0.25500000920E-02 0.  1.
       -2    1    3    3    0  502 -0.47024410849E+03 -0.27558936091E+03 -0.15725782429E+04  0.16643561360E+04  0.25500000920E-02 0. -1.
</event>
<event>
 5   0  0.2325590E-06  0.2880471E+04  0.7818609E-02  0.8278712E-01
        2   -1    0    0  501    0  0.00000000000E+00  0.00000000000E+00  0.22643420628E+04  0.22643420628E+04  0.25500000920E-02 0.  1.
       -2   -1    0    0    0  501  0.00000000000E+00  0.00000000000E+00 -0.91606252756E+03  0.91606252757E+03  0.25500000920E-02 0. -1.
    10030    2    1    2    0    0  0.00000000000E+00  0.00000000000E+00  0.13482795352E+04  0.31804045903E+04  0.28804714290E+04 0.  0.
        5    1    3    3  502    0 -0.13796309815E+04 -0.32051593790E+03  0.38591262329E+03  0.14680131997E+04  0.46999998093E+01 0. -1.
       -5    1    3    3    0  502  0.13796309815E+04  0.32051593790E+03  0.96236691191E+03  0.17123913906E+04  0.46999998093E+01 0.  1.
</event>
<event>
 5   0  0.8483636E-07  0.2907079E+04  0.7818609E-02  0.8270774E-01
       -1   -1    0    0    0  501  0.00000000000E+00  0.00000000000E+00  0.21556088303E+04  0.21556088304E+04  0.50400001928E-02 0. -1.
        1   -1    0    0  501    0  0.00000000000E+00  0.00000000000E+00 -0.98013022714E+03  0.98013022715E+03  0.50400001928E-02 0.  1.
    10030    2    1    2    0    0  0.00000000000E+00  0.00000000000E+00  0.11754786032E+04  0.31357390575E+04  0.29070792026E+04 0.  0.
        2    1    3    3  502    0  0.35554266215E+03  0.12678728801E+04  0.12516740198E+04  0.18167553706E+04  0.25500000920E-02 0. -1.
       -2    1    3    3    0  502 -0.35554266215E+03 -0.12678728801E+04 -0.76195416611E+02  0.13189836869E+04  0.25500000920E-02 0.  1.
</event>
<event>
 5   0  0.8947674E-07  0.2901497E+04  0.7818609E-02  0.8272432E-01
        1   -1    0    0  501    0  0.00000000000E+00  0.00000000000E+00  0.14174515031E+04  0.14174515031E+04  0.50400001928E-02 0. -1.
       -1   -1    0    0    0  501  0.00000000000E+00  0.00000000000E+00 -0.14848281399E+04  0.14848281399E+04  0.50400001928E-02 0.  1.
    10030    2    1    2    0    0  0.00000000000E+00  0.00000000000E+00 -0.67376636782E+02  0.29022796430E+04  0.29014974608E+04 0.  0.
        3    1    3    3  502    0 -0.36245881811E+03 -0.71050522424E+03  0.11784460173E+04  0.14230000332E+04  0.10100000352E+00 0. -1.
       -3    1    3    3    0  502  0.36245881811E+03  0.71050522424E+03 -0.12458226541E+04  0.14792796098E+04  0.10100000352E+00 0.  1.
</event>
<event>
 5   0  0.8263673E-07  0.2902921E+04  0.7818609E-02  0.8272009E-01
       -1   -1    0    0    0  501  0.00000000000E+00  0.00000000000E+00  0.13157681225E+04  0.13157681225E+04  0.50400001928E-02 0. -1.
        1   -1    0    0  501    0  0.00000000000E+00  0.00000000000E+00 -0.16011460388E+04  0.16011460388E+04  0.50400001928E-02 0.  1.
    10030    2    1    2    0    0  0.00000000000E+00  0.00000000000E+00 -0.28537791631E+03  0.29169141614E+04  0.29029205414E+04 0.  0.
        5    1    3    3  502    0  0.11551583057E+04 -0.56922326156E+03 -0.81547539348E+03  0.15242795151E+04  0.46999998093E+01 0.  1.
       -5    1    3    3    0  502 -0.11551583057E+04  0.56922326156E+03  0.53009747717E+03  0.13926346463E+04  0.46999998093E+01 0. -1.
</event>
<event>
 5   0  0.2304435E-06  0.2899640E+04  0.7818609E-02  0.8272985E-01
       -2   -1    0    0    0  501  0.00000000000E+00  0.00000000000E+00  0.14150579382E+04  0.14150579382E+04  0.25500000920E-02 0. -1.
        2   -1    0    0  501    0  0.00000000000E+00  0.00000000000E+00 -0.14854355479E+04  0.14854355479E+04  0.25500000920E-02 0.  1.
    10030    2    1    2    0    0  0.00000000000E+00  0.00000000000E+00 -0.70377609697E+02  0.29004934862E+04  0.28996395389E+04 0.  0.
        1    1    3    3  502    0  0.95264560740E+03 -0.38159829007E+02 -0.11277501596E+04  0.14767566653E+04  0.50400001928E-02 0.  1.
       -1    1    3    3    0  502 -0.95264560740E+03  0.38159829007E+02  0.10573725499E+04  0.14237368209E+04  0.50400001928E-02 0. -1.
</event>
<event>
 5   0  0.8947674E-07  0.2900016E+04  0.7818609E-02  0.8272873E-01
        1   -1    0    0  501    0  0.00000000000E+00  0.00000000000E+00  0.15935964788E+04  0.15935964788E+04  0.50400001928E-02 0. -1.
       -1   -1    0    0    0  501  0.00000000000E+00  0.00000000000E+00 -0.13193574500E+04  0.13193574500E+04  0.50400001928E-02 0.  1.
    10030    2    1    2    0    0  0.00000000000E+00  0.00000000000E+00  0.27423902885E+03  0.29129539288E+04  0.29000161287E+04 0.  0.
        3    1    3    3  502    0  0.12078177369E+04 -0.30873726534E+03 -0.60671169943E+03  0.13864492349E+04  0.10100000352E+00 0.  1.
       -3    1    3    3    0  502 -0.12078177369E+04  0.30873726534E+03  0.88095072828E+03  0.15265046939E+04  0.10100000352E+00 0. -1.
</event>
<event>
 5   0  0.2425845E-06  0.2904647E+04  0.7818609E-02  0.8271496E-01
        2   -1    0    0  501    0  0.00000000000E+00  0.00000000000E+00  0.12271704866E+04  0.12271704866E+04  0.25500000920E-02 0. -1.
       -2   -1    0    0    0  501  0.00000000000E+00  0.00000000000E+00 -0.17187863242E+04  0.17187863242E+04  0.25500000920E-02 0.  1.
    10030    2    1    2    0    0  0.00000000000E+00  0.00000000000E+00 -0.49161583760E+03  0.29459568107E+04  0.29046472073E+04 0.  0.
        2    1    3    3  502    0  0.42095613292E+03 -0.70437372312E+03  0.96952341509E+03  0.12701661545E+04  0.25500000920E-02 0. -1.
       -2    1    3    3    0  502 -0.42095613292E+03  0.70437372312E+03 -0.14611392527E+04  0.16757906562E+04  0.25500000920E-02 0.  1.
</event>
<event>
 5   0  0.8355946E-07  0.2901667E+04  0.7818609E-02  0.8272382E-01
       -1   -1    0    0    0  501  0.00000000000E+00  0.00000000000E+00  0.20224516052E+04  0.20224516052E+04  0.50400001928E-02 0.  1.
        1   -1    0    0  501    0  0.00000000000E+00  0.00000000000E+00 -0.10407750635E+04  0.10407750635E+04  0.50400001928E-02 0. -1.
    10030    2    1    2    0    0  0.00000000000E+00  0.00000000000E+00  0.98167654173E+03  0.30632266687E+04  0.29016665541E+04 0.  0.
        4    1    3    3  502    0 -0.21126329593E+03  0.14259522097E+04  0.31755355842E+03  0.14760805398E+04  0.12699999809E+01 0.  1.
       -4    1    3    3    0  502  0.21126329593E+03 -0.14259522097E+04  0.66412298331E+03  0.15871461289E+04  0.12699999809E+01 0. -1.
</event>
<event>
 5   0  0.8263673E-07  0.2915617E+04  0.7818609E-02  0.8268246E-01
        1   -1    0    0  501    0  0.00000000000E+00  0.00000000000E+00  0.97886670954E+03  0.97886670956E+03  0.50400001928E-02 0.  1.
       -1   -1    0    0    0  501  0.00000000000E+00  0.00000000000E+00 -0.21710871568E+04  0.21710871568E+04  0.50400001928E-02 0. -1.
    10030    2    1    2    0    0  0.00000000000E+00  0.00000000000E+00 -0.11922204473E+04  0.31499538664E+04  0.29156165326E+04 0.  0.
        5    1    3    3  502    0 -0.12529043418E+04 -0.24195770619E+03  0.16543410821E+03  0.12867413709E+04  0.46999998093E+01 0.  1.
       -5    1    3    3    0  502  0.12529043418E+04  0.24195770619E+03 -0.13576545555E+04  0.18632124955E+04  0.46999998093E+01 0. -1.
</event>
<event>
 5   0  0.2325590E-06  0.2897984E+04  0.7818609E-02  0.8273478E-01
        2   -1    0    0  501    0  0.00000000000E+00  0.00000000000E+00  0.20208203576E+04  0.20208203576E+04  0.25500000920E-02 0.  1.
       -2   -1    0    0    0  501  0.00000000000E+00  0.00000000000E+00 -0.10389729194E+04  0.10389729194E+04  0.25500000920E-02 0. -1.
    10030    2    1    2    0    0  0.00000000000E+00  0.00000000000E+00  0.98184743819E+03  0.30597932769E+04  0.28979838691E+04 0.  0.
        5    1    3    3  502    0  0.56655926972E+03  0.13051484854E+04  0.78037195347E+03  0.16227767718E+04  0.46999998093E+01 0. -1.
       -5    1    3    3    0  502 -0.56655926972E+03 -0.13051484854E+04  0.20147548472E+03  0.14370165052E+04  0.46999998093E+01 0.  1.
</event>
<event>
 5   0  0.8263673E-07  0.2916587E+04  0.7818609E-02  0.8267959E-01
        1   -1    0    0  501    0  0.00000000000E+00  0.00000000000E+00  0.99834731088E+03  0.99834731089E+03  0.50400001928E-02 0.  1.
       -1   -1    0    0    0  501  0.00000000000E+00  0.00000000000E+00 -0.21301400004E+04  0.21301400004E+04  0.50400001928E-02 0. -1.
    10030    2    1    2    0    0  0.00000000000E+00  0.00000000000E+00 -0.11317926895E+04  0.31284873113E+04  0.29165867319E+04 0.  0.
        5    1    3    3  502    0 -0.88887627181E+03  0.20333602018E+02  0.67397383877E+03  0.11156958848E+04  0.46999998093E+01 0.  1.
       -5    1    3    3    0  502  0.88887627181E+03 -0.20333602018E+02 -0.18057665283E+04  0.20127914265E+04  0.46999998093E+01 0. -1.
</event>
<event>
 5   0  0.8483636E-07  0.2900329E+04  0.7818609E-02  0.8272780E-01
        1   -1    0    0  501    0  0.00000000000E+00  0.00000000000E+00  0.18864566281E+04  0.18864566281E+04  0.50400001928E-02 0.  1.
       -1   -1    0    0    0  501  0.00000000000E+00  0.00000000000E+00 -0.11147761749E+04  0.11147761749E+04  0.50400001928E-02 0. -1.
    10030    2    1    2    0    0  0.00000000000E+00  0.00000000000E+00  0.77168045320E+03  0.30012328030E+04  0.29003288806E+04 0.  0.
        2    1    3    3  502    0 -0.78347529919E+03  0.12022164196E+04  0.60245290190E+03  0.15563121034E+04  0.25500000920E-02 0.  1.
       -2    1    3    3    0  502  0.78347529919E+03 -0.12022164196E+04  0.16922755130E+03  0.14449206996E+04  0.25500000920E-02 0. -1.
</event>
<event>
 5   0  0.2304435E-06  0.2898196E+04  0.7818609E-02  0.8273415E-01
       -2   -1    0    0    0  501  0.00000000000E+00  0.00000000000E+00  0.14490653751E+04  0.14490653751E+04  0.25500000920E-02 0. -1.
        2   -1    0    0  501    0  0.00000000000E+00  0.00000000000E+00 -0.14491302059E+04  0.14491302059E+04  0.25500000920E-02 0.  1.
    10030    2    1    2    0    0  0.00000000000E+00  0.00000000000E+00 -0.64830861087E-01  0.28981955810E+04  0.28981955802E+04 0.  0.
        1    1    3    3  502    0 -0.34480632764E+03 -0.10839830047E+04 -0.89779287777E+03  0.14491178728E+04  0.50400001928E-02 0.  1.
       -1    1    3    3    0  502  0.34480632764E+03  0.10839830047E+04  0.89772804691E+03  0.14490777081E+04  0.50400001928E-02 0. -1.
</event>
<event>
 5   0  0.8357118E-07  0.2889732E+04  0.7818609E-02  0.8275939E-01
        1   -1    0    0  501    0  0.00000000000E+00  0.00000000000E+00  0.20784411063E+04  0.20784411063E+04  0.50400001928E-02 0. -1.
       -1   -1    0    0    0  501  0.00000000000E+00  0.00000000000E+00 -0.10044249901E+04  0.10044249901E+04  0.50400001928E-02 0.  1.
    10030    2    1    2    0    0  0.00000000000E+00  0.00000000000E+00  0.10740161162E+04  0.30828660964E+04  0.28897322974E+04 0.  0.
        1    1    3    3  502    0 -0.12666492508E+04 -0.52587885545E+03  0.51992087703E+02  0.13724620477E+04  0.50400001928E-02 0.  1.
       -1    1    3    3    0  502  0.12666492508E+04  0.52587885545E+03  0.10220240285E+04  0.17104040488E+04  0.50400001928E-02 0. -1.
</event>
<event>
 5   0  0.2304435E-06  0.2903401E+04  0.7818609E-02  0.8271866E-01
        2   -1    0    0  501    0  0.00000000000E+00  0.00000000000E+00  0.23246844157E+04  0.23246844157E+04  0.25500000920E-02 0.  1.
       -2   -1    0    0    0  501  0.00000000000E+00  0.00000000000E+00 -0.90654647914E+03  0.90654647914E+03  0.25500000920E-02 0. -1.
    10030    2    1    2    0    0  0.00000000000E+00  0.00000000000E+00  0.14181379366E+04  0.32312308949E+04  0.29034010899E+04 0.  0.
        1    1    3    3  502    0 -0.69213986842E+03  0.97262410972E+03  0.16284040908E+04  0.20190976052E+04  0.50400001928E-02 0.  1.
       -1    1    3    3    0  502  0.69213986842E+03 -0.97262410972E+03 -0.21026615424E+03  0.12121332897E+04  0.50400001928E-02 0. -1.
</event>
<event>
 5   0  0.2304435E-06  0.2927511E+04  0.7818609E-02  0.8264739E-01
        2   -1    0    0  501    0  0.00000000000E+00  0.00000000000E+00  0.16508500484E+04  0.16508500484E+04  0.25500000920E-02 0.  1.
       -2   -1    0    0    0  501  0.00000000000E+00  0.00000000000E+00 -0.12978644914E+04  0.12978644914E+04  0.25500000920E-02 0. -1.
    10030    2    1    2    0    0  0.00000000000E+00  0.00000000000E+00  0.35298555704E+03  0.29487145398E+04  0.29275106547E+04 0.  0.
        1    1    3    3  502    0  0.85375986640E+03 -0.11841018426E+04  0.68118979872E+02  0.14613840284E+04  0.50400001928E-02 0. -1.
       -1    1    3    3    0  502 -0.85375986640E+03  0.11841018426E+04  0.28486657716E+03  0.14873305113E+04  0.50400001928E-02 0.  1.
</event>
<event>
 5   0  0.8355946E-07  0.2905345E+04  0.7818609E-02  0.8271289E-01
       -1   -1    0    0    0  501  0.00000000000E+00  0.00000000000E+00  0.14112097050E+04  0.14112097050E+04  0.50400001928E-02 0. -1.
        1   -1    0    0  501    0  0.00000000000E+00  0.00000000000E+00 -0.14953536945E+04  0.14953536945E+04  0.50400001928E-02 0.  1.
    10030    2    1    2    0    0  0.00000000000E+00  0.00000000000E+00 -0.84143989503E+02  0.29065633995E+04  0.29053451747E+04 0.  0.
        4    1    3    3  502    0  0.68055691045E+03 -0.47210864984E+03 -0.12359758247E+04  0.14878447963E+04  0.12699999809E+01 0.  1.
       -4    1    3    3    0  502 -0.68055691045E+03  0.47210864984E+03  0.11518318352E+04  0.14187186032E+04  0.12699999809E+01 0. -1.
</event>
<event>
 5   0  0.8263673E-07  0.2898198E+04  0.7818609E-02  0.8273414E-01
       -1   -1    0    0    0  501  0.00000000000E+00  0.00000000000E+00  0.15458031231E+04  0.15458031231E+04  0.50400001928E-02 0.  1.
        1   -1    0    0  501    0  0.00000000000E+00  0.00000000000E+00 -0.13584445007E+04  0.13584445007E+04  0.50400001928E-02 0. -1.
    10030    2    1    2    0    0  0.00000000000E+00  0.00000000000E+00  0.18735862242E+03  0.29042476238E+04  0.28981978895E+04 0.  0.
        5    1    3    3  502    0  0.10048639419E+04 -0.10202230451E+04 -0.12872779461E+03  0.14377759000E+04  0.46999998093E+01 0. -1.
       -5    1    3    3    0  502 -0.10048639419E+04  0.10202230451E+04  0.31608641703E+03  0.14664717238E+04  0.46999998093E+01 0.  1.
</event>
<event>
 5   0  0.2304435E-06  0.2898015E+04  0.7818609E-02  0.8273468E-01
        2   -1    0    0  501    0  0.00000000000E+00  0.00000000000E+00  0.16691395294E+04  0.16691395294E+04  0.25500000920E-02 0.  1.
       -2   -1    0    0    0  501  0.00000000000E+00  0.00000000000E+00 -0.12579068472E+04  0.12579068472E+04  0.25500000920E-02 0. -1.
    10030    2    1    2    0    0  0.00000000000E+00  0.00000000000E+00  0.41123268218E+03  0.29270463765E+04  0.28980145223E+04 0.  0.
        1    1    3    3  502    0 -0.40653822422E+03  0.13264610149E+04 -0.21672318579E+03  0.14041869858E+04  0.50400001928E-02 0. -1.
       -1    1    3    3    0  502  0.40653822422E+03 -0.13264610149E+04  0.62795586797E+03  0.15228593907E+04  0.50400001928E-02 0.  1.
</event>
<event>
 5   0  0.8355946E-07  0.2954426E+04  0.7818609E-02  0.8256866E-01
        1   -1    0    0  501    0  0.00000000000E+00  0.00000000000E+00  0.15037165067E+04  0.15037165067E+04  0.50400001928E-02 0. -1.
       -1   -1    0    0    0  501  0.00000000000E+00  0.00000000000E+00 -0.14511771080E+04  0.14511771080E+04  0.50400001928E-02 0.  1.
    10030    2    1    2    0    0  0.00000000000E+00  0.00000000000E+00  0.52539398772E+02  0.29548936147E+04  0.29544264902E+04 0.  0.
        4    1    3    3  502    0  0.14147053536E+04  0.18387145239E+03  0.40968055552E+03  0.14842640328E+04  0.12699999809E+01 0. -1.
       -4    1    3    3    0  502 -0.14147053536E+04 -0.18387145239E+03 -0.35714115674E+03  0.14706295819E+04  0.12699999809E+01 0.  1.
</event>
<event>
 5   0  0.8357118E-07  0.2892519E+04  0.7818609E-02  0.8275107E-01
       -1   -1    0    0    0  501  0.00000000000E+00  0.00000000000E+00  0.75710788889E+03  0.75710788890E+03  0.50400001928E-02 0.  1.
        1   -1    0    0  501    0  0.00000000000E+00  0.00000000000E+00 -0.27627051015E+04  0.27627051015E+04  0.50400001928E-02 0. -1.
    10030    2    1    2    0    0  0.00000000000E+00  0.00000000000E+00 -0.20055972126E+04  0.35198129904E+04  0.28925185061E+04 0.  0.
        1    1    3    3  502    0  0.14367386359E+04 -0.16331589189E+03 -0.96890411431E+03  0.17405933388E+04  0.50400001928E-02 0. -1.
       -1    1    3    3    0  502 -0.14367386359E+04  0.16331589189E+03 -0.10366930983E+04  0.17792196515E+04  0.50400001928E-02 0.  1.
</event>
<event>
 5   0  0.8263673E-07  0.2906523E+04  0.7818609E-02  0.8270939E-01
       -1   -1    0    0    0  501  0.00000000000E+00  0.00000000000E+00  0.10176228919E+04  0.10176228919E+04  0.50400001928E-02 0.  1.
        1   -1    0    0  501    0  0.00000000000E+00  0.00000000000E+00 -0.20753938352E+04  0.20753938352E+04  0.50400001928E-02 0. -1.
    10030    2    1    2    0    0  0.00000000000E+00  0.00000000000E+00 -0.10577709433E+04  0.30930167271E+04  0.29065225108E+04 0.  0.
        5    1    3    3  502    0  0.16520289088E+03 -0.49527377327E+03 -0.19721359833E+04  0.20400810112E+04  0.46999998093E+01 0. -1.
       -5    1    3    3    0  502 -0.16520289088E+03  0.49527377327E+03  0.91436503995E+03  0.10529357160E+04  0.46999998093E+01 0.  1.
</event>
<event>
 5   0  0.2360103E-06  0.2897519E+04  0.7818609E-02  0.8273616E-01
        2   -1    0    0  501    0  0.00000000000E+00  0.00000000000E+00  0.10400523532E+04  0.10400523532E+04  0.25500000920E-02 0. -1.
       -2   -1    0    0    0  501  0.00000000000E+00  0.00000000000E+00 -0.20180754883E+04  0.20180754883E+04  0.25500000920E-02 0.  1.
    10030    2    1    2    0    0  0.00000000000E+00  0.00000000000E+00 -0.97802313514E+03  0.30581278415E+04  0.28975190495E+04 0.  0.
        4    1    3    3  502    0 -0.12484558023E+04  0.11103698812E+03 -0.12558751284E+04  0.17743153762E+04  0.12699999809E+01 0.  1.
       -4    1    3    3    0  502  0.12484558023E+04 -0.11103698812E+03  0.27785199326E+03  0.12838124654E+04  0.12699999809E+01 0. -1.
</event>
<event>
 5   0  0.2425845E-06  0.2897448E+04  0.7818609E-02  0.8273637E-01
        2   -1    0    0  501    0  0.00000000000E+00  0.00000000000E+00  0.15441751753E+04  0.15441751753E+04  0.25500000920E-02 0. -1.
       -2   -1    0    0    0  501  0.00000000000E+00  0.00000000000E+00 -0.13591730997E+04  0.13591730997E+04  0.25500000920E-02 0.  1.
    10030    2    1    2    0    0  0.00000000000E+00  0.00000000000E+00  0.18500207562E+03  0.29033482750E+04  0.28974480906E+04 0.  0.
        2    1    3    3  502    0 -0.11060229271E+04  0.89331254819E+03  0.37146934974E+03  0.14694500678E+04  0.25500000920E-02 0.  1.
       -2    1    3    3    0  502  0.11060229271E+04 -0.89331254819E+03 -0.18646727411E+03  0.14338982071E+04  0.25500000920E-02 0. -1.
</event>
<event>
 5   0  0.8263673E-07  0.2917919E+04  0.7818609E-02  0.8267566E-01
        1   -1    0    0  501    0  0.00000000000E+00  0.00000000000E+00  0.14035709494E+04  0.14035709495E+04  0.50400001928E-02 0. -1.
       -1   -1    0    0    0  501  0.00000000000E+00  0.00000000000E+00 -0.15165339478E+04  0.15165339478E+04  0.50400001928E-02 0.  1.
    10030    2    1    2    0    0  0.00000000000E+00  0.00000000000E+00 -0.11296299832E+03  0.29201048972E+04  0.29179191167E+04 0.  0.
        5    1    3    3  502    0  0.10368491340E+04 -0.10112676194E+04 -0.23217661362E+03  0.14668491383E+04  0.46999998093E+01 0. -1.
       -5    1    3    3    0  502 -0.10368491340E+04  0.10112676194E+04  0.11921361530E+03  0.14532557589E+04  0.46999998093E+01 0.  1.
</event>
<event>
 5   0  0.8357118E-07  0.2919620E+04  0.7818609E-02  0.8267064E-01
        1   -1    0    0  501    0  0.00000000000E+00  0.00000000000E+00  0.87059216722E+03  0.87059216723E+03  0.50400001928E-02 0. -1.
       -1   -1    0    0    0  501  0.00000000000E+00  0.00000000000E+00 -0.24478118910E+04  0.24478118910E+04  0.50400001928E-02 0.  1.
    10030    2    1    2    0    0  0.00000000000E+00  0.00000000000E+00 -0.15772197237E+04  0.33184040582E+04  0.29196204268E+04 0.  0.
        1    1    3    3  502    0  0.30683912406E+03  0.78893322123E+03 -0.21403751044E+04  0.23016888285E+04  0.50400001928E-02 0.  1.
       -1    1    3    3    0  502 -0.30683912406E+03 -0.78893322123E+03  0.56315538063E+03  0.10167152297E+04  0.50400001928E-02 0. -1.
</event>
<event>
 5   0  0.2378690E-06  0.2887155E+04  0.7818609E-02  0.8276710E-01
        2   -1    0    0  501    0  0.00000000000E+00  0.00000000000E+00  0.18226332541E+04  0.18226332541E+04  0.25500000920E-02 0.  1.
       -2   -1    0    0    0  501  0.00000000000E+00  0.00000000000E+00 -0.11433541963E+04  0.11433541963E+04  0.25500000920E-02 0. -1.
    10030    2    1    2    0    0  0.00000000000E+00  0.00000000000E+00  0.67927905778E+03  0.29659874504E+04  0.28871545712E+04 0.  0.
        3    1    3    3  502    0 -0.34694001193E+03  0.10893786539E+03  0.17748104932E+04  0.18116807465E+04  0.10100000352E+00 0.  1.
       -3    1    3    3    0  502  0.34694001193E+03 -0.10893786539E+03 -0.10955314354E+04  0.11543067039E+04  0.10100000352E+00 0. -1.
</event>
<event>
 5   0  0.2360103E-06  0.2904262E+04  0.7818609E-02  0.8271611E-01
       -2   -1    0    0    0  501  0.00000000000E+00  0.00000000000E+00  0.25223135133E+04  0.25223135133E+04  0.25500000920E-02 0. -1.
        2   -1    0    0  501    0  0.00000000000E+00  0.00000000000E+00 -0.83601188632E+03  0.83601188633E+03  0.25500000920E-02 0.  1.
    10030    2    1    2    0    0  0.00000000000E+00  0.00000000000E+00  0.16863016270E+04  0.33583253996E+04  0.29042617500E+04 0.  0.
        4    1    3    3  502    0 -0.10802919882E+04  0.15422627311E+03  0.19509898056E+04  0.22354371737E+04  0.12699999809E+01 0. -1.
       -4    1    3    3    0  502  0.10802919882E+04 -0.15422627311E+03 -0.26468817865E+03  0.11228882259E+04  0.12699999809E+01 0.  1.
</event>
<event>
 5   0  0.2360103E-06  0.2921586E+04  0.7818609E-02  0.8266484E-01
       -2   -1    0    0    0  501  0.00000000000E+00  0.00000000000E+00  0.34855028589E+04  0.34855028589E+04  0.25500000920E-02 0.  1.
        2   -1    0    0  501    0  0.00000000000E+00  0.00000000000E+00 -0.61222620663E+03  0.61222620664E+03  0.25500000920E-02 0. -1.
    10030    2    1    2    0    0  0.00000000000E+00  0.00000000000E+00  0.28732766522E+04  0.40977290655E+04  0.29215860032E+04 0.  0.
        4    1    3    3  502    0 -0.39893138555E+03  0.40517660865E+03 -0.45063956600E+03  0.72552874920E+03  0.12699999809E+01 0. -1.
       -4    1    3    3    0  502  0.39893138555E+03 -0.40517660865E+03  0.33239162182E+04  0.33722003163E+04  0.12699999809E+01 0.  1.
</event>
<event>
 5   0  0.8947674E-07  0.2902613E+04  0.7818609E-02  0.8272100E-01
        1   -1    0    0  501    0  0.00000000000E+00  0.00000000000E+00  0.15595699022E+04  0.15595699022E+04  0.50400001928E-02 0.  1.
       -1   -1    0    0    0  501  0.00000000000E+00  0.00000000000E+00 -0.13505584975E+04  0.13505584975E+04  0.50400001928E-02 0. -1.
    10030    2    1    2    0    0  0.00000000000E+00  0.00000000000E+00  0.20901140466E+03  0.29101283997E+04  0.29026128808E+04 0.  0.
        3    1    3    3  502    0 -0.44304375686E+03 -0.11531078191E+04 -0.65927053409E+03  0.14002082203E+04  0.10100000352E+00 0. -1.
       -3    1    3    3    0  502  0.44304375686E+03  0.11531078191E+04  0.86828193875E+03  0.15099201794E+04  0.10100000352E+00 0.  1.
</event>
<event>
 5   0  0.8263673E-07  0.2908411E+04  0.7818609E-02  0.8270379E-01
        1   -1    0    0  501    0  0.00000000000E+00  0.00000000000E+00  0.16683581841E+04  0.16683581841E+04  0.50400001928E-02 0.  1.
       -1   -1    0    0    0  501  0.00000000000E+00  0.00000000000E+00 -0.12675415920E+04  0.12675415920E+04  0.50400001928E-02 0. -1.
    10030    2    1    2    0    0  0.00000000000E+00  0.00000000000E+00  0.40081659213E+03  0.29358997762E+04  0.29084108298E+04 0.  0.
        5    1    3    3  502    0  0.11129985369E+04  0.38722636526E+03 -0.65969020171E+03  0.13505270280E+04  0.46999998093E+01 0. -1.
       -5    1    3    3    0  502 -0.11129985369E+04 -0.38722636526E+03  0.10605067938E+04  0.15853727482E+04  0.46999998093E+01 0.  1.
</event>
<event>
 5   0  0.8947674E-07  0.2902096E+04  0.7818609E-02  0.8272254E-01
       -1   -1    0    0    0  501  0.00000000000E+00  0.00000000000E+00  0.10308002131E+04  0.10308002132E+04  0.50400001928E-02 0. -1.
        1   -1    0    0  501    0  0.00000000000E+00  0.00000000000E+00 -0.20426274676E+04  0.20426274676E+04  0.50400001928E-02 0.  1.
    10030    2    1    2    0    0  0.00000000000E+00  0.00000000000E+00 -0.10118272544E+04  0.30734276807E+04  0.29020963657E+04 0.  0.
        3    1    3    3  502    0  0.46349090910E+03 -0.33820449579E+03 -0.19173898635E+04  0.20013970128E+04  0.10100000352E+00 0.  1.
       -3    1    3    3    0  502 -0.46349090910E+03  0.33820449579E+03  0.90556260911E+03  0.10720306679E+04  0.10100000352E+00 0. -1.
</event>
<event>
 5   0  0.8483636E-07  0.2909219E+04  0.7818609E-02  0.8270140E-01
        1   -1    0    0  501    0  0.00000000000E+00  0.00000000000E+00  0.13876161441E+04  0.13876161441E+04  0.50400001928E-02 0. -1.
       -1   -1    0    0    0  501  0.00000000000E+00  0.00000000000E+00 -0.15248374884E+04  0.15248374884E+04  0.50400001928E-02 0.  1.
    10030    2    1    2    0    0  0.00000000000E+00  0.00000000000E+00 -0.13722134427E+03  0.29124536325E+04  0.29092192190E+04 0.  0.
        2    1    3    3  502    0  0.10317437499E+04  0.85240281341E+03  0.50193820034E+03  0.14293451923E+04  0.25500000920E-02 0. -1.
       -2    1    3    3    0  502 -0.10317437499E+04 -0.85240281341E+03 -0.63915954461E+03  0.14831084402E+04  0.25500000920E-02 0.  1.
</event>
<event>
 5   0  0.2378690E-06  0.2888089E+04  0.7818609E-02  0.8276430E-01
        2   -1    0    0  501    0  0.00000000000E+00  0.00000000000E+00  0.13532542589E+04  0.13532542589E+04  0.25500000920E-02 0.  1.
       -2   -1    0    0    0  501  0.00000000000E+00  0.00000000000E+00 -0.15409258190E+04  0.15409258190E+04  0.25500000920E-02 0. -1.
    10030    2    1    2    0    0  0.00000000000E+00  0.00000000000E+00 -0.18767156009E+03  0.28941800780E+04  0.28880889372E+04 0.  0.
        3    1    3    3  502    0  0.12019221752E+04 -0.79355462428E+03  0.10876513221E+02  0.14403000263E+04  0.10100000352E+00 0.  1.
       -3    1    3    3    0  502 -0.12019221752E+04  0.79355462428E+03 -0.19854807331E+03  0.14538800517E+04  0.10100000352E+00 0. -1.
</event>
<event>
 5   0  0.2378690E-06  0.2909105E+04  0.7818609E-02  0.8270174E-01
        2   -1    0    0  501    0  0.00000000000E+00  0.00000000000E+00  0.10060994828E+04  0.10060994828E+04  0.25500000920E-02 0.  1.
       -2   -1    0    0    0  501  0.00000000000E+00  0.00000000000E+00 -0.21028962809E+04  0.21028962809E+04  0.25500000920E-02 0. -1.
    10030    2    1    2    0    0  0.00000000000E+00  0.00000000000E+00 -0.10967967981E+04  0.31089957637E+04  0.29091049212E+04 0.  0.
        3    1    3    3  502    0  0.12482195178E+04 -0.15230430961E+03 -0.13297097827E+04  0.18301302368E+04  0.10100000352E+00 0. -1.
       -3    1    3    3    0  502 -0.12482195178E+04  0.15230430961E+03  0.23291298463E+03  0.12788655269E+04  0.10100000352E+00 0.  1.
</event>
<event>
 5   0  0.8947674E-07  0.2901106E+04  0.7818609E-02  0.8272549E-01
       -1   -1    0    0    0  501  0.00000000000E+00  0.00000000000E+00  0.14790935283E+04  0.14790935283E+04  0.50400001928E-02 0.  1.
        1   -1    0    0  501    0  0.00000000000E+00  0.00000000000E+00 -0.14225629685E+04  0.14225629685E+04  0.50400001928E-02 0. -1.
    10030    2    1    2    0    0  0.00000000000E+00  0.00000000000E+00  0.56530559721E+02  0.29016564968E+04  0.29011057756E+04 0.  0.
        3    1    3    3  502    0 -0.12530520044E+04  0.32061477725E+03  0.68502568064E+03  0.14636233650E+04  0.10100000352E+00 0.  1.
       -3    1    3    3    0  502  0.12530520044E+04 -0.32061477725E+03 -0.62849512092E+03  0.14380331319E+04  0.10100000352E+00 0. -1.
</event>
<event>
 5   0  0.2360103E-06  0.2906649E+04  0.7818609E-02  0.8270902E-01
        2   -1    0    0  501    0  0.00000000000E+00  0.00000000000E+00  0.17476078164E+04  0.17476078164E+04  0.25500000920E-02 0.  1.
       -2   -1    0    0    0  501  0.00000000000E+00  0.00000000000E+00 -0.12085962262E+04  0.12085962262E+04  0.25500000920E-02 0. -1.
    10030    2    1    2    0    0  0.00000000000E+00  0.00000000000E+00  0.53901159021E+03  0.29562040425E+04  0.29066490752E+04 0.  0.
        4    1    3    3  502    0 -0.16158278695E+03  0.15187616189E+03  0.17302992415E+04  0.17444519035E+04  0.12699999809E+01 0.  1.
       -4    1    3    3    0  502  0.16158278695E+03 -0.15187616189E+03 -0.11912876513E+04  0.12117521391E+04  0.12699999809E+01 0. -1.
</event>
<event>
 5   0  0.2304435E-06  0.2958474E+04  0.7818609E-02  0.8255689E-01
       -2   -1    0    0    0  501  0.00000000000E+00  0.00000000000E+00  0.13841095483E+04  0.13841095483E+04  0.25500000920E-02 0. -1.
        2   -1    0    0  501    0  0.00000000000E+00  0.00000000000E+00 -0.15809022117E+04  0.15809022117E+04  0.25500000920E-02 0.  1.
    10030    2    1    2    0    0  0.00000000000E+00  0.00000000000E+00 -0.19679266340E+03  0.29650117599E+04  0.29584738268E+04 0.  0.
        1    1    3    3  502    0 -0.79241932985E+03 -0.10928647482E+04 -0.70459671888E+03  0.15227403878E+04  0.50400001928E-02 0.  1.
       -1    1    3    3    0  502  0.79241932985E+03  0.10928647482E+04  0.50780405548E+03  0.14422713722E+04  0.50400001928E-02 0. -1.
</event>
<event>
 5   0  0.2360103E-06  0.2889359E+04  0.7818609E-02  0.8276050E-01
        2   -1    0    0  501    0  0.00000000000E+00  0.00000000000E+00  0.14423586000E+04  0.14423586000E+04  0.25500000920E-02 0.  1.
       -2   -1    0    0    0  501  0.00000000000E+00  0.00000000000E+00 -0.14470044113E+04  0.14470044113E+04  0.25500000920E-02 0. -1.
    10030    2    1    2    0    0  0.00000000000E+00  0.00000000000E+00 -0.46458113490E+01  0.28893630113E+04  0.28893592763E+04 0.  0.
        4    1    3    3  502    0 -0.36574773152E+03 -0.13638401683E+04 -0.30771851338E+03  0.14451725517E+04  0.12699999809E+01 0. -1.
       -4    1    3    3    0  502  0.36574773152E+03  0.13638401683E+04  0.30307270203E+03  0.14441904596E+04  0.12699999809E+01 0.  1.
</event>
<event>
 5   0  0.8263673E-07  0.2900980E+04  0.7818609E-02  0.8272586E-01
       -1   -1    0    0    0  501  0.00000000000E+00  0.00000000000E+00  0.13708415643E+04  0.13708415643E+04  0.50400001928E-02 0.  1.
        1   -1    0    0  501    0  0.00000000000E+00  0.00000000000E+00 -0.15347662631E+04  0.15347662631E+04  0.50400001928E-02 0. -1.
    10030    2    1    2    0    0  0.00000000000E+00  0.00000000000E+00 -0.16392469881E+03  0.29056078274E+04  0.29009800999E+04 0.  0.
        5    1    3    3  502    0 -0.31690083362E+03  0.13874908675E+04 -0.36230570371E+03  0.14686199504E+04  0.46999998093E+01 0. -1.
       -5    1    3    3    0  502  0.31690083362E+03 -0.13874908675E+04  0.19838100490E+03  0.14369878770E+04  0.46999998093E+01 0.  1.
</event>
<event>
 5   0  0.2304435E-06  0.2919890E+04  0.7818609E-02  0.8266984E-01
       -2   -1    0    0    0  501  0.00000000000E+00  0.00000000000E+00  0.18574287306E+04  0.18574287306E+04  0.25500000920E-02 0. -1.
        2   -1    0    0  501    0  0.00000000000E+00  0.00000000000E+00 -0.11475213914E+04  0.11475213914E+04  0.25500000920E-02 0.  1.
    10030    2    1    2    0    0  0.00000000000E+00  0.00000000000E+00  0.70990733927E+03  0.30049501220E+04  0.29198898618E+04 0.  0.
        1    1    3    3  502    0  0.14547146669E+04 -0.12286536611E+03  0.36749644873E+03  0.15054382419E+04  0.50400001928E-02 0. -1.
       -1    1    3    3    0  502 -0.14547146669E+04  0.12286536611E+03  0.34241089053E+03  0.14995118800E+04  0.50400001928E-02 0.  1.
</event>
<event>
 5   0  0.2325590E-06  0.2978261E+04  0.7818609E-02  0.8249966E-01
        2   -1    0    0  501    0  0.00000000000E+00  0.00000000000E+00  0.15038845790E+04  0.15038845790E+04  0.25500000920E-02 0.  1.
       -2   -1    0    0    0  501  0.00000000000E+00  0.00000000000E+00 -0.14745211613E+04  0.14745211613E+04  0.25500000920E-02 0. -1.
    10030    2    1    2    0    0  0.00000000000E+00  0.00000000000E+00  0.29363417719E+02  0.29784057403E+04  0.29782609932E+04 0.  0.
        5    1    3    3  502    0 -0.56533734873E+03  0.74163290946E+03 -0.11463492443E+04  0.14777565328E+04  0.46999998093E+01 0. -1.
       -5    1    3    3    0  502  0.56533734873E+03 -0.74163290946E+03  0.11757126620E+04  0.15006492075E+04  0.46999998093E+01 0.  1.
</event>
<event>
 5   0  0.8355946E-07  0.2904970E+04  0.7818609E-02  0.8271400E-01
       -1   -1    0    0    0  501  0.00000000000E+00  0.00000000000E+00  0.12496956371E+04  0.12496956372E+04  0.50400001928E-02 0. -1.
        1   -1    0    0  501    0  0.00000000000E+00  0.00000000000E+00 -0.16881807389E+04  0.16881807389E+04  0.50400001928E-02 0.  1.
    10030    2    1    2    0    0  0.00000000000E+00  0.00000000000E+00 -0.43848510178E+03  0.29378763761E+04  0.29049696068E+04 0.  0.
        4    1    3    3  502    0  0.74361659948E+03  0.78592177735E+03 -0.11992769610E+04  0.16152106764E+04  0.12699999809E+01 0.  1.
       -4    1    3    3    0  502 -0.74361659948E+03 -0.78592177735E+03  0.76079185922E+03  0.13226656997E+04  0.12699999809E+01 0. -1.
</event>
<event>
 5   0  0.2325590E-06  0.2896789E+04  0.7818609E-02  0.8273834E-01
       -2   -1    0    0    0  501  0.00000000000E+00  0.00000000000E+00  0.18478801970E+04  0.18478801970E+04  0.25500000920E-02 0. -1.
        2   -1    0    0  501    0  0.00000000000E+00  0.00000000000E+00 -0.11352716672E+04  0.11352716672E+04  0.25500000920E-02 0.  1.
    10030    2    1    2    0    0  0.00000000000E+00  0.00000000000E+00  0.71260852982E+03  0.29831518642E+04  0.28967885888E+04 0.  0.
        5    1    3    3  502    0  0.36553335675E+03 -0.11650433269E+04  0.11585569407E+04  0.16832162259E+04  0.46999998093E+01 0. -1.
       -5    1    3    3    0  502 -0.36553335675E+03  0.11650433269E+04 -0.44594841084E+03  0.12999356382E+04  0.46999998093E+01 0.  1.
</event>
<event>
 5   0  0.2425845E-06  0.2890958E+04  0.7818609E-02  0.8275573E-01
        2   -1    0    0  501    0  0.00000000000E+00  0.00000000000E+00  0.28636873791E+04  0.28636873791E+04  0.25500000920E-02 0.  1.
       -2   -1    0    0    0  501  0.00000000000E+00  0.00000000000E+00 -0.72962226973E+03  0.72962226974E+03  0.25500000920E-02 0. -1.
    10030    2    1    2    0    0  0.00000000000E+00  0.00000000000E+00  0.21340651093E+04  0.35933096488E+04  0.28909583776E+04 0.  0.
        2    1    3    3  502    0  0.10305015723E+04  0.93182645267E+02 -0.18754035763E+03  0.10515644924E+04  0.25500000920E-02 0. -1.
       -2    1    3    3    0  502 -0.10305015723E+04 -0.93182645267E+02  0.23216054670E+04  0.25417451564E+04  0.25500000920E-02 0.  1.
</event>
<event>
 5   0  0.2425845E-06  0.2903852E+04  0.7818609E-02  0.8271732E-01
        2   -1    0    0  501    0  0.00000000000E+00  0.00000000000E+00  0.10850702754E+04  0.10850702754E+04  0.25500000920E-02 0. -1.
       -2   -1    0    0    0  501  0.00000000000E+00  0.00000000000E+00 -0.19428135744E+04  0.19428135744E+04  0.25500000920E-02 0.  1.
    10030    2    1    2    0    0  0.00000000000E+00  0.00000000000E+00 -0.85774329896E+03  0.30278838498E+04  0.29038521038E+04 0.  0.
        2    1    3    3  502    0 -0.14303601166E+04  0.12778995630E+02 -0.68849645411E+03  0.15874888136E+04  0.25500000920E-02 0. -1.
       -2    1    3    3    0  502  0.14303601166E+04 -0.12778995630E+02 -0.16924684485E+03  0.14403950362E+04  0.25500000920E-02 0.  1.
</event>
<event>
 5   0  0.8947674E-07  0.2887287E+04  0.7818609E-02  0.8276670E-01
       -1   -1    0    0    0  501  0.00000000000E+00  0.00000000000E+00  0.15505085136E+04  0.15505085136E+04  0.50400001928E-02 0. -1.
        1   -1    0    0  501    0  0.00000000000E+00  0.00000000000E+00 -0.13441437286E+04  0.13441437286E+04  0.50400001928E-02 0.  1.
    10030    2    1    2    0    0  0.00000000000E+00  0.00000000000E+00  0.20636478500E+03  0.28946522423E+04  0.28872868197E+04 0.  0.
        3    1    3    3  502    0  0.12968451638E+04 -0.47373642508E+02 -0.53092983194E+03  0.14021191595E+04  0.10100000352E+00 0.  1.
       -3    1    3    3    0  502 -0.12968451638E+04  0.47373642508E+02  0.73729461694E+03  0.14925330828E+04  0.10100000352E+00 0. -1.
</event>
<event>
 5   0  0.8483636E-07  0.2897871E+04  0.7818609E-02  0.8273511E-01
       -1   -1    0    0    0  501  0.00000000000E+00  0.00000000000E+00  0.15225103169E+04  0.15225103169E+04  0.50400001928E-02 0.  1.
        1   -1    0    0  501    0  0.00000000000E+00  0.00000000000E+00 -0.13789160601E+04  0.13789160601E+04  0.50400001928E-02 0. -1.
    10030    2    1    2    0    0  0.00000000000E+00  0.00000000000E+00  0.14359425677E+03  0.29014263770E+04  0.28978708927E+04 0.  0.
        2    1    3    3  502    0  0.11251121131E+03  0.14091327856E+04 -0.24655516849E+03  0.14349576409E+04  0.25500000920E-02 0. -1.
       -2    1    3    3    0  502 -0.11251121131E+03 -0.14091327856E+04  0.39014942526E+03  0.14664687361E+04  0.25500000920E-02 0.  1.
</event>
<event>
 5   0  0.2304435E-06  0.2927963E+04  0.7818609E-02  0.8264606E-01
        2   -1    0    0  501    0  0.00000000000E+00  0.00000000000E+00  0.26697405241E+04  0.26697405241E+04  0.25500000920E-02 0.  1.
       -2   -1    0    0    0  501  0.00000000000E+00  0.00000000000E+00 -0.80279005612E+03  0.80279005612E+03  0.25500000920E-02 0. -1.
    10030    2    1    2    0    0  0.00000000000E+00  0.00000000000E+00  0.18669504680E+04  0.34725305802E+04  0.29279625306E+04 0.  0.
        1    1    3    3  502    0 -0.45133875806E+03  0.10304230734E+04  0.20446161500E+04  0.23336524132E+04  0.50400001928E-02 0.  1.
       -1    1    3    3    0  502  0.45133875806E+03 -0.10304230734E+04 -0.17766568205E+03  0.11388781670E+04  0.50400001928E-02 0. -1.
</event>
<event>
 5   0  0.8483636E-07  0.2894970E+04  0.7818609E-02  0.8274376E-01
        1   -1    0    0  501    0  0.00000000000E+00  0.00000000000E+00  0.12272834324E+04  0.12272834324E+04  0.50400001928E-02 0.  1.
       -1   -1    0    0    0  501  0.00000000000E+00  0.00000000000E+00 -0.17071950107E+04  0.17071950107E+04  0.50400001928E-02 0. -1.
    10030    2    1    2    0    0  0.00000000000E+00  0.00000000000E+00 -0.47991157826E+03  0.29344784431E+04  0.28949695352E+04 0.  0.
        2    1    3    3  502    0  0.67318226515E+03 -0.12756758243E+04 -0.36280794121E+03  0.14873307544E+04  0.25500000920E-02 0.  1.
       -2    1    3    3    0  502 -0.67318226515E+03  0.12756758243E+04 -0.11710363704E+03  0.14471476886E+04  0.25500000920E-02 0. -1.
</event>
<event>
 5   0  0.8263673E-07  0.2876796E+04  0.7818609E-02  0.8279815E-01
       -1   -1    0    0    0  501  0.00000000000E+00  0.00000000000E+00  0.17997765891E+04  0.17997765891E+04  0.50400001928E-02 0.  1.
        1   -1    0    0  501    0  0.00000000000E+00  0.00000000000E+00 -0.11495810843E+04  0.11495810844E+04  0.50400001928E-02 0. -1.
    10030    2    1    2    0    0  0.00000000000E+00  0.00000000000E+00  0.65019550472E+03  0.29493576734E+04  0.28767962200E+04 0.  0.
        5    1    3    3  502    0  0.27865044334E+02 -0.76389505981E+02 -0.11472150165E+04  0.11501026917E+04  0.46999998093E+01 0. -1.
       -5    1    3    3    0  502 -0.27865044334E+02  0.76389505981E+02  0.17974105213E+04  0.17992549817E+04  0.46999998093E+01 0.  1.
</event>
<event>
 5   0  0.2325590E-06  0.2893930E+04  0.7818609E-02  0.8274686E-01
        2   -1    0    0  501    0  0.00000000000E+00  0.00000000000E+00  0.16275176691E+04  0.16275176691E+04  0.25500000920E-02 0. -1.
       -2   -1    0    0    0  501  0.00000000000E+00  0.00000000000E+00 -0.12864427129E+04  0.12864427129E+04  0.25500000920E-02 0.  1.
    10030    2    1    2    0    0  0.00000000000E+00  0.00000000000E+00  0.34107495627E+03  0.29139603820E+04  0.28939303693E+04 0.  0.
        5    1    3    3  502    0 -0.83816551575E+03 -0.48205918210E+03  0.12544562767E+04  0.15838513589E+04  0.46999998093E+01 0. -1.
       -5    1    3    3    0  502  0.83816551575E+03  0.48205918210E+03 -0.91338132045E+03  0.13301090231E+04  0.46999998093E+01 0.  1.
</event>
<event>
 5   0  0.8483636E-07  0.2906003E+04  0.7818609E-02  0.8271094E-01
        1   -1    0    0  501    0  0.00000000000E+00  0.00000000000E+00  0.91619935222E+03  0.91619935223E+03  0.50400001928E-02 0.  1.
       -1   -1    0    0    0  501  0.00000000000E+00  0.00000000000E+00 -0.23043172159E+04  0.23043172159E+04  0.50400001928E-02 0. -1.
    10030    2    1    2    0    0  0.00000000000E+00  0.00000000000E+00 -0.13881178637E+04  0.32205165682E+04  0.29060034003E+04 0.  0.
        2    1    3    3  502    0  0.23802572104E+03 -0.11253791937E+04  0.28975823925E+03  0.11862101039E+04  0.25500000920E-02 0.  1.
       -2    1    3    3    0  502 -0.23802572104E+03  0.11253791937E+04 -0.16778761030E+04  0.20343064642E+04  0.25500000920E-02 0. -1.
</event>
<event>
 5   0  0.8947674E-07  0.2911782E+04  0.7818609E-02  0.8269381E-01
        1   -1    0    0  501    0  0.00000000000E+00  0.00000000000E+00  0.18155060712E+04  0.18155060712E+04  0.50400001928E-02 0. -1.
       -1   -1    0    0    0  501  0.00000000000E+00  0.00000000000E+00 -0.11675082047E+04  0.11675082048E+04  0.50400001928E-02 0.  1.
    10030    2    1    2    0    0  0.00000000000E+00  0.00000000000E+00  0.64799786644E+03  0.29830142759E+04  0.29117817459E+04 0.  0.
        3    1    3    3  502    0 -0.77158026825E+03 -0.83725917549E+03  0.12535432088E+04  0.16934313165E+04  0.10100000352E+00 0. -1.
       -3    1    3    3    0  502  0.77158026825E+03  0.83725917549E+03 -0.60554534238E+03  0.12895829594E+04  0.10100000352E+00 0.  1.
</event>
<event>
 5   0  0.8263673E-07  0.2902306E+04  0.7818609E-02  0.8272192E-01
       -1   -1    0    0    0  501  0.00000000000E+00  0.00000000000E+00  0.14417481865E+04  0.14417481865E+04  0.50400001928E-02 0. -1.
        1   -1    0    0  501    0  0.00000000000E+00  0.00000000000E+00 -0.14606188166E+04  0.14606188166E+04  0.50400001928E-02 0.  1.
    10030    2    1    2    0    0  0.00000000000E+00  0.00000000000E+00 -0.18870630108E+02  0.29023670032E+04  0.29023056559E+04 0.  0.
        5    1    3    3  502    0  0.18651649358E+03  0.82552597444E+03 -0.11882481274E+04  0.14588479150E+04  0.46999998093E+01 0.  1.
       -5    1    3    3    0  502 -0.18651649358E+03 -0.82552597444E+03  0.11693774973E+04  0.14435190882E+04  0.46999998093E+01 0. -1.
</event>
<event>
 5   0  0.2425845E-06  0.2906299E+04  0.7818609E-02  0.8271006E-01
        2   -1    0    0  501    0  0.00000000000E+00  0.00000000000E+00  0.16216687178E+04  0.16216687178E+04  0.25500000920E-02 0.  1.
       -2   -1    0    0    0  501  0.00000000000E+00  0.00000000000E+00 -0.13021422514E+04  0.13021422514E+04  0.25500000920E-02 0. -1.
    10030    2    1    2    0    0  0.00000000000E+00  0.00000000000E+00  0.31952646634E+03  0.29238109692E+04  0.29062989215E+04 0.  0.
        2    1    3    3  502    0 -0.90002784825E+03 -0.10775233827E+04  0.53690420185E+03  0.15031210496E+04  0.25500000920E-02 0.  1.
       -2    1    3    3    0  502  0.90002784825E+03  0.10775233827E+04 -0.21737773551E+03  0.14206899196E+04  0.25500000920E-02 0. -1.
</event>
<event>
 5   0  0.2378690E-06  0.2876844E+04  0.7818609E-02  0.8279800E-01
        2   -1    0    0  501    0  0.00000000000E+00  0.00000000000E+00  0.13844953479E+04  0.13844953479E+04  0.25500000920E-02 0.  1.
       -2   -1    0    0    0  501  0.00000000000E+00  0.00000000000E+00 -0.14944496043E+04  0.14944496043E+04  0.25500000920E-02 0. -1.
    10030    2    1    2    0    0  0.00000000000E+00  0.00000000000E+00 -0.10995425639E+03  0.28789449522E+04  0.28768444691E+04 0.  0.
        3    1    3    3  502    0  0.66634819779E+03  0.10718051373E+04  0.63565162965E+03  0.14130956010E+04  0.10100000352E+00 0.  1.
       -3    1    3    3    0  502 -0.66634819779E+03 -0.10718051373E+04 -0.74560588604E+03  0.14658493512E+04  0.10100000352E+00 0. -1.
</event>
<event>
 5   0  0.8947674E-07  0.2869547E+04  0.7818609E-02  0.8281996E-01
        1   -1    0    0  501    0  0.00000000000E+00  0.00000000000E+00  0.14531747241E+04  0.14531747241E+04  0.50400001928E-02 0.  1.
       -1   -1    0    0    0  501  0.00000000000E+00  0.00000000000E+00 -0.14166054910E+04  0.14166054910E+04  0.50400001928E-02 0. -1.
    10030    2    1    2    0    0  0.00000000000E+00  0.00000000000E+00  0.36569233090E+02  0.28697802151E+04  0.28695472071E+04 0.  0.
        3    1    3    3  502    0  0.61543013052E+03  0.38695944428E+03 -0.12187812356E+04  0.14191263395E+04  0.10100000352E+00 0. -1.
       -3    1    3    3    0  502 -0.61543013052E+03 -0.38695944428E+03  0.12553504687E+04  0.14506538755E+04  0.10100000352E+00 0.  1.
</event>
<event>
 5   0  0.2304435E-06  0.2925473E+04  0.7818609E-02  0.8265339E-01
        2   -1    0    0  501    0  0.00000000000E+00  0.00000000000E+00  0.15002310310E+04  0.15002310310E+04  0.25500000920E-02 0. -1.
       -2   -1    0    0    0  501  0.00000000000E+00  0.00000000000E+00 -0.14261790936E+04  0.14261790936E+04  0.25500000920E-02 0.  1.
    10030    2    1    2    0    0  0.00000000000E+00  0.00000000000E+00  0.74051937375E+02  0.29264101246E+04  0.29254730434E+04 0.  0.
        1    1    3    3  502    0 -0.79364729039E+03  0.97408037307E+03  0.78619145143E+03  0.14821624719E+04  0.50400001928E-02 0. -1.
       -1    1    3    3    0  502  0.79364729039E+03 -0.97408037307E+03 -0.71213951406E+03  0.14442476527E+04  0.50400001928E-02 0.  1.
</event>
<event>
 5   0  0.2304435E-06  0.2907999E+04  0.7818609E-02  0.8270501E-01
       -2   -1    0    0    0  501  0.00000000000E+00  0.00000000000E+00  0.10777993813E+04  0.10777993813E+04  0.25500000920E-02 0.  1.
        2   -1    0    0  501    0  0.00000000000E+00  0.00000000000E+00 -0.19615107604E+04  0.19615107604E+04  0.25500000920E-02 0. -1.
    10030    2    1    2    0    0  0.00000000000E+00  0.00000000000E+00 -0.88371137914E+03  0.30393101417E+04  0.29079993700E+04 0.  0.
        1    1    3    3  502    0 -0.32923741990E+03  0.70997981564E+03 -0.17226062672E+04  0.18920467672E+04  0.50400001928E-02 0. -1.
       -1    1    3    3    0  502  0.32923741990E+03 -0.70997981564E+03  0.83889488806E+03  0.11472633745E+04  0.50400001928E-02 0.  1.
</event>
<event>
 5   0  0.2325590E-06  0.2905656E+04  0.7818609E-02  0.8271197E-01
       -2   -1    0    0    0  501  0.00000000000E+00  0.00000000000E+00  0.15705893308E+04  0.15705893308E+04  0.25500000920E-02 0.  1.
        2   -1    0    0  501    0  0.00000000000E+00  0.00000000000E+00 -0.13438960035E+04  0.13438960036E+04  0.25500000920E-02 0. -1.
    10030    2    1    2    0    0  0.00000000000E+00  0.00000000000E+00  0.22669332724E+03  0.29144853343E+04  0.29056556746E+04 0.  0.
        5    1    3    3  502    0 -0.10110022703E+03 -0.77715771550E+02  0.15649574903E+04  0.15701512772E+04  0.46999998093E+01 0.  1.
       -5    1    3    3    0  502  0.10110022703E+03  0.77715771550E+02 -0.13382641630E+04  0.13443340571E+04  0.46999998093E+01 0. -1.
</event>
<event>
 5   0  0.2378690E-06  0.2896089E+04  0.7818609E-02  0.8274042E-01
       -2   -1    0    0    0  501  0.00000000000E+00  0.00000000000E+00  0.12656990241E+04  0.12656990241E+04  0.25500000920E-02 0. -1.
        2   -1    0    0  501    0  0.00000000000E+00  0.00000000000E+00 -0.16566599798E+04  0.16566599798E+04  0.25500000920E-02 0.  1.
    10030    2    1    2    0    0  0.00000000000E+00  0.00000000000E+00 -0.39096095574E+03  0.29223590039E+04  0.28960890315E+04 0.  0.
        3    1    3    3  502    0 -0.10408292009E+03  0.13566272556E+04  0.30455678214E+03  0.13942831881E+04  0.10100000352E+00 0.  1.
       -3    1    3    3    0  502  0.10408292009E+03 -0.13566272556E+04 -0.69551773788E+03  0.15280758158E+04  0.10100000352E+00 0. -1.
</event>
<event>
 5   0  0.8357118E-07  0.2896065E+04  0.7818609E-02  0.8274049E-01
        1   -1    0    0  501    0  0.00000000000E+00  0.00000000000E+00  0.15014266607E+04  0.15014266607E+04  0.50400001928E-02 0. -1.
       -1   -1    0    0    0  501  0.00000000000E+00  0.00000000000E+00 -0.13965367750E+04  0.13965367750E+04  0.50400001928E-02 0.  1.
    10030    2    1    2    0    0  0.00000000000E+00  0.00000000000E+00  0.10488988567E+03  0.28979634357E+04  0.28960646033E+04 0.  0.
        1    1    3    3  502    0 -0.11699194966E+04 -0.22426209621E+03 -0.77137635079E+03  0.14191640465E+04  0.50400001928E-02 0.  1.
       -1    1    3    3    0  502  0.11699194966E+04  0.22426209621E+03  0.87626623646E+03  0.14787993892E+04  0.50400001928E-02 0. -1.
</event>
<event>
 5   0  0.8357118E-07  0.2907278E+04  0.7818609E-02  0.8270715E-01
        1   -1    0    0  501    0  0.00000000000E+00  0.00000000000E+00  0.22392178792E+04  0.22392178792E+04  0.50400001928E-02 0.  1.
       -1   -1    0    0    0  501  0.00000000000E+00  0.00000000000E+00 -0.94366293441E+03  0.94366293442E+03  0.50400001928E-02 0. -1.
    10030    2    1    2    0    0  0.00000000000E+00  0.00000000000E+00  0.12955549448E+04  0.31828808136E+04  0.29072783937E+04 0.  0.
        1    1    3    3  502    0 -0.11473869604E+04 -0.48035441196E+03 -0.17574723179E+03  0.12562341691E+04  0.50400001928E-02 0. -1.
       -1    1    3    3    0  502  0.11473869604E+04  0.48035441196E+03  0.14713021765E+04  0.19266466445E+04  0.50400001928E-02 0.  1.
</event>
<event>
 5   0  0.8947674E-07  0.2902557E+04  0.7818609E-02  0.8272117E-01
        1   -1    0    0  501    0  0.00000000000E+00  0.00000000000E+00  0.29783090275E+04  0.29783090275E+04  0.50400001928E-02 0. -1.
       -1   -1    0    0    0  501  0.00000000000E+00  0.00000000000E+00 -0.70718300716E+03  0.70718300718E+03  0.50400001928E-02 0.  1.
    10030    2    1    2    0    0  0.00000000000E+00  0.00000000000E+00  0.22711260204E+04  0.36854920347E+04  0.29025571721E+04 0.  0.
        3    1    3    3  502    0  0.75341305047E+03  0.62271005446E+03  0.24976868676E+04  0.26821332434E+04  0.10100000352E+00 0. -1.
       -3    1    3    3    0  502 -0.75341305047E+03 -0.62271005446E+03 -0.22656084718E+03  0.10033587914E+04  0.10100000352E+00 0.  1.
</event>
<event>
 5   0  0.2325590E-06  0.2904667E+04  0.7818609E-02  0.8271490E-01
       -2   -1    0    0    0  501  0.00000000000E+00  0.00000000000E+00  0.11135387257E+04  0.11135387257E+04  0.25500000920E-02 0.  1.
        2   -1    0    0  501    0  0.00000000000E+00  0.00000000000E+00 -0.18942070606E+04  0.18942070606E+04  0.25500000920E-02 0. -1.
    10030    2    1    2    0    0  0.00000000000E+00  0.00000000000E+00 -0.78066833485E+03  0.30077457863E+04  0.29046672212E+04 0.  0.
        5    1    3    3  502    0 -0.18885946727E+03 -0.13434729808E+04 -0.92705555028E+03  0.16431803406E+04  0.46999998093E+01 0.  1.
       -5    1    3    3    0  502  0.18885946727E+03  0.13434729808E+04  0.14638721543E+03  0.13645654456E+04  0.46999998093E+01 0. -1.
</event>
<event>
 5   0  0.2304435E-06  0.2898650E+04  0.7818609E-02  0.8273279E-01
        2   -1    0    0  501    0  0.00000000000E+00  0.00000000000E+00  0.16717679785E+04  0.16717679785E+04  0.25500000920E-02 0. -1.
       -2   -1    0    0    0  501  0.00000000000E+00  0.00000000000E+00 -0.12564798983E+04  0.12564798983E+04  0.25500000920E-02 0.  1.
    10030    2    1    2    0    0  0.00000000000E+00  0.00000000000E+00  0.41528808013E+03  0.29282478768E+04  0.28986499338E+04 0.  0.
        1    1    3    3  502    0  0.14488215847E+04 -0.28646508519E+02  0.18212240507E+03  0.14605044256E+04  0.50400001928E-02 0.  1.
       -1    1    3    3    0  502 -0.14488215847E+04  0.28646508519E+02  0.23316567506E+03  0.14677434513E+04  0.50400001928E-02 0. -1.
</event>
<event>
 5   0  0.8263673E-07  0.2881480E+04  0.7818609E-02  0.8278409E-01
        1   -1    0    0  501    0  0.00000000000E+00  0.00000000000E+00  0.20644144561E+04  0.20644144561E+04  0.50400001928E-02 0.  1.
       -1   -1    0    0    0  501  0.00000000000E+00  0.00000000000E+00 -0.10054822360E+04  0.10054822360E+04  0.50400001928E-02 0. -1.
    10030    2    1    2    0    0  0.00000000000E+00  0.00000000000E+00  0.10589322201E+04  0.30698966921E+04  0.28814802191E+04 0.  0.
        5    1    3    3  502    0 -0.51474572901E+02  0.98815375501E+03 -0.58620121500E+03  0.11501093121E+04  0.46999998093E+01 0. -1.
       -5    1    3    3    0  502  0.51474572901E+02 -0.98815375501E+03  0.16451334351E+04  0.19197873800E+04  0.46999998093E+01 0.  1.
</event>
<event>
 5   0  0.8263673E-07  0.2900992E+04  0.7818609E-02  0.8272582E-01
       -1   -1    0    0    0  501  0.00000000000E+00  0.00000000000E+00  0.14994434548E+04  0.14994434548E+04  0.50400001928E-02 0. -1.
        1   -1    0    0  501    0  0.00000000000E+00  0.00000000000E+00 -0.14031464588E+04  0.14031464588E+04  0.50400001928E-02 0.  1.
    10030    2    1    2    0    0  0.00000000000E+00  0.00000000000E+00  0.96296995962E+02  0.29025899136E+04  0.29009920881E+04 0.  0.
        5    1    3    3  502    0 -0.13019418596E+04 -0.63514733960E+03 -0.25729391230E+02  0.14488439668E+04  0.46999998093E+01 0. -1.
       -5    1    3    3    0  502  0.13019418596E+04  0.63514733960E+03  0.12202638719E+03  0.14537459468E+04  0.46999998093E+01 0.  1.
</event>
<event>
 5   0  0.2304435E-06  0.2897186E+04  0.7818609E-02  0.8273715E-01
       -2   -1    0    0    0  501  0.00000000000E+00  0.00000000000E+00  0.10070348060E+04  0.10070348060E+04  0.25500000920E-02 0. -1.
        2   -1    0    0  501    0  0.00000000000E+00  0.00000000000E+00 -0.20837626113E+04  0.20837626113E+04  0.25500000920E-02 0.  1.
    10030    2    1    2    0    0  0.00000000000E+00  0.00000000000E+00 -0.10767278052E+04  0.30907974173E+04  0.28971858602E+04 0.  0.
        1    1    3    3  502    0  0.34734900159E+03 -0.34466330014E+03 -0.19929225407E+04  0.20521170465E+04  0.50400001928E-02 0.  1.
       -1    1    3    3    0  502 -0.34734900159E+03  0.34466330014E+03  0.91619473547E+03  0.10386803708E+04  0.50400001928E-02 0. -1.
</event>
<event>
 5   0  0.8947674E-07  0.2873977E+04  0.7818609E-02  0.8280663E-01
       -1   -1    0    0    0  501  0.00000000000E+00  0.00000000000E+00  0.96603740411E+03  0.96603740413E+03  0.50400001928E-02 0.  1.
        1   -1    0    0  501    0  0.00000000000E+00  0.00000000000E+00 -0.21375314824E+04  0.21375314824E+04  0.50400001928E-02 0. -1.
    10030    2    1    2    0    0  0.00000000000E+00  0.00000000000E+00 -0.11714940783E+04  0.31035688865E+04  0.28739765931E+04 0.  0.
        3    1    3    3  502    0 -0.26019783446E+03  0.12124948994E+04 -0.13697540710E+04  0.18477210339E+04  0.10100000352E+00 0. -1.
       -3    1    3    3    0  502  0.26019783446E+03 -0.12124948994E+04  0.19825999268E+03  0.12558478526E+04  0.10100000352E+00 0.  1.
</event>
<event>
 5   0  0.8483636E-07  0.2906987E+04  0.7818609E-02  0.8270802E-01
       -1   -1    0    0    0  501  0.00000000000E+00  0.00000000000E+00  0.16284094065E+04  0.16284094065E+04  0.50400001928E-02 0. -1.
        1   -1    0    0  501    0  0.00000000000E+00  0.00000000000E+00 -0.12973661557E+04  0.12973661557E+04  0.50400001928E-02 0.  1.
    10030    2    1    2    0    0  0.00000000000E+00  0.00000000000E+00  0.33104325074E+03  0.29257755622E+04  0.29069869292E+04 0.  0.
        2    1    3    3  502    0 -0.39993286294E+02  0.27665909194E+03  0.16011008131E+04  0.16253195162E+04  0.25500000920E-02 0. -1.
       -2    1    3    3    0  502  0.39993286294E+02 -0.27665909194E+03 -0.12700575623E+04  0.13004560460E+04  0.25500000920E-02 0.  1.
</event>
<event>
 5   0  0.8355946E-07  0.2768842E+04  0.7818609E-02  0.8313008E-01
        1   -1    0    0  501    0  0.00000000000E+00  0.00000000000E+00  0.25650969238E+04  0.25650969238E+04  0.50400001928E-02 0. -1.
       -1   -1    0    0    0  501  0.00000000000E+00  0.00000000000E+00 -0.74719240843E+03  0.74719240844E+03  0.50400001928E-02 0.  1.
    10030    2    1    2    0    0  0.00000000000E+00  0.00000000000E+00  0.18179045154E+04  0.33122893323E+04  0.27688415978E+04 0.  0.
        4    1    3    3  502    0  0.11972164736E+04  0.34072905090E+03  0.16338537381E+04  0.20539968892E+04  0.12699999809E+01 0. -1.
       -4    1    3    3    0  502 -0.11972164736E+04 -0.34072905090E+03  0.18405077735E+03  0.12582924431E+04  0.12699999809E+01 0.  1.
</event>
<event>
 5   0  0.8355946E-07  0.2888102E+04  0.7818609E-02  0.8276426E-01
        1   -1    0    0  501    0  0.00000000000E+00  0.00000000000E+00  0.17708309261E+04  0.17708309261E+04  0.50400001928E-02 0.  1.
       -1   -1    0    0    0  501  0.00000000000E+00  0.00000000000E+00 -0.11775732757E+04  0.11775732757E+04  0.50400001928E-02 0. -1.
    10030    2    1    2    0    0  0.00000000000E+00  0.00000000000E+00  0.59325765040E+03  0.29484042018E+04  0.28881019195E+04 0.  0.
        4    1    3    3  502    0  0.12588855659E+04  0.36160188453E+03 -0.32412367691E+03  0.13492985444E+04  0.12699999809E+01 0. -1.
       -4    1    3    3    0  502 -0.12588855659E+04 -0.36160188453E+03  0.91738132732E+03  0.15991056574E+04  0.12699999809E+01 0.  1.
</event>
<event>
 5   0  0.8357118E-07  0.2940081E+04  0.7818609E-02  0.8261051E-01
       -1   -1    0    0    0  501  0.00000000000E+00  0.00000000000E+00  0.19855174323E+04  0.19855174323E+04  0.50400001928E-02 0.  1.
        1   -1    0    0  501    0  0.00000000000E+00  0.00000000000E+00 -0.10883912286E+04  0.10883912286E+04  0.50400001928E-02 0. -1.
    10030    2    1    2    0    0  0.00000000000E+00  0.00000000000E+00  0.89712620379E+03  0.30739086609E+04  0.29400814666E+04 0.  0.
        1    1    3    3  502    0  0.87382666862E+03 -0.11455557360E+04  0.14347815883E+03  0.14479146982E+04  0.50400001928E-02 0. -1.
       -1    1    3    3    0  502 -0.87382666862E+03  0.11455557360E+04  0.75364804496E+03  0.16259939627E+04  0.50400001928E-02 0.  1.
</event>
<event>
 5   0  0.8947674E-07  0.2910328E+04  0.7818609E-02  0.8269811E-01
        1   -1    0    0  501    0  0.00000000000E+00  0.00000000000E+00  0.16683435097E+04  0.16683435097E+04  0.50400001928E-02 0. -1.
       -1   -1    0    0    0  501  0.00000000000E+00  0.00000000000E+00 -0.12692241028E+04  0.12692241028E+04  0.50400001928E-02 0.  1.
    10030    2    1    2    0    0  0.00000000000E+00  0.00000000000E+00  0.39911940688E+03  0.29375676125E+04  0.29103276753E+04 0.  0.
        3    1    3    3  502    0  0.27020085299E+03 -0.84029703178E+03  0.13672777770E+04  0.16274385187E+04  0.10100000352E+00 0. -1.
       -3    1    3    3    0  502 -0.27020085299E+03  0.84029703178E+03 -0.96815837013E+03  0.13101290938E+04  0.10100000352E+00 0.  1.
</event>
<event>
 5   0  0.8355946E-07  0.2878833E+04  0.7818609E-02  0.8279203E-01
        1   -1    0    0  501    0  0.00000000000E+00  0.00000000000E+00  0.18549972954E+04  0.18549972954E+04  0.50400001928E-02 0.  1.
       -1   -1    0    0    0  501  0.00000000000E+00  0.00000000000E+00 -0.11169398156E+04  0.11169398156E+04  0.50400001928E-02 0. -1.
    10030    2    1    2    0    0  0.00000000000E+00  0.00000000000E+00  0.73805747980E+03  0.29719371111E+04  0.28788333312E+04 0.  0.
        4    1    3    3  502    0 -0.35987121792E+03 -0.12282872823E+04  0.10489031735E+04  0.16548100863E+04  0.12699999809E+01 0.  1.
       -4    1    3    3    0  502  0.35987121792E+03  0.12282872823E+04 -0.31084569369E+03  0.13171270248E+04  0.12699999809E+01 0. -1.
</event>
<event>
 5   0  0.2325590E-06  0.2838374E+04  0.7818609E-02  0.8291453E-01
        2   -1    0    0  501    0  0.00000000000E+00  0.00000000000E+00  0.19855651657E+04  0.19855651657E+04  0.25500000920E-02 0. -1.
       -2   -1    0    0    0  501  0.00000000000E+00  0.00000000000E+00 -0.10143667875E+04  0.10143667875E+04  0.25500000920E-02 0.  1.
    10030    2    1    2    0    0  0.00000000000E+00  0.00000000000E+00  0.97119837821E+03  0.29999319532E+04  0.28383737305E+04 0.  0.
        5    1    3    3  502    0 -0.63438560723E+03 -0.14653238051E+03  0.18183875883E+04  0.19314430741E+04  0.46999998093E+01 0. -1.
       -5    1    3    3    0  502  0.63438560723E+03  0.14653238051E+03 -0.84718921005E+03  0.10684888791E+04  0.46999998093E+01 0.  1.
</event>
<event>
 5   0  0.8483636E-07  0.2904167E+04  0.7818609E-02  0.8271639E-01
       -1   -1    0    0    0  501  0.00000000000E+00  0.00000000000E+00  0.18528869508E+04  0.18528869508E+04  0.50400001928E-02 0. -1.
        1   -1    0    0  501    0  0.00000000000E+00  0.00000000000E+00 -0.11379791821E+04  0.11379791821E+04  0.50400001928E-02 0.  1.
    10030    2    1    2    0    0  0.00000000000E+00  0.00000000000E+00  0.71490776877E+03  0.29908661329E+04  0.29041671968E+04 0.  0.
        2    1    3    3  502    0 -0.77569738806E+03 -0.12275233831E+04  0.35213412574E+03  0.14941614827E+04  0.25500000920E-02 0.  1.
       -2    1    3    3    0  502  0.77569738806E+03  0.12275233831E+04  0.36277364303E+03  0.14967046502E+04  0.25500000920E-02 0. -1.
</event>
<event>
 5   0  0.8947674E-07  0.2886204E+04  0.7818609E-02  0.8276994E-01
       -1   -1    0    0    0  501  0.00000000000E+00  0.00000000000E+00  0.18453244045E+04  0.18453244045E+04  0.50400001928E-02 0. -1.
        1   -1    0    0  501    0  0.00000000000E+00  0.00000000000E+00 -0.11285514226E+04  0.11285514226E+04  0.50400001928E-02 0.  1.
    10030    2    1    2    0    0  0.00000000000E+00  0.00000000000E+00  0.71677298193E+03  0.29738758271E+04  0.28862040689E+04 0.  0.
        3    1    3    3  502    0  0.11094887524E+04 -0.34788084853E+03 -0.52230312895E+03  0.12746713087E+04  0.10100000352E+00 0.  1.
       -3    1    3    3    0  502 -0.11094887524E+04  0.34788084853E+03  0.12390761109E+04  0.16992045184E+04  0.10100000352E+00 0. -1.
</event>
<event>
 5   0  0.8483636E-07  0.2897288E+04  0.7818609E-02  0.8273685E-01
        1   -1    0    0  501    0  0.00000000000E+00  0.00000000000E+00  0.83308242000E+03  0.83308242002E+03  0.50400001928E-02 0. -1.
       -1   -1    0    0    0  501  0.00000000000E+00  0.00000000000E+00 -0.25190417039E+04  0.25190417039E+04  0.50400001928E-02 0.  1.
    10030    2    1    2    0    0  0.00000000000E+00  0.00000000000E+00 -0.16859592838E+04  0.33521241239E+04  0.28972879448E+04 0.  0.
        2    1    3    3  502    0  0.11785056767E+04  0.83332834816E+03 -0.70006673783E+03  0.16041836563E+04  0.25500000920E-02 0. -1.
       -2    1    3    3    0  502 -0.11785056767E+04 -0.83332834816E+03 -0.98589254602E+03  0.17479404675E+04  0.25500000920E-02 0.  1.
</event>
<event>
 5   0  0.2304435E-06  0.2900691E+04  0.7818609E-02  0.8272672E-01
        2   -1    0    0  501    0  0.00000000000E+00  0.00000000000E+00  0.26557363247E+04  0.26557363247E+04  0.25500000920E-02 0.  1.
       -2   -1    0    0    0  501  0.00000000000E+00  0.00000000000E+00 -0.79205997118E+03  0.79205997118E+03  0.25500000920E-02 0. -1.
    10030    2    1    2    0    0  0.00000000000E+00  0.00000000000E+00  0.18636763535E+04  0.34477962959E+04  0.29006912533E+04 0.  0.
        1    1    3    3  502    0  0.50374671203E+03  0.23861155368E+03 -0.65966228031E+03  0.86362639348E+03  0.50400001928E-02 0. -1.
       -1    1    3    3    0  502 -0.50374671203E+03 -0.23861155368E+03  0.25233386338E+04  0.25841699024E+04  0.50400001928E-02 0.  1.
</event>
<event>
 5   0  0.8357118E-07  0.2909448E+04  0.7818609E-02  0.8270072E-01
       -1   -1    0    0    0  501  0.00000000000E+00  0.00000000000E+00  0.10777056703E+04  0.10777056703E+04  0.50400001928E-02 0. -1.
        1   -1    0    0  501    0  0.00000000000E+00  0.00000000000E+00 -0.19636359699E+04  0.19636359699E+04  0.50400001928E-02 0.  1.
    10030    2    1    2    0    0  0.00000000000E+00  0.00000000000E+00 -0.88593029952E+03  0.30413416402E+04  0.29094477959E+04 0.  0.
        1    1    3    3  502    0 -0.87207961969E+03  0.99477045726E+03  0.18955241396E+03  0.13364210577E+04  0.50400001928E-02 0. -1.
       -1    1    3    3    0  502  0.87207961969E+03 -0.99477045726E+03 -0.10754827135E+04  0.17049205825E+04  0.50400001928E-02 0.  1.
</event>
<event>
 5   0  0.2425845E-06  0.2903171E+04  0.7818609E-02  0.8271935E-01
       -2   -1    0    0    0  501  0.00000000000E+00  0.00000000000E+00  0.21345227201E+04  0.21345227201E+04  0.25500000920E-02 0.  1.
        2   -1    0    0  501    0  0.00000000000E+00  0.00000000000E+00 -0.98715268951E+03  0.98715268952E+03  0.25500000920E-02 0. -1.
    10030    2    1    2    0    0  0.00000000000E+00  0.00000000000E+00  0.11473700306E+04  0.31216754096E+04  0.29031705730E+04 0.  0.
        2    1    3    3  502    0  0.10900751106E+04 -0.35386109503E+03  0.15315869724E+04  0.19129140272E+04  0.25500000920E-02 0.  1.
       -2    1    3    3    0  502 -0.10900751106E+04  0.35386109503E+03 -0.38421694179E+03  0.12087613825E+04  0.25500000920E-02 0. -1.
</event>
<event>
 5   0  0.7621125E-07  0.2891858E+04  0.7818609E-02  0.8275304E-01
        3   -1    0    0  501    0  0.00000000000E+00  0.00000000000E+00  0.15174759569E+04  0.15174759603E+04  0.10100000352E+00 0.  1.
       -3   -1    0    0    0  501  0.00000000000E+00  0.00000000000E+00 -0.13777557931E+04  0.13777557968E+04  0.10100000352E+00 0. -1.
    10030    2    1    2    0    0  0.00000000000E+00  0.00000000000E+00  0.13972016387E+03  0.28952317571E+04  0.28918584341E+04 0.  0.
        1    1    3    3  502    0  0.12457715386E+04  0.58951364900E+03 -0.36795797043E+03  0.14264873420E+04  0.50400001928E-02 0. -1.
       -1    1    3    3    0  502 -0.12457715386E+04 -0.58951364900E+03  0.50767813430E+03  0.14687444151E+04  0.50400001928E-02 0.  1.
</event>
<event>
 5   0  0.8357118E-07  0.2907011E+04  0.7818609E-02  0.8270795E-01
        1   -1    0    0  501    0  0.00000000000E+00  0.00000000000E+00  0.11809546665E+04  0.11809546665E+04  0.50400001928E-02 0.  1.
       -1   -1    0    0    0  501  0.00000000000E+00  0.00000000000E+00 -0.17889579205E+04  0.17889579205E+04  0.50400001928E-02 0. -1.
    10030    2    1    2    0    0  0.00000000000E+00  0.00000000000E+00 -0.60800325404E+03  0.29699125870E+04  0.29070109765E+04 0.  0.
        1    1    3    3  502    0 -0.10419862588E+04  0.27935490473E+03  0.69119308639E+03  0.12812191105E+04  0.50400001928E-02 0.  1.
       -1    1    3    3    0  502  0.10419862588E+04 -0.27935490473E+03 -0.12991963404E+04  0.16886934765E+04  0.50400001928E-02 0. -1.
</event>
<event>
 5   0  0.8947674E-07  0.2922693E+04  0.7818609E-02  0.8266158E-01
        1   -1    0    0  501    0  0.00000000000E+00  0.00000000000E+00  0.18352403582E+04  0.18352403582E+04  0.50400001928E-02 0.  1.
       -1   -1    0    0    0  501  0.00000000000E+00  0.00000000000E+00 -0.11636258076E+04  0.11636258076E+04  0.50400001928E-02 0. -1.
    10030    2    1    2    0    0  0.00000000000E+00  0.00000000000E+00  0.67161455061E+03  0.29988661657E+04  0.29226926242E+04 0.  0.
        3    1    3    3  502    0 -0.10740329585E+04  0.82912401807E+03 -0.22105242266E+03  0.13747209233E+04  0.10100000352E+00 0. -1.
       -3    1    3    3    0  502  0.10740329585E+04 -0.82912401807E+03  0.89266697327E+03  0.16241452424E+04  0.10100000352E+00 0.  1.
</event>
<event>
 5   0  0.2325590E-06  0.2894699E+04  0.7818609E-02  0.8274456E-01
       -2   -1    0    0    0  501  0.00000000000E+00  0.00000000000E+00  0.14028511498E+04  0.14028511498E+04  0.25500000920E-02 0.  1.
        2   -1    0    0  501    0  0.00000000000E+00  0.00000000000E+00 -0.14932597536E+04  0.14932597536E+04  0.25500000920E-02 0. -1.
    10030    2    1    2    0    0  0.00000000000E+00  0.00000000000E+00 -0.90408603809E+02  0.28961109034E+04  0.28946994057E+04 0.  0.
        5    1    3    3  502    0  0.15735783352E+03  0.29688712619E+03  0.13632803067E+04  0.14040864425E+04  0.46999998093E+01 0.  1.
       -5    1    3    3    0  502 -0.15735783352E+03 -0.29688712619E+03 -0.14536889105E+04  0.14920244609E+04  0.46999998093E+01 0. -1.
</event>
<event>
 5   0  0.2360103E-06  0.2911546E+04  0.7818609E-02  0.8269450E-01
       -2   -1    0    0    0  501  0.00000000000E+00  0.00000000000E+00  0.10569658079E+04  0.10569658079E+04  0.25500000920E-02 0.  1.
        2   -1    0    0  501    0  0.00000000000E+00  0.00000000000E+00 -0.20050554046E+04  0.20050554046E+04  0.25500000920E-02 0. -1.
    10030    2    1    2    0    0  0.00000000000E+00  0.00000000000E+00 -0.94808959676E+03  0.30620212125E+04  0.29115459850E+04 0.  0.
        4    1    3    3  502    0 -0.18283336580E+03  0.78849864956E+03 -0.17465869324E+04  0.19250261519E+04  0.12699999809E+01 0. -1.
       -4    1    3    3    0  502  0.18283336580E+03 -0.78849864956E+03  0.79849733566E+03  0.11369950607E+04  0.12699999809E+01 0.  1.
</event>
<event>
 5   0  0.8357118E-07  0.2891370E+04  0.7818609E-02  0.8275450E-01
        1   -1    0    0  501    0  0.00000000000E+00  0.00000000000E+00  0.18404279647E+04  0.18404279647E+04  0.50400001928E-02 0.  1.
       -1   -1    0    0    0  501  0.00000000000E+00  0.00000000000E+00 -0.11356080748E+04  0.11356080749E+04  0.50400001928E-02 0. -1.
    10030    2    1    2    0    0  0.00000000000E+00  0.00000000000E+00  0.70481988987E+03  0.29760360396E+04  0.28913698192E+04 0.  0.
        1    1    3    3  502    0 -0.52203005859E+03 -0.53523615729E+03  0.16259828237E+04  0.17896405419E+04  0.50400001928E-02 0.  1.
       -1    1    3    3    0  502  0.52203005859E+03  0.53523615729E+03 -0.92116293386E+03  0.11863954977E+04  0.50400001928E-02 0. -1.
</event>
<event>
 5   0  0.8263673E-07  0.2900546E+04  0.7818609E-02  0.8272715E-01
       -1   -1    0    0    0  501  0.00000000000E+00  0.00000000000E+00  0.13925266412E+04  0.13925266412E+04  0.50400001928E-02 0. -1.
        1   -1    0    0  501    0  0.00000000000E+00  0.00000000000E+00 -0.15104144567E+04  0.15104144567E+04  0.50400001928E-02 0.  1.
    10030    2    1    2    0    0  0.00000000000E+00  0.00000000000E+00 -0.11788781552E+03  0.29029410979E+04  0.29005464107E+04 0.  0.
        5    1    3    3  502    0  0.51603663798E+03  0.13260457301E+04 -0.33949513885E+03  0.14628636743E+04  0.46999998093E+01 0. -1.
       -5    1    3    3    0  502 -0.51603663798E+03 -0.13260457301E+04  0.22160732333E+03  0.14400774236E+04  0.46999998093E+01 0.  1.
</event>
<event>
 5   0  0.2378690E-06  0.2899354E+04  0.7818609E-02  0.8273070E-01
        2   -1    0    0  501    0  0.00000000000E+00  0.00000000000E+00  0.11674441146E+04  0.11674441146E+04  0.25500000920E-02 0. -1.
       -2   -1    0    0    0  501  0.00000000000E+00  0.00000000000E+00 -0.18001399283E+04  0.18001399283E+04  0.25500000920E-02 0.  1.
    10030    2    1    2    0    0  0.00000000000E+00  0.00000000000E+00 -0.63269581366E+03  0.29675840429E+04  0.28993535589E+04 0.  0.
        3    1    3    3  502    0  0.23679927413E+02  0.63501964502E+03  0.10172932292E+04  0.11994566323E+04  0.10100000352E+00 0. -1.
       -3    1    3    3    0  502 -0.23679927413E+02 -0.63501964502E+03 -0.16499890428E+04  0.17681274106E+04  0.10100000352E+00 0.  1.
</event>
<event>
 5   0  0.8355946E-07  0.2902545E+04  0.7818609E-02  0.8272121E-01
        1   -1    0    0  501    0  0.00000000000E+00  0.00000000000E+00  0.75054458666E+03  0.75054458668E+03  0.50400001928E-02 0.  1.
       -1   -1    0    0    0  501  0.00000000000E+00  0.00000000000E+00 -0.28062173783E+04  0.28062173783E+04  0.50400001928E-02 0. -1.
    10030    2    1    2    0    0  0.00000000000E+00  0.00000000000E+00 -0.20556727916E+04  0.35567619649E+04  0.29025445818E+04 0.  0.
        4    1    3    3  502    0  0.35190301876E+03 -0.14069752033E+04 -0.96328832033E+03  0.17410746562E+04  0.12699999809E+01 0.  1.
       -4    1    3    3    0  502 -0.35190301876E+03  0.14069752033E+04 -0.10923844713E+04  0.18156873088E+04  0.12699999809E+01 0. -1.
</event>
<event>
 5   0  0.2378690E-06  0.2896303E+04  0.7818609E-02  0.8273978E-01
        2   -1    0    0  501    0  0.00000000000E+00  0.00000000000E+00  0.19226238563E+04  0.19226238563E+04  0.25500000920E-02 0.  1.
       -2   -1    0    0    0  501  0.00000000000E+00  0.00000000000E+00 -0.10907715710E+04  0.10907715710E+04  0.25500000920E-02 0. -1.
    10030    2    1    2    0    0  0.00000000000E+00  0.00000000000E+00  0.83185228528E+03  0.30133954273E+04  0.28963034677E+04 0.  0.
        3    1    3    3  502    0 -0.93920355285E+03  0.10078515207E+04 -0.48523829175E+02  0.13784856088E+04  0.10100000352E+00 0. -1.
       -3    1    3    3    0  502  0.93920355285E+03 -0.10078515207E+04  0.88037611446E+03  0.16349098185E+04  0.10100000352E+00 0.  1.
</event>
<event>
 5   0  0.7621125E-07  0.2908424E+04  0.7818609E-02  0.8270375E-01
       -3   -1    0    0    0  501  0.00000000000E+00  0.00000000000E+00  0.13645840945E+04  0.13645840983E+04  0.10100000352E+00 0. -1.
        3   -1    0    0  501    0  0.00000000000E+00  0.00000000000E+00 -0.15497271388E+04  0.15497271421E+04  0.10100000352E+00 0.  1.
    10030    2    1    2    0    0  0.00000000000E+00  0.00000000000E+00 -0.18514304425E+03  0.29143112404E+04  0.29084243258E+04 0.  0.
        4    1    3    3  502    0  0.40193467481E+03 -0.91944297510E+03 -0.11472248618E+04  0.15241566073E+04  0.12699999809E+01 0.  1.
       -4    1    3    3    0  502 -0.40193467481E+03  0.91944297510E+03  0.96208181752E+03  0.13901546330E+04  0.12699999809E+01 0. -1.
</event>
<event>
 5   0  0.8483636E-07  0.2901312E+04  0.7818609E-02  0.8272487E-01
       -1   -1    0    0    0  501  0.00000000000E+00  0.00000000000E+00  0.13214983084E+04  0.13214983084E+04  0.50400001928E-02 0. -1.
        1   -1    0    0  501    0  0.00000000000E+00  0.00000000000E+00 -0.15924366299E+04  0.15924366299E+04  0.50400001928E-02 0.  1.
    10030    2    1    2    0    0  0.00000000000E+00  0.00000000000E+00 -0.27093832148E+03  0.29139349382E+04  0.29013116431E+04 0.  0.
        2    1    3    3  502    0 -0.55792497593E+03 -0.83682712823E+03 -0.11854085679E+04  0.15545910697E+04  0.25500000920E-02 0.  1.
       -2    1    3    3    0  502  0.55792497593E+03  0.83682712823E+03  0.91447024640E+03  0.13593438685E+04  0.25500000920E-02 0. -1.
</event>
<event>
 5   0  0.2325590E-06  0.2815359E+04  0.7818609E-02  0.8298516E-01
        2   -1    0    0  501    0  0.00000000000E+00  0.00000000000E+00  0.14014752037E+04  0.14014752037E+04  0.25500000920E-02 0. -1.
       -2   -1    0    0    0  501  0.00000000000E+00  0.00000000000E+00 -0.14139108468E+04  0.14139108468E+04  0.25500000920E-02 0.  1.
    10030    2    1    2    0    0  0.00000000000E+00  0.00000000000E+00 -0.12435643091E+02  0.28153860504E+04  0.28153585860E+04 0.  0.
        5    1    3    3  502    0  0.88871395651E+03 -0.97184820371E+03 -0.50345247253E+03  0.14098893253E+04  0.46999998093E+01 0.  1.
       -5    1    3    3    0  502 -0.88871395651E+03  0.97184820371E+03  0.49101682944E+03  0.14054967251E+04  0.46999998093E+01 0. -1.
</event>
<event>
 5   0  0.8357118E-07  0.2903716E+04  0.7818609E-02  0.8271773E-01
       -1   -1    0    0    0  501  0.00000000000E+00  0.00000000000E+00  0.27604678099E+04  0.27604678099E+04  0.50400001928E-02 0.  1.
        1   -1    0    0  501    0  0.00000000000E+00  0.00000000000E+00 -0.76359946219E+03  0.76359946221E+03  0.50400001928E-02 0. -1.
    10030    2    1    2    0    0  0.00000000000E+00  0.00000000000E+00  0.19968683477E+04  0.35240672721E+04  0.29037160571E+04 0.  0.
        1    1    3    3  502    0  0.11786277226E+03  0.19876048829E+03 -0.74113827931E+03  0.77632680868E+03  0.50400001928E-02 0. -1.
       -1    1    3    3    0  502 -0.11786277226E+03 -0.19876048829E+03  0.27380066270E+04  0.27477404634E+04  0.50400001928E-02 0.  1.
</event>
<event>
 5   0  0.8357118E-07  0.2951665E+04  0.7818609E-02  0.8257670E-01
        1   -1    0    0  501    0  0.00000000000E+00  0.00000000000E+00  0.14257684235E+04  0.14257684235E+04  0.50400001928E-02 0.  1.
       -1   -1    0    0    0  501  0.00000000000E+00  0.00000000000E+00 -0.15276543656E+04  0.15276543656E+04  0.50400001928E-02 0. -1.
    10030    2    1    2    0    0  0.00000000000E+00  0.00000000000E+00 -0.10188594214E+03  0.29534227891E+04  0.29516648567E+04 0.  0.
        1    1    3    3  502    0  0.12470991210E+02 -0.35309261926E+03  0.13828275421E+04  0.14272497800E+04  0.50400001928E-02 0.  1.
       -1    1    3    3    0  502 -0.12470991210E+02  0.35309261926E+03 -0.14847134842E+04  0.15261730091E+04  0.50400001928E-02 0. -1.
</event>
<event>
 5   0  0.2325590E-06  0.2922415E+04  0.7818609E-02  0.8266239E-01
       -2   -1    0    0    0  501  0.00000000000E+00  0.00000000000E+00  0.95914761629E+03  0.95914761629E+03  0.25500000920E-02 0.  1.
        2   -1    0    0  501    0  0.00000000000E+00  0.00000000000E+00 -0.22260676383E+04  0.22260676383E+04  0.25500000920E-02 0. -1.
    10030    2    1    2    0    0  0.00000000000E+00  0.00000000000E+00 -0.12669200220E+04  0.31852152546E+04  0.29224150759E+04 0.  0.
        5    1    3    3  502    0  0.14453778704E+03 -0.97771111534E+03  0.53956294767E+03  0.11260375045E+04  0.46999998093E+01 0.  1.
       -5    1    3    3    0  502 -0.14453778704E+03  0.97771111534E+03 -0.18064829697E+04  0.20591777502E+04  0.46999998093E+01 0. -1.
</event>
<event>
 5   0  0.8355946E-07  0.2881335E+04  0.7818609E-02  0.8278453E-01
       -1   -1    0    0    0  501  0.00000000000E+00  0.00000000000E+00  0.89690981741E+03  0.89690981743E+03  0.50400001928E-02 0. -1.
        1   -1    0    0  501    0  0.00000000000E+00  0.00000000000E+00 -0.23140821961E+04  0.23140821961E+04  0.50400001928E-02 0.  1.
    10030    2    1    2    0    0  0.00000000000E+00  0.00000000000E+00 -0.14171723787E+04  0.32109920136E+04  0.28813351350E+04 0.  0.
        4    1    3    3  502    0 -0.42221037852E+03  0.39548273120E+03  0.76178345947E+03  0.95654787984E+03  0.12699999809E+01 0. -1.
       -4    1    3    3    0  502  0.42221037852E+03 -0.39548273120E+03 -0.21789558382E+04  0.22544441337E+04  0.12699999809E+01 0.  1.
</event>
<event>
 5   0  0.8357118E-07  0.2883132E+04  0.7818609E-02  0.8277914E-01
        1   -1    0    0  501    0  0.00000000000E+00  0.00000000000E+00  0.14358867729E+04  0.14358867729E+04  0.50400001928E-02 0.  1.
       -1   -1    0    0    0  501  0.00000000000E+00  0.00000000000E+00 -0.14472672789E+04  0.14472672789E+04  0.50400001928E-02 0. -1.
    10030    2    1    2    0    0  0.00000000000E+00  0.00000000000E+00 -0.11380506025E+02  0.28831540519E+04  0.28831315910E+04 0.  0.
        1    1    3    3  502    0  0.50170963277E+03  0.13150633280E+04 -0.31715348006E+03  0.14428064466E+04  0.50400001928E-02 0. -1.
       -1    1    3    3    0  502 -0.50170963277E+03 -0.13150633280E+04  0.30577297403E+03  0.14403476053E+04  0.50400001928E-02 0.  1.
</event>
<event>
 5   0  0.2325590E-06  0.2898204E+04  0.7818609E-02  0.8273412E-01
        2   -1    0    0  501    0  0.00000000000E+00  0.00000000000E+00  0.25483890006E+04  0.25483890006E+04  0.25500000920E-02 0. -1.
       -2   -1    0    0    0  501  0.00000000000E+00  0.00000000000E+00 -0.82400969162E+03  0.82400969162E+03  0.25500000920E-02 0.  1.
    10030    2    1    2    0    0  0.00000000000E+00  0.00000000000E+00  0.17243793090E+04  0.33723986922E+04  0.28982044334E+04 0.  0.
        5    1    3    3  502    0 -0.10985295135E+04  0.90657159969E+03  0.55161957089E+03  0.15273982449E+04  0.46999998093E+01 0. -1.
       -5    1    3    3    0  502  0.10985295135E+04 -0.90657159969E+03  0.11727597381E+04  0.18450004473E+04  0.46999998093E+01 0.  1.
</event>
<event>
 5   0  0.8263673E-07  0.2901156E+04  0.7818609E-02  0.8272534E-01
       -1   -1    0    0    0  501  0.00000000000E+00  0.00000000000E+00  0.10621045854E+04  0.10621045854E+04  0.50400001928E-02 0. -1.
        1   -1    0    0  501    0  0.00000000000E+00  0.00000000000E+00 -0.19811385195E+04  0.19811385195E+04  0.50400001928E-02 0.  1.
    10030    2    1    2    0    0  0.00000000000E+00  0.00000000000E+00 -0.91903393412E+03  0.30432431050E+04  0.29011558427E+04 0.  0.
        5    1    3    3  502    0 -0.83876824594E+03 -0.79943645914E+03 -0.13749091778E+04  0.17980623348E+04  0.46999998093E+01 0.  1.
       -5    1    3    3    0  502  0.83876824594E+03  0.79943645914E+03  0.45587524369E+03  0.12451807702E+04  0.46999998093E+01 0. -1.
</event>
<event>
 5   0  0.2378690E-06  0.2870445E+04  0.7818609E-02  0.8281726E-01
        2   -1    0    0  501    0  0.00000000000E+00  0.00000000000E+00  0.16793883785E+04  0.16793883785E+04  0.25500000920E-02 0. -1.
       -2   -1    0    0    0  501  0.00000000000E+00  0.00000000000E+00 -0.12265556367E+04  0.12265556367E+04  0.25500000920E-02 0.  1.
    10030    2    1    2    0    0  0.00000000000E+00  0.00000000000E+00  0.45283274186E+03  0.29059440152E+04  0.28704447612E+04 0.  0.
        3    1    3    3  502    0 -0.27454536553E+03  0.84257346289E+03 -0.91650897397E+03  0.12748701533E+04  0.10100000352E+00 0.  1.
       -3    1    3    3    0  502  0.27454536553E+03 -0.84257346289E+03  0.13693417158E+04  0.16310738619E+04  0.10100000352E+00 0. -1.
</event>
<event>
 5   0  0.8483636E-07  0.2899876E+04  0.7818609E-02  0.8272915E-01
       -1   -1    0    0    0  501  0.00000000000E+00  0.00000000000E+00  0.97024428489E+03  0.97024428490E+03  0.50400001928E-02 0. -1.
        1   -1    0    0  501    0  0.00000000000E+00  0.00000000000E+00 -0.21667940138E+04  0.21667940138E+04  0.50400001928E-02 0.  1.
    10030    2    1    2    0    0  0.00000000000E+00  0.00000000000E+00 -0.11965497289E+04  0.31370382987E+04  0.28998755204E+04 0.  0.
        2    1    3    3  502    0  0.11196006158E+04 -0.69268312098E+03 -0.12554120439E+04  0.18191687236E+04  0.25500000920E-02 0.  1.
       -2    1    3    3    0  502 -0.11196006158E+04  0.69268312098E+03  0.58862315001E+02  0.13178695751E+04  0.25500000920E-02 0. -1.
</event>
<event>
 5   0  0.8355946E-07  0.2893255E+04  0.7818609E-02  0.8274887E-01
       -1   -1    0    0    0  501  0.00000000000E+00  0.00000000000E+00  0.70023257408E+03  0.70023257410E+03  0.50400001928E-02 0. -1.
        1   -1    0    0  501    0  0.00000000000E+00  0.00000000000E+00 -0.29886231362E+04  0.29886231362E+04  0.50400001928E-02 0.  1.
    10030    2    1    2    0    0  0.00000000000E+00  0.00000000000E+00 -0.22883905621E+04  0.36888557103E+04  0.28932551022E+04 0.  0.
        4    1    3    3  502    0 -0.13477965154E+04  0.21360554264E+02 -0.18136750412E+04  0.22597412436E+04  0.12699999809E+01 0. -1.
       -4    1    3    3    0  502  0.13477965154E+04 -0.21360554264E+02 -0.47471552089E+03  0.14291144667E+04  0.12699999809E+01 0.  1.
</event>
<event>
 5   0  0.8357118E-07  0.2885232E+04  0.7818609E-02  0.8277285E-01
       -1   -1    0    0    0  501  0.00000000000E+00  0.00000000000E+00  0.14130037390E+04  0.14130037390E+04  0.50400001928E-02 0.  1.
        1   -1    0    0  501    0  0.00000000000E+00  0.00000000000E+00 -0.14728486009E+04  0.14728486009E+04  0.50400001928E-02 0. -1.
    10030    2    1    2    0    0  0.00000000000E+00  0.00000000000E+00 -0.59844861879E+02  0.28858523399E+04  0.28852317620E+04 0.  0.
        1    1    3    3  502    0  0.76133286542E+03  0.64985578826E+03  0.10091466707E+04  0.14213786549E+04  0.50400001928E-02 0.  1.
       -1    1    3    3    0  502 -0.76133286542E+03 -0.64985578826E+03 -0.10689915326E+04  0.14644736851E+04  0.50400001928E-02 0. -1.
</event>
<event>
 5   0  0.8355946E-07  0.2862985E+04  0.7818609E-02  0.8283976E-01
       -1   -1    0    0    0  501  0.00000000000E+00  0.00000000000E+00  0.10200276078E+04  0.10200276078E+04  0.50400001928E-02 0.  1.
        1   -1    0    0  501    0  0.00000000000E+00  0.00000000000E+00 -0.20089371123E+04  0.20089371123E+04  0.50400001928E-02 0. -1.
    10030    2    1    2    0    0  0.00000000000E+00  0.00000000000E+00 -0.98890950451E+03  0.30289647202E+04  0.28629853768E+04 0.  0.
        4    1    3    3  502    0 -0.12430150038E+04 -0.10831546354E+03 -0.12368113453E+04  0.17568501519E+04  0.12699999809E+01 0. -1.
       -4    1    3    3    0  502  0.12430150038E+04  0.10831546354E+03  0.24790184082E+03  0.12721145683E+04  0.12699999809E+01 0.  1.
</event>
<event>
 5   0  0.2425845E-06  0.2904075E+04  0.7818609E-02  0.8271666E-01
       -2   -1    0    0    0  501  0.00000000000E+00  0.00000000000E+00  0.99871849509E+03  0.99871849509E+03  0.25500000920E-02 0.  1.
        2   -1    0    0  501    0  0.00000000000E+00  0.00000000000E+00 -0.21111176877E+04  0.21111176877E+04  0.25500000920E-02 0. -1.
    10030    2    1    2    0    0  0.00000000000E+00  0.00000000000E+00 -0.11123991926E+04  0.31098361828E+04  0.29040745720E+04 0.  0.
        2    1    3    3  502    0 -0.23193501797E+03 -0.78596599496E+03  0.72742897662E+03  0.10957596971E+04  0.25500000920E-02 0.  1.
       -2    1    3    3    0  502  0.23193501797E+03  0.78596599496E+03 -0.18398281692E+04  0.20140764856E+04  0.25500000920E-02 0. -1.
</event>
<event>
 5   0  0.2304435E-06  0.2888081E+04  0.7818609E-02  0.8276432E-01
       -2   -1    0    0    0  501  0.00000000000E+00  0.00000000000E+00  0.76626341361E+03  0.76626341361E+03  0.25500000920E-02 0. -1.
        2   -1    0    0  501    0  0.00000000000E+00  0.00000000000E+00 -0.27213269856E+04  0.27213269856E+04  0.25500000920E-02 0.  1.
    10030    2    1    2    0    0  0.00000000000E+00  0.00000000000E+00 -0.19550635720E+04  0.34875903992E+04  0.28880812354E+04 0.  0.
        1    1    3    3  502    0  0.46159170397E+03 -0.28309472049E+03 -0.25940863823E+04  0.26499988077E+04  0.50400001928E-02 0.  1.
       -1    1    3    3    0  502 -0.46159170397E+03  0.28309472049E+03  0.63902281034E+03  0.83759159147E+03  0.50400001928E-02 0. -1.
</event>
<event>
 5   0  0.2378690E-06  0.2903608E+04  0.7818609E-02  0.8271805E-01
       -2   -1    0    0    0  501  0.00000000000E+00  0.00000000000E+00  0.14023297559E+04  0.14023297559E+04  0.25500000920E-02 0.  1.
        2   -1    0    0  501    0  0.00000000000E+00  0.00000000000E+00 -0.15030236311E+04  0.15030236311E+04  0.25500000920E-02 0. -1.
    10030    2    1    2    0    0  0.00000000000E+00  0.00000000000E+00 -0.10069387529E+03  0.29053533870E+04  0.29036079361E+04 0.  0.
        3    1    3    3  502    0 -0.10495015953E+04 -0.68003555148E+03  0.68754656988E+03  0.14271027454E+04  0.10100000352E+00 0.  1.
       -3    1    3    3    0  502  0.10495015953E+04  0.68003555148E+03 -0.78824044517E+03  0.14782506416E+04  0.10100000352E+00 0. -1.
</event>
<event>
 5   0  0.2304435E-06  0.2894810E+04  0.7818609E-02  0.8274423E-01
        2   -1    0    0  501    0  0.00000000000E+00  0.00000000000E+00  0.23759592417E+04  0.23759592417E+04  0.25500000920E-02 0.  1.
       -2   -1    0    0    0  501  0.00000000000E+00  0.00000000000E+00 -0.88174151270E+03  0.88174151271E+03  0.25500000920E-02 0. -1.
    10030    2    1    2    0    0  0.00000000000E+00  0.00000000000E+00  0.14942177290E+04  0.32577007544E+04  0.28948104573E+04 0.  0.
        1    1    3    3  502    0  0.12939578970E+04 -0.23776683596E+03  0.14261786214E+04  0.19403209960E+04  0.50400001928E-02 0.  1.
       -1    1    3    3    0  502 -0.12939578970E+04  0.23776683596E+03  0.68039107615E+02  0.13173797584E+04  0.50400001928E-02 0. -1.
</event>
<event>
 5   0  0.2360103E-06  0.2868592E+04  0.7818609E-02  0.8282284E-01
       -2   -1    0    0    0  501  0.00000000000E+00  0.00000000000E+00  0.68427070103E+03  0.68427070103E+03  0.25500000920E-02 0.  1.
        2   -1    0    0  501    0  0.00000000000E+00  0.00000000000E+00 -0.30064190658E+04  0.30064190658E+04  0.25500000920E-02 0. -1.
    10030    2    1    2    0    0  0.00000000000E+00  0.00000000000E+00 -0.23221483648E+04  0.36906897668E+04  0.28685916278E+04 0.  0.
        4    1    3    3  502    0 -0.13706991703E+04 -0.16534212460E+03 -0.66104285168E+03  0.15307297274E+04  0.12699999809E+01 0. -1.
       -4    1    3    3    0  502  0.13706991703E+04  0.16534212460E+03 -0.16611055131E+04  0.21599600395E+04  0.12699999809E+01 0.  1.
</event>
<event>
 5   0  0.8947674E-07  0.2900806E+04  0.7818609E-02  0.8272638E-01
       -1   -1    0    0    0  501  0.00000000000E+00  0.00000000000E+00  0.16379537133E+04  0.16379537133E+04  0.50400001928E-02 0. -1.
        1   -1    0    0  501    0  0.00000000000E+00  0.00000000000E+00 -0.12843277313E+04  0.12843277313E+04  0.50400001928E-02 0.  1.
    10030    2    1    2    0    0  0.00000000000E+00  0.00000000000E+00  0.35362598200E+03  0.29222814446E+04  0.29008063545E+04 0.  0.
        3    1    3    3  502    0  0.29907236738E+03 -0.81441775884E+03  0.13477209208E+04  0.16028325731E+04  0.10100000352E+00 0. -1.
       -3    1    3    3    0  502 -0.29907236738E+03  0.81441775884E+03 -0.99409493881E+03  0.13194488715E+04  0.10100000352E+00 0.  1.
</event>
<event>
 5   0  0.8357118E-07  0.2897264E+04  0.7818609E-02  0.8273692E-01
       -1   -1    0    0    0  501  0.00000000000E+00  0.00000000000E+00  0.11625443760E+04  0.11625443760E+04  0.50400001928E-02 0. -1.
        1   -1    0    0  501    0  0.00000000000E+00  0.00000000000E+00 -0.18051216336E+04  0.18051216336E+04  0.50400001928E-02 0.  1.
    10030    2    1    2    0    0  0.00000000000E+00  0.00000000000E+00 -0.64257725760E+03  0.29676660096E+04  0.28972635387E+04 0.  0.
        1    1    3    3  502    0  0.64836577038E+03 -0.23563760557E+03  0.98349011343E+03  0.12013143038E+04  0.50400001928E-02 0. -1.
       -1    1    3    3    0  502 -0.64836577038E+03  0.23563760557E+03 -0.16260673710E+04  0.17663517058E+04  0.50400001928E-02 0.  1.
</event>
<event>
 5   0  0.7621125E-07  0.2892980E+04  0.7818609E-02  0.8274969E-01
       -3   -1    0    0    0  501  0.00000000000E+00  0.00000000000E+00  0.11944247884E+04  0.11944247927E+04  0.10100000352E+00 0. -1.
        3   -1    0    0  501    0  0.00000000000E+00  0.00000000000E+00 -0.17517496832E+04  0.17517496861E+04  0.10100000352E+00 0.  1.
    10030    2    1    2    0    0  0.00000000000E+00  0.00000000000E+00 -0.55732489474E+03  0.29461744788E+04  0.28929799552E+04 0.  0.
        1    1    3    3  502    0  0.80907385518E+03 -0.49971302270E+03  0.83134233534E+03  0.12631087391E+04  0.50400001928E-02 0. -1.
       -1    1    3    3    0  502 -0.80907385518E+03  0.49971302270E+03 -0.13886672301E+04  0.16830657397E+04  0.50400001928E-02 0.  1.
</event>
<event>
 5   0  0.8357118E-07  0.2893152E+04  0.7818609E-02  0.8274918E-01
        1   -1    0    0  501    0  0.00000000000E+00  0.00000000000E+00  0.13984489662E+04  0.13984489662E+04  0.50400001928E-02 0.  1.
       -1   -1    0    0    0  501  0.00000000000E+00  0.00000000000E+00 -0.14963589864E+04  0.14963589864E+04  0.50400001928E-02 0. -1.
    10030    2    1    2    0    0  0.00000000000E+00  0.00000000000E+00 -0.97910020221E+02  0.28948079526E+04  0.28931516916E+04 0.  0.
        1    1    3    3  502    0 -0.18280787587E+03  0.77916995354E+03 -0.12546581885E+04  0.14881840296E+04  0.50400001928E-02 0. -1.
       -1    1    3    3    0  502  0.18280787587E+03 -0.77916995354E+03  0.11567481683E+04  0.14066239230E+04  0.50400001928E-02 0.  1.
</event>
<event>
 5   0  0.8355946E-07  0.2872523E+04  0.7818609E-02  0.8281100E-01
        1   -1    0    0  501    0  0.00000000000E+00  0.00000000000E+00  0.17820887696E+04  0.17820887696E+04  0.50400001928E-02 0. -1.
       -1   -1    0    0    0  501  0.00000000000E+00  0.00000000000E+00 -0.11575446870E+04  0.11575446870E+04  0.50400001928E-02 0.  1.
    10030    2    1    2    0    0  0.00000000000E+00  0.00000000000E+00  0.62454408259E+03  0.29396334566E+04  0.28725232024E+04 0.  0.
        4    1    3    3  502    0 -0.46276737752E+03 -0.46551293167E+03 -0.99506739324E+03  0.11920640357E+04  0.12699999809E+01 0.  1.
       -4    1    3    3    0  502  0.46276737752E+03  0.46551293167E+03  0.16196114758E+04  0.17475694209E+04  0.12699999809E+01 0. -1.
</event>
<event>
 5   0  0.8947674E-07  0.2892573E+04  0.7818609E-02  0.8275091E-01
       -1   -1    0    0    0  501  0.00000000000E+00  0.00000000000E+00  0.14252930972E+04  0.14252930973E+04  0.50400001928E-02 0.  1.
        1   -1    0    0  501    0  0.00000000000E+00  0.00000000000E+00 -0.14675888985E+04  0.14675888985E+04  0.50400001928E-02 0. -1.
    10030    2    1    2    0    0  0.00000000000E+00  0.00000000000E+00 -0.42295801239E+02  0.28928819957E+04  0.28925727833E+04 0.  0.
        3    1    3    3  502    0  0.24744229899E+03  0.12714775050E+04 -0.66453741461E+03  0.14558477677E+04  0.10100000352E+00 0. -1.
       -3    1    3    3    0  502 -0.24744229899E+03 -0.12714775050E+04  0.62224161337E+03  0.14370342281E+04  0.10100000352E+00 0.  1.
</event>
<event>
 5   0  0.2360103E-06  0.2900856E+04  0.7818609E-02  0.8272623E-01
       -2   -1    0    0    0  501  0.00000000000E+00  0.00000000000E+00  0.13759208250E+04  0.13759208250E+04  0.25500000920E-02 0. -1.
        2   -1    0    0  501    0  0.00000000000E+00  0.00000000000E+00 -0.15289694069E+04  0.15289694069E+04  0.25500000920E-02 0.  1.
    10030    2    1    2    0    0  0.00000000000E+00  0.00000000000E+00 -0.15304858191E+03  0.29048902319E+04  0.29008556308E+04 0.  0.
        4    1    3    3  502    0  0.70419828207E+03  0.92272901535E+03 -0.94745524901E+03  0.14983314446E+04  0.12699999809E+01 0.  1.
       -4    1    3    3    0  502 -0.70419828207E+03 -0.92272901535E+03  0.79440666709E+03  0.14065587872E+04  0.12699999809E+01 0. -1.
</event>
<event>
 5   0  0.8483636E-07  0.2933477E+04  0.7818609E-02  0.8262986E-01
       -1   -1    0    0    0  501  0.00000000000E+00  0.00000000000E+00  0.79933880307E+03  0.79933880309E+03  0.50400001928E-02 0.  1.
        1   -1    0    0  501    0  0.00000000000E+00  0.00000000000E+00 -0.26913759917E+04  0.26913759917E+04  0.50400001928E-02 0. -1.
    10030    2    1    2    0    0  0.00000000000E+00  0.00000000000E+00 -0.18920371887E+04  0.34907147948E+04  0.29334766158E+04 0.  0.
        2    1    3    3  502    0 -0.90935579091E+03  0.11506992819E+04 -0.92594839954E+03  0.17344789507E+04  0.25500000920E-02 0.  1.
       -2    1    3    3    0  502  0.90935579091E+03 -0.11506992819E+04 -0.96608878912E+03  0.17562358441E+04  0.25500000920E-02 0. -1.
</event>
<event>
 5   0  0.8947674E-07  0.2904457E+04  0.7818609E-02  0.8271553E-01
        1   -1    0    0  501    0  0.00000000000E+00  0.00000000000E+00  0.16681482870E+04  0.16681482870E+04  0.50400001928E-02 0. -1.
       -1   -1    0    0    0  501  0.00000000000E+00  0.00000000000E+00 -0.12642563486E+04  0.12642563486E+04  0.50400001928E-02 0.  1.
    10030    2    1    2    0    0  0.00000000000E+00  0.00000000000E+00  0.40389193839E+03  0.29324046357E+04  0.29044566186E+04 0.  0.
        3    1    3    3  502    0  0.11956717385E+04  0.47069284593E+03 -0.48116222252E+03  0.13721150666E+04  0.10100000352E+00 0. -1.
       -3    1    3    3    0  502 -0.11956717385E+04 -0.47069284593E+03  0.88505416091E+03  0.15602895691E+04  0.10100000352E+00 0.  1.
</event>
<event>
 5   0  0.2325590E-06  0.2894160E+04  0.7818609E-02  0.8274617E-01
       -2   -1    0    0    0  501  0.00000000000E+00  0.00000000000E+00  0.98204548987E+03  0.98204548987E+03  0.25500000920E-02 0. -1.
        2   -1    0    0  501    0  0.00000000000E+00  0.00000000000E+00 -0.21323250984E+04  0.21323250984E+04  0.25500000920E-02 0.  1.
    10030    2    1    2    0    0  0.00000000000E+00  0.00000000000E+00 -0.11502796086E+04  0.31143705883E+04  0.28941598061E+04 0.  0.
        5    1    3    3  502    0  0.45501737251E+03 -0.95431749997E+03  0.48809581770E+03  0.11644837128E+04  0.46999998093E+01 0. -1.
       -5    1    3    3    0  502 -0.45501737251E+03  0.95431749997E+03 -0.16383754263E+04  0.19498868755E+04  0.46999998093E+01 0.  1.
</event>
<event>
 5   0  0.8483636E-07  0.2883960E+04  0.7818609E-02  0.8277666E-01
        1   -1    0    0  501    0  0.00000000000E+00  0.00000000000E+00  0.18111034504E+04  0.18111034504E+04  0.50400001928E-02 0.  1.
       -1   -1    0    0    0  501  0.00000000000E+00  0.00000000000E+00 -0.11480880013E+04  0.11480880013E+04  0.50400001928E-02 0. -1.
    10030    2    1    2    0    0  0.00000000000E+00  0.00000000000E+00  0.66301544911E+03  0.29591914517E+04  0.28839598753E+04 0.  0.
        2    1    3    3  502    0 -0.74755376697E+03 -0.10170133997E+04  0.10469431604E+04  0.16398911155E+04  0.25500000920E-02 0.  1.
       -2    1    3    3    0  502  0.74755376697E+03  0.10170133997E+04 -0.38392771124E+03  0.13193003362E+04  0.25500000920E-02 0. -1.
</event>
<event>
 5   0  0.8263673E-07  0.2882634E+04  0.7818609E-02  0.8278063E-01
        1   -1    0    0  501    0  0.00000000000E+00  0.00000000000E+00  0.12139623524E+04  0.12139623524E+04  0.50400001928E-02 0.  1.
       -1   -1    0    0    0  501  0.00000000000E+00  0.00000000000E+00 -0.17112511007E+04  0.17112511007E+04  0.50400001928E-02 0. -1.
    10030    2    1    2    0    0  0.00000000000E+00  0.00000000000E+00 -0.49728874830E+03  0.29252134531E+04  0.28826338039E+04 0.  0.
        5    1    3    3  502    0 -0.36541886413E+03 -0.13941066720E+04 -0.26645245749E+03  0.14656341157E+04  0.46999998093E+01 0.  1.
       -5    1    3    3    0  502  0.36541886413E+03  0.13941066720E+04 -0.23083629080E+03  0.14595793374E+04  0.46999998093E+01 0. -1.
</event>
<event>
 5   0  0.8263673E-07  0.2840715E+04  0.7818609E-02  0.8290738E-01
       -1   -1    0    0    0  501  0.00000000000E+00  0.00000000000E+00  0.19759757022E+04  0.19759757022E+04  0.50400001928E-02 0. -1.
        1   -1    0    0  501    0  0.00000000000E+00  0.00000000000E+00 -0.10209719754E+04  0.10209719754E+04  0.50400001928E-02 0.  1.
    10030    2    1    2    0    0  0.00000000000E+00  0.00000000000E+00  0.95500372684E+03  0.29969476776E+04  0.28407152733E+04 0.  0.
        5    1    3    3  502    0  0.93086561372E+02  0.77462816784E+02 -0.10155072322E+04  0.10227133638E+04  0.46999998093E+01 0.  1.
       -5    1    3    3    0  502 -0.93086561372E+02 -0.77462816784E+02  0.19705109591E+04  0.19742343138E+04  0.46999998093E+01 0. -1.
</event>
<event>
 5   0  0.2425845E-06  0.2904340E+04  0.7818609E-02  0.8271587E-01
       -2   -1    0    0    0  501  0.00000000000E+00  0.00000000000E+00  0.14990556038E+04  0.14990556038E+04  0.25500000920E-02 0. -1.
        2   -1    0    0  501    0  0.00000000000E+00  0.00000000000E+00 -0.14067510547E+04  0.14067510547E+04  0.25500000920E-02 0.  1.
    10030    2    1    2    0    0  0.00000000000E+00  0.00000000000E+00  0.92304549150E+02  0.29058066585E+04  0.29043402360E+04 0.  0.
        2    1    3    3  502    0 -0.20149728337E+03  0.69834468381E+03  0.13039710316E+04  0.14928586349E+04  0.25500000920E-02 0. -1.
       -2    1    3    3    0  502  0.20149728337E+03 -0.69834468381E+03 -0.12116664824E+04  0.14129480236E+04  0.25500000920E-02 0.  1.
</event>
<event>
 5   0  0.2425845E-06  0.2893619E+04  0.7818609E-02  0.8274778E-01
       -2   -1    0    0    0  501  0.00000000000E+00  0.00000000000E+00  0.11316831711E+04  0.11316831711E+04  0.25500000920E-02 0. -1.
        2   -1    0    0  501    0  0.00000000000E+00  0.00000000000E+00 -0.18496858237E+04  0.18496858237E+04  0.25500000920E-02 0.  1.
    10030    2    1    2    0    0  0.00000000000E+00  0.00000000000E+00 -0.71800265261E+03  0.29813689947E+04  0.28936194072E+04 0.  0.
        2    1    3    3  502    0 -0.83066379768E+03  0.10765781116E+04 -0.86819002402E+03  0.16133123359E+04  0.25500000920E-02 0. -1.
       -2    1    3    3    0  502  0.83066379768E+03 -0.10765781116E+04  0.15018737141E+03  0.13680566588E+04  0.25500000920E-02 0.  1.
</event>
<event>
 5   0  0.2325590E-06  0.2823960E+04  0.7818609E-02  0.8295868E-01
       -2   -1    0    0    0  501  0.00000000000E+00  0.00000000000E+00  0.85366216307E+03  0.85366216307E+03  0.25500000920E-02 0.  1.
        2   -1    0    0  501    0  0.00000000000E+00  0.00000000000E+00 -0.23354530715E+04  0.23354530715E+04  0.25500000920E-02 0. -1.
    10030    2    1    2    0    0  0.00000000000E+00  0.00000000000E+00 -0.14817909084E+04  0.31891152345E+04  0.28239602835E+04 0.  0.
        5    1    3    3  502    0  0.12405295377E+04  0.54142571919E+03 -0.11948855702E+04  0.18054996425E+04  0.46999998093E+01 0.  1.
       -5    1    3    3    0  502 -0.12405295377E+04 -0.54142571919E+03 -0.28690533819E+03  0.13836155920E+04  0.46999998093E+01 0. -1.
</event>
<event>
 5   0  0.2360103E-06  0.2900266E+04  0.7818609E-02  0.8272798E-01
        2   -1    0    0  501    0  0.00000000000E+00  0.00000000000E+00  0.12409723591E+04  0.12409723591E+04  0.25500000920E-02 0.  1.
       -2   -1    0    0    0  501  0.00000000000E+00  0.00000000000E+00 -0.16945468457E+04  0.16945468457E+04  0.25500000920E-02 0. -1.
    10030    2    1    2    0    0  0.00000000000E+00  0.00000000000E+00 -0.45357448664E+03  0.29355192048E+04  0.29002660545E+04 0.  0.
        4    1    3    3  502    0  0.98747098467E+03  0.92853818766E+03 -0.74841755017E+03  0.15483580186E+04  0.12699999809E+01 0. -1.
       -4    1    3    3    0  502 -0.98747098467E+03 -0.92853818766E+03  0.29484306354E+03  0.13871611862E+04  0.12699999809E+01 0.  1.
</event>
<event>
 5   0  0.8357118E-07  0.2902446E+04  0.7818609E-02  0.8272150E-01
       -1   -1    0    0    0  501  0.00000000000E+00  0.00000000000E+00  0.19295069800E+04  0.19295069800E+04  0.50400001928E-02 0.  1.
        1   -1    0    0  501    0  0.00000000000E+00  0.00000000000E+00 -0.10914954025E+04  0.10914954025E+04  0.50400001928E-02 0. -1.
    10030    2    1    2    0    0  0.00000000000E+00  0.00000000000E+00  0.83801157753E+03  0.30210023825E+04  0.29024458636E+04 0.  0.
        1    1    3    3  502    0 -0.13492059130E+04 -0.11029610467E+03  0.96336601148E+03  0.16615041073E+04  0.50400001928E-02 0.  1.
       -1    1    3    3    0  502  0.13492059130E+04  0.11029610467E+03 -0.12535443395E+03  0.13594982753E+04  0.50400001928E-02 0. -1.
</event>
<event>
 5   0  0.2360103E-06  0.2868776E+04  0.7818609E-02  0.8282229E-01
       -2   -1    0    0    0  501  0.00000000000E+00  0.00000000000E+00  0.77895123139E+03  0.77895123139E+03  0.25500000920E-02 0.  1.
        2   -1    0    0  501    0  0.00000000000E+00  0.00000000000E+00 -0.26413317215E+04  0.26413317215E+04  0.25500000920E-02 0. -1.
    10030    2    1    2    0    0  0.00000000000E+00  0.00000000000E+00 -0.18623804901E+04  0.34202829529E+04  0.28687757647E+04 0.  0.
        4    1    3    3  502    0  0.89213939483E+03  0.79539408869E+03  0.14300109446E+02  0.11953119100E+04  0.12699999809E+01 0.  1.
       -4    1    3    3    0  502 -0.89213939483E+03 -0.79539408869E+03 -0.18766805995E+04  0.22249710429E+04  0.12699999809E+01 0. -1.
</event>
<event>
 5   0  0.8355946E-07  0.2829681E+04  0.7818609E-02  0.8294113E-01
        1   -1    0    0  501    0  0.00000000000E+00  0.00000000000E+00  0.27027462807E+04  0.27027462807E+04  0.50400001928E-02 0. -1.
       -1   -1    0    0    0  501  0.00000000000E+00  0.00000000000E+00 -0.74064404907E+03  0.74064404909E+03  0.50400001928E-02 0.  1.
    10030    2    1    2    0    0  0.00000000000E+00  0.00000000000E+00  0.19621022316E+04  0.34433903298E+04  0.28296805113E+04 0.  0.
        4    1    3    3  502    0  0.12159091929E+04 -0.70959542868E+03  0.80977510015E+03  0.16240991852E+04  0.12699999809E+01 0.  1.
       -4    1    3    3    0  502 -0.12159091929E+04  0.70959542868E+03  0.11523271315E+04  0.18192911446E+04  0.12699999809E+01 0. -1.
</event>
<event>
 5   0  0.2304435E-06  0.2890491E+04  0.7818609E-02  0.8275712E-01
        2   -1    0    0  501    0  0.00000000000E+00  0.00000000000E+00  0.21707196516E+04  0.21707196516E+04  0.25500000920E-02 0.  1.
       -2   -1    0    0    0  501  0.00000000000E+00  0.00000000000E+00 -0.96223157919E+03  0.96223157919E+03  0.25500000920E-02 0. -1.
    10030    2    1    2    0    0  0.00000000000E+00  0.00000000000E+00  0.12084880724E+04  0.31329512308E+04  0.28904913066E+04 0.  0.
        1    1    3    3  502    0 -0.25187280109E+03 -0.19436914906E+03  0.21322929397E+04  0.21558971346E+04  0.50400001928E-02 0.  1.
       -1    1    3    3    0  502  0.25187280109E+03  0.19436914906E+03 -0.92380486732E+03  0.97705409622E+03  0.50400001928E-02 0. -1.
</event>
<event>
 5   0  0.8947674E-07  0.2867942E+04  0.7818609E-02  0.8282480E-01
       -1   -1    0    0    0  501  0.00000000000E+00  0.00000000000E+00  0.15479083097E+04  0.15479083097E+04  0.50400001928E-02 0. -1.
        1   -1    0    0  501    0  0.00000000000E+00  0.00000000000E+00 -0.13284207207E+04  0.13284207207E+04  0.50400001928E-02 0.  1.
    10030    2    1    2    0    0  0.00000000000E+00  0.00000000000E+00  0.21948758907E+03  0.28763290304E+04  0.28679424488E+04 0.  0.
        3    1    3    3  502    0  0.71150622610E+02  0.94008684872E+03 -0.97390078284E+03  0.13554735111E+04  0.10100000352E+00 0.  1.
       -3    1    3    3    0  502 -0.71150622610E+02 -0.94008684872E+03  0.11933883719E+04  0.15208555193E+04  0.10100000352E+00 0. -1.
</event>
<event>
 5   0  0.2378690E-06  0.2898069E+04  0.7818609E-02  0.8273452E-01
       -2   -1    0    0    0  501  0.00000000000E+00  0.00000000000E+00  0.10929190968E+04  0.10929190968E+04  0.25500000920E-02 0.  1.
        2   -1    0    0  501    0  0.00000000000E+00  0.00000000000E+00 -0.19211864843E+04  0.19211864843E+04  0.25500000920E-02 0. -1.
    10030    2    1    2    0    0  0.00000000000E+00  0.00000000000E+00 -0.82826738746E+03  0.30141055811E+04  0.28980692864E+04 0.  0.
        3    1    3    3  502    0 -0.12008104665E+04 -0.78455659892E+03 -0.62785238956E+03  0.15657820623E+04  0.10100000352E+00 0. -1.
       -3    1    3    3    0  502  0.12008104665E+04  0.78455659892E+03 -0.20041499790E+03  0.14483235188E+04  0.10100000352E+00 0.  1.
</event>
<event>
 5   0  0.8263673E-07  0.2900644E+04  0.7818609E-02  0.8272686E-01
       -1   -1    0    0    0  501  0.00000000000E+00  0.00000000000E+00  0.12510456232E+04  0.12510456232E+04  0.50400001928E-02 0.  1.
        1   -1    0    0  501    0  0.00000000000E+00  0.00000000000E+00 -0.16813407497E+04  0.16813407497E+04  0.50400001928E-02 0. -1.
    10030    2    1    2    0    0  0.00000000000E+00  0.00000000000E+00 -0.43029512645E+03  0.29323863729E+04  0.29006440568E+04 0.  0.
        5    1    3    3  502    0 -0.54047975272E+02  0.24188690657E+03 -0.16597643211E+04  0.16781746485E+04  0.46999998093E+01 0. -1.
       -5    1    3    3    0  502  0.54047975272E+02 -0.24188690657E+03  0.12294691946E+04  0.12542117244E+04  0.46999998093E+01 0.  1.
</event>
<event>
 5   0  0.2304435E-06  0.2885263E+04  0.7818609E-02  0.8277276E-01
        2   -1    0    0  501    0  0.00000000000E+00  0.00000000000E+00  0.14739655711E+04  0.14739655711E+04  0.25500000920E-02 0.  1.
       -2   -1    0    0    0  501  0.00000000000E+00  0.00000000000E+00 -0.14119637600E+04  0.14119637600E+04  0.25500000920E-02 0. -1.
    10030    2    1    2    0    0  0.00000000000E+00  0.00000000000E+00  0.62001811056E+02  0.28859293311E+04  0.28852632253E+04 0.  0.
        1    1    3    3  502    0  0.12023166941E+04 -0.71222938869E+02  0.82525464715E+03  0.14600285520E+04  0.50400001928E-02 0.  1.
       -1    1    3    3    0  502 -0.12023166941E+04  0.71222938869E+02 -0.76325283609E+03  0.14259007791E+04  0.50400001928E-02 0. -1.
</event>
<event>
 5   0  0.2378690E-06  0.2904538E+04  0.7818609E-02  0.8271528E-01
       -2   -1    0    0    0  501  0.00000000000E+00  0.00000000000E+00  0.85000986792E+03  0.85000986793E+03  0.25500000920E-02 0.  1.
        2   -1    0    0  501    0  0.00000000000E+00  0.00000000000E+00 -0.24812484350E+04  0.24812484350E+04  0.25500000920E-02 0. -1.
    10030    2    1    2    0    0  0.00000000000E+00  0.00000000000E+00 -0.16312385671E+04  0.33312583030E+04  0.29045382797E+04 0.  0.
        3    1    3    3  502    0 -0.14434281331E+04 -0.12461332138E+03 -0.93072514728E+03  0.17219937762E+04  0.10100000352E+00 0. -1.
       -3    1    3    3    0  502  0.14434281331E+04  0.12461332138E+03 -0.70051341984E+03  0.16092645267E+04  0.10100000352E+00 0.  1.
</event>
<event>
 5   0  0.7621125E-07  0.2886672E+04  0.7818609E-02  0.8276854E-01
        3   -1    0    0  501    0  0.00000000000E+00  0.00000000000E+00  0.10016839568E+04  0.10016839619E+04  0.10100000352E+00 0.  1.
       -3   -1    0    0    0  501  0.00000000000E+00  0.00000000000E+00 -0.20797161277E+04  0.20797161301E+04  0.10100000352E+00 0. -1.
    10030    2    1    2    0    0  0.00000000000E+00  0.00000000000E+00 -0.10780321708E+04  0.30814000921E+04  0.28866716416E+04 0.  0.
        1    1    3    3  502    0  0.45815269351E+03  0.96269046624E+02 -0.19964171969E+04  0.20505738817E+04  0.50400001928E-02 0. -1.
       -1    1    3    3    0  502 -0.45815269351E+03 -0.96269046624E+02  0.91838502609E+03  0.10308262104E+04  0.50400001928E-02 0.  1.
</event>
<event>
 5   0  0.8355946E-07  0.2905906E+04  0.7818609E-02  0.8271123E-01
       -1   -1    0    0    0  501  0.00000000000E+00  0.00000000000E+00  0.17154672742E+04  0.17154672742E+04  0.50400001928E-02 0. -1.
        1   -1    0    0  501    0  0.00000000000E+00  0.00000000000E+00 -0.12306104702E+04  0.12306104702E+04  0.50400001928E-02 0.  1.
    10030    2    1    2    0    0  0.00000000000E+00  0.00000000000E+00  0.48485680400E+03  0.29460777444E+04  0.29059057032E+04 0.  0.
        4    1    3    3  502    0  0.34428108274E+03  0.47297280803E+01 -0.11886514644E+04  0.12375159599E+04  0.12699999809E+01 0.  1.
       -4    1    3    3    0  502 -0.34428108274E+03 -0.47297280803E+01  0.16735082684E+04  0.17085617845E+04  0.12699999809E+01 0. -1.
</event>
<event>
 5   0  0.8355946E-07  0.2934517E+04  0.7818609E-02  0.8262681E-01
       -1   -1    0    0    0  501  0.00000000000E+00  0.00000000000E+00  0.76311807331E+03  0.76311807333E+03  0.50400001928E-02 0. -1.
        1   -1    0    0  501    0  0.00000000000E+00  0.00000000000E+00 -0.28211199080E+04  0.28211199080E+04  0.50400001928E-02 0.  1.
    10030    2    1    2    0    0  0.00000000000E+00  0.00000000000E+00 -0.20580018346E+04  0.35842379813E+04  0.29345170565E+04 0.  0.
        4    1    3    3  502    0  0.59908239946E+03  0.13301625361E+04 -0.83737676047E+03  0.16820920146E+04  0.12699999809E+01 0. -1.
       -4    1    3    3    0  502 -0.59908239946E+03 -0.13301625361E+04 -0.12206250742E+04  0.19021459667E+04  0.12699999809E+01 0.  1.
</event>
<event>
 5   0  0.2360103E-06  0.2897608E+04  0.7818609E-02  0.8273589E-01
       -2   -1    0    0    0  501  0.00000000000E+00  0.00000000000E+00  0.15676795051E+04  0.15676795051E+04  0.25500000920E-02 0. -1.
        2   -1    0    0  501    0  0.00000000000E+00  0.00000000000E+00 -0.13389427939E+04  0.13389427939E+04  0.25500000920E-02 0.  1.
    10030    2    1    2    0    0  0.00000000000E+00  0.00000000000E+00  0.22873671124E+03  0.29066222990E+04  0.28976081008E+04 0.  0.
        4    1    3    3  502    0 -0.13571259507E+03 -0.61324204975E+03 -0.11952765313E+04  0.13502486138E+04  0.12699999809E+01 0.  1.
       -4    1    3    3    0  502  0.13571259507E+03  0.61324204975E+03  0.14240132425E+04  0.15563736852E+04  0.12699999809E+01 0. -1.
</event>
<event>
 5   0  0.2304435E-06  0.2893965E+04  0.7818609E-02  0.8274675E-01
       -2   -1    0    0    0  501  0.00000000000E+00  0.00000000000E+00  0.17115013020E+04  0.17115013020E+04  0.25500000920E-02 0. -1.
        2   -1    0    0  501    0  0.00000000000E+00  0.00000000000E+00 -0.12233459137E+04  0.12233459137E+04  0.25500000920E-02 0.  1.
    10030    2    1    2    0    0  0.00000000000E+00  0.00000000000E+00  0.48815538823E+03  0.29348472157E+04  0.28939648402E+04 0.  0.
        1    1    3    3  502    0  0.94747447022E+03  0.25644171005E+03  0.13222465596E+04  0.16467562621E+04  0.50400001928E-02 0. -1.
       -1    1    3    3    0  502 -0.94747447022E+03 -0.25644171005E+03 -0.83409117142E+03  0.12880909536E+04  0.50400001928E-02 0.  1.
</event>
<event>
 5   0  0.8357118E-07  0.2898539E+04  0.7818609E-02  0.8273312E-01
       -1   -1    0    0    0  501  0.00000000000E+00  0.00000000000E+00  0.93155778751E+03  0.93155778752E+03  0.50400001928E-02 0. -1.
        1   -1    0    0  501    0  0.00000000000E+00  0.00000000000E+00 -0.22546985536E+04  0.22546985536E+04  0.50400001928E-02 0.  1.
    10030    2    1    2    0    0  0.00000000000E+00  0.00000000000E+00 -0.13231407661E+04  0.31862563411E+04  0.28985389396E+04 0.  0.
        1    1    3    3  502    0  0.74220434439E+03 -0.29807478573E+02  0.70639427670E+03  0.10250603147E+04  0.50400001928E-02 0. -1.
       -1    1    3    3    0  502 -0.74220434439E+03  0.29807478573E+02 -0.20295350428E+04  0.21611960264E+04  0.50400001928E-02 0.  1.
</event>
<event>
 5   0  0.2325590E-06  0.2910956E+04  0.7818609E-02  0.8269625E-01
        2   -1    0    0  501    0  0.00000000000E+00  0.00000000000E+00  0.16176756178E+04  0.16176756178E+04  0.25500000920E-02 0. -1.
       -2   -1    0    0    0  501  0.00000000000E+00  0.00000000000E+00 -0.13095430252E+04  0.13095430252E+04  0.25500000920E-02 0.  1.
    10030    2    1    2    0    0  0.00000000000E+00  0.00000000000E+00  0.30813259262E+03  0.29272186430E+04  0.29109557347E+04 0.  0.
        5    1    3    3  502    0  0.12961925099E+02 -0.70383009196E+02  0.16158975932E+04  0.16174884547E+04  0.46999998093E+01 0. -1.
       -5    1    3    3    0  502 -0.12961925099E+02  0.70383009196E+02 -0.13077650006E+04  0.13097301883E+04  0.46999998093E+01 0.  1.
</event>
<event>
 5   0  0.8355946E-07  0.2898115E+04  0.7818609E-02  0.8273438E-01
        1   -1    0    0  501    0  0.00000000000E+00  0.00000000000E+00  0.10280328797E+04  0.10280328797E+04  0.50400001928E-02 0. -1.
       -1   -1    0    0    0  501  0.00000000000E+00  0.00000000000E+00 -0.20425104566E+04  0.20425104566E+04  0.50400001928E-02 0.  1.
    10030    2    1    2    0    0  0.00000000000E+00  0.00000000000E+00 -0.10144775769E+04  0.30705433363E+04  0.28981151851E+04 0.  0.
        4    1    3    3  502    0  0.48702140667E+03  0.56475733818E+03  0.80910877490E+03  0.11003632692E+04  0.12699999809E+01 0. -1.
       -4    1    3    3    0  502 -0.48702140667E+03 -0.56475733818E+03 -0.18235863518E+04  0.19701800672E+04  0.12699999809E+01 0.  1.
</event>
<event>
 5   0  0.8263673E-07  0.2900557E+04  0.7818609E-02  0.8272712E-01
        1   -1    0    0  501    0  0.00000000000E+00  0.00000000000E+00  0.19907468196E+04  0.19907468196E+04  0.50400001928E-02 0. -1.
       -1   -1    0    0    0  501  0.00000000000E+00  0.00000000000E+00 -0.10565422218E+04  0.10565422218E+04  0.50400001928E-02 0.  1.
    10030    2    1    2    0    0  0.00000000000E+00  0.00000000000E+00  0.93420459786E+03  0.30472890414E+04  0.29005572346E+04 0.  0.
        5    1    3    3  502    0  0.24231193786E+03 -0.12074276303E+04  0.12718066298E+04  0.17703419871E+04  0.46999998093E+01 0. -1.
       -5    1    3    3    0  502 -0.24231193786E+03  0.12074276303E+04 -0.33760203194E+03  0.12769470543E+04  0.46999998093E+01 0.  1.
</event>
<event>
 5   0  0.8483636E-07  0.2897054E+04  0.7818609E-02  0.8273755E-01
       -1   -1    0    0    0  501  0.00000000000E+00  0.00000000000E+00  0.89994078384E+03  0.89994078386E+03  0.50400001928E-02 0. -1.
        1   -1    0    0  501    0  0.00000000000E+00  0.00000000000E+00 -0.23315206858E+04  0.23315206858E+04  0.50400001928E-02 0.  1.
    10030    2    1    2    0    0  0.00000000000E+00  0.00000000000E+00 -0.14315799019E+04  0.32314614696E+04  0.28970540579E+04 0.  0.
        2    1    3    3  502    0 -0.36277939298E+03  0.11923312684E+04 -0.15392220806E+04  0.19805219906E+04  0.25500000920E-02 0.  1.
       -2    1    3    3    0  502  0.36277939298E+03 -0.11923312684E+04  0.10764217870E+03  0.12509394791E+04  0.25500000920E-02 0. -1.
</event>
<event>
 5   0  0.2360103E-06  0.2905270E+04  0.7818609E-02  0.8271311E-01
        2   -1    0    0  501    0  0.00000000000E+00  0.00000000000E+00  0.17251931489E+04  0.17251931489E+04  0.25500000920E-02 0.  1.
       -2   -1    0    0    0  501  0.00000000000E+00  0.00000000000E+00 -0.12231373536E+04  0.12231373536E+04  0.25500000920E-02 0. -1.
    10030    2    1    2    0    0  0.00000000000E+00  0.00000000000E+00  0.50205579532E+03  0.29483305026E+04  0.29052698207E+04 0.  0.
        4    1    3    3  502    0  0.32547651347E+03 -0.70934456726E+03 -0.99230120566E+03  0.12624452351E+04  0.12699999809E+01 0. -1.
       -4    1    3    3    0  502 -0.32547651347E+03  0.70934456726E+03  0.14943570010E+04  0.16858852675E+04  0.12699999809E+01 0.  1.
</event>
<event>
 5   0  0.8357118E-07  0.2884348E+04  0.7818609E-02  0.8277550E-01
        1   -1    0    0  501    0  0.00000000000E+00  0.00000000000E+00  0.13219258155E+04  0.13219258155E+04  0.50400001928E-02 0. -1.
       -1   -1    0    0    0  501  0.00000000000E+00  0.00000000000E+00 -0.15733609172E+04  0.15733609172E+04  0.50400001928E-02 0.  1.
    10030    2    1    2    0    0  0.00000000000E+00  0.00000000000E+00 -0.25143510172E+03  0.28952867327E+04  0.28843483933E+04 0.  0.
        1    1    3    3  502    0  0.86959060767E+03  0.99903667965E+03 -0.69849898209E+03  0.14973853680E+04  0.50400001928E-02 0.  1.
       -1    1    3    3    0  502 -0.86959060767E+03 -0.99903667965E+03  0.44706388037E+03  0.13979013647E+04  0.50400001928E-02 0. -1.
</event>
<event>
 5   0  0.8947674E-07  0.2895246E+04  0.7818609E-02  0.8274293E-01
       -1   -1    0    0    0  501  0.00000000000E+00  0.00000000000E+00  0.75944518558E+03  0.75944518559E+03  0.50400001928E-02 0. -1.
        1   -1    0    0  501    0  0.00000000000E+00  0.00000000000E+00 -0.27593983753E+04  0.27593983754E+04  0.50400001928E-02 0.  1.
    10030    2    1    2    0    0  0.00000000000E+00  0.00000000000E+00 -0.19999531898E+04  0.35188435609E+04  0.28952456278E+04 0.  0.
        3    1    3    3  502    0 -0.40905643965E+03 -0.35712255464E+01  0.68773672812E+03  0.80020106341E+03  0.10100000352E+00 0. -1.
       -3    1    3    3    0  502  0.40905643965E+03  0.35712255464E+01 -0.26876899179E+04  0.27186424975E+04  0.10100000352E+00 0.  1.
</event>
<event>
 5   0  0.2425845E-06  0.2904847E+04  0.7818609E-02  0.8271437E-01
        2   -1    0    0  501    0  0.00000000000E+00  0.00000000000E+00  0.14495535147E+04  0.14495535147E+04  0.25500000920E-02 0. -1.
       -2   -1    0    0    0  501  0.00000000000E+00  0.00000000000E+00 -0.14552987133E+04  0.14552987133E+04  0.25500000920E-02 0.  1.
    10030    2    1    2    0    0  0.00000000000E+00  0.00000000000E+00 -0.57451986293E+01  0.29048522281E+04  0.29048465466E+04 0.  0.
        2    1    3    3  502    0 -0.37326006898E+03 -0.77533559571E+03 -0.11729453984E+04  0.14547402767E+04  0.25500000920E-02 0.  1.
       -2    1    3    3    0  502  0.37326006898E+03  0.77533559571E+03  0.11672001998E+04  0.14501119513E+04  0.25500000920E-02 0. -1.
</event>
<event>
 5   0  0.2360103E-06  0.2900929E+04  0.7818609E-02  0.8272601E-01
       -2   -1    0    0    0  501  0.00000000000E+00  0.00000000000E+00  0.13712462146E+04  0.13712462146E+04  0.25500000920E-02 0. -1.
        2   -1    0    0  501    0  0.00000000000E+00  0.00000000000E+00 -0.15342590788E+04  0.15342590788E+04  0.25500000920E-02 0.  1.
    10030    2    1    2    0    0  0.00000000000E+00  0.00000000000E+00 -0.16301286417E+03  0.29055052933E+04  0.29009287850E+04 0.  0.
        4    1    3    3  502    0 -0.40474403173E+03 -0.13295189595E+04 -0.49738063663E+03  0.14760851959E+04  0.12699999809E+01 0.  1.
       -4    1    3    3    0  502  0.40474403173E+03  0.13295189595E+04  0.33436777246E+03  0.14294200975E+04  0.12699999809E+01 0. -1.
</event>
<event>
 5   0  0.8263673E-07  0.2902138E+04  0.7818609E-02  0.8272242E-01
       -1   -1    0    0    0  501  0.00000000000E+00  0.00000000000E+00  0.12901071209E+04  0.12901071209E+04  0.50400001928E-02 0.  1.
        1   -1    0    0  501    0  0.00000000000E+00  0.00000000000E+00 -0.16321132385E+04  0.16321132385E+04  0.50400001928E-02 0. -1.
    10030    2    1    2    0    0  0.00000000000E+00  0.00000000000E+00 -0.34200611768E+03  0.29222203594E+04  0.29021377714E+04 0.  0.
        5    1    3    3  502    0 -0.53699287540E+03  0.12249587698E+04  0.39564643000E+03  0.13947915699E+04  0.46999998093E+01 0.  1.
       -5    1    3    3    0  502  0.53699287540E+03 -0.12249587698E+04 -0.73765254769E+03  0.15274287895E+04  0.46999998093E+01 0. -1.
</event>
<event>
 5   0  0.2360103E-06  0.2916598E+04  0.7818609E-02  0.8267956E-01
        2   -1    0    0  501    0  0.00000000000E+00  0.00000000000E+00  0.20749397699E+04  0.20749397699E+04  0.25500000920E-02 0.  1.
       -2   -1    0    0    0  501  0.00000000000E+00  0.00000000000E+00 -0.10249145455E+04  0.10249145455E+04  0.25500000920E-02 0. -1.
    10030    2    1    2    0    0  0.00000000000E+00  0.00000000000E+00  0.10500252244E+04  0.30998543154E+04  0.29165979848E+04 0.  0.
        4    1    3    3  502    0 -0.15115472134E+03 -0.13244292982E+04 -0.10347417056E+03  0.13370374836E+04  0.12699999809E+01 0. -1.
       -4    1    3    3    0  502  0.15115472134E+03  0.13244292982E+04  0.11534993949E+04  0.17628168318E+04  0.12699999809E+01 0.  1.
</event>
<event>
 5   0  0.8483636E-07  0.2892257E+04  0.7818609E-02  0.8275185E-01
        1   -1    0    0  501    0  0.00000000000E+00  0.00000000000E+00  0.16418905876E+04  0.16418905876E+04  0.50400001928E-02 0. -1.
       -1   -1    0    0    0  501  0.00000000000E+00  0.00000000000E+00 -0.12737072074E+04  0.12737072074E+04  0.50400001928E-02 0.  1.
    10030    2    1    2    0    0  0.00000000000E+00  0.00000000000E+00  0.36818338014E+03  0.29155977950E+04  0.28922571637E+04 0.  0.
        2    1    3    3  502    0  0.19196631711E+03 -0.14311637897E+04  0.10467128145E+03  0.14477696423E+04  0.25500000920E-02 0.  1.
       -2    1    3    3    0  502 -0.19196631711E+03  0.14311637897E+04  0.26351209869E+03  0.14678281528E+04  0.25500000920E-02 0. -1.
</event>
<event>
 5   0  0.2325590E-06  0.2906209E+04  0.7818609E-02  0.8271032E-01
        2   -1    0    0  501    0  0.00000000000E+00  0.00000000000E+00  0.25081043399E+04  0.25081043399E+04  0.25500000920E-02 0. -1.
       -2   -1    0    0    0  501  0.00000000000E+00  0.00000000000E+00 -0.84187616840E+03  0.84187616840E+03  0.25500000920E-02 0.  1.
    10030    2    1    2    0    0  0.00000000000E+00  0.00000000000E+00  0.16662281715E+04  0.33499805083E+04  0.29062094017E+04 0.  0.
        5    1    3    3  502    0 -0.97162921950E+03  0.25775625720E+03 -0.37638898645E+03  0.10734022487E+04  0.46999998093E+01 0.  1.
       -5    1    3    3    0  502  0.97162921950E+03 -0.25775625720E+03  0.20426171580E+04  0.22765782597E+04  0.46999998093E+01 0. -1.
</event>
<event>
 5   0  0.8355946E-07  0.2909094E+04  0.7818609E-02  0.8270177E-01
       -1   -1    0    0    0  501  0.00000000000E+00  0.00000000000E+00  0.18282226782E+04  0.18282226782E+04  0.50400001928E-02 0. -1.
        1   -1    0    0  501    0  0.00000000000E+00  0.00000000000E+00 -0.11572480086E+04  0.11572480086E+04  0.50400001928E-02 0.  1.
    10030    2    1    2    0    0  0.00000000000E+00  0.00000000000E+00  0.67097466968E+03  0.29854706868E+04  0.29090940539E+04 0.  0.
        4    1    3    3  502    0 -0.10687218225E+04  0.67046120498E+03  0.10783856007E+04  0.16596992733E+04  0.12699999809E+01 0. -1.
       -4    1    3    3    0  502  0.10687218225E+04 -0.67046120498E+03 -0.40741093099E+03  0.13257714135E+04  0.12699999809E+01 0.  1.
</event>
<event>
 5   0  0.2378690E-06  0.2696761E+04  0.7818609E-02  0.8336057E-01
       -2   -1    0    0    0  501  0.00000000000E+00  0.00000000000E+00  0.12103720068E+04  0.12103720068E+04  0.25500000920E-02 0.  1.
        2   -1    0    0  501    0  0.00000000000E+00  0.00000000000E+00 -0.15021252409E+04  0.15021252409E+04  0.25500000920E-02 0. -1.
    10030    2    1    2    0    0  0.00000000000E+00  0.00000000000E+00 -0.29175323404E+03  0.27124972477E+04  0.26967612740E+04 0.  0.
        3    1    3    3  502    0 -0.11762987218E+04 -0.65909277703E+03 -0.13888186407E+03  0.13554962759E+04  0.10100000352E+00 0. -1.
       -3    1    3    3    0  502  0.11762987218E+04  0.65909277703E+03 -0.15287136996E+03  0.13570009718E+04  0.10100000352E+00 0.  1.
</event>
<event>
 5   0  0.8483636E-07  0.2819062E+04  0.7818609E-02  0.8297375E-01
       -1   -1    0    0    0  501  0.00000000000E+00  0.00000000000E+00  0.88015224649E+03  0.88015224650E+03  0.50400001928E-02 0. -1.
        1   -1    0    0  501    0  0.00000000000E+00  0.00000000000E+00 -0.22573107650E+04  0.22573107650E+04  0.50400001928E-02 0.  1.
    10030    2    1    2    0    0  0.00000000000E+00  0.00000000000E+00 -0.13771585185E+04  0.31374630115E+04  0.28190616459E+04 0.  0.
        2    1    3    3  502    0  0.31360907358E+03  0.13324222145E+04 -0.10628295983E+04  0.17330050097E+04  0.25500000920E-02 0.  1.
       -2    1    3    3    0  502 -0.31360907358E+03 -0.13324222145E+04 -0.31432892020E+03  0.14044580018E+04  0.25500000920E-02 0. -1.
</event>
<event>
 5   0  0.2425845E-06  0.2896786E+04  0.7818609E-02  0.8273834E-01
        2   -1    0    0  501    0  0.00000000000E+00  0.00000000000E+00  0.25261062095E+04  0.25261062095E+04  0.25500000920E-02 0.  1.
       -2   -1    0    0    0  501  0.00000000000E+00  0.00000000000E+00 -0.83046470856E+03  0.83046470856E+03  0.25500000920E-02 0. -1.
    10030    2    1    2    0    0  0.00000000000E+00  0.00000000000E+00  0.16956415010E+04  0.33565709181E+04  0.28967858444E+04 0.  0.
        2    1    3    3  502    0  0.12978995951E+04  0.48325152057E+03  0.35653516746E+03  0.14301023449E+04  0.25500000920E-02 0. -1.
       -2    1    3    3    0  502 -0.12978995951E+04 -0.48325152057E+03  0.13391063335E+04  0.19264685732E+04  0.25500000920E-02 0.  1.
</event>
<event>
 5   0  0.2360103E-06  0.2903238E+04  0.7818609E-02  0.8271915E-01
        2   -1    0    0  501    0  0.00000000000E+00  0.00000000000E+00  0.26987579836E+04  0.26987579836E+04  0.25500000920E-02 0. -1.
       -2   -1    0    0    0  501  0.00000000000E+00  0.00000000000E+00 -0.78080265144E+03  0.78080265144E+03  0.25500000920E-02 0.  1.
    10030    2    1    2    0    0  0.00000000000E+00  0.00000000000E+00  0.19179553321E+04  0.34795606350E+04  0.29032377713E+04 0.  0.
        4    1    3    3  502    0  0.32539246165E+03 -0.14013836053E+04  0.72707438167E+03  0.16119537936E+04  0.12699999809E+01 0. -1.
       -4    1    3    3    0  502 -0.32539246165E+03  0.14013836053E+04  0.11908809505E+04  0.18676068415E+04  0.12699999809E+01 0.  1.
</event>
<event>
 5   0  0.2325590E-06  0.2910417E+04  0.7818609E-02  0.8269785E-01
       -2   -1    0    0    0  501  0.00000000000E+00  0.00000000000E+00  0.10785187727E+04  0.10785187727E+04  0.25500000920E-02 0.  1.
        2   -1    0    0  501    0  0.00000000000E+00  0.00000000000E+00 -0.19634632204E+04  0.19634632204E+04  0.25500000920E-02 0. -1.
    10030    2    1    2    0    0  0.00000000000E+00  0.00000000000E+00 -0.88494444767E+03  0.30419819931E+04  0.29104171128E+04 0.  0.
        5    1    3    3  502    0 -0.61838280913E+03 -0.47429482759E+03 -0.17269506906E+04  0.18946592463E+04  0.46999998093E+01 0. -1.
       -5    1    3    3    0  502  0.61838280913E+03  0.47429482759E+03  0.84200624289E+03  0.11473227467E+04  0.46999998093E+01 0.  1.
</event>
<event>
 5   0  0.8357118E-07  0.2904528E+04  0.7818609E-02  0.8271532E-01
        1   -1    0    0  501    0  0.00000000000E+00  0.00000000000E+00  0.15805651600E+04  0.15805651600E+04  0.50400001928E-02 0.  1.
       -1   -1    0    0    0  501  0.00000000000E+00  0.00000000000E+00 -0.13343772069E+04  0.13343772069E+04  0.50400001928E-02 0. -1.
    10030    2    1    2    0    0  0.00000000000E+00  0.00000000000E+00  0.24618795315E+03  0.29149423669E+04  0.29045275854E+04 0.  0.
        1    1    3    3  502    0  0.81061984247E+03 -0.41180208890E+02  0.13316836146E+04  0.15595453145E+04  0.50400001928E-02 0.  1.
       -1    1    3    3    0  502 -0.81061984247E+03  0.41180208890E+02 -0.10854956615E+04  0.13553970524E+04  0.50400001928E-02 0. -1.
</event>
<event>
 5   0  0.8483636E-07  0.2875279E+04  0.7818609E-02  0.8280271E-01
        1   -1    0    0  501    0  0.00000000000E+00  0.00000000000E+00  0.16401342235E+04  0.16401342235E+04  0.50400001928E-02 0.  1.
       -1   -1    0    0    0  501  0.00000000000E+00  0.00000000000E+00 -0.12601448509E+04  0.12601448509E+04  0.50400001928E-02 0. -1.
    10030    2    1    2    0    0  0.00000000000E+00  0.00000000000E+00  0.37998937258E+03  0.29002790744E+04  0.28752785580E+04 0.  0.
        2    1    3    3  502    0 -0.43661174760E+03  0.13687267883E+04  0.13696516845E+03  0.14431917047E+04  0.25500000920E-02 0. -1.
       -2    1    3    3    0  502  0.43661174760E+03 -0.13687267883E+04  0.24302420413E+03  0.14570873697E+04  0.25500000920E-02 0.  1.
</event>
<event>
 5   0  0.2325590E-06  0.2887615E+04  0.7818609E-02  0.8276572E-01
       -2   -1    0    0    0  501  0.00000000000E+00  0.00000000000E+00  0.15374592357E+04  0.15374592357E+04  0.25500000920E-02 0. -1.
        2   -1    0    0  501    0  0.00000000000E+00  0.00000000000E+00 -0.13558608575E+04  0.13558608575E+04  0.25500000920E-02 0.  1.
    10030    2    1    2    0    0  0.00000000000E+00  0.00000000000E+00  0.18159837811E+03  0.28933200932E+04  0.28876154853E+04 0.  0.
        5    1    3    3  502    0  0.14991611090E+03 -0.79895290926E+03 -0.11047714123E+04  0.13716204122E+04  0.46999998093E+01 0.  1.
       -5    1    3    3    0  502 -0.14991611090E+03  0.79895290926E+03  0.12863697904E+04  0.15216996810E+04  0.46999998093E+01 0. -1.
</event>
<event>
 5   0  0.8947674E-07  0.2897422E+04  0.7818609E-02  0.8273645E-01
       -1   -1    0    0    0  501  0.00000000000E+00  0.00000000000E+00  0.14373458934E+04  0.14373458934E+04  0.50400001928E-02 0.  1.
        1   -1    0    0  501    0  0.00000000000E+00  0.00000000000E+00 -0.14601657745E+04  0.14601657745E+04  0.50400001928E-02 0. -1.
    10030    2    1    2    0    0  0.00000000000E+00  0.00000000000E+00 -0.22819881129E+02  0.28975116679E+04  0.28974218055E+04 0.  0.
        3    1    3    3  502    0  0.67972813226E+03 -0.10927338728E+04  0.65394190449E+03  0.14435157343E+04  0.10100000352E+00 0.  1.
       -3    1    3    3    0  502 -0.67972813226E+03  0.10927338728E+04 -0.67676178562E+03  0.14539959337E+04  0.10100000352E+00 0. -1.
</event>
<event>
 5   0  0.2304435E-06  0.2957304E+04  0.7818609E-02  0.8256029E-01
        2   -1    0    0  501    0  0.00000000000E+00  0.00000000000E+00  0.14481708760E+04  0.14481708760E+04  0.25500000920E-02 0.  1.
       -2   -1    0    0    0  501  0.00000000000E+00  0.00000000000E+00 -0.15097742930E+04  0.15097742931E+04  0.25500000920E-02 0. -1.
    10030    2    1    2    0    0  0.00000000000E+00  0.00000000000E+00 -0.61603417051E+02  0.29579451691E+04  0.29573036101E+04 0.  0.
        1    1    3    3  502    0  0.16743623967E+03  0.13857113071E+04 -0.51894491771E+03  0.14891388614E+04  0.50400001928E-02 0. -1.
       -1    1    3    3    0  502 -0.16743623967E+03 -0.13857113071E+04  0.45734150066E+03  0.14688063076E+04  0.50400001928E-02 0.  1.
</event>
<event>
 5   0  0.8357118E-07  0.2836693E+04  0.7818609E-02  0.8291966E-01
       -1   -1    0    0    0  501  0.00000000000E+00  0.00000000000E+00  0.67697728860E+03  0.67697728862E+03  0.50400001928E-02 0. -1.
        1   -1    0    0  501    0  0.00000000000E+00  0.00000000000E+00 -0.29716022929E+04  0.29716022929E+04  0.50400001928E-02 0.  1.
    10030    2    1    2    0    0  0.00000000000E+00  0.00000000000E+00 -0.22946250043E+04  0.36485795815E+04  0.28366933307E+04 0.  0.
        1    1    3    3  502    0  0.10618545013E+04  0.56935781735E+03 -0.18479866073E+03  0.12189560497E+04  0.50400001928E-02 0.  1.
       -1    1    3    3    0  502 -0.10618545013E+04 -0.56935781735E+03 -0.21098263436E+04  0.24296235318E+04  0.50400001928E-02 0. -1.
</event>
<event>
 5   0  0.2304435E-06  0.2878050E+04  0.7818609E-02  0.8279438E-01
       -2   -1    0    0    0  501  0.00000000000E+00  0.00000000000E+00  0.10866106565E+04  0.10866106565E+04  0.25500000920E-02 0. -1.
        2   -1    0    0  501    0  0.00000000000E+00  0.00000000000E+00 -0.19057364154E+04  0.19057364154E+04  0.25500000920E-02 0.  1.
    10030    2    1    2    0    0  0.00000000000E+00  0.00000000000E+00 -0.81912575890E+03  0.29923470719E+04  0.28780503800E+04 0.  0.
        1    1    3    3  502    0 -0.12975589426E+04 -0.58358808770E+03 -0.18521783766E+03  0.14347612739E+04  0.50400001928E-02 0. -1.
       -1    1    3    3    0  502  0.12975589426E+04  0.58358808770E+03 -0.63390792124E+03  0.15575857980E+04  0.50400001928E-02 0.  1.
</event>
<event>
 5   0  0.2304435E-06  0.2887192E+04  0.7818609E-02  0.8276698E-01
       -2   -1    0    0    0  501  0.00000000000E+00  0.00000000000E+00  0.13092918198E+04  0.13092918198E+04  0.25500000920E-02 0.  1.
        2   -1    0    0  501    0  0.00000000000E+00  0.00000000000E+00 -0.15916769924E+04  0.15916769924E+04  0.25500000920E-02 0. -1.
    10030    2    1    2    0    0  0.00000000000E+00  0.00000000000E+00 -0.28238517254E+03  0.29009688122E+04  0.28871921764E+04 0.  0.
        1    1    3    3  502    0  0.92614704762E+03 -0.16491066706E+03 -0.12414178895E+04  0.15575821835E+04  0.50400001928E-02 0. -1.
       -1    1    3    3    0  502 -0.92614704762E+03  0.16491066706E+03  0.95903271697E+03  0.13433866287E+04  0.50400001928E-02 0.  1.
</event>
<event>
 5   0  0.2325590E-06  0.2916888E+04  0.7818609E-02  0.8267870E-01
        2   -1    0    0  501    0  0.00000000000E+00  0.00000000000E+00  0.17384547833E+04  0.17384547833E+04  0.25500000920E-02 0.  1.
       -2   -1    0    0    0  501  0.00000000000E+00  0.00000000000E+00 -0.12235345612E+04  0.12235345612E+04  0.25500000920E-02 0. -1.
    10030    2    1    2    0    0  0.00000000000E+00  0.00000000000E+00  0.51492022210E+03  0.29619893445E+04  0.29168884178E+04 0.  0.
        5    1    3    3  502    0 -0.11466333248E+04 -0.87360519274E+03  0.48243343343E+03  0.15201046418E+04  0.46999998093E+01 0.  1.
       -5    1    3    3    0  502  0.11466333248E+04  0.87360519274E+03  0.32486788661E+02  0.14418847027E+04  0.46999998093E+01 0. -1.
</event>
<event>
 5   0  0.2378690E-06  0.2891432E+04  0.7818609E-02  0.8275431E-01
       -2   -1    0    0    0  501  0.00000000000E+00  0.00000000000E+00  0.27804006149E+04  0.27804006149E+04  0.25500000920E-02 0. -1.
        2   -1    0    0  501    0  0.00000000000E+00  0.00000000000E+00 -0.75172414017E+03  0.75172414017E+03  0.25500000920E-02 0.  1.
    10030    2    1    2    0    0  0.00000000000E+00  0.00000000000E+00  0.20286764747E+04  0.35321247550E+04  0.28914316603E+04 0.  0.
        3    1    3    3  502    0 -0.44593069219E+03  0.94176103818E+03 -0.20988467112E+03  0.10629297346E+04  0.10100000352E+00 0.  1.
       -3    1    3    3    0  502  0.44593069219E+03 -0.94176103818E+03  0.22385611458E+04  0.24691950205E+04  0.10100000352E+00 0. -1.
</event>
<event>
 5   0  0.8355946E-07  0.2884368E+04  0.7818609E-02  0.8277544E-01
        1   -1    0    0  501    0  0.00000000000E+00  0.00000000000E+00  0.17203781919E+04  0.17203781919E+04  0.50400001928E-02 0.  1.
       -1   -1    0    0    0  501  0.00000000000E+00  0.00000000000E+00 -0.12089749656E+04  0.12089749656E+04  0.50400001928E-02 0. -1.
    10030    2    1    2    0    0  0.00000000000E+00  0.00000000000E+00  0.51140322624E+03  0.29293531575E+04  0.28843676364E+04 0.  0.
        4    1    3    3  502    0  0.30115288898E+03 -0.33893309544E+03 -0.11347101521E+04  0.12219400345E+04  0.12699999809E+01 0. -1.
       -4    1    3    3    0  502 -0.30115288898E+03  0.33893309544E+03  0.16461133783E+04  0.17074131231E+04  0.12699999809E+01 0.  1.
</event>
<event>
 5   0  0.8947674E-07  0.2902732E+04  0.7818609E-02  0.8272065E-01
        1   -1    0    0  501    0  0.00000000000E+00  0.00000000000E+00  0.17310819310E+04  0.17310819310E+04  0.50400001928E-02 0.  1.
       -1   -1    0    0    0  501  0.00000000000E+00  0.00000000000E+00 -0.12168479003E+04  0.12168479003E+04  0.50400001928E-02 0. -1.
    10030    2    1    2    0    0  0.00000000000E+00  0.00000000000E+00  0.51423403069E+03  0.29479298313E+04  0.29027321013E+04 0.  0.
        3    1    3    3  502    0 -0.10001229535E+04  0.51694524145E+03  0.11873405214E+04  0.16362322050E+04  0.10100000352E+00 0.  1.
       -3    1    3    3    0  502  0.10001229535E+04 -0.51694524145E+03 -0.67310649072E+03  0.13116976263E+04  0.10100000352E+00 0. -1.
</event>
<event>
 5   0  0.8483636E-07  0.2894921E+04  0.7818609E-02  0.8274390E-01
       -1   -1    0    0    0  501  0.00000000000E+00  0.00000000000E+00  0.16409000257E+04  0.16409000257E+04  0.50400001928E-02 0.  1.
        1   -1    0    0  501    0  0.00000000000E+00  0.00000000000E+00 -0.12768244451E+04  0.12768244452E+04  0.50400001928E-02 0. -1.
    10030    2    1    2    0    0  0.00000000000E+00  0.00000000000E+00  0.36407558053E+03  0.29177244708E+04  0.28949205619E+04 0.  0.
        2    1    3    3  502    0  0.12872247692E+04 -0.22474104438E+03  0.80958614291E+03  0.15371681321E+04  0.25500000920E-02 0.  1.
       -2    1    3    3    0  502 -0.12872247692E+04  0.22474104438E+03 -0.44551056237E+03  0.13805563388E+04  0.25500000920E-02 0. -1.
</event>
<event>
 5   0  0.8357118E-07  0.2901566E+04  0.7818609E-02  0.8272412E-01
       -1   -1    0    0    0  501  0.00000000000E+00  0.00000000000E+00  0.12362643003E+04  0.12362643003E+04  0.50400001928E-02 0.  1.
        1   -1    0    0  501    0  0.00000000000E+00  0.00000000000E+00 -0.17025248372E+04  0.17025248373E+04  0.50400001928E-02 0. -1.
    10030    2    1    2    0    0  0.00000000000E+00  0.00000000000E+00 -0.46626053697E+03  0.29387891375E+04  0.29015655613E+04 0.  0.
        1    1    3    3  502    0  0.82058952406E+03 -0.38424173178E+03 -0.13806978272E+04  0.16514646123E+04  0.50400001928E-02 0. -1.
       -1    1    3    3    0  502 -0.82058952406E+03  0.38424173178E+03  0.91443729027E+03  0.12873245252E+04  0.50400001928E-02 0.  1.
</event>
<event>
 5   0  0.2304435E-06  0.2895285E+04  0.7818609E-02  0.8274282E-01
       -2   -1    0    0    0  501  0.00000000000E+00  0.00000000000E+00  0.16112263726E+04  0.16112263726E+04  0.25500000920E-02 0. -1.
        2   -1    0    0  501    0  0.00000000000E+00  0.00000000000E+00 -0.13006671157E+04  0.13006671157E+04  0.25500000920E-02 0.  1.
    10030    2    1    2    0    0  0.00000000000E+00  0.00000000000E+00  0.31055925686E+03  0.29118934882E+04  0.28952852424E+04 0.  0.
        1    1    3    3  502    0  0.73127241533E+03 -0.12261538338E+04 -0.85796411566E+02  0.14302355029E+04  0.50400001928E-02 0.  1.
       -1    1    3    3    0  502 -0.73127241533E+03  0.12261538338E+04  0.39635566842E+03  0.14816579853E+04  0.50400001928E-02 0. -1.
</event>
<event>
 5   0  0.8947674E-07  0.2902385E+04  0.7818609E-02  0.8272168E-01
        1   -1    0    0  501    0  0.00000000000E+00  0.00000000000E+00  0.24084547012E+04  0.24084547012E+04  0.50400001928E-02 0. -1.
       -1   -1    0    0    0  501  0.00000000000E+00  0.00000000000E+00 -0.87440302596E+03  0.87440302598E+03  0.50400001928E-02 0.  1.
    10030    2    1    2    0    0  0.00000000000E+00  0.00000000000E+00  0.15340516753E+04  0.32828577272E+04  0.29023852802E+04 0.  0.
        3    1    3    3  502    0 -0.90853111993E+03  0.42669078447E+03  0.19524952622E+04  0.21953887083E+04  0.10100000352E+00 0. -1.
       -3    1    3    3    0  502  0.90853111993E+03 -0.42669078447E+03 -0.41844358694E+03  0.10874690189E+04  0.10100000352E+00 0.  1.
</event>
<event>
 5   0  0.2425845E-06  0.2902696E+04  0.7818609E-02  0.8272076E-01
        2   -1    0    0  501    0  0.00000000000E+00  0.00000000000E+00  0.26136079402E+04  0.26136079402E+04  0.25500000920E-02 0. -1.
       -2   -1    0    0    0  501  0.00000000000E+00  0.00000000000E+00 -0.80593990977E+03  0.80593990977E+03  0.25500000920E-02 0.  1.
    10030    2    1    2    0    0  0.00000000000E+00  0.00000000000E+00  0.18076680304E+04  0.34195478500E+04  0.29026959520E+04 0.  0.
        2    1    3    3  502    0 -0.56995779011E+03 -0.41141840714E+03 -0.59202013721E+03  0.91902384686E+03  0.25500000920E-02 0.  1.
       -2    1    3    3    0  502  0.56995779011E+03  0.41141840714E+03  0.23996881676E+04  0.25005240031E+04  0.25500000920E-02 0. -1.
</event>
<event>
 5   0  0.8263673E-07  0.2892547E+04  0.7818609E-02  0.8275098E-01
       -1   -1    0    0    0  501  0.00000000000E+00  0.00000000000E+00  0.67411478711E+03  0.67411478713E+03  0.50400001928E-02 0. -1.
        1   -1    0    0  501    0  0.00000000000E+00  0.00000000000E+00 -0.31028938875E+04  0.31028938875E+04  0.50400001928E-02 0.  1.
    10030    2    1    2    0    0  0.00000000000E+00  0.00000000000E+00 -0.24287791003E+04  0.37770086746E+04  0.28925467342E+04 0.  0.
        5    1    3    3  502    0 -0.56326788781E+03  0.13298881267E+04 -0.11148470123E+04  0.18244942022E+04  0.46999998093E+01 0.  1.
       -5    1    3    3    0  502  0.56326788781E+03 -0.13298881267E+04 -0.13139320880E+04  0.19525144724E+04  0.46999998093E+01 0. -1.
</event>
<event>
 5   0  0.2360103E-06  0.2900873E+04  0.7818609E-02  0.8272618E-01
       -2   -1    0    0    0  501  0.00000000000E+00  0.00000000000E+00  0.99070270854E+03  0.99070270854E+03  0.25500000920E-02 0. -1.
        2   -1    0    0  501    0  0.00000000000E+00  0.00000000000E+00 -0.21235089551E+04  0.21235089551E+04  0.25500000920E-02 0.  1.
    10030    2    1    2    0    0  0.00000000000E+00  0.00000000000E+00 -0.11328062465E+04  0.31142116636E+04  0.29008730227E+04 0.  0.
        4    1    3    3  502    0  0.41470579606E+03  0.43967031444E+03  0.84907595609E+03  0.10422199743E+04  0.12699999809E+01 0. -1.
       -4    1    3    3    0  502 -0.41470579606E+03 -0.43967031444E+03 -0.19818822026E+04  0.20719916893E+04  0.12699999809E+01 0.  1.
</event>
<event>
 5   0  0.2304435E-06  0.2889395E+04  0.7818609E-02  0.8276040E-01
        2   -1    0    0  501    0  0.00000000000E+00  0.00000000000E+00  0.16506884368E+04  0.16506884368E+04  0.25500000920E-02 0.  1.
       -2   -1    0    0    0  501  0.00000000000E+00  0.00000000000E+00 -0.12644125972E+04  0.12644125972E+04  0.25500000920E-02 0. -1.
    10030    2    1    2    0    0  0.00000000000E+00  0.00000000000E+00  0.38627583959E+03  0.29151010340E+04  0.28893952679E+04 0.  0.
        1    1    3    3  502    0 -0.32824550368E+01 -0.95330136044E+03 -0.90204105202E+03  0.13124299288E+04  0.50400001928E-02 0. -1.
       -1    1    3    3    0  502  0.32824550368E+01  0.95330136044E+03  0.12883168916E+04  0.16026711052E+04  0.50400001928E-02 0.  1.
</event>
<event>
 5   0  0.2378690E-06  0.2906123E+04  0.7818609E-02  0.8271058E-01
       -2   -1    0    0    0  501  0.00000000000E+00  0.00000000000E+00  0.99359506976E+03  0.99359506977E+03  0.25500000920E-02 0.  1.
        2   -1    0    0  501    0  0.00000000000E+00  0.00000000000E+00 -0.21249984638E+04  0.21249984638E+04  0.25500000920E-02 0. -1.
    10030    2    1    2    0    0  0.00000000000E+00  0.00000000000E+00 -0.11314033940E+04  0.31185935335E+04  0.29061231886E+04 0.  0.
        3    1    3    3  502    0 -0.37137521202E+03 -0.13041916511E+04 -0.11259362613E+04  0.17625458535E+04  0.10100000352E+00 0. -1.
       -3    1    3    3    0  502  0.37137521202E+03  0.13041916511E+04 -0.54671326764E+01  0.13560476801E+04  0.10100000352E+00 0.  1.
</event>
<event>
 5   0  0.8355946E-07  0.2915563E+04  0.7818609E-02  0.8268262E-01
        1   -1    0    0  501    0  0.00000000000E+00  0.00000000000E+00  0.20046793198E+04  0.20046793198E+04  0.50400001928E-02 0.  1.
       -1   -1    0    0    0  501  0.00000000000E+00  0.00000000000E+00 -0.10600834034E+04  0.10600834035E+04  0.50400001928E-02 0. -1.
    10030    2    1    2    0    0  0.00000000000E+00  0.00000000000E+00  0.94459591637E+03  0.30647627233E+04  0.29155632569E+04 0.  0.
        4    1    3    3  502    0 -0.77837213152E+03 -0.11819112939E+04  0.10461529932E+03  0.14190572418E+04  0.12699999809E+01 0. -1.
       -4    1    3    3    0  502  0.77837213152E+03  0.11819112939E+04  0.83998061704E+03  0.16457054815E+04  0.12699999809E+01 0.  1.
</event>
<event>
 5   0  0.2360103E-06  0.2893716E+04  0.7818609E-02  0.8274750E-01
       -2   -1    0    0    0  501  0.00000000000E+00  0.00000000000E+00  0.11934087210E+04  0.11934087210E+04  0.25500000920E-02 0. -1.
        2   -1    0    0  501    0  0.00000000000E+00  0.00000000000E+00 -0.17541336399E+04  0.17541336399E+04  0.25500000920E-02 0.  1.
    10030    2    1    2    0    0  0.00000000000E+00  0.00000000000E+00 -0.56072491890E+03  0.29475423608E+04  0.28937162152E+04 0.  0.
        4    1    3    3  502    0 -0.26945236585E+03  0.92157435776E+03  0.82212573358E+03  0.12640396390E+04  0.12699999809E+01 0. -1.
       -4    1    3    3    0  502  0.26945236585E+03 -0.92157435776E+03 -0.13828506525E+04  0.16835027218E+04  0.12699999809E+01 0.  1.
</event>
<event>
 5   0  0.2360103E-06  0.2852384E+04  0.7818609E-02  0.8287187E-01
       -2   -1    0    0    0  501  0.00000000000E+00  0.00000000000E+00  0.23392984639E+04  0.23392984639E+04  0.25500000920E-02 0.  1.
        2   -1    0    0  501    0  0.00000000000E+00  0.00000000000E+00 -0.86950146759E+03  0.86950146759E+03  0.25500000920E-02 0. -1.
    10030    2    1    2    0    0  0.00000000000E+00  0.00000000000E+00  0.14697969963E+04  0.32087999315E+04  0.28523838785E+04 0.  0.
        4    1    3    3  502    0  0.12678845418E+04 -0.48958837650E+03  0.24869738666E+03  0.13816946091E+04  0.12699999809E+01 0. -1.
       -4    1    3    3    0  502 -0.12678845418E+04  0.48958837650E+03  0.12210996097E+04  0.18271053225E+04  0.12699999809E+01 0.  1.
</event>
<event>
 5   0  0.8483636E-07  0.2910924E+04  0.7818609E-02  0.8269635E-01
        1   -1    0    0  501    0  0.00000000000E+00  0.00000000000E+00  0.24722849901E+04  0.24722849901E+04  0.50400001928E-02 0.  1.
       -1   -1    0    0    0  501  0.00000000000E+00  0.00000000000E+00 -0.85684674154E+03  0.85684674155E+03  0.50400001928E-02 0. -1.
    10030    2    1    2    0    0  0.00000000000E+00  0.00000000000E+00  0.16154382486E+04  0.33291317317E+04  0.29109237970E+04 0.  0.
        2    1    3    3  502    0  0.92025607487E+03 -0.11272403621E+04  0.84061347759E+03  0.16805276243E+04  0.25500000920E-02 0. -1.
       -2    1    3    3    0  502 -0.92025607487E+03  0.11272403621E+04  0.77482477097E+03  0.16486041074E+04  0.25500000920E-02 0.  1.
</event>
<event>
 5   0  0.2304435E-06  0.2904164E+04  0.7818609E-02  0.8271640E-01
        2   -1    0    0  501    0  0.00000000000E+00  0.00000000000E+00  0.22235908224E+04  0.22235908224E+04  0.25500000920E-02 0.  1.
       -2   -1    0    0    0  501  0.00000000000E+00  0.00000000000E+00 -0.94826002828E+03  0.94826002828E+03  0.25500000920E-02 0. -1.
    10030    2    1    2    0    0  0.00000000000E+00  0.00000000000E+00  0.12753307941E+04  0.31718508507E+04  0.29041641112E+04 0.  0.
        1    1    3    3  502    0 -0.68548416403E+03  0.67074839332E+02 -0.75850424270E+03  0.10245566160E+04  0.50400001928E-02 0. -1.
       -1    1    3    3    0  502  0.68548416403E+03 -0.67074839332E+02  0.20338350368E+04  0.21472942347E+04  0.50400001928E-02 0.  1.
</event>
<event>
 5   0  0.8263673E-07  0.2900415E+04  0.7818609E-02  0.8272754E-01
       -1   -1    0    0    0  501  0.00000000000E+00  0.00000000000E+00  0.78860058889E+03  0.78860058891E+03  0.50400001928E-02 0.  1.
        1   -1    0    0  501    0  0.00000000000E+00  0.00000000000E+00 -0.26668783292E+04  0.26668783293E+04  0.50400001928E-02 0. -1.
    10030    2    1    2    0    0  0.00000000000E+00  0.00000000000E+00 -0.18782777404E+04  0.34554789182E+04  0.29004150193E+04 0.  0.
        5    1    3    3  502    0 -0.74959579274E+03  0.11437288323E+04 -0.36397511440E+03  0.14151005152E+04  0.46999998093E+01 0.  1.
       -5    1    3    3    0  502  0.74959579274E+03 -0.11437288323E+04 -0.15143026260E+04  0.20403784030E+04  0.46999998093E+01 0. -1.
</event>
<event>
 5   0  0.8263673E-07  0.2903399E+04  0.7818609E-02  0.8271867E-01
       -1   -1    0    0    0  501  0.00000000000E+00  0.00000000000E+00  0.11560443489E+04  0.11560443489E+04  0.50400001928E-02 0.  1.
        1   -1    0    0  501    0  0.00000000000E+00  0.00000000000E+00 -0.18229679045E+04  0.18229679045E+04  0.50400001928E-02 0. -1.
    10030    2    1    2    0    0  0.00000000000E+00  0.00000000000E+00 -0.66692355562E+03  0.29790122534E+04  0.29033992107E+04 0.  0.
        5    1    3    3  502    0  0.12165944164E+03  0.14294319141E+04 -0.10556695318E+03  0.14384863880E+04  0.46999998093E+01 0. -1.
       -5    1    3    3    0  502 -0.12165944164E+03 -0.14294319141E+04 -0.56135660244E+03  0.15405258654E+04  0.46999998093E+01 0.  1.
</event>
<event>
 5   0  0.8263673E-07  0.2900604E+04  0.7818609E-02  0.8272698E-01
       -1   -1    0    0    0  501  0.00000000000E+00  0.00000000000E+00  0.10185609687E+04  0.10185609688E+04  0.50400001928E-02 0.  1.
        1   -1    0    0  501    0  0.00000000000E+00  0.00000000000E+00 -0.20650460890E+04  0.20650460890E+04  0.50400001928E-02 0. -1.
    10030    2    1    2    0    0  0.00000000000E+00  0.00000000000E+00 -0.10464851202E+04  0.30836070578E+04  0.29006036234E+04 0.  0.
        5    1    3    3  502    0 -0.57284590620E+03  0.12538286269E+04 -0.10023591552E+04  0.17044015442E+04  0.46999998093E+01 0.  1.
       -5    1    3    3    0  502  0.57284590620E+03 -0.12538286269E+04 -0.44125965002E+02  0.13792055135E+04  0.46999998093E+01 0. -1.
</event>
<event>
 5   0  0.8483636E-07  0.2879493E+04  0.7818609E-02  0.8279005E-01
        1   -1    0    0  501    0  0.00000000000E+00  0.00000000000E+00  0.16801117692E+04  0.16801117692E+04  0.50400001928E-02 0. -1.
       -1   -1    0    0    0  501  0.00000000000E+00  0.00000000000E+00 -0.12337688552E+04  0.12337688552E+04  0.50400001928E-02 0.  1.
    10030    2    1    2    0    0  0.00000000000E+00  0.00000000000E+00  0.44634291398E+03  0.29138806244E+04  0.28794927151E+04 0.  0.
        2    1    3    3  502    0  0.11788605954E+04 -0.71824427544E+03  0.63705764890E+03  0.15203386434E+04  0.25500000920E-02 0. -1.
       -2    1    3    3    0  502 -0.11788605954E+04  0.71824427544E+03 -0.19071473493E+03  0.13935419810E+04  0.25500000920E-02 0.  1.
</event>
<event>
 5   0  0.2378690E-06  0.2891680E+04  0.7818609E-02  0.8275357E-01
       -2   -1    0    0    0  501  0.00000000000E+00  0.00000000000E+00  0.11035891529E+04  0.11035891529E+04  0.25500000920E-02 0. -1.
        2   -1    0    0  501    0  0.00000000000E+00  0.00000000000E+00 -0.18942316006E+04  0.18942316007E+04  0.25500000920E-02 0.  1.
    10030    2    1    2    0    0  0.00000000000E+00  0.00000000000E+00 -0.79064244778E+03  0.29978207535E+04  0.28916800981E+04 0.  0.
        3    1    3    3  502    0  0.35099572724E+03 -0.13624124722E+02 -0.18493242268E+04  0.18823877718E+04  0.10100000352E+00 0.  1.
       -3    1    3    3    0  502 -0.35099572724E+03  0.13624124722E+02  0.10586817790E+04  0.11154329817E+04  0.10100000352E+00 0. -1.
</event>
<event>
 5   0  0.2325590E-06  0.2892015E+04  0.7818609E-02  0.8275257E-01
        2   -1    0    0  501    0  0.00000000000E+00  0.00000000000E+00  0.14580102703E+04  0.14580102703E+04  0.25500000920E-02 0.  1.
       -2   -1    0    0    0  501  0.00000000000E+00  0.00000000000E+00 -0.14341033940E+04  0.14341033940E+04  0.25500000920E-02 0. -1.
    10030    2    1    2    0    0  0.00000000000E+00  0.00000000000E+00  0.23906876258E+02  0.28921136643E+04  0.28920148527E+04 0.  0.
        5    1    3    3  502    0  0.48617491853E+03  0.10936924256E+04  0.82339117749E+03  0.14527643630E+04  0.46999998093E+01 0.  1.
       -5    1    3    3    0  502 -0.48617491853E+03 -0.10936924256E+04 -0.79948430123E+03  0.14393493013E+04  0.46999998093E+01 0. -1.
</event>
<event>
 5   0  0.2425845E-06  0.2901914E+04  0.7818609E-02  0.8272308E-01
        2   -1    0    0  501    0  0.00000000000E+00  0.00000000000E+00  0.21958333433E+04  0.21958333433E+04  0.25500000920E-02 0. -1.
       -2   -1    0    0    0  501  0.00000000000E+00  0.00000000000E+00 -0.95875987969E+03  0.95875987969E+03  0.25500000920E-02 0.  1.
    10030    2    1    2    0    0  0.00000000000E+00  0.00000000000E+00  0.12370734636E+04  0.31545932230E+04  0.29019144798E+04 0.  0.
        2    1    3    3  502    0  0.91961332803E+03  0.86112355796E+03 -0.16389501536E+03  0.12704660685E+04  0.25500000920E-02 0.  1.
       -2    1    3    3    0  502 -0.91961332803E+03 -0.86112355796E+03  0.14009684790E+04  0.18841271545E+04  0.25500000920E-02 0. -1.
</event>
<event>
 5   0  0.8355946E-07  0.2875408E+04  0.7818609E-02  0.8280232E-01
       -1   -1    0    0    0  501  0.00000000000E+00  0.00000000000E+00  0.12174946544E+04  0.12174946544E+04  0.50400001928E-02 0.  1.
        1   -1    0    0  501    0  0.00000000000E+00  0.00000000000E+00 -0.16977431928E+04  0.16977431928E+04  0.50400001928E-02 0. -1.
    10030    2    1    2    0    0  0.00000000000E+00  0.00000000000E+00 -0.48024853834E+03  0.29152378472E+04  0.28754083271E+04 0.  0.
        4    1    3    3  502    0  0.39536352364E+03 -0.32564971888E+03 -0.16020980453E+04  0.16819868653E+04  0.12699999809E+01 0. -1.
       -4    1    3    3    0  502 -0.39536352364E+03  0.32564971888E+03  0.11218495070E+04  0.12332509819E+04  0.12699999809E+01 0.  1.
</event>
<event>
 5   0  0.2304435E-06  0.2939036E+04  0.7818609E-02  0.8261357E-01
        2   -1    0    0  501    0  0.00000000000E+00  0.00000000000E+00  0.15747948247E+04  0.15747948247E+04  0.25500000920E-02 0.  1.
       -2   -1    0    0    0  501  0.00000000000E+00  0.00000000000E+00 -0.13712788803E+04  0.13712788803E+04  0.25500000920E-02 0. -1.
    10030    2    1    2    0    0  0.00000000000E+00  0.00000000000E+00  0.20351594439E+03  0.29460737050E+04  0.29390358174E+04 0.  0.
        1    1    3    3  502    0  0.37364074584E+03 -0.25610785877E+03 -0.12995467778E+04  0.13762341625E+04  0.50400001928E-02 0. -1.
       -1    1    3    3    0  502 -0.37364074584E+03  0.25610785877E+03  0.15030627222E+04  0.15698395425E+04  0.50400001928E-02 0.  1.
</event>
<event>
 5   0  0.8483636E-07  0.2895008E+04  0.7818609E-02  0.8274364E-01
        1   -1    0    0  501    0  0.00000000000E+00  0.00000000000E+00  0.20497682123E+04  0.20497682123E+04  0.50400001928E-02 0.  1.
       -1   -1    0    0    0  501  0.00000000000E+00  0.00000000000E+00 -0.10221971588E+04  0.10221971588E+04  0.50400001928E-02 0. -1.
    10030    2    1    2    0    0  0.00000000000E+00  0.00000000000E+00  0.10275710535E+04  0.30719653711E+04  0.28950075943E+04 0.  0.
        2    1    3    3  502    0  0.30290148614E+03  0.13845730668E+04  0.82582733486E+03  0.16403605319E+04  0.25500000920E-02 0.  1.
       -2    1    3    3    0  502 -0.30290148614E+03 -0.13845730668E+04  0.20174371867E+03  0.14316048392E+04  0.25500000920E-02 0. -1.
</event>
<event>
 5   0  0.8357118E-07  0.2876556E+04  0.7818609E-02  0.8279887E-01
       -1   -1    0    0    0  501  0.00000000000E+00  0.00000000000E+00  0.14138996230E+04  0.14138996230E+04  0.50400001928E-02 0.  1.
        1   -1    0    0  501    0  0.00000000000E+00  0.00000000000E+00 -0.14630771446E+04  0.14630771446E+04  0.50400001928E-02 0. -1.
    10030    2    1    2    0    0  0.00000000000E+00  0.00000000000E+00 -0.49177521551E+02  0.28769767676E+04  0.28765564296E+04 0.  0.
        1    1    3    3  502    0 -0.49304620216E+03 -0.13290768219E+04  0.21856086780E+03  0.14343321125E+04  0.50400001928E-02 0.  1.
       -1    1    3    3    0  502  0.49304620216E+03  0.13290768219E+04 -0.26773838935E+03  0.14426446552E+04  0.50400001928E-02 0. -1.
</event>
<event>
 5   0  0.8947674E-07  0.2905256E+04  0.7818609E-02  0.8271315E-01
       -1   -1    0    0    0  501  0.00000000000E+00  0.00000000000E+00  0.12909515840E+04  0.12909515840E+04  0.50400001928E-02 0.  1.
        1   -1    0    0  501    0  0.00000000000E+00  0.00000000000E+00 -0.16345521874E+04  0.16345521874E+04  0.50400001928E-02 0. -1.
    10030    2    1    2    0    0  0.00000000000E+00  0.00000000000E+00 -0.34360060340E+03  0.29255037715E+04  0.29052557447E+04 0.  0.
        3    1    3    3  502    0  0.41688113915E+02 -0.14437158418E+04 -0.32804093144E+03  0.14811023576E+04  0.10100000352E+00 0. -1.
       -3    1    3    3    0  502 -0.41688113915E+02  0.14437158418E+04 -0.15559671959E+02  0.14444014139E+04  0.10100000352E+00 0.  1.
</event>
<event>
 5   0  0.8483636E-07  0.2916909E+04  0.7818609E-02  0.8267864E-01
        1   -1    0    0  501    0  0.00000000000E+00  0.00000000000E+00  0.10275907039E+04  0.10275907039E+04  0.50400001928E-02 0. -1.
       -1   -1    0    0    0  501  0.00000000000E+00  0.00000000000E+00 -0.20699771247E+04  0.20699771247E+04  0.50400001928E-02 0.  1.
    10030    2    1    2    0    0  0.00000000000E+00  0.00000000000E+00 -0.10423864208E+04  0.30975678285E+04  0.29169088094E+04 0.  0.
        2    1    3    3  502    0  0.12257455297E+04 -0.28689628367E+03  0.26084658650E+03  0.12856136756E+04  0.25500000920E-02 0. -1.
       -2    1    3    3    0  502 -0.12257455297E+04  0.28689628367E+03 -0.13032330073E+04  0.18119541530E+04  0.25500000920E-02 0.  1.
</event>
<event>
 5   0  0.8947674E-07  0.2890817E+04  0.7818609E-02  0.8275615E-01
        1   -1    0    0  501    0  0.00000000000E+00  0.00000000000E+00  0.13147460639E+04  0.13147460639E+04  0.50400001928E-02 0. -1.
       -1   -1    0    0    0  501  0.00000000000E+00  0.00000000000E+00 -0.15890567497E+04  0.15890567497E+04  0.50400001928E-02 0.  1.
    10030    2    1    2    0    0  0.00000000000E+00  0.00000000000E+00 -0.27431068578E+03  0.29038028136E+04  0.28908172595E+04 0.  0.
        3    1    3    3  502    0 -0.43090281250E+03  0.40261387302E+03  0.11884053272E+04  0.13266809701E+04  0.10100000352E+00 0. -1.
       -3    1    3    3    0  502  0.43090281250E+03 -0.40261387302E+03 -0.14627160130E+04  0.15771218435E+04  0.10100000352E+00 0.  1.
</event>
<event>
 5   0  0.8357118E-07  0.2886061E+04  0.7818609E-02  0.8277037E-01
       -1   -1    0    0    0  501  0.00000000000E+00  0.00000000000E+00  0.15648154937E+04  0.15648154937E+04  0.50400001928E-02 0. -1.
        1   -1    0    0  501    0  0.00000000000E+00  0.00000000000E+00 -0.13307237903E+04  0.13307237903E+04  0.50400001928E-02 0.  1.
    10030    2    1    2    0    0  0.00000000000E+00  0.00000000000E+00  0.23409170343E+03  0.28955392840E+04  0.28860611254E+04 0.  0.
        1    1    3    3  502    0 -0.40688269202E+03 -0.11758715365E+04 -0.61618243936E+03  0.13884913374E+04  0.50400001928E-02 0.  1.
       -1    1    3    3    0  502  0.40688269202E+03  0.11758715365E+04  0.85027414279E+03  0.15070479466E+04  0.50400001928E-02 0. -1.
</event>
<event>
 5   0  0.8483636E-07  0.2903652E+04  0.7818609E-02  0.8271792E-01
        1   -1    0    0  501    0  0.00000000000E+00  0.00000000000E+00  0.16210363247E+04  0.16210363247E+04  0.50400001928E-02 0. -1.
       -1   -1    0    0    0  501  0.00000000000E+00  0.00000000000E+00 -0.13002784885E+04  0.13002784885E+04  0.50400001928E-02 0.  1.
    10030    2    1    2    0    0  0.00000000000E+00  0.00000000000E+00  0.32075783617E+03  0.29213148132E+04  0.29036519502E+04 0.  0.
        2    1    3    3  502    0 -0.31134504027E+03  0.40999897126E+03 -0.12053629890E+04  0.13107001281E+04  0.25500000920E-02 0.  1.
       -2    1    3    3    0  502  0.31134504027E+03 -0.40999897126E+03  0.15261208252E+04  0.16106146850E+04  0.25500000920E-02 0. -1.
</event>
<event>
 5   0  0.2425845E-06  0.2885804E+04  0.7818609E-02  0.8277114E-01
        2   -1    0    0  501    0  0.00000000000E+00  0.00000000000E+00  0.15591499300E+04  0.15591499301E+04  0.25500000920E-02 0.  1.
       -2   -1    0    0    0  501  0.00000000000E+00  0.00000000000E+00 -0.13353210150E+04  0.13353210150E+04  0.25500000920E-02 0. -1.
    10030    2    1    2    0    0  0.00000000000E+00  0.00000000000E+00  0.22382891508E+03  0.28944709450E+04  0.28858036434E+04 0.  0.
        2    1    3    3  502    0  0.42001622666E+03  0.13624238346E+02 -0.12725814302E+04  0.13401726557E+04  0.25500000920E-02 0. -1.
       -2    1    3    3    0  502 -0.42001622666E+03 -0.13624238346E+02  0.14964103453E+04  0.15542982893E+04  0.25500000920E-02 0.  1.
</event>
<event>
 5   0  0.8483636E-07  0.2901646E+04  0.7818609E-02  0.8272388E-01
       -1   -1    0    0    0  501  0.00000000000E+00  0.00000000000E+00  0.88468318385E+03  0.88468318387E+03  0.50400001928E-02 0. -1.
        1   -1    0    0  501    0  0.00000000000E+00  0.00000000000E+00 -0.23792551644E+04  0.23792551644E+04  0.50400001928E-02 0.  1.
    10030    2    1    2    0    0  0.00000000000E+00  0.00000000000E+00 -0.14945719805E+04  0.32639383482E+04  0.29016457634E+04 0.  0.
        2    1    3    3  502    0 -0.12539924526E+04  0.39132692449E+03 -0.54558883145E+02  0.13147663308E+04  0.25500000920E-02 0. -1.
       -2    1    3    3    0  502  0.12539924526E+04 -0.39132692449E+03 -0.14400130974E+04  0.19491720174E+04  0.25500000920E-02 0.  1.
</event>
<event>
 5   0  0.8263673E-07  0.2907287E+04  0.7818609E-02  0.8270713E-01
        1   -1    0    0  501    0  0.00000000000E+00  0.00000000000E+00  0.16063674856E+04  0.16063674856E+04  0.50400001928E-02 0.  1.
       -1   -1    0    0    0  501  0.00000000000E+00  0.00000000000E+00 -0.13154396759E+04  0.13154396759E+04  0.50400001928E-02 0. -1.
    10030    2    1    2    0    0  0.00000000000E+00  0.00000000000E+00  0.29092780962E+03  0.29218071615E+04  0.29072870685E+04 0.  0.
        5    1    3    3  502    0 -0.52708613836E+03 -0.12090252141E+04 -0.46873129480E+03  0.13997474352E+04  0.46999998093E+01 0. -1.
       -5    1    3    3    0  502  0.52708613836E+03  0.12090252141E+04  0.75965910442E+03  0.15220597263E+04  0.46999998093E+01 0.  1.
</event>
<event>
 5   0  0.2378690E-06  0.2900098E+04  0.7818609E-02  0.8272848E-01
       -2   -1    0    0    0  501  0.00000000000E+00  0.00000000000E+00  0.10789610601E+04  0.10789610601E+04  0.25500000920E-02 0. -1.
        2   -1    0    0  501    0  0.00000000000E+00  0.00000000000E+00 -0.19487660574E+04  0.19487660574E+04  0.25500000920E-02 0.  1.
    10030    2    1    2    0    0  0.00000000000E+00  0.00000000000E+00 -0.86980499729E+03  0.30277271176E+04  0.29000984061E+04 0.  0.
        3    1    3    3  502    0  0.25799053223E+03  0.11922367268E+04  0.38359952911E+03  0.12787244176E+04  0.10100000352E+00 0.  1.
       -3    1    3    3    0  502 -0.25799053223E+03 -0.11922367268E+04 -0.12534045264E+04  0.17490026999E+04  0.10100000352E+00 0. -1.
</event>
<event>
 5   0  0.2378690E-06  0.2955041E+04  0.7818609E-02  0.8256687E-01
        2   -1    0    0  501    0  0.00000000000E+00  0.00000000000E+00  0.19354678665E+04  0.19354678665E+04  0.25500000920E-02 0. -1.
       -2   -1    0    0    0  501  0.00000000000E+00  0.00000000000E+00 -0.11279272930E+04  0.11279272930E+04  0.25500000920E-02 0.  1.
    10030    2    1    2    0    0  0.00000000000E+00  0.00000000000E+00  0.80754057347E+03  0.30633951594E+04  0.29550411376E+04 0.  0.
        3    1    3    3  502    0 -0.78255790746E+03 -0.10946682655E+04 -0.22882758403E+03  0.13649386666E+04  0.10100000352E+00 0.  1.
       -3    1    3    3    0  502  0.78255790746E+03  0.10946682655E+04  0.10363681575E+04  0.16984564929E+04  0.10100000352E+00 0. -1.
</event>
<event>
 5   0  0.2360103E-06  0.2908345E+04  0.7818609E-02  0.8270399E-01
       -2   -1    0    0    0  501  0.00000000000E+00  0.00000000000E+00  0.17354312240E+04  0.17354312240E+04  0.25500000920E-02 0.  1.
        2   -1    0    0  501    0  0.00000000000E+00  0.00000000000E+00 -0.12184966447E+04  0.12184966447E+04  0.25500000920E-02 0. -1.
    10030    2    1    2    0    0  0.00000000000E+00  0.00000000000E+00  0.51693457927E+03  0.29539278687E+04  0.29083446313E+04 0.  0.
        4    1    3    3  502    0 -0.11107475144E+04  0.57272124146E+03 -0.49672238763E+03  0.13448064561E+04  0.12699999809E+01 0. -1.
       -4    1    3    3    0  502  0.11107475144E+04 -0.57272124146E+03  0.10136569669E+04  0.16091214126E+04  0.12699999809E+01 0.  1.
</event>
<event>
 5   0  0.2378690E-06  0.2908149E+04  0.7818609E-02  0.8270457E-01
       -2   -1    0    0    0  501  0.00000000000E+00  0.00000000000E+00  0.95281733250E+03  0.95281733250E+03  0.25500000920E-02 0. -1.
        2   -1    0    0  501    0  0.00000000000E+00  0.00000000000E+00 -0.22190332232E+04  0.22190332232E+04  0.25500000920E-02 0.  1.
    10030    2    1    2    0    0  0.00000000000E+00  0.00000000000E+00 -0.12662158907E+04  0.31718505557E+04  0.29081494573E+04 0.  0.
        3    1    3    3  502    0 -0.47216079722E+03 -0.37818333240E+03 -0.20752673640E+04  0.21616412962E+04  0.10100000352E+00 0.  1.
       -3    1    3    3    0  502  0.47216079722E+03  0.37818333240E+03  0.80905147327E+03  0.10102092595E+04  0.10100000352E+00 0. -1.
</event>
<event>
 5   0  0.2304435E-06  0.2903614E+04  0.7818609E-02  0.8271803E-01
        2   -1    0    0  501    0  0.00000000000E+00  0.00000000000E+00  0.24961759296E+04  0.24961759296E+04  0.25500000920E-02 0.  1.
       -2   -1    0    0    0  501  0.00000000000E+00  0.00000000000E+00 -0.84438899763E+03  0.84438899763E+03  0.25500000920E-02 0. -1.
    10030    2    1    2    0    0  0.00000000000E+00  0.00000000000E+00  0.16517869320E+04  0.33405649272E+04  0.29036139489E+04 0.  0.
        1    1    3    3  502    0  0.11812193518E+03 -0.13596309493E+04  0.13955804538E+04  0.19519718013E+04  0.50400001928E-02 0. -1.
       -1    1    3    3    0  502 -0.11812193518E+03  0.13596309493E+04  0.25620647820E+03  0.13885931260E+04  0.50400001928E-02 0.  1.
</event>
<event>
 5   0  0.2325590E-06  0.2901711E+04  0.7818609E-02  0.8272369E-01
        2   -1    0    0  501    0  0.00000000000E+00  0.00000000000E+00  0.11042029397E+04  0.11042029397E+04  0.25500000920E-02 0. -1.
       -2   -1    0    0    0  501  0.00000000000E+00  0.00000000000E+00 -0.19063357622E+04  0.19063357622E+04  0.25500000920E-02 0.  1.
    10030    2    1    2    0    0  0.00000000000E+00  0.00000000000E+00 -0.80213282250E+03  0.30105387019E+04  0.29017109109E+04 0.  0.
        5    1    3    3  502    0  0.10979369611E+04 -0.65299474771E+03  0.31254660006E+03  0.13151331409E+04  0.46999998093E+01 0. -1.
       -5    1    3    3    0  502 -0.10979369611E+04  0.65299474771E+03 -0.11146794226E+04  0.16954055610E+04  0.46999998093E+01 0.  1.
</event>
<event>
 5   0  0.2325590E-06  0.2895986E+04  0.7818609E-02  0.8274073E-01
        2   -1    0    0  501    0  0.00000000000E+00  0.00000000000E+00  0.12679788710E+04  0.12679788711E+04  0.25500000920E-02 0. -1.
       -2   -1    0    0    0  501  0.00000000000E+00  0.00000000000E+00 -0.16535631113E+04  0.16535631113E+04  0.25500000920E-02 0.  1.
    10030    2    1    2    0    0  0.00000000000E+00  0.00000000000E+00 -0.38558424024E+03  0.29215419823E+04  0.28959855573E+04 0.  0.
        5    1    3    3  502    0 -0.33572621482E+03  0.14008505322E+04 -0.34094411660E+03  0.14803240475E+04  0.46999998093E+01 0. -1.
       -5    1    3    3    0  502  0.33572621482E+03 -0.14008505322E+04 -0.44640123632E+02  0.14412179348E+04  0.46999998093E+01 0.  1.
</event>
<event>
 5   0  0.8263673E-07  0.2919378E+04  0.7818609E-02  0.8267135E-01
        1   -1    0    0  501    0  0.00000000000E+00  0.00000000000E+00  0.12734636648E+04  0.12734636648E+04  0.50400001928E-02 0.  1.
       -1   -1    0    0    0  501  0.00000000000E+00  0.00000000000E+00 -0.16731467917E+04  0.16731467917E+04  0.50400001928E-02 0. -1.
    10030    2    1    2    0    0  0.00000000000E+00  0.00000000000E+00 -0.39968312695E+03  0.29466104565E+04  0.29193777728E+04 0.  0.
        5    1    3    3  502    0 -0.12065208029E+04  0.46707594748E+03  0.48234574641E+03  0.13807722107E+04  0.46999998093E+01 0.  1.
       -5    1    3    3    0  502  0.12065208029E+04 -0.46707594748E+03 -0.88202887336E+03  0.15658382458E+04  0.46999998093E+01 0. -1.
</event>
<event>
 5   0  0.8357118E-07  0.2899505E+04  0.7818609E-02  0.8273025E-01
        1   -1    0    0  501    0  0.00000000000E+00  0.00000000000E+00  0.11588014020E+04  0.11588014021E+04  0.50400001928E-02 0.  1.
       -1   -1    0    0    0  501  0.00000000000E+00  0.00000000000E+00 -0.18137553316E+04  0.18137553316E+04  0.50400001928E-02 0. -1.
    10030    2    1    2    0    0  0.00000000000E+00  0.00000000000E+00 -0.65495392955E+03  0.29725567336E+04  0.28995049379E+04 0.  0.
        1    1    3    3  502    0 -0.11694115269E+04 -0.22510706426E+03  0.52014614277E+03  0.12995185722E+04  0.50400001928E-02 0.  1.
       -1    1    3    3    0  502  0.11694115269E+04  0.22510706426E+03 -0.11751000723E+04  0.16730381614E+04  0.50400001928E-02 0. -1.
</event>
<event>
 5   0  0.8947674E-07  0.2897932E+04  0.7818609E-02  0.8273493E-01
       -1   -1    0    0    0  501  0.00000000000E+00  0.00000000000E+00  0.13543540996E+04  0.13543540996E+04  0.50400001928E-02 0.  1.
        1   -1    0    0  501    0  0.00000000000E+00  0.00000000000E+00 -0.15501871112E+04  0.15501871112E+04  0.50400001928E-02 0. -1.
    10030    2    1    2    0    0  0.00000000000E+00  0.00000000000E+00 -0.19583301166E+03  0.29045412108E+04  0.28979318620E+04 0.  0.
        3    1    3    3  502    0 -0.78624800936E+03  0.68002807595E+03  0.91378057251E+03  0.13840589081E+04  0.10100000352E+00 0.  1.
       -3    1    3    3    0  502  0.78624800936E+03 -0.68002807595E+03 -0.11096135842E+04  0.15204823027E+04  0.10100000352E+00 0. -1.
</event>
<event>
 5   0  0.8357118E-07  0.2914037E+04  0.7818609E-02  0.8268713E-01
       -1   -1    0    0    0  501  0.00000000000E+00  0.00000000000E+00  0.10200252226E+04  0.10200252226E+04  0.50400001928E-02 0. -1.
        1   -1    0    0  501    0  0.00000000000E+00  0.00000000000E+00 -0.20812257647E+04  0.20812257648E+04  0.50400001928E-02 0.  1.
    10030    2    1    2    0    0  0.00000000000E+00  0.00000000000E+00 -0.10612005422E+04  0.31012509873E+04  0.29140369071E+04 0.  0.
        1    1    3    3  502    0 -0.24630350288E+03 -0.12612366802E+04 -0.12613886763E+04  0.18006900821E+04  0.50400001928E-02 0.  1.
       -1    1    3    3    0  502  0.24630350288E+03  0.12612366802E+04  0.20018813414E+03  0.13005609052E+04  0.50400001928E-02 0. -1.
</event>
<event>
 5   0  0.8355946E-07  0.2896755E+04  0.7818609E-02  0.8273844E-01
        1   -1    0    0  501    0  0.00000000000E+00  0.00000000000E+00  0.13437885683E+04  0.13437885684E+04  0.50400001928E-02 0. -1.
       -1   -1    0    0    0  501  0.00000000000E+00  0.00000000000E+00 -0.15611062261E+04  0.15611062261E+04  0.50400001928E-02 0.  1.
    10030    2    1    2    0    0  0.00000000000E+00  0.00000000000E+00 -0.21731765778E+03  0.29048947945E+04  0.28967545292E+04 0.  0.
        4    1    3    3  502    0 -0.70325129886E+02  0.11383334952E+04 -0.10039421493E+04  0.15194243062E+04  0.12699999809E+01 0.  1.
       -4    1    3    3    0  502  0.70325129886E+02 -0.11383334952E+04  0.78662449156E+03  0.13854704883E+04  0.12699999809E+01 0. -1.
</event>
<event>
 5   0  0.2360103E-06  0.2897247E+04  0.7818609E-02  0.8273697E-01
       -2   -1    0    0    0  501  0.00000000000E+00  0.00000000000E+00  0.67773703358E+03  0.67773703359E+03  0.25500000920E-02 0.  1.
        2   -1    0    0  501    0  0.00000000000E+00  0.00000000000E+00 -0.30963477335E+04  0.30963477335E+04  0.25500000920E-02 0. -1.
    10030    2    1    2    0    0  0.00000000000E+00  0.00000000000E+00 -0.24186106999E+04  0.37740847671E+04  0.28972466432E+04 0.  0.
        4    1    3    3  502    0 -0.14064850842E+04  0.33687380564E+03 -0.11016997345E+04  0.18180836534E+04  0.12699999809E+01 0.  1.
       -4    1    3    3    0  502  0.14064850842E+04 -0.33687380564E+03 -0.13169109654E+04  0.19560011137E+04  0.12699999809E+01 0. -1.
</event>
<event>
 5   0  0.2325590E-06  0.2897486E+04  0.7818609E-02  0.8273626E-01
        2   -1    0    0  501    0  0.00000000000E+00  0.00000000000E+00  0.19320714510E+04  0.19320714510E+04  0.25500000920E-02 0. -1.
       -2   -1    0    0    0  501  0.00000000000E+00  0.00000000000E+00 -0.10863242675E+04  0.10863242675E+04  0.25500000920E-02 0.  1.
    10030    2    1    2    0    0  0.00000000000E+00  0.00000000000E+00  0.84574718342E+03  0.30183957185E+04  0.28974858783E+04 0.  0.
        5    1    3    3  502    0 -0.58614817071E+03 -0.91347341933E+03 -0.57676895186E+03  0.12291004351E+04  0.46999998093E+01 0.  1.
       -5    1    3    3    0  502  0.58614817071E+03  0.91347341933E+03  0.14225161353E+04  0.17892952833E+04  0.46999998093E+01 0. -1.
</event>
<event>
 5   0  0.8357118E-07  0.2891992E+04  0.7818609E-02  0.8275264E-01
        1   -1    0    0  501    0  0.00000000000E+00  0.00000000000E+00  0.14144891046E+04  0.14144891046E+04  0.50400001928E-02 0.  1.
       -1   -1    0    0    0  501  0.00000000000E+00  0.00000000000E+00 -0.14782046946E+04  0.14782046946E+04  0.50400001928E-02 0. -1.
    10030    2    1    2    0    0  0.00000000000E+00  0.00000000000E+00 -0.63715590003E+02  0.28926937993E+04  0.28919920021E+04 0.  0.
        1    1    3    3  502    0  0.36378717601E+03  0.44063396618E+03 -0.13604892227E+04  0.14756118482E+04  0.50400001928E-02 0. -1.
       -1    1    3    3    0  502 -0.36378717601E+03 -0.44063396618E+03  0.12967736327E+04  0.14170819511E+04  0.50400001928E-02 0.  1.
</event>
<event>
 5   0  0.2378690E-06  0.2904603E+04  0.7818609E-02  0.8271509E-01
        2   -1    0    0  501    0  0.00000000000E+00  0.00000000000E+00  0.21426471410E+04  0.21426471410E+04  0.25500000920E-02 0. -1.
       -2   -1    0    0    0  501  0.00000000000E+00  0.00000000000E+00 -0.98438016898E+03  0.98438016898E+03  0.25500000920E-02 0.  1.
    10030    2    1    2    0    0  0.00000000000E+00  0.00000000000E+00  0.11582669720E+04  0.31270273100E+04  0.29046027988E+04 0.  0.
        3    1    3    3  502    0  0.25879645045E+03  0.79196155975E+03 -0.70149523970E+03  0.10891621993E+04  0.10100000352E+00 0.  1.
       -3    1    3    3    0  502 -0.25879645045E+03 -0.79196155975E+03  0.18597622117E+04  0.20378651106E+04  0.10100000352E+00 0. -1.
</event>
<event>
 5   0  0.2304435E-06  0.2848211E+04  0.7818609E-02  0.8288455E-01
        2   -1    0    0  501    0  0.00000000000E+00  0.00000000000E+00  0.15971179662E+04  0.15971179662E+04  0.25500000920E-02 0.  1.
       -2   -1    0    0    0  501  0.00000000000E+00  0.00000000000E+00 -0.12698354052E+04  0.12698354052E+04  0.25500000920E-02 0. -1.
    10030    2    1    2    0    0  0.00000000000E+00  0.00000000000E+00  0.32728256098E+03  0.28669533714E+04  0.28482113263E+04 0.  0.
        1    1    3    3  502    0  0.16756621249E+03 -0.96628844138E+03  0.12030469978E+04  0.15521320390E+04  0.50400001928E-02 0.  1.
       -1    1    3    3    0  502 -0.16756621249E+03  0.96628844138E+03 -0.87576443679E+03  0.13148213325E+04  0.50400001928E-02 0. -1.
</event>
<event>
 5   0  0.2425845E-06  0.2901267E+04  0.7818609E-02  0.8272501E-01
        2   -1    0    0  501    0  0.00000000000E+00  0.00000000000E+00  0.14425195508E+04  0.14425195508E+04  0.25500000920E-02 0.  1.
       -2   -1    0    0    0  501  0.00000000000E+00  0.00000000000E+00 -0.14587930779E+04  0.14587930779E+04  0.25500000920E-02 0. -1.
    10030    2    1    2    0    0  0.00000000000E+00  0.00000000000E+00 -0.16273527065E+02  0.29013126287E+04  0.29012669891E+04 0.  0.
        2    1    3    3  502    0  0.64064865744E+03 -0.96000250084E+03 -0.88695775202E+03  0.14555856408E+04  0.25500000920E-02 0. -1.
       -2    1    3    3    0  502 -0.64064865744E+03  0.96000250084E+03  0.87068422496E+03  0.14457269879E+04  0.25500000920E-02 0.  1.
</event>
<event>
 5   0  0.8483636E-07  0.2908712E+04  0.7818609E-02  0.8270290E-01
       -1   -1    0    0    0  501  0.00000000000E+00  0.00000000000E+00  0.10606757333E+04  0.10606757333E+04  0.50400001928E-02 0.  1.
        1   -1    0    0  501    0  0.00000000000E+00  0.00000000000E+00 -0.19941549845E+04  0.19941549845E+04  0.50400001928E-02 0. -1.
    10030    2    1    2    0    0  0.00000000000E+00  0.00000000000E+00 -0.93347925121E+03  0.30548307178E+04  0.29087122927E+04 0.  0.
        2    1    3    3  502    0  0.81093960058E+02  0.13474116910E+04 -0.10352817637E+04  0.17011475026E+04  0.25500000920E-02 0. -1.
       -2    1    3    3    0  502 -0.81093960058E+02 -0.13474116910E+04  0.10180251246E+03  0.13536832152E+04  0.25500000920E-02 0.  1.
</event>
<event>
 5   0  0.8355946E-07  0.2900153E+04  0.7818609E-02  0.8272832E-01
        1   -1    0    0  501    0  0.00000000000E+00  0.00000000000E+00  0.15249165223E+04  0.15249165223E+04  0.50400001928E-02 0.  1.
       -1   -1    0    0    0  501  0.00000000000E+00  0.00000000000E+00 -0.13789090627E+04  0.13789090627E+04  0.50400001928E-02 0. -1.
    10030    2    1    2    0    0  0.00000000000E+00  0.00000000000E+00  0.14600745959E+03  0.29038255850E+04  0.29001525563E+04 0.  0.
        4    1    3    3  502    0 -0.12573111326E+04  0.34991525133E+03  0.70582287453E+03  0.14837316167E+04  0.12699999809E+01 0.  1.
       -4    1    3    3    0  502  0.12573111326E+04 -0.34991525133E+03 -0.55981541494E+03  0.14200939684E+04  0.12699999809E+01 0. -1.
</event>
<event>
 5   0  0.2325590E-06  0.2891029E+04  0.7818609E-02  0.8275552E-01
       -2   -1    0    0    0  501  0.00000000000E+00  0.00000000000E+00  0.16886078685E+04  0.16886078685E+04  0.25500000920E-02 0.  1.
        2   -1    0    0  501    0  0.00000000000E+00  0.00000000000E+00 -0.12374169882E+04  0.12374169882E+04  0.25500000920E-02 0. -1.
    10030    2    1    2    0    0  0.00000000000E+00  0.00000000000E+00  0.45119088024E+03  0.29260248567E+04  0.28910289261E+04 0.  0.
        5    1    3    3  502    0 -0.50416982766E+02  0.11041262294E+04  0.11684587831E+04  0.16084012622E+04  0.46999998093E+01 0.  1.
       -5    1    3    3    0  502  0.50416982766E+02 -0.11041262294E+04 -0.71726790282E+03  0.13176235945E+04  0.46999998093E+01 0. -1.
</event>
<event>
 5   0  0.8483636E-07  0.2896407E+04  0.7818609E-02  0.8273947E-01
       -1   -1    0    0    0  501  0.00000000000E+00  0.00000000000E+00  0.88005667503E+03  0.88005667504E+03  0.50400001928E-02 0. -1.
        1   -1    0    0  501    0  0.00000000000E+00  0.00000000000E+00 -0.23831352690E+04  0.23831352690E+04  0.50400001928E-02 0.  1.
    10030    2    1    2    0    0  0.00000000000E+00  0.00000000000E+00 -0.15030785940E+04  0.32631919441E+04  0.28964074997E+04 0.  0.
        2    1    3    3  502    0  0.88431269385E+03 -0.78797100226E+03  0.18728366655E+03  0.11991590439E+04  0.25500000920E-02 0.  1.
       -2    1    3    3    0  502 -0.88431269385E+03  0.78797100226E+03 -0.16903622605E+04  0.20640329001E+04  0.25500000920E-02 0. -1.
</event>
<event>
 5   0  0.8263673E-07  0.2911960E+04  0.7818609E-02  0.8269328E-01
       -1   -1    0    0    0  501  0.00000000000E+00  0.00000000000E+00  0.11935372318E+04  0.11935372318E+04  0.50400001928E-02 0. -1.
        1   -1    0    0  501    0  0.00000000000E+00  0.00000000000E+00 -0.17761306167E+04  0.17761306167E+04  0.50400001928E-02 0.  1.
    10030    2    1    2    0    0  0.00000000000E+00  0.00000000000E+00 -0.58259338490E+03  0.29696678485E+04  0.29119601780E+04 0.  0.
        5    1    3    3  502    0  0.12608180391E+04 -0.44121054240E+03 -0.88202287524E+03  0.16007233718E+04  0.46999998093E+01 0. -1.
       -5    1    3    3    0  502 -0.12608180391E+04  0.44121054240E+03  0.29942949034E+03  0.13689444767E+04  0.46999998093E+01 0.  1.
</event>
<event>
 5   0  0.8355946E-07  0.2896785E+04  0.7818609E-02  0.8273835E-01
       -1   -1    0    0    0  501  0.00000000000E+00  0.00000000000E+00  0.15142127805E+04  0.15142127805E+04  0.50400001928E-02 0. -1.
        1   -1    0    0  501    0  0.00000000000E+00  0.00000000000E+00 -0.13854331570E+04  0.13854331570E+04  0.50400001928E-02 0.  1.
    10030    2    1    2    0    0  0.00000000000E+00  0.00000000000E+00  0.12877962351E+03  0.28996459375E+04  0.28967848335E+04 0.  0.
        4    1    3    3  502    0 -0.66810800558E+03 -0.12274771376E+04  0.44525286513E+03  0.14667379307E+04  0.12699999809E+01 0.  1.
       -4    1    3    3    0  502  0.66810800558E+03  0.12274771376E+04 -0.31647324162E+03  0.14329080068E+04  0.12699999809E+01 0. -1.
</event>
<event>
 5   0  0.8947674E-07  0.2910072E+04  0.7818609E-02  0.8269887E-01
       -1   -1    0    0    0  501  0.00000000000E+00  0.00000000000E+00  0.21760379851E+04  0.21760379851E+04  0.50400001928E-02 0.  1.
        1   -1    0    0  501    0  0.00000000000E+00  0.00000000000E+00 -0.97292886843E+03  0.97292886844E+03  0.50400001928E-02 0. -1.
    10030    2    1    2    0    0  0.00000000000E+00  0.00000000000E+00  0.12031091167E+04  0.31489668536E+04  0.29100722840E+04 0.  0.
        3    1    3    3  502    0 -0.97987265554E+03  0.44624276762E+03 -0.45748556658E+03  0.11698615656E+04  0.10100000352E+00 0. -1.
       -3    1    3    3    0  502  0.97987265554E+03 -0.44624276762E+03  0.16605946833E+04  0.19791052880E+04  0.10100000352E+00 0.  1.
</event>
<event>
 5   0  0.8263673E-07  0.2893741E+04  0.7818609E-02  0.8274742E-01
       -1   -1    0    0    0  501  0.00000000000E+00  0.00000000000E+00  0.82094638425E+03  0.82094638427E+03  0.50400001928E-02 0.  1.
        1   -1    0    0  501    0  0.00000000000E+00  0.00000000000E+00 -0.25500256084E+04  0.25500256084E+04  0.50400001928E-02 0. -1.
    10030    2    1    2    0    0  0.00000000000E+00  0.00000000000E+00 -0.17290792242E+04  0.33709719927E+04  0.28937410410E+04 0.  0.
        5    1    3    3  502    0 -0.17522127520E+03 -0.43298870788E+03  0.73068855385E+03  0.86724250886E+03  0.46999998093E+01 0.  1.
       -5    1    3    3    0  502  0.17522127520E+03  0.43298870788E+03 -0.24597677780E+04  0.25037294839E+04  0.46999998093E+01 0. -1.
</event>
<event>
 5   0  0.8357118E-07  0.2903734E+04  0.7818609E-02  0.8271767E-01
       -1   -1    0    0    0  501  0.00000000000E+00  0.00000000000E+00  0.92219364431E+03  0.92219364432E+03  0.50400001928E-02 0.  1.
        1   -1    0    0  501    0  0.00000000000E+00  0.00000000000E+00 -0.22857643380E+04  0.22857643380E+04  0.50400001928E-02 0. -1.
    10030    2    1    2    0    0  0.00000000000E+00  0.00000000000E+00 -0.13635706937E+04  0.32079579823E+04  0.29037336964E+04 0.  0.
        1    1    3    3  502    0 -0.36827295401E+03  0.54601146861E+03  0.74767090106E+03  0.99637606797E+03  0.50400001928E-02 0.  1.
       -1    1    3    3    0  502  0.36827295401E+03 -0.54601146861E+03 -0.21112415947E+04  0.22115819144E+04  0.50400001928E-02 0. -1.
</event>
<event>
 5   0  0.2304435E-06  0.2978335E+04  0.7818609E-02  0.8249944E-01
       -2   -1    0    0    0  501  0.00000000000E+00  0.00000000000E+00  0.13128387235E+04  0.13128387235E+04  0.25500000920E-02 0.  1.
        2   -1    0    0  501    0  0.00000000000E+00  0.00000000000E+00 -0.16891797072E+04  0.16891797072E+04  0.25500000920E-02 0. -1.
    10030    2    1    2    0    0  0.00000000000E+00  0.00000000000E+00 -0.37634098369E+03  0.30020184307E+04  0.29783354616E+04 0.  0.
        1    1    3    3  502    0  0.87188764699E+03 -0.40595614687E+03  0.95780994745E+03  0.13573460714E+04  0.50400001928E-02 0.  1.
       -1    1    3    3    0  502 -0.87188764699E+03  0.40595614687E+03 -0.13341509311E+04  0.16446723592E+04  0.50400001928E-02 0. -1.
</event>
<event>
 5   0  0.8357118E-07  0.2900598E+04  0.7818609E-02  0.8272700E-01
        1   -1    0    0  501    0  0.00000000000E+00  0.00000000000E+00  0.15517464737E+04  0.15517464737E+04  0.50400001928E-02 0. -1.
       -1   -1    0    0    0  501  0.00000000000E+00  0.00000000000E+00 -0.13554838349E+04  0.13554838349E+04  0.50400001928E-02 0.  1.
    10030    2    1    2    0    0  0.00000000000E+00  0.00000000000E+00  0.19626263878E+03  0.29072303086E+04  0.29005980493E+04 0.  0.
        1    1    3    3  502    0  0.52988063421E+02 -0.10166328587E+04 -0.93719579583E+03  0.13837218159E+04  0.50400001928E-02 0.  1.
       -1    1    3    3    0  502 -0.52988063421E+02  0.10166328587E+04  0.11334584346E+04  0.15235084926E+04  0.50400001928E-02 0. -1.
</event>
<event>
 5   0  0.2304435E-06  0.2900227E+04  0.7818609E-02  0.8272810E-01
       -2   -1    0    0    0  501  0.00000000000E+00  0.00000000000E+00  0.16970165334E+04  0.16970165334E+04  0.25500000920E-02 0.  1.
        2   -1    0    0  501    0  0.00000000000E+00  0.00000000000E+00 -0.12391332292E+04  0.12391332292E+04  0.25500000920E-02 0. -1.
    10030    2    1    2    0    0  0.00000000000E+00  0.00000000000E+00  0.45788330419E+03  0.29361497625E+04  0.29002272856E+04 0.  0.
        1    1    3    3  502    0  0.11496507969E+04 -0.62471281594E+03 -0.40399523309E+03  0.13693703683E+04  0.50400001928E-02 0. -1.
       -1    1    3    3    0  502 -0.11496507969E+04  0.62471281594E+03  0.86187853728E+03  0.15667793942E+04  0.50400001928E-02 0.  1.
</event>
<event>
 5   0  0.2325590E-06  0.2910021E+04  0.7818609E-02  0.8269902E-01
        2   -1    0    0  501    0  0.00000000000E+00  0.00000000000E+00  0.13377735499E+04  0.13377735499E+04  0.25500000920E-02 0. -1.
       -2   -1    0    0    0  501  0.00000000000E+00  0.00000000000E+00 -0.15825221148E+04  0.15825221148E+04  0.25500000920E-02 0.  1.
    10030    2    1    2    0    0  0.00000000000E+00  0.00000000000E+00 -0.24474856490E+03  0.29202956647E+04  0.29100214620E+04 0.  0.
        5    1    3    3  502    0 -0.20741762828E+03 -0.14101286296E+04  0.17114652575E+03  0.14355479956E+04  0.46999998093E+01 0. -1.
       -5    1    3    3    0  502  0.20741762828E+03  0.14101286296E+04 -0.41589509065E+03  0.14847476691E+04  0.46999998093E+01 0.  1.
</event>
<event>
 5   0  0.8483636E-07  0.2899056E+04  0.7818609E-02  0.8273159E-01
       -1   -1    0    0    0  501  0.00000000000E+00  0.00000000000E+00  0.11827183547E+04  0.11827183547E+04  0.50400001928E-02 0. -1.
        1   -1    0    0  501    0  0.00000000000E+00  0.00000000000E+00 -0.17765268392E+04  0.17765268392E+04  0.50400001928E-02 0.  1.
    10030    2    1    2    0    0  0.00000000000E+00  0.00000000000E+00 -0.59380848446E+03  0.29592451939E+04  0.28990556396E+04 0.  0.
        2    1    3    3  502    0  0.91851999044E+02  0.74298132540E+03  0.97010451497E+03  0.12253819036E+04  0.25500000920E-02 0. -1.
       -2    1    3    3    0  502 -0.91851999044E+02 -0.74298132540E+03 -0.15639129994E+04  0.17338632903E+04  0.25500000920E-02 0.  1.
</event>
<event>
 5   0  0.8357118E-07  0.2903372E+04  0.7818609E-02  0.8271875E-01
        1   -1    0    0  501    0  0.00000000000E+00  0.00000000000E+00  0.18210777571E+04  0.18210777572E+04  0.50400001928E-02 0.  1.
       -1   -1    0    0    0  501  0.00000000000E+00  0.00000000000E+00 -0.11572222827E+04  0.11572222827E+04  0.50400001928E-02 0. -1.
    10030    2    1    2    0    0  0.00000000000E+00  0.00000000000E+00  0.66385547448E+03  0.29783000398E+04  0.29033716669E+04 0.  0.
        1    1    3    3  502    0  0.11430242997E+04  0.56212935402E+03  0.10462446274E+04  0.16483694309E+04  0.50400001928E-02 0.  1.
       -1    1    3    3    0  502 -0.11430242997E+04 -0.56212935402E+03 -0.38238915292E+03  0.13299306089E+04  0.50400001928E-02 0. -1.
</event>
<event>
 5   0  0.2425845E-06  0.2907331E+04  0.7818609E-02  0.8270700E-01
       -2   -1    0    0    0  501  0.00000000000E+00  0.00000000000E+00  0.17426914108E+04  0.17426914108E+04  0.25500000920E-02 0.  1.
        2   -1    0    0  501    0  0.00000000000E+00  0.00000000000E+00 -0.12125744499E+04  0.12125744499E+04  0.25500000920E-02 0. -1.
    10030    2    1    2    0    0  0.00000000000E+00  0.00000000000E+00  0.53011696090E+03  0.29552658607E+04  0.29073307887E+04 0.  0.
        2    1    3    3  502    0 -0.66400038185E+03  0.85813535672E+03 -0.71828512264E+03  0.13012402987E+04  0.25500000920E-02 0. -1.
       -2    1    3    3    0  502  0.66400038185E+03 -0.85813535672E+03  0.12484020835E+04  0.16540255620E+04  0.25500000920E-02 0.  1.
</event>
<event>
 5   0  0.8947674E-07  0.2993149E+04  0.7818609E-02  0.8245690E-01
       -1   -1    0    0    0  501  0.00000000000E+00  0.00000000000E+00  0.19485409351E+04  0.19485409351E+04  0.50400001928E-02 0.  1.
        1   -1    0    0  501    0  0.00000000000E+00  0.00000000000E+00 -0.11494419162E+04  0.11494419162E+04  0.50400001928E-02 0. -1.
    10030    2    1    2    0    0  0.00000000000E+00  0.00000000000E+00  0.79909901888E+03  0.30979828514E+04  0.29931485939E+04 0.  0.
        3    1    3    3  502    0 -0.96995647138E+03  0.38001596572E+03 -0.71256370931E+03  0.12621310315E+04  0.10100000352E+00 0. -1.
       -3    1    3    3    0  502  0.96995647138E+03 -0.38001596572E+03  0.15116627282E+04  0.18358518199E+04  0.10100000352E+00 0.  1.
</event>
<event>
 5   0  0.8947674E-07  0.2915225E+04  0.7818609E-02  0.8268362E-01
       -1   -1    0    0    0  501  0.00000000000E+00  0.00000000000E+00  0.11727250460E+04  0.11727250460E+04  0.50400001928E-02 0. -1.
        1   -1    0    0  501    0  0.00000000000E+00  0.00000000000E+00 -0.18117069565E+04  0.18117069565E+04  0.50400001928E-02 0.  1.
    10030    2    1    2    0    0  0.00000000000E+00  0.00000000000E+00 -0.63898191057E+03  0.29844320025E+04  0.29152249477E+04 0.  0.
        3    1    3    3  502    0 -0.18707832822E+03  0.12594222588E+04 -0.10459073531E+04  0.16477454076E+04  0.10100000352E+00 0.  1.
       -3    1    3    3    0  502  0.18707832822E+03 -0.12594222588E+04  0.40692544250E+03  0.13366865949E+04  0.10100000352E+00 0. -1.
</event>
<event>
 5   0  0.2425845E-06  0.2912886E+04  0.7818609E-02  0.8269054E-01
        2   -1    0    0  501    0  0.00000000000E+00  0.00000000000E+00  0.15615707193E+04  0.15615707193E+04  0.25500000920E-02 0.  1.
       -2   -1    0    0    0  501  0.00000000000E+00  0.00000000000E+00 -0.13583926962E+04  0.13583926962E+04  0.25500000920E-02 0. -1.
    10030    2    1    2    0    0  0.00000000000E+00  0.00000000000E+00  0.20317802313E+03  0.29199634156E+04  0.29128860326E+04 0.  0.
        2    1    3    3  502    0 -0.13522659489E+04 -0.33083508641E+03 -0.32741248964E+03  0.14301307595E+04  0.25500000920E-02 0. -1.
       -2    1    3    3    0  502  0.13522659489E+04  0.33083508641E+03  0.53059051277E+03  0.14898326561E+04  0.25500000920E-02 0.  1.
</event>
<event>
 5   0  0.8263673E-07  0.2863965E+04  0.7818609E-02  0.8283680E-01
        1   -1    0    0  501    0  0.00000000000E+00  0.00000000000E+00  0.12315781613E+04  0.12315781613E+04  0.50400001928E-02 0. -1.
       -1   -1    0    0    0  501  0.00000000000E+00  0.00000000000E+00 -0.16649972478E+04  0.16649972478E+04  0.50400001928E-02 0.  1.
    10030    2    1    2    0    0  0.00000000000E+00  0.00000000000E+00 -0.43341908652E+03  0.28965754090E+04  0.28639652574E+04 0.  0.
        5    1    3    3  502    0 -0.19321751956E+03  0.11082322636E+04  0.67940411631E+03  0.13142008230E+04  0.46999998093E+01 0. -1.
       -5    1    3    3    0  502  0.19321751956E+03 -0.11082322636E+04 -0.11128232028E+04  0.15823745861E+04  0.46999998093E+01 0.  1.
</event>
<event>
 5   0  0.2378690E-06  0.2875158E+04  0.7818609E-02  0.8280307E-01
        2   -1    0    0  501    0  0.00000000000E+00  0.00000000000E+00  0.13670811233E+04  0.13670811233E+04  0.25500000920E-02 0. -1.
       -2   -1    0    0    0  501  0.00000000000E+00  0.00000000000E+00 -0.15117123024E+04  0.15117123024E+04  0.25500000920E-02 0.  1.
    10030    2    1    2    0    0  0.00000000000E+00  0.00000000000E+00 -0.14463117911E+03  0.28787934257E+04  0.28751579800E+04 0.  0.
        3    1    3    3  502    0 -0.12829589538E+04  0.64771277289E+03 -0.10579181407E+03  0.14410785653E+04  0.10100000352E+00 0. -1.
       -3    1    3    3    0  502  0.12829589538E+04 -0.64771277289E+03 -0.38839365033E+02  0.14377148604E+04  0.10100000352E+00 0.  1.
</event>
<event>
 5   0  0.2378690E-06  0.2906895E+04  0.7818609E-02  0.8270829E-01
       -2   -1    0    0    0  501  0.00000000000E+00  0.00000000000E+00  0.78455288724E+03  0.78455288724E+03  0.25500000920E-02 0.  1.
        2   -1    0    0  501    0  0.00000000000E+00  0.00000000000E+00 -0.26926294782E+04  0.26926294782E+04  0.25500000920E-02 0. -1.
    10030    2    1    2    0    0  0.00000000000E+00  0.00000000000E+00 -0.19080765909E+04  0.34771823654E+04  0.29068954101E+04 0.  0.
        3    1    3    3  502    0  0.90090962057E+03 -0.82138131488E+03 -0.74606090920E+01  0.12191640906E+04  0.10100000352E+00 0.  1.
       -3    1    3    3    0  502 -0.90090962057E+03  0.82138131488E+03 -0.19006159818E+04  0.22580182748E+04  0.10100000352E+00 0. -1.
</event>
<event>
 5   0  0.2425845E-06  0.2877468E+04  0.7818609E-02  0.8279613E-01
        2   -1    0    0  501    0  0.00000000000E+00  0.00000000000E+00  0.16662991657E+04  0.16662991657E+04  0.25500000920E-02 0.  1.
       -2   -1    0    0    0  501  0.00000000000E+00  0.00000000000E+00 -0.12422472310E+04  0.12422472310E+04  0.25500000920E-02 0. -1.
    10030    2    1    2    0    0  0.00000000000E+00  0.00000000000E+00  0.42405193470E+03  0.29085463966E+04  0.28774680012E+04 0.  0.
        2    1    3    3  502    0 -0.24990411702E+03  0.11017904130E+04 -0.68841603489E+03  0.13229931288E+04  0.25500000920E-02 0. -1.
       -2    1    3    3    0  502  0.24990411702E+03 -0.11017904130E+04  0.11124679696E+04  0.15855532678E+04  0.25500000920E-02 0.  1.
</event>
<event>
 5   0  0.8355946E-07  0.2901082E+04  0.7818609E-02  0.8272556E-01
        1   -1    0    0  501    0  0.00000000000E+00  0.00000000000E+00  0.17300812853E+04  0.17300812853E+04  0.50400001928E-02 0.  1.
       -1   -1    0    0    0  501  0.00000000000E+00  0.00000000000E+00 -0.12161676623E+04  0.12161676623E+04  0.50400001928E-02 0. -1.
    10030    2    1    2    0    0  0.00000000000E+00  0.00000000000E+00  0.51391362303E+03  0.29462489476E+04  0.29010818067E+04 0.  0.
        4    1    3    3  502    0  0.19244191191E+02  0.12922838027E+04  0.92576863575E+03  0.15897851884E+04  0.12699999809E+01 0. -1.
       -4    1    3    3    0  502 -0.19244191191E+02 -0.12922838027E+04 -0.41185501272E+03  0.13564637592E+04  0.12699999809E+01 0.  1.
</event>
<event>
 5   0  0.2304435E-06  0.2887715E+04  0.7818609E-02  0.8276542E-01
        2   -1    0    0  501    0  0.00000000000E+00  0.00000000000E+00  0.20296255161E+04  0.20296255161E+04  0.25500000920E-02 0. -1.
       -2   -1    0    0    0  501  0.00000000000E+00  0.00000000000E+00 -0.10271470664E+04  0.10271470664E+04  0.25500000920E-02 0.  1.
    10030    2    1    2    0    0  0.00000000000E+00  0.00000000000E+00  0.10024784498E+04  0.30567725825E+04  0.28877145944E+04 0.  0.
        1    1    3    3  502    0  0.10117867749E+04 -0.10254267912E+04  0.60447473172E+03  0.15622427094E+04  0.50400001928E-02 0. -1.
       -1    1    3    3    0  502 -0.10117867749E+04  0.10254267912E+04  0.39800371803E+03  0.14945298731E+04  0.50400001928E-02 0.  1.
</event>
<event>
 5   0  0.2425845E-06  0.2891200E+04  0.7818609E-02  0.8275501E-01
       -2   -1    0    0    0  501  0.00000000000E+00  0.00000000000E+00  0.81890085269E+03  0.81890085269E+03  0.25500000920E-02 0.  1.
        2   -1    0    0  501    0  0.00000000000E+00  0.00000000000E+00 -0.25519069638E+04  0.25519069638E+04  0.25500000920E-02 0. -1.
    10030    2    1    2    0    0  0.00000000000E+00  0.00000000000E+00 -0.17330061111E+04  0.33708078165E+04  0.28911996048E+04 0.  0.
        2    1    3    3  502    0  0.78027219724E+03  0.34724345075E+03 -0.22263255351E+04  0.23845184219E+04  0.25500000920E-02 0. -1.
       -2    1    3    3    0  502 -0.78027219724E+03 -0.34724345075E+03  0.49331942400E+03  0.98628939464E+03  0.25500000920E-02 0.  1.
</event>
<event>
 5   0  0.2304435E-06  0.2896428E+04  0.7818609E-02  0.8273941E-01
       -2   -1    0    0    0  501  0.00000000000E+00  0.00000000000E+00  0.18013739731E+04  0.18013739731E+04  0.25500000920E-02 0. -1.
        2   -1    0    0  501    0  0.00000000000E+00  0.00000000000E+00 -0.11642908835E+04  0.11642908835E+04  0.25500000920E-02 0.  1.
    10030    2    1    2    0    0  0.00000000000E+00  0.00000000000E+00  0.63708308961E+03  0.29656648565E+04  0.28964276580E+04 0.  0.
        1    1    3    3  502    0 -0.52243489664E+02 -0.49925113941E+03 -0.10723646552E+04  0.11840384437E+04  0.50400001928E-02 0.  1.
       -1    1    3    3    0  502  0.52243489664E+02  0.49925113941E+03  0.17094477449E+04  0.17816264128E+04  0.50400001928E-02 0. -1.
</event>
<event>
 5   0  0.2378690E-06  0.2898273E+04  0.7818609E-02  0.8273392E-01
       -2   -1    0    0    0  501  0.00000000000E+00  0.00000000000E+00  0.96103267820E+03  0.96103267820E+03  0.25500000920E-02 0.  1.
        2   -1    0    0  501    0  0.00000000000E+00  0.00000000000E+00 -0.21851457918E+04  0.21851457918E+04  0.25500000920E-02 0. -1.
    10030    2    1    2    0    0  0.00000000000E+00  0.00000000000E+00 -0.12241131136E+04  0.31461784700E+04  0.28982729427E+04 0.  0.
        3    1    3    3  502    0 -0.12280428736E+04 -0.68718890449E+03 -0.98759322160E+03  0.17192028012E+04  0.10100000352E+00 0. -1.
       -3    1    3    3    0  502  0.12280428736E+04  0.68718890449E+03 -0.23651989198E+03  0.14269756688E+04  0.10100000352E+00 0.  1.
</event>
<event>
 5   0  0.8483636E-07  0.2904436E+04  0.7818609E-02  0.8271559E-01
        1   -1    0    0  501    0  0.00000000000E+00  0.00000000000E+00  0.22091148987E+04  0.22091148987E+04  0.50400001928E-02 0.  1.
       -1   -1    0    0    0  501  0.00000000000E+00  0.00000000000E+00 -0.95465249010E+03  0.95465249012E+03  0.50400001928E-02 0. -1.
    10030    2    1    2    0    0  0.00000000000E+00  0.00000000000E+00  0.12544624086E+04  0.31637673888E+04  0.29044359445E+04 0.  0.
        2    1    3    3  502    0 -0.75887903908E+03  0.11402310535E+04  0.11529329375E+04  0.17903291903E+04  0.25500000920E-02 0.  1.
       -2    1    3    3    0  502  0.75887903908E+03 -0.11402310535E+04  0.10152947107E+03  0.13734381984E+04  0.25500000920E-02 0. -1.
</event>
<event>
 5   0  0.2378690E-06  0.2903638E+04  0.7818609E-02  0.8271796E-01
        2   -1    0    0  501    0  0.00000000000E+00  0.00000000000E+00  0.23467861999E+04  0.23467861999E+04  0.25500000920E-02 0.  1.
       -2   -1    0    0    0  501  0.00000000000E+00  0.00000000000E+00 -0.89815549707E+03  0.89815549708E+03  0.25500000920E-02 0. -1.
    10030    2    1    2    0    0  0.00000000000E+00  0.00000000000E+00  0.14486307028E+04  0.32449416970E+04  0.29036383562E+04 0.  0.
        3    1    3    3  502    0  0.25204728321E+03 -0.50001478892E+03  0.22212546574E+04  0.22907454868E+04  0.10100000352E+00 0.  1.
       -3    1    3    3    0  502 -0.25204728321E+03  0.50001478892E+03 -0.77262395458E+03  0.95419621017E+03  0.10100000352E+00 0. -1.
</event>
<event>
 5   0  0.2360103E-06  0.2908474E+04  0.7818609E-02  0.8270361E-01
        2   -1    0    0  501    0  0.00000000000E+00  0.00000000000E+00  0.18400664477E+04  0.18400664477E+04  0.25500000920E-02 0.  1.
       -2   -1    0    0    0  501  0.00000000000E+00  0.00000000000E+00 -0.11493094977E+04  0.11493094977E+04  0.25500000920E-02 0. -1.
    10030    2    1    2    0    0  0.00000000000E+00  0.00000000000E+00  0.69075695002E+03  0.29893759454E+04  0.29084744075E+04 0.  0.
        4    1    3    3  502    0  0.10015523784E+04  0.98291767787E+02 -0.73360089002E+03  0.12453675430E+04  0.12699999809E+01 0. -1.
       -4    1    3    3    0  502 -0.10015523784E+04 -0.98291767787E+02  0.14243578400E+04  0.17440084024E+04  0.12699999809E+01 0.  1.
</event>
<event>
 5   0  0.8357118E-07  0.2917136E+04  0.7818609E-02  0.8267797E-01
       -1   -1    0    0    0  501  0.00000000000E+00  0.00000000000E+00  0.11777666299E+04  0.11777666300E+04  0.50400001928E-02 0. -1.
        1   -1    0    0  501    0  0.00000000000E+00  0.00000000000E+00 -0.18063179621E+04  0.18063179621E+04  0.50400001928E-02 0.  1.
    10030    2    1    2    0    0  0.00000000000E+00  0.00000000000E+00 -0.62855133216E+03  0.29840845921E+04  0.29171362799E+04 0.  0.
        1    1    3    3  502    0 -0.89373141883E+03 -0.18962321270E+03  0.84879114959E+03  0.12470602341E+04  0.50400001928E-02 0. -1.
       -1    1    3    3    0  502  0.89373141883E+03  0.18962321270E+03 -0.14773424818E+04  0.17370243580E+04  0.50400001928E-02 0.  1.
</event>
<event>
 5   0  0.8483636E-07  0.2904512E+04  0.7818609E-02  0.8271536E-01
        1   -1    0    0  501    0  0.00000000000E+00  0.00000000000E+00  0.22179191060E+04  0.22179191060E+04  0.50400001928E-02 0. -1.
       -1   -1    0    0    0  501  0.00000000000E+00  0.00000000000E+00 -0.95091290822E+03  0.95091290823E+03  0.50400001928E-02 0.  1.
    10030    2    1    2    0    0  0.00000000000E+00  0.00000000000E+00  0.12670061977E+04  0.31688320142E+04  0.29045122876E+04 0.  0.
        2    1    3    3  502    0  0.11915399696E+04  0.23628042704E+03 -0.23482297832E+03  0.12372298778E+04  0.25500000920E-02 0.  1.
       -2    1    3    3    0  502 -0.11915399696E+04 -0.23628042704E+03  0.15018291761E+04  0.19316021364E+04  0.25500000920E-02 0. -1.
</event>
<event>
 5   0  0.8263673E-07  0.2941911E+04  0.7818609E-02  0.8260516E-01
        1   -1    0    0  501    0  0.00000000000E+00  0.00000000000E+00  0.21796836550E+04  0.21796836550E+04  0.50400001928E-02 0.  1.
       -1   -1    0    0    0  501  0.00000000000E+00  0.00000000000E+00 -0.99267161078E+03  0.99267161079E+03  0.50400001928E-02 0. -1.
    10030    2    1    2    0    0  0.00000000000E+00  0.00000000000E+00  0.11870120442E+04  0.31723552658E+04  0.29419110012E+04 0.  0.
        5    1    3    3  502    0 -0.47554480827E+03 -0.13895759787E+04  0.68126743040E+03  0.16190156475E+04  0.46999998093E+01 0.  1.
       -5    1    3    3    0  502  0.47554480827E+03  0.13895759787E+04  0.50574461379E+03  0.15533396182E+04  0.46999998093E+01 0. -1.
</event>
<event>
 5   0  0.8947674E-07  0.2906451E+04  0.7818609E-02  0.8270961E-01
        1   -1    0    0  501    0  0.00000000000E+00  0.00000000000E+00  0.12177139459E+04  0.12177139459E+04  0.50400001928E-02 0.  1.
       -1   -1    0    0    0  501  0.00000000000E+00  0.00000000000E+00 -0.17342855654E+04  0.17342855654E+04  0.50400001928E-02 0. -1.
    10030    2    1    2    0    0  0.00000000000E+00  0.00000000000E+00 -0.51657161953E+03  0.29519995112E+04  0.29064505632E+04 0.  0.
        3    1    3    3  502    0  0.10569627724E+04 -0.40275656128E+03 -0.11849884301E+04  0.16381638317E+04  0.10100000352E+00 0. -1.
       -3    1    3    3    0  502 -0.10569627724E+04  0.40275656128E+03  0.66841681060E+03  0.13138356795E+04  0.10100000352E+00 0.  1.
</event>
<event>
 5   0  0.2360103E-06  0.2897078E+04  0.7818609E-02  0.8273747E-01
        2   -1    0    0  501    0  0.00000000000E+00  0.00000000000E+00  0.20157635613E+04  0.20157635613E+04  0.25500000920E-02 0.  1.
       -2   -1    0    0    0  501  0.00000000000E+00  0.00000000000E+00 -0.10409282884E+04  0.10409282884E+04  0.25500000920E-02 0. -1.
    10030    2    1    2    0    0  0.00000000000E+00  0.00000000000E+00  0.97483527291E+03  0.30566918498E+04  0.28970780547E+04 0.  0.
        4    1    3    3  502    0 -0.81060830041E+03  0.23878991574E+03 -0.75390358514E+03  0.11324657474E+04  0.12699999809E+01 0. -1.
       -4    1    3    3    0  502  0.81060830041E+03 -0.23878991574E+03  0.17287388581E+04  0.19242261023E+04  0.12699999809E+01 0.  1.
</event>
<event>
 5   0  0.8357118E-07  0.2916647E+04  0.7818609E-02  0.8267942E-01
        1   -1    0    0  501    0  0.00000000000E+00  0.00000000000E+00  0.12474682733E+04  0.12474682733E+04  0.50400001928E-02 0.  1.
       -1   -1    0    0    0  501  0.00000000000E+00  0.00000000000E+00 -0.17048187214E+04  0.17048187214E+04  0.50400001928E-02 0. -1.
    10030    2    1    2    0    0  0.00000000000E+00  0.00000000000E+00 -0.45735044805E+03  0.29522869947E+04  0.29166468876E+04 0.  0.
        1    1    3    3  502    0  0.65730490289E+03 -0.94146065031E+02  0.10855717281E+04  0.12725483071E+04  0.50400001928E-02 0.  1.
       -1    1    3    3    0  502 -0.65730490289E+03  0.94146065031E+02 -0.15429221762E+04  0.16797386876E+04  0.50400001928E-02 0. -1.
</event>
<event>
 5   0  0.2325590E-06  0.2903610E+04  0.7818609E-02  0.8271804E-01
       -2   -1    0    0    0  501  0.00000000000E+00  0.00000000000E+00  0.17931166100E+04  0.17931166100E+04  0.25500000920E-02 0. -1.
        2   -1    0    0  501    0  0.00000000000E+00  0.00000000000E+00 -0.11754605417E+04  0.11754605417E+04  0.25500000920E-02 0.  1.
    10030    2    1    2    0    0  0.00000000000E+00  0.00000000000E+00  0.61765606828E+03  0.29685771517E+04  0.29036100439E+04 0.  0.
        5    1    3    3  502    0 -0.76993669410E+03 -0.63589959777E+03 -0.76857480457E+03  0.12601190942E+04  0.46999998093E+01 0.  1.
       -5    1    3    3    0  502  0.76993669410E+03  0.63589959777E+03  0.13862308729E+04  0.17084580575E+04  0.46999998093E+01 0. -1.
</event>
<event>
 5   0  0.2325590E-06  0.2875048E+04  0.7818609E-02  0.8280340E-01
        2   -1    0    0  501    0  0.00000000000E+00  0.00000000000E+00  0.22332902890E+04  0.22332902890E+04  0.25500000920E-02 0. -1.
       -2   -1    0    0    0  501  0.00000000000E+00  0.00000000000E+00 -0.92530545117E+03  0.92530545117E+03  0.25500000920E-02 0.  1.
    10030    2    1    2    0    0  0.00000000000E+00  0.00000000000E+00  0.13079848378E+04  0.31585957402E+04  0.28750482976E+04 0.  0.
        5    1    3    3  502    0  0.16977692843E+03 -0.11724729678E+04 -0.24051690873E+03  0.12088786287E+04  0.46999998093E+01 0.  1.
       -5    1    3    3    0  502 -0.16977692843E+03  0.11724729678E+04  0.15485017465E+04  0.19497171114E+04  0.46999998093E+01 0. -1.
</event>
<event>
 5   0  0.2325590E-06  0.2866494E+04  0.7818609E-02  0.8282917E-01
        2   -1    0    0  501    0  0.00000000000E+00  0.00000000000E+00  0.24033513166E+04  0.24033513166E+04  0.25500000920E-02 0. -1.
       -2   -1    0    0    0  501  0.00000000000E+00  0.00000000000E+00 -0.85472162628E+03  0.85472162628E+03  0.25500000920E-02 0.  1.
    10030    2    1    2    0    0  0.00000000000E+00  0.00000000000E+00  0.15486296904E+04  0.32580729429E+04  0.28664935694E+04 0.  0.
        5    1    3    3  502    0 -0.46021289529E+03 -0.80897803538E+03  0.20131279299E+04  0.22178700419E+04  0.46999998093E+01 0.  1.
       -5    1    3    3    0  502  0.46021289529E+03  0.80897803538E+03 -0.46449823954E+03  0.10402029010E+04  0.46999998093E+01 0. -1.
</event>
<event>
 5   0  0.2425845E-06  0.2891090E+04  0.7818609E-02  0.8275534E-01
        2   -1    0    0  501    0  0.00000000000E+00  0.00000000000E+00  0.20682517417E+04  0.20682517417E+04  0.25500000920E-02 0. -1.
       -2   -1    0    0    0  501  0.00000000000E+00  0.00000000000E+00 -0.10103217829E+04  0.10103217829E+04  0.25500000920E-02 0.  1.
    10030    2    1    2    0    0  0.00000000000E+00  0.00000000000E+00  0.10579299589E+04  0.30785735246E+04  0.28910896126E+04 0.  0.
        2    1    3    3  502    0 -0.34787823360E+03  0.89731862033E+03  0.16775217654E+04  0.19339801564E+04  0.25500000920E-02 0. -1.
       -2    1    3    3    0  502  0.34787823360E+03 -0.89731862033E+03 -0.61959180655E+03  0.11445933682E+04  0.25500000920E-02 0.  1.
</event>
<event>
 5   0  0.8355946E-07  0.2933638E+04  0.7818609E-02  0.8262939E-01
        1   -1    0    0  501    0  0.00000000000E+00  0.00000000000E+00  0.16208479167E+04  0.16208479167E+04  0.50400001928E-02 0. -1.
       -1   -1    0    0    0  501  0.00000000000E+00  0.00000000000E+00 -0.13274270331E+04  0.13274270331E+04  0.50400001928E-02 0.  1.
    10030    2    1    2    0    0  0.00000000000E+00  0.00000000000E+00  0.29342088358E+03  0.29482749498E+04  0.29336375653E+04 0.  0.
        4    1    3    3  502    0 -0.11733022869E+04 -0.86978467206E+03  0.28300456717E+03  0.14877018620E+04  0.12699999809E+01 0.  1.
       -4    1    3    3    0  502  0.11733022869E+04  0.86978467206E+03  0.10416316412E+02  0.14605730878E+04  0.12699999809E+01 0. -1.
</event>
<event>
 5   0  0.2304435E-06  0.2828531E+04  0.7818609E-02  0.8294465E-01
        2   -1    0    0  501    0  0.00000000000E+00  0.00000000000E+00  0.14869762281E+04  0.14869762281E+04  0.25500000920E-02 0. -1.
       -2   -1    0    0    0  501  0.00000000000E+00  0.00000000000E+00 -0.13451102332E+04  0.13451102332E+04  0.25500000920E-02 0.  1.
    10030    2    1    2    0    0  0.00000000000E+00  0.00000000000E+00  0.14186599486E+03  0.28320864613E+04  0.28285310258E+04 0.  0.
        1    1    3    3  502    0 -0.10095190889E+04 -0.88232598518E+03  0.52151978677E+03  0.14386142023E+04  0.50400001928E-02 0. -1.
       -1    1    3    3    0  502  0.10095190889E+04  0.88232598518E+03 -0.37965379191E+03  0.13934722590E+04  0.50400001928E-02 0.  1.
</event>
<event>
 5   0  0.2325590E-06  0.2869741E+04  0.7818609E-02  0.8281938E-01
       -2   -1    0    0    0  501  0.00000000000E+00  0.00000000000E+00  0.11502010923E+04  0.11502010923E+04  0.25500000920E-02 0. -1.
        2   -1    0    0  501    0  0.00000000000E+00  0.00000000000E+00 -0.17899947711E+04  0.17899947711E+04  0.25500000920E-02 0.  1.
    10030    2    1    2    0    0  0.00000000000E+00  0.00000000000E+00 -0.63979367879E+03  0.29401958634E+04  0.28697414106E+04 0.  0.
        5    1    3    3  502    0 -0.20619048883E+03  0.14188556908E+04 -0.37754420705E+03  0.14826421373E+04  0.46999998093E+01 0.  1.
       -5    1    3    3    0  502  0.20619048883E+03 -0.14188556908E+04 -0.26224947174E+03  0.14575537261E+04  0.46999998093E+01 0. -1.
</event>
<event>
 5   0  0.2360103E-06  0.2894713E+04  0.7818609E-02  0.8274452E-01
       -2   -1    0    0    0  501  0.00000000000E+00  0.00000000000E+00  0.16691083935E+04  0.16691083935E+04  0.25500000920E-02 0.  1.
        2   -1    0    0  501    0  0.00000000000E+00  0.00000000000E+00 -0.12550655847E+04  0.12550655847E+04  0.25500000920E-02 0. -1.
    10030    2    1    2    0    0  0.00000000000E+00  0.00000000000E+00  0.41404280876E+03  0.29241739782E+04  0.28947127677E+04 0.  0.
        4    1    3    3  502    0  0.41436059292E+03  0.90327440265E+03 -0.85594251863E+03  0.13115786502E+04  0.12699999809E+01 0. -1.
       -4    1    3    3    0  502 -0.41436059292E+03 -0.90327440265E+03  0.12699853274E+04  0.16125953281E+04  0.12699999809E+01 0.  1.
</event>
<event>
 5   0  0.2325590E-06  0.2899390E+04  0.7818609E-02  0.8273059E-01
       -2   -1    0    0    0  501  0.00000000000E+00  0.00000000000E+00  0.97806930947E+03  0.97806930947E+03  0.25500000920E-02 0. -1.
        2   -1    0    0  501    0  0.00000000000E+00  0.00000000000E+00 -0.21487395307E+04  0.21487395307E+04  0.25500000920E-02 0.  1.
    10030    2    1    2    0    0  0.00000000000E+00  0.00000000000E+00 -0.11706702213E+04  0.31268088402E+04  0.28993904111E+04 0.  0.
        5    1    3    3  502    0 -0.42486887248E+03  0.14552011234E+03 -0.20718200430E+04  0.21199410469E+04  0.46999998093E+01 0.  1.
       -5    1    3    3    0  502  0.42486887248E+03 -0.14552011234E+03  0.90114982174E+03  0.10068677933E+04  0.46999998093E+01 0. -1.
</event>
<event>
 5   0  0.2325590E-06  0.2899684E+04  0.7818609E-02  0.8272972E-01
       -2   -1    0    0    0  501  0.00000000000E+00  0.00000000000E+00  0.13929389100E+04  0.13929389101E+04  0.25500000920E-02 0. -1.
        2   -1    0    0  501    0  0.00000000000E+00  0.00000000000E+00 -0.15090695509E+04  0.15090695509E+04  0.25500000920E-02 0.  1.
    10030    2    1    2    0    0  0.00000000000E+00  0.00000000000E+00 -0.11613064089E+03  0.29020084610E+04  0.28996839107E+04 0.  0.
        5    1    3    3  502    0  0.76059193026E+03 -0.10472268863E+04  0.59578481113E+03  0.14248388916E+04  0.46999998093E+01 0. -1.
       -5    1    3    3    0  502 -0.76059193026E+03  0.10472268863E+04 -0.71191545202E+03  0.14771695694E+04  0.46999998093E+01 0.  1.
</event>
<event>
 5   0  0.8355946E-07  0.2894055E+04  0.7818609E-02  0.8274648E-01
        1   -1    0    0  501    0  0.00000000000E+00  0.00000000000E+00  0.19360730102E+04  0.19360730102E+04  0.50400001928E-02 0. -1.
       -1   -1    0    0    0  501  0.00000000000E+00  0.00000000000E+00 -0.10815133041E+04  0.10815133041E+04  0.50400001928E-02 0.  1.
    10030    2    1    2    0    0  0.00000000000E+00  0.00000000000E+00  0.85455970613E+03  0.30175863143E+04  0.28940550915E+04 0.  0.
        4    1    3    3  502    0 -0.11239860928E+04  0.63113042953E+03  0.11127739253E+04  0.17029203674E+04  0.12699999809E+01 0. -1.
       -4    1    3    3    0  502  0.11239860928E+04 -0.63113042953E+03 -0.25821421918E+03  0.13146659469E+04  0.12699999809E+01 0.  1.
</event>
<event>
 5   0  0.8947674E-07  0.2882723E+04  0.7818609E-02  0.8278036E-01
       -1   -1    0    0    0  501  0.00000000000E+00  0.00000000000E+00  0.12947958454E+04  0.12947958454E+04  0.50400001928E-02 0.  1.
        1   -1    0    0  501    0  0.00000000000E+00  0.00000000000E+00 -0.16045181936E+04  0.16045181936E+04  0.50400001928E-02 0. -1.
    10030    2    1    2    0    0  0.00000000000E+00  0.00000000000E+00 -0.30972234827E+03  0.28993140390E+04  0.28827233589E+04 0.  0.
        3    1    3    3  502    0  0.11301284363E+04  0.26744764019E+03  0.70375279603E+03  0.13579346564E+04  0.10100000352E+00 0.  1.
       -3    1    3    3    0  502 -0.11301284363E+04 -0.26744764019E+03 -0.10134751443E+04  0.15413793826E+04  0.10100000352E+00 0. -1.
</event>
<event>
 5   0  0.8263673E-07  0.2898140E+04  0.7818609E-02  0.8273431E-01
       -1   -1    0    0    0  501  0.00000000000E+00  0.00000000000E+00  0.14221683662E+04  0.14221683662E+04  0.50400001928E-02 0.  1.
        1   -1    0    0  501    0  0.00000000000E+00  0.00000000000E+00 -0.14764803936E+04  0.14764803936E+04  0.50400001928E-02 0. -1.
    10030    2    1    2    0    0  0.00000000000E+00  0.00000000000E+00 -0.54312027392E+02  0.28986487599E+04  0.28981398926E+04 0.  0.
        5    1    3    3  502    0 -0.10533627782E+04 -0.14525646077E+03 -0.10117622231E+04  0.14677729620E+04  0.46999998093E+01 0. -1.
       -5    1    3    3    0  502  0.10533627782E+04  0.14525646077E+03  0.95745019566E+03  0.14308757979E+04  0.46999998093E+01 0.  1.
</event>
<event>
 5   0  0.2304435E-06  0.2894627E+04  0.7818609E-02  0.8274478E-01
       -2   -1    0    0    0  501  0.00000000000E+00  0.00000000000E+00  0.11935949440E+04  0.11935949440E+04  0.25500000920E-02 0. -1.
        2   -1    0    0  501    0  0.00000000000E+00  0.00000000000E+00 -0.17549638305E+04  0.17549638305E+04  0.25500000920E-02 0.  1.
    10030    2    1    2    0    0  0.00000000000E+00  0.00000000000E+00 -0.56136888648E+03  0.29485587746E+04  0.28946267152E+04 0.  0.
        1    1    3    3  502    0 -0.95578295171E+03 -0.52638029401E+03 -0.12492520647E+04  0.16586826055E+04  0.50400001928E-02 0. -1.
       -1    1    3    3    0  502  0.95578295171E+03  0.52638029401E+03  0.68788317818E+03  0.12898761691E+04  0.50400001928E-02 0.  1.
</event>
<event>
 5   0  0.2325590E-06  0.2878549E+04  0.7818609E-02  0.8279289E-01
       -2   -1    0    0    0  501  0.00000000000E+00  0.00000000000E+00  0.10052367195E+04  0.10052367195E+04  0.25500000920E-02 0. -1.
        2   -1    0    0  501    0  0.00000000000E+00  0.00000000000E+00 -0.20607192265E+04  0.20607192265E+04  0.25500000920E-02 0.  1.
    10030    2    1    2    0    0  0.00000000000E+00  0.00000000000E+00 -0.10554825071E+04  0.30659559460E+04  0.28785486864E+04 0.  0.
        5    1    3    3  502    0  0.12650610430E+04 -0.67965196591E+03 -0.62980423570E+03  0.15681140592E+04  0.46999998093E+01 0.  1.
       -5    1    3    3    0  502 -0.12650610430E+04  0.67965196591E+03 -0.42567827139E+03  0.14978418868E+04  0.46999998093E+01 0. -1.
</event>
<event>
 5   0  0.8263673E-07  0.2899402E+04  0.7818609E-02  0.8273055E-01
        1   -1    0    0  501    0  0.00000000000E+00  0.00000000000E+00  0.30611538652E+04  0.30611538652E+04  0.50400001928E-02 0.  1.
       -1   -1    0    0    0  501  0.00000000000E+00  0.00000000000E+00 -0.68654930871E+03  0.68654930873E+03  0.50400001928E-02 0. -1.
    10030    2    1    2    0    0  0.00000000000E+00  0.00000000000E+00  0.23746045564E+04  0.37477031739E+04  0.28994020556E+04 0.  0.
        5    1    3    3  502    0  0.11103053601E+04 -0.93147282439E+03  0.12319170958E+04  0.19021202476E+04  0.46999998093E+01 0. -1.
       -5    1    3    3    0  502 -0.11103053601E+04  0.93147282439E+03  0.11426874606E+04  0.18455829263E+04  0.46999998093E+01 0.  1.
</event>
<event>
 5   0  0.8357118E-07  0.2912473E+04  0.7818609E-02  0.8269176E-01
        1   -1    0    0  501    0  0.00000000000E+00  0.00000000000E+00  0.23676237960E+04  0.23676237960E+04  0.50400001928E-02 0. -1.
       -1   -1    0    0    0  501  0.00000000000E+00  0.00000000000E+00 -0.89567618434E+03  0.89567618436E+03  0.50400001928E-02 0.  1.
    10030    2    1    2    0    0  0.00000000000E+00  0.00000000000E+00  0.14719476116E+04  0.32632999803E+04  0.29124726591E+04 0.  0.
        1    1    3    3  502    0  0.44066719610E+03  0.85549923981E+03 -0.48863875872E+03  0.10792749249E+04  0.50400001928E-02 0.  1.
       -1    1    3    3    0  502 -0.44066719610E+03 -0.85549923981E+03  0.19605863703E+04  0.21840250554E+04  0.50400001928E-02 0. -1.
</event>
<event>
 5   0  0.2360103E-06  0.2862418E+04  0.7818609E-02  0.8284148E-01
        2   -1    0    0  501    0  0.00000000000E+00  0.00000000000E+00  0.16772507404E+04  0.16772507404E+04  0.25500000920E-02 0. -1.
       -2   -1    0    0    0  501  0.00000000000E+00  0.00000000000E+00 -0.12212603134E+04  0.12212603134E+04  0.25500000920E-02 0.  1.
    10030    2    1    2    0    0  0.00000000000E+00  0.00000000000E+00  0.45599042694E+03  0.28985110538E+04  0.28624183935E+04 0.  0.
        4    1    3    3  502    0 -0.11718240031E+04  0.29895468591E+02 -0.60351223976E+03  0.13184437302E+04  0.12699999809E+01 0.  1.
       -4    1    3    3    0  502  0.11718240031E+04 -0.29895468591E+02  0.10595026667E+04  0.15800673236E+04  0.12699999809E+01 0. -1.
</event>
<event>
 5   0  0.8357118E-07  0.2887781E+04  0.7818609E-02  0.8276522E-01
        1   -1    0    0  501    0  0.00000000000E+00  0.00000000000E+00  0.19848991366E+04  0.19848991366E+04  0.50400001928E-02 0. -1.
       -1   -1    0    0    0  501  0.00000000000E+00  0.00000000000E+00 -0.10503405547E+04  0.10503405547E+04  0.50400001928E-02 0.  1.
    10030    2    1    2    0    0  0.00000000000E+00  0.00000000000E+00  0.93455858193E+03  0.30352396913E+04  0.28877811968E+04 0.  0.
        1    1    3    3  502    0 -0.22357203042E+03 -0.98974984945E+03 -0.61241908167E+03  0.11851777710E+04  0.50400001928E-02 0.  1.
       -1    1    3    3    0  502  0.22357203042E+03  0.98974984945E+03  0.15469776636E+04  0.18500619203E+04  0.50400001928E-02 0. -1.
</event>
<event>
 5   0  0.2360103E-06  0.2889536E+04  0.7818609E-02  0.8275998E-01
       -2   -1    0    0    0  501  0.00000000000E+00  0.00000000000E+00  0.15876453857E+04  0.15876453857E+04  0.25500000920E-02 0. -1.
        2   -1    0    0  501    0  0.00000000000E+00  0.00000000000E+00 -0.13147484375E+04  0.13147484375E+04  0.25500000920E-02 0.  1.
    10030    2    1    2    0    0  0.00000000000E+00  0.00000000000E+00  0.27289694828E+03  0.29023938232E+04  0.28895358036E+04 0.  0.
        4    1    3    3  502    0 -0.14470385678E+03 -0.13834918299E+04  0.52852351680E+03  0.14880616823E+04  0.12699999809E+01 0. -1.
       -4    1    3    3    0  502  0.14470385678E+03  0.13834918299E+04 -0.25562656852E+03  0.14143321409E+04  0.12699999809E+01 0.  1.
</event>
<event>
 5   0  0.2304435E-06  0.2903441E+04  0.7818609E-02  0.8271854E-01
       -2   -1    0    0    0  501  0.00000000000E+00  0.00000000000E+00  0.14191325864E+04  0.14191325864E+04  0.25500000920E-02 0.  1.
        2   -1    0    0  501    0  0.00000000000E+00  0.00000000000E+00 -0.14850569411E+04  0.14850569412E+04  0.25500000920E-02 0. -1.
    10030    2    1    2    0    0  0.00000000000E+00  0.00000000000E+00 -0.65924354732E+02  0.29041895276E+04  0.29034411982E+04 0.  0.
        1    1    3    3  502    0  0.87928907472E+03  0.35560760751E+03 -0.11322844090E+04  0.14770490955E+04  0.50400001928E-02 0.  1.
       -1    1    3    3    0  502 -0.87928907472E+03 -0.35560760751E+03  0.10663600543E+04  0.14271404321E+04  0.50400001928E-02 0. -1.
</event>
<event>
 5   0  0.8483636E-07  0.2894762E+04  0.7818609E-02  0.8274438E-01
       -1   -1    0    0    0  501  0.00000000000E+00  0.00000000000E+00  0.10858505783E+04  0.10858505783E+04  0.50400001928E-02 0. -1.
        1   -1    0    0  501    0  0.00000000000E+00  0.00000000000E+00 -0.19292814070E+04  0.19292814070E+04  0.50400001928E-02 0.  1.
    10030    2    1    2    0    0  0.00000000000E+00  0.00000000000E+00 -0.84343082865E+03  0.30151319853E+04  0.28947617046E+04 0.  0.
        2    1    3    3  502    0  0.26823301444E+02 -0.26514529173E+03 -0.19035063772E+04  0.19220712899E+04  0.25500000920E-02 0.  1.
       -2    1    3    3    0  502 -0.26823301444E+02  0.26514529173E+03  0.10600755486E+04  0.10930606954E+04  0.25500000920E-02 0. -1.
</event>
<event>
 5   0  0.8357118E-07  0.2895429E+04  0.7818609E-02  0.8274239E-01
        1   -1    0    0  501    0  0.00000000000E+00  0.00000000000E+00  0.17989129491E+04  0.17989129491E+04  0.50400001928E-02 0. -1.
       -1   -1    0    0    0  501  0.00000000000E+00  0.00000000000E+00 -0.11650796570E+04  0.11650796570E+04  0.50400001928E-02 0.  1.
    10030    2    1    2    0    0  0.00000000000E+00  0.00000000000E+00  0.63383329212E+03  0.29639926061E+04  0.28954287293E+04 0.  0.
        1    1    3    3  502    0  0.90523654210E+03  0.23407780385E+03  0.14483638834E+04  0.17239499860E+04  0.50400001928E-02 0. -1.
       -1    1    3    3    0  502 -0.90523654210E+03 -0.23407780385E+03 -0.81453059129E+03  0.12400426201E+04  0.50400001928E-02 0.  1.
</event>
<event>
 5   0  0.7621125E-07  0.2923884E+04  0.7818609E-02  0.8265806E-01
       -3   -1    0    0    0  501  0.00000000000E+00  0.00000000000E+00  0.83615517404E+03  0.83615518014E+03  0.10100000352E+00 0.  1.
        3   -1    0    0  501    0  0.00000000000E+00  0.00000000000E+00 -0.25560745785E+04  0.25560745805E+04  0.10100000352E+00 0. -1.
    10030    2    1    2    0    0  0.00000000000E+00  0.00000000000E+00 -0.17199194045E+04  0.33922297606E+04  0.29238844011E+04 0.  0.
        5    1    3    3  502    0  0.10657609189E+03  0.13162844876E+04 -0.15875406000E+04  0.20650110320E+04  0.46999998093E+01 0. -1.
       -5    1    3    3    0  502 -0.10657609189E+03 -0.13162844876E+04 -0.13237880446E+03  0.13272187286E+04  0.46999998093E+01 0.  1.
</event>
<event>
 5   0  0.2360103E-06  0.2896232E+04  0.7818609E-02  0.8273999E-01
       -2   -1    0    0    0  501  0.00000000000E+00  0.00000000000E+00  0.11094921468E+04  0.11094921468E+04  0.25500000920E-02 0. -1.
        2   -1    0    0  501    0  0.00000000000E+00  0.00000000000E+00 -0.18900899503E+04  0.18900899503E+04  0.25500000920E-02 0.  1.
    10030    2    1    2    0    0  0.00000000000E+00  0.00000000000E+00 -0.78059780356E+03  0.29995820971E+04  0.28962320049E+04 0.  0.
        4    1    3    3  502    0 -0.15298512055E+03 -0.10943979763E+04 -0.13596059100E+04  0.17520391608E+04  0.12699999809E+01 0.  1.
       -4    1    3    3    0  502  0.15298512055E+03  0.10943979763E+04  0.57900810644E+03  0.12475429363E+04  0.12699999809E+01 0. -1.
</event>
<event>
 5   0  0.8355946E-07  0.2903562E+04  0.7818609E-02  0.8271819E-01
       -1   -1    0    0    0  501  0.00000000000E+00  0.00000000000E+00  0.86770609378E+03  0.86770609379E+03  0.50400001928E-02 0. -1.
        1   -1    0    0  501    0  0.00000000000E+00  0.00000000000E+00 -0.24290109913E+04  0.24290109913E+04  0.50400001928E-02 0.  1.
    10030    2    1    2    0    0  0.00000000000E+00  0.00000000000E+00 -0.15613048975E+04  0.32967170851E+04  0.29035617018E+04 0.  0.
        4    1    3    3  502    0  0.13898598998E+04  0.34274774445E+03 -0.50608292634E+03  0.15183241086E+04  0.12699999809E+01 0. -1.
       -4    1    3    3    0  502 -0.13898598998E+04 -0.34274774445E+03 -0.10552219712E+04  0.17783929765E+04  0.12699999809E+01 0.  1.
</event>
<event>
 5   0  0.2360103E-06  0.2894271E+04  0.7818609E-02  0.8274584E-01
        2   -1    0    0  501    0  0.00000000000E+00  0.00000000000E+00  0.18377809815E+04  0.18377809815E+04  0.25500000920E-02 0.  1.
       -2   -1    0    0    0  501  0.00000000000E+00  0.00000000000E+00 -0.11395269567E+04  0.11395269567E+04  0.25500000920E-02 0. -1.
    10030    2    1    2    0    0  0.00000000000E+00  0.00000000000E+00  0.69825402476E+03  0.29773079382E+04  0.28942708712E+04 0.  0.
        4    1    3    3  502    0  0.41778155338E+03 -0.84785449094E+01  0.17743682298E+04  0.18229090872E+04  0.12699999809E+01 0.  1.
       -4    1    3    3    0  502 -0.41778155338E+03  0.84785449094E+01 -0.10761142051E+04  0.11543988511E+04  0.12699999809E+01 0. -1.
</event>
<event>
 5   0  0.8483636E-07  0.2911467E+04  0.7818609E-02  0.8269474E-01
        1   -1    0    0  501    0  0.00000000000E+00  0.00000000000E+00  0.20927713589E+04  0.20927713589E+04  0.50400001928E-02 0. -1.
       -1   -1    0    0    0  501  0.00000000000E+00  0.00000000000E+00 -0.10126094727E+04  0.10126094727E+04  0.50400001928E-02 0.  1.
    10030    2    1    2    0    0  0.00000000000E+00  0.00000000000E+00  0.10801618862E+04  0.31053808317E+04  0.29114670545E+04 0.  0.
        2    1    3    3  502    0  0.11172911144E+04  0.66380893669E+03 -0.15948276231E+03  0.13093572813E+04  0.25500000920E-02 0.  1.
       -2    1    3    3    0  502 -0.11172911144E+04 -0.66380893669E+03  0.12396446485E+04  0.17960235503E+04  0.25500000920E-02 0. -1.
</event>
<event>
 5   0  0.2304435E-06  0.2902718E+04  0.7818609E-02  0.8272069E-01
        2   -1    0    0  501    0  0.00000000000E+00  0.00000000000E+00  0.23491781376E+04  0.23491781376E+04  0.25500000920E-02 0.  1.
       -2   -1    0    0    0  501  0.00000000000E+00  0.00000000000E+00 -0.89667237388E+03  0.89667237388E+03  0.25500000920E-02 0. -1.
    10030    2    1    2    0    0  0.00000000000E+00  0.00000000000E+00  0.14525057637E+04  0.32458505114E+04  0.29027181312E+04 0.  0.
        1    1    3    3  502    0 -0.37381850693E+03 -0.13636275063E+04  0.10924099258E+04  0.17867791408E+04  0.50400001928E-02 0. -1.
       -1    1    3    3    0  502  0.37381850693E+03  0.13636275063E+04  0.36009583788E+03  0.14590713706E+04  0.50400001928E-02 0.  1.
</event>
<event>
 5   0  0.8947674E-07  0.2899209E+04  0.7818609E-02  0.8273113E-01
        1   -1    0    0  501    0  0.00000000000E+00  0.00000000000E+00  0.72905939392E+03  0.72905939393E+03  0.50400001928E-02 0. -1.
       -1   -1    0    0    0  501  0.00000000000E+00  0.00000000000E+00 -0.28822795591E+04  0.28822795591E+04  0.50400001928E-02 0.  1.
    10030    2    1    2    0    0  0.00000000000E+00  0.00000000000E+00 -0.21532201652E+04  0.36113389530E+04  0.28992088497E+04 0.  0.
        3    1    3    3  502    0 -0.10047819643E+04  0.55757858188E+03 -0.21773349078E+04  0.24619642527E+04  0.10100000352E+00 0.  1.
       -3    1    3    3    0  502  0.10047819643E+04 -0.55757858188E+03  0.24114742617E+02  0.11493747003E+04  0.10100000352E+00 0. -1.
</event>
<event>
 5   0  0.8357118E-07  0.2901690E+04  0.7818609E-02  0.8272375E-01
       -1   -1    0    0    0  501  0.00000000000E+00  0.00000000000E+00  0.13009155307E+04  0.13009155307E+04  0.50400001928E-02 0.  1.
        1   -1    0    0  501    0  0.00000000000E+00  0.00000000000E+00 -0.16180540492E+04  0.16180540492E+04  0.50400001928E-02 0. -1.
    10030    2    1    2    0    0  0.00000000000E+00  0.00000000000E+00 -0.31713851852E+03  0.29189695798E+04  0.29016902950E+04 0.  0.
        1    1    3    3  502    0  0.97124070498E+03 -0.74170902527E+03 -0.94521753991E+03  0.15449520973E+04  0.50400001928E-02 0. -1.
       -1    1    3    3    0  502 -0.97124070498E+03  0.74170902527E+03  0.62807902139E+03  0.13740174825E+04  0.50400001928E-02 0.  1.
</event>
<event>
 5   0  0.8947674E-07  0.2905801E+04  0.7818609E-02  0.8271153E-01
        1   -1    0    0  501    0  0.00000000000E+00  0.00000000000E+00  0.14843099052E+04  0.14843099052E+04  0.50400001928E-02 0.  1.
       -1   -1    0    0    0  501  0.00000000000E+00  0.00000000000E+00 -0.14221561595E+04  0.14221561595E+04  0.50400001928E-02 0. -1.
    10030    2    1    2    0    0  0.00000000000E+00  0.00000000000E+00  0.62153745722E+02  0.29064660647E+04  0.29058014208E+04 0.  0.
        3    1    3    3  502    0  0.90815395356E+03 -0.27338184909E+03 -0.10698288786E+04  0.14296905534E+04  0.10100000352E+00 0. -1.
       -3    1    3    3    0  502 -0.90815395356E+03  0.27338184909E+03  0.11319826243E+04  0.14767755113E+04  0.10100000352E+00 0.  1.
</event>
<event>
 5   0  0.2378690E-06  0.2882071E+04  0.7818609E-02  0.8278232E-01
       -2   -1    0    0    0  501  0.00000000000E+00  0.00000000000E+00  0.75044828690E+03  0.75044828691E+03  0.25500000920E-02 0.  1.
        2   -1    0    0  501    0  0.00000000000E+00  0.00000000000E+00 -0.27671237965E+04  0.27671237965E+04  0.25500000920E-02 0. -1.
    10030    2    1    2    0    0  0.00000000000E+00  0.00000000000E+00 -0.20166755096E+04  0.35175720834E+04  0.28820710003E+04 0.  0.
        3    1    3    3  502    0  0.76720478706E+03 -0.30582932958E+03 -0.24495886037E+04  0.25850762275E+04  0.10100000352E+00 0. -1.
       -3    1    3    3    0  502 -0.76720478706E+03  0.30582932958E+03  0.43291309411E+03  0.93249585596E+03  0.10100000352E+00 0.  1.
</event>
<event>
 5   0  0.2425845E-06  0.2899755E+04  0.7818609E-02  0.8272951E-01
        2   -1    0    0  501    0  0.00000000000E+00  0.00000000000E+00  0.21848567416E+04  0.21848567416E+04  0.25500000920E-02 0. -1.
       -2   -1    0    0    0  501  0.00000000000E+00  0.00000000000E+00 -0.96214275848E+03  0.96214275848E+03  0.25500000920E-02 0.  1.
    10030    2    1    2    0    0  0.00000000000E+00  0.00000000000E+00  0.12227139831E+04  0.31469995001E+04  0.28997545360E+04 0.  0.
        2    1    3    3  502    0  0.29999843422E+03 -0.99527362088E+03 -0.48555216433E+03  0.11473140569E+04  0.25500000920E-02 0.  1.
       -2    1    3    3    0  502 -0.29999843422E+03  0.99527362088E+03  0.17082661474E+04  0.19996854431E+04  0.25500000920E-02 0. -1.
</event>
<event>
 5   0  0.8355946E-07  0.2916301E+04  0.7818609E-02  0.8268044E-01
       -1   -1    0    0    0  501  0.00000000000E+00  0.00000000000E+00  0.16819358465E+04  0.16819358465E+04  0.50400001928E-02 0.  1.
        1   -1    0    0  501    0  0.00000000000E+00  0.00000000000E+00 -0.12641407227E+04  0.12641407227E+04  0.50400001928E-02 0. -1.
    10030    2    1    2    0    0  0.00000000000E+00  0.00000000000E+00  0.41779512378E+03  0.29460765692E+04  0.29163014909E+04 0.  0.
        4    1    3    3  502    0  0.37947543540E+00 -0.14317656347E+04  0.48784906475E+03  0.15125975340E+04  0.12699999809E+01 0.  1.
       -4    1    3    3    0  502 -0.37947543540E+00  0.14317656347E+04 -0.70053940967E+02  0.14334790352E+04  0.12699999809E+01 0. -1.
</event>
<event>
 5   0  0.2304435E-06  0.2919310E+04  0.7818609E-02  0.8267155E-01
        2   -1    0    0  501    0  0.00000000000E+00  0.00000000000E+00  0.21565990493E+04  0.21565990493E+04  0.25500000920E-02 0. -1.
       -2   -1    0    0    0  501  0.00000000000E+00  0.00000000000E+00 -0.98794109620E+03  0.98794109620E+03  0.25500000920E-02 0.  1.
    10030    2    1    2    0    0  0.00000000000E+00  0.00000000000E+00  0.11686579531E+04  0.31445401455E+04  0.29193100752E+04 0.  0.
        1    1    3    3  502    0 -0.15918511332E+03  0.38904674545E+02  0.21466593758E+04  0.21529050025E+04  0.50400001928E-02 0. -1.
       -1    1    3    3    0  502  0.15918511332E+03 -0.38904674545E+02 -0.97800142270E+03  0.99163514300E+03  0.50400001928E-02 0.  1.
</event>
<event>
 5   0  0.7621125E-07  0.2908826E+04  0.7818609E-02  0.8270256E-01
        4   -1    0    0  501    0  0.00000000000E+00  0.00000000000E+00  0.18267317963E+04  0.18267322377E+04  0.12699999809E+01 0. -1.
       -4   -1    0    0    0  501  0.00000000000E+00  0.00000000000E+00 -0.11579780361E+04  0.11579787326E+04  0.12699999809E+01 0.  1.
    10030    2    1    2    0    0  0.00000000000E+00  0.00000000000E+00  0.66875376014E+03  0.29847109703E+04  0.29088258773E+04 0.  0.
        3    1    3    3  502    0 -0.16178603089E+03  0.13667770878E+04 -0.14806194491E+03  0.13842603357E+04  0.10100000352E+00 0.  1.
       -3    1    3    3    0  502  0.16178603089E+03 -0.13667770878E+04  0.81681570505E+03  0.16004506345E+04  0.10100000352E+00 0. -1.
</event>
<event>
 5   0  0.8355946E-07  0.2905190E+04  0.7818609E-02  0.8271335E-01
       -1   -1    0    0    0  501  0.00000000000E+00  0.00000000000E+00  0.13395872584E+04  0.13395872584E+04  0.50400001928E-02 0. -1.
        1   -1    0    0  501    0  0.00000000000E+00  0.00000000000E+00 -0.15751357201E+04  0.15751357201E+04  0.50400001928E-02 0.  1.
    10030    2    1    2    0    0  0.00000000000E+00  0.00000000000E+00 -0.23554846174E+03  0.29147229785E+04  0.29051896605E+04 0.  0.
        4    1    3    3  502    0  0.12004391764E+04 -0.80444250093E+03  0.30522088080E+02  0.14453771703E+04  0.12699999809E+01 0. -1.
       -4    1    3    3    0  502 -0.12004391764E+04  0.80444250093E+03 -0.26607054982E+03  0.14693458082E+04  0.12699999809E+01 0.  1.
</event>
<event>
 5   0  0.2304435E-06  0.2906052E+04  0.7818609E-02  0.8271079E-01
       -2   -1    0    0    0  501  0.00000000000E+00  0.00000000000E+00  0.16729224439E+04  0.16729224440E+04  0.25500000920E-02 0. -1.
        2   -1    0    0  501    0  0.00000000000E+00  0.00000000000E+00 -0.12620338135E+04  0.12620338135E+04  0.25500000920E-02 0.  1.
    10030    2    1    2    0    0  0.00000000000E+00  0.00000000000E+00  0.41088863046E+03  0.29349562574E+04  0.29060520929E+04 0.  0.
        1    1    3    3  502    0 -0.12733054681E+04  0.47664252140E+03 -0.31228466573E+03  0.13949969967E+04  0.50400001928E-02 0.  1.
       -1    1    3    3    0  502  0.12733054681E+04 -0.47664252140E+03  0.72317329619E+03  0.15399592607E+04  0.50400001928E-02 0. -1.
</event>
<event>
 5   0  0.8357118E-07  0.2886634E+04  0.7818609E-02  0.8276865E-01
       -1   -1    0    0    0  501  0.00000000000E+00  0.00000000000E+00  0.10707307360E+04  0.10707307360E+04  0.50400001928E-02 0.  1.
        1   -1    0    0  501    0  0.00000000000E+00  0.00000000000E+00 -0.19455538945E+04  0.19455538945E+04  0.50400001928E-02 0. -1.
    10030    2    1    2    0    0  0.00000000000E+00  0.00000000000E+00 -0.87482315858E+03  0.30162846305E+04  0.28866342708E+04 0.  0.
        1    1    3    3  502    0  0.13259874993E+04  0.28496783840E+03  0.78436171907E+02  0.13585292600E+04  0.50400001928E-02 0.  1.
       -1    1    3    3    0  502 -0.13259874993E+04 -0.28496783840E+03 -0.95325933049E+03  0.16577553705E+04  0.50400001928E-02 0. -1.
</event>
<event>
 5   0  0.2304435E-06  0.2803941E+04  0.7818609E-02  0.8302046E-01
        2   -1    0    0  501    0  0.00000000000E+00  0.00000000000E+00  0.14655863960E+04  0.14655863960E+04  0.25500000920E-02 0. -1.
       -2   -1    0    0    0  501  0.00000000000E+00  0.00000000000E+00 -0.13411161736E+04  0.13411161736E+04  0.25500000920E-02 0.  1.
    10030    2    1    2    0    0  0.00000000000E+00  0.00000000000E+00  0.12447022242E+03  0.28067025697E+04  0.28039412402E+04 0.  0.
        1    1    3    3  502    0 -0.61676126268E+03 -0.87442026961E+03  0.96895074802E+03  0.14435618501E+04  0.50400001928E-02 0. -1.
       -1    1    3    3    0  502  0.61676126268E+03  0.87442026961E+03 -0.84448052560E+03  0.13631407195E+04  0.50400001928E-02 0.  1.
</event>
<event>
 5   0  0.8355946E-07  0.2898223E+04  0.7818609E-02  0.8273406E-01
        1   -1    0    0  501    0  0.00000000000E+00  0.00000000000E+00  0.16753972025E+04  0.16753972025E+04  0.50400001928E-02 0.  1.
       -1   -1    0    0    0  501  0.00000000000E+00  0.00000000000E+00 -0.12533886842E+04  0.12533886842E+04  0.50400001928E-02 0. -1.
    10030    2    1    2    0    0  0.00000000000E+00  0.00000000000E+00  0.42200851828E+03  0.29287858867E+04  0.28982228314E+04 0.  0.
        4    1    3    3  502    0 -0.75804534240E+03  0.84236021007E+03  0.11237001394E+04  0.15959032179E+04  0.12699999809E+01 0.  1.
       -4    1    3    3    0  502  0.75804534240E+03 -0.84236021007E+03 -0.70169162116E+03  0.13328826688E+04  0.12699999809E+01 0. -1.
</event>
<event>
 5   0  0.2425845E-06  0.2895620E+04  0.7818609E-02  0.8274182E-01
        2   -1    0    0  501    0  0.00000000000E+00  0.00000000000E+00  0.17565380047E+04  0.17565380047E+04  0.25500000920E-02 0. -1.
       -2   -1    0    0    0  501  0.00000000000E+00  0.00000000000E+00 -0.11933435548E+04  0.11933435548E+04  0.25500000920E-02 0.  1.
    10030    2    1    2    0    0  0.00000000000E+00  0.00000000000E+00  0.56319444990E+03  0.29498815595E+04  0.28956196620E+04 0.  0.
        2    1    3    3  502    0  0.72413205348E+03  0.51791986933E+03 -0.88152697102E+03  0.12528759007E+04  0.25500000920E-02 0.  1.
       -2    1    3    3    0  502 -0.72413205348E+03 -0.51791986933E+03  0.14447214209E+04  0.16970056588E+04  0.25500000920E-02 0. -1.
</event>
<event>
 5   0  0.2425845E-06  0.2917682E+04  0.7818609E-02  0.8267636E-01
        2   -1    0    0  501    0  0.00000000000E+00  0.00000000000E+00  0.22005801078E+04  0.22005801078E+04  0.25500000920E-02 0. -1.
       -2   -1    0    0    0  501  0.00000000000E+00  0.00000000000E+00 -0.96711666969E+03  0.96711666969E+03  0.25500000920E-02 0.  1.
    10030    2    1    2    0    0  0.00000000000E+00  0.00000000000E+00  0.12334634381E+04  0.31676967775E+04  0.29176824401E+04 0.  0.
        2    1    3    3  502    0  0.10710500305E+04 -0.90818858705E+02 -0.45410228865E+03  0.11668783662E+04  0.25500000920E-02 0.  1.
       -2    1    3    3    0  502 -0.10710500305E+04  0.90818858705E+02  0.16875657268E+04  0.20008184113E+04  0.25500000920E-02 0. -1.
</event>
<event>
 5   0  0.8355946E-07  0.2859033E+04  0.7818609E-02  0.8285172E-01
        1   -1    0    0  501    0  0.00000000000E+00  0.00000000000E+00  0.92110895121E+03  0.92110895123E+03  0.50400001928E-02 0.  1.
       -1   -1    0    0    0  501  0.00000000000E+00  0.00000000000E+00 -0.22185407286E+04  0.22185407286E+04  0.50400001928E-02 0. -1.
    10030    2    1    2    0    0  0.00000000000E+00  0.00000000000E+00 -0.12974317773E+04  0.31396496798E+04  0.28590332098E+04 0.  0.
        4    1    3    3  502    0  0.95354977899E+03  0.74581221995E+03 -0.14836161091E+04  0.19148397897E+04  0.12699999809E+01 0. -1.
       -4    1    3    3    0  502 -0.95354977899E+03 -0.74581221995E+03  0.18618433171E+03  0.12248098900E+04  0.12699999809E+01 0.  1.
</event>
<event>
 5   0  0.8263673E-07  0.2907817E+04  0.7818609E-02  0.8270555E-01
       -1   -1    0    0    0  501  0.00000000000E+00  0.00000000000E+00  0.16137093180E+04  0.16137093180E+04  0.50400001928E-02 0. -1.
        1   -1    0    0  501    0  0.00000000000E+00  0.00000000000E+00 -0.13099326119E+04  0.13099326119E+04  0.50400001928E-02 0.  1.
    10030    2    1    2    0    0  0.00000000000E+00  0.00000000000E+00  0.30377670611E+03  0.29236419299E+04  0.29078173683E+04 0.  0.
        5    1    3    3  502    0 -0.98449556024E+03 -0.18939380073E+03 -0.90680293277E+03  0.13518192071E+04  0.46999998093E+01 0.  1.
       -5    1    3    3    0  502  0.98449556024E+03  0.18939380073E+03  0.12105796389E+04  0.15718227228E+04  0.46999998093E+01 0. -1.
</event>
<event>
 5   0  0.8483636E-07  0.2928469E+04  0.7818609E-02  0.8264457E-01
        1   -1    0    0  501    0  0.00000000000E+00  0.00000000000E+00  0.19252506303E+04  0.19252506303E+04  0.50400001928E-02 0. -1.
       -1   -1    0    0    0  501  0.00000000000E+00  0.00000000000E+00 -0.11136120124E+04  0.11136120124E+04  0.50400001928E-02 0.  1.
    10030    2    1    2    0    0  0.00000000000E+00  0.00000000000E+00  0.81163861786E+03  0.30388626427E+04  0.29284686980E+04 0.  0.
        2    1    3    3  502    0 -0.16436701906E+03 -0.28802932778E+03  0.18857673654E+04  0.19147051907E+04  0.25500000920E-02 0. -1.
       -2    1    3    3    0  502  0.16436701906E+03  0.28802932778E+03 -0.10741287476E+04  0.11241574520E+04  0.25500000920E-02 0.  1.
</event>
<event>
 5   0  0.2378690E-06  0.2902978E+04  0.7818609E-02  0.8271992E-01
        2   -1    0    0  501    0  0.00000000000E+00  0.00000000000E+00  0.10520516537E+04  0.10520516537E+04  0.25500000920E-02 0.  1.
       -2   -1    0    0    0  501  0.00000000000E+00  0.00000000000E+00 -0.20025821923E+04  0.20025821923E+04  0.25500000920E-02 0. -1.
    10030    2    1    2    0    0  0.00000000000E+00  0.00000000000E+00 -0.95053053860E+03  0.30546338460E+04  0.29029777175E+04 0.  0.
        3    1    3    3  502    0  0.28282196295E+03  0.47342758371E+03 -0.18880530841E+04  0.19669434151E+04  0.10100000352E+00 0. -1.
       -3    1    3    3    0  502 -0.28282196295E+03 -0.47342758371E+03  0.93752254551E+03  0.10876904308E+04  0.10100000352E+00 0.  1.
</event>
<event>
 5   0  0.8483636E-07  0.2946084E+04  0.7818609E-02  0.8259297E-01
       -1   -1    0    0    0  501  0.00000000000E+00  0.00000000000E+00  0.17080063045E+04  0.17080063045E+04  0.50400001928E-02 0. -1.
        1   -1    0    0  501    0  0.00000000000E+00  0.00000000000E+00 -0.12704009240E+04  0.12704009240E+04  0.50400001928E-02 0.  1.
    10030    2    1    2    0    0  0.00000000000E+00  0.00000000000E+00  0.43760538050E+03  0.29784072285E+04  0.29460840364E+04 0.  0.
        2    1    3    3  502    0 -0.11319998762E+04 -0.17021945104E+03 -0.71843634347E+03  0.13514988571E+04  0.25500000920E-02 0.  1.
       -2    1    3    3    0  502  0.11319998762E+04  0.17021945104E+03  0.11560417240E+04  0.16269083714E+04  0.25500000920E-02 0. -1.
</event>
<event>
 5   0  0.8357118E-07  0.2947191E+04  0.7818609E-02  0.8258974E-01
        1   -1    0    0  501    0  0.00000000000E+00  0.00000000000E+00  0.18084505784E+04  0.18084505784E+04  0.50400001928E-02 0. -1.
       -1   -1    0    0    0  501  0.00000000000E+00  0.00000000000E+00 -0.12007424468E+04  0.12007424468E+04  0.50400001928E-02 0.  1.
    10030    2    1    2    0    0  0.00000000000E+00  0.00000000000E+00  0.60770813158E+03  0.30091930252E+04  0.29471907793E+04 0.  0.
        1    1    3    3  502    0 -0.92731773286E+03 -0.43101217064E+03 -0.77950196286E+03  0.12858121865E+04  0.50400001928E-02 0.  1.
       -1    1    3    3    0  502  0.92731773286E+03  0.43101217064E+03  0.13872100944E+04  0.17233808387E+04  0.50400001928E-02 0. -1.
</event>
<event>
 5   0  0.2304435E-06  0.2897243E+04  0.7818609E-02  0.8273698E-01
       -2   -1    0    0    0  501  0.00000000000E+00  0.00000000000E+00  0.20411352767E+04  0.20411352767E+04  0.25500000920E-02 0. -1.
        2   -1    0    0  501    0  0.00000000000E+00  0.00000000000E+00 -0.10281062246E+04  0.10281062246E+04  0.25500000920E-02 0.  1.
    10030    2    1    2    0    0  0.00000000000E+00  0.00000000000E+00  0.10130290521E+04  0.30692415013E+04  0.28972427466E+04 0.  0.
        1    1    3    3  502    0 -0.12562579438E+04 -0.35589078421E+03 -0.15815797383E+03  0.13152399843E+04  0.50400001928E-02 0.  1.
       -1    1    3    3    0  502  0.12562579438E+04  0.35589078421E+03  0.11711870259E+04  0.17540015169E+04  0.50400001928E-02 0. -1.
</event>
<event>
 5   0  0.7621125E-07  0.2894875E+04  0.7818609E-02  0.8274404E-01
       -3   -1    0    0    0  501  0.00000000000E+00  0.00000000000E+00  0.19269305239E+04  0.19269305265E+04  0.10100000352E+00 0.  1.
        3   -1    0    0  501    0  0.00000000000E+00  0.00000000000E+00 -0.10872604134E+04  0.10872604181E+04  0.10100000352E+00 0. -1.
    10030    2    1    2    0    0  0.00000000000E+00  0.00000000000E+00  0.83967011044E+03  0.30141909447E+04  0.28948749812E+04 0.  0.
        4    1    3    3  502    0  0.10966235608E+04 -0.83900481621E+03  0.87196919337E+03  0.16330475201E+04  0.12699999809E+01 0.  1.
       -4    1    3    3    0  502 -0.10966235608E+04  0.83900481621E+03 -0.32299082926E+02  0.13811434246E+04  0.12699999809E+01 0. -1.
</event>
<event>
 5   0  0.8263673E-07  0.2906455E+04  0.7818609E-02  0.8270959E-01
        1   -1    0    0  501    0  0.00000000000E+00  0.00000000000E+00  0.68807758751E+03  0.68807758752E+03  0.50400001928E-02 0.  1.
       -1   -1    0    0    0  501  0.00000000000E+00  0.00000000000E+00 -0.30692335599E+04  0.30692335599E+04  0.50400001928E-02 0. -1.
    10030    2    1    2    0    0  0.00000000000E+00  0.00000000000E+00 -0.23811559723E+04  0.37573111474E+04  0.29064554518E+04 0.  0.
        5    1    3    3  502    0  0.11877323719E+04 -0.72349347783E+03 -0.17355251977E+04  0.22240100723E+04  0.46999998093E+01 0. -1.
       -5    1    3    3    0  502 -0.11877323719E+04  0.72349347783E+03 -0.64563077464E+03  0.15333010751E+04  0.46999998093E+01 0.  1.
</event>
<event>
 5   0  0.2425845E-06  0.2891090E+04  0.7818609E-02  0.8275533E-01
        2   -1    0    0  501    0  0.00000000000E+00  0.00000000000E+00  0.14120491327E+04  0.14120491327E+04  0.25500000920E-02 0.  1.
       -2   -1    0    0    0  501  0.00000000000E+00  0.00000000000E+00 -0.14798356688E+04  0.14798356688E+04  0.25500000920E-02 0. -1.
    10030    2    1    2    0    0  0.00000000000E+00  0.00000000000E+00 -0.67786536045E+02  0.28918848015E+04  0.28910902253E+04 0.  0.
        2    1    3    3  502    0 -0.33312711254E+03 -0.21195639829E+03 -0.14248514030E+04  0.14785468232E+04  0.25500000920E-02 0. -1.
       -2    1    3    3    0  502  0.33312711254E+03  0.21195639829E+03  0.13570648669E+04  0.14133379783E+04  0.25500000920E-02 0.  1.
</event>
<event>
 5   0  0.2425845E-06  0.2902417E+04  0.7818609E-02  0.8272159E-01
        2   -1    0    0  501    0  0.00000000000E+00  0.00000000000E+00  0.22360662575E+04  0.22360662575E+04  0.25500000920E-02 0.  1.
       -2   -1    0    0    0  501  0.00000000000E+00  0.00000000000E+00 -0.94183557542E+03  0.94183557542E+03  0.25500000920E-02 0. -1.
    10030    2    1    2    0    0  0.00000000000E+00  0.00000000000E+00  0.12942306821E+04  0.31779018329E+04  0.29024174409E+04 0.  0.
        2    1    3    3  502    0 -0.76835451844E+03 -0.11902980231E+04  0.30290640175E+03  0.14487685591E+04  0.25500000920E-02 0.  1.
       -2    1    3    3    0  502  0.76835451844E+03  0.11902980231E+04  0.99132428034E+03  0.17291332738E+04  0.25500000920E-02 0. -1.
</event>
<event>
 5   0  0.8947674E-07  0.2874868E+04  0.7818609E-02  0.8280395E-01
       -1   -1    0    0    0  501  0.00000000000E+00  0.00000000000E+00  0.10716111263E+04  0.10716111263E+04  0.50400001928E-02 0.  1.
        1   -1    0    0  501    0  0.00000000000E+00  0.00000000000E+00 -0.19281395997E+04  0.19281395997E+04  0.50400001928E-02 0. -1.
    10030    2    1    2    0    0  0.00000000000E+00  0.00000000000E+00 -0.85652847339E+03  0.29997507261E+04  0.28748675435E+04 0.  0.
        3    1    3    3  502    0  0.13458496076E+04 -0.55799079488E+02 -0.95184965676E+03  0.16493763921E+04  0.10100000352E+00 0. -1.
       -3    1    3    3    0  502 -0.13458496076E+04  0.55799079488E+02  0.95321183366E+02  0.13503743339E+04  0.10100000352E+00 0.  1.
</event>
<event>
 5   0  0.2325590E-06  0.2905741E+04  0.7818609E-02  0.8271171E-01
       -2   -1    0    0    0  501  0.00000000000E+00  0.00000000000E+00  0.14251123815E+04  0.14251123815E+04  0.25500000920E-02 0.  1.
        2   -1    0    0  501    0  0.00000000000E+00  0.00000000000E+00 -0.14811692396E+04  0.14811692396E+04  0.25500000920E-02 0. -1.
    10030    2    1    2    0    0  0.00000000000E+00  0.00000000000E+00 -0.56056858155E+02  0.29062816211E+04  0.29057409537E+04 0.  0.
        5    1    3    3  502    0 -0.88903138385E+03 -0.33713264701E+03  0.10707092272E+04  0.14319481703E+04  0.46999998093E+01 0.  1.
       -5    1    3    3    0  502  0.88903138385E+03  0.33713264701E+03 -0.11267660854E+04  0.14743334508E+04  0.46999998093E+01 0. -1.
</event>
<event>
 5   0  0.8355946E-07  0.2910270E+04  0.7818609E-02  0.8269828E-01
       -1   -1    0    0    0  501  0.00000000000E+00  0.00000000000E+00  0.12188062158E+04  0.12188062158E+04  0.50400001928E-02 0.  1.
        1   -1    0    0  501    0  0.00000000000E+00  0.00000000000E+00 -0.17372887209E+04  0.17372887209E+04  0.50400001928E-02 0. -1.
    10030    2    1    2    0    0  0.00000000000E+00  0.00000000000E+00 -0.51848250507E+03  0.29560949367E+04  0.29102702910E+04 0.  0.
        4    1    3    3  502    0 -0.11821164677E+04  0.51687930526E+03 -0.94278093678E+03  0.15979365028E+04  0.12699999809E+01 0. -1.
       -4    1    3    3    0  502  0.11821164677E+04 -0.51687930526E+03  0.42429843171E+03  0.13581584339E+04  0.12699999809E+01 0.  1.
</event>
<event>
 5   0  0.2425845E-06  0.2895347E+04  0.7818609E-02  0.8274263E-01
        2   -1    0    0  501    0  0.00000000000E+00  0.00000000000E+00  0.23383855653E+04  0.23383855653E+04  0.25500000920E-02 0. -1.
       -2   -1    0    0    0  501  0.00000000000E+00  0.00000000000E+00 -0.89624174300E+03  0.89624174300E+03  0.25500000920E-02 0.  1.
    10030    2    1    2    0    0  0.00000000000E+00  0.00000000000E+00  0.14421438223E+04  0.32346273083E+04  0.28953471328E+04 0.  0.
        2    1    3    3  502    0 -0.25514674599E+03 -0.30476770748E+01 -0.87092090626E+03  0.90753092250E+03  0.25500000920E-02 0.  1.
       -2    1    3    3    0  502  0.25514674599E+03  0.30476770748E+01  0.23130647286E+04  0.23270963859E+04  0.25500000920E-02 0. -1.
</event>
<event>
 5   0  0.8263673E-07  0.2901989E+04  0.7818609E-02  0.8272286E-01
        1   -1    0    0  501    0  0.00000000000E+00  0.00000000000E+00  0.17281669617E+04  0.17281669618E+04  0.50400001928E-02 0. -1.
       -1   -1    0    0    0  501  0.00000000000E+00  0.00000000000E+00 -0.12182762688E+04  0.12182762688E+04  0.50400001928E-02 0.  1.
    10030    2    1    2    0    0  0.00000000000E+00  0.00000000000E+00  0.50989069298E+03  0.29464432305E+04  0.29019888339E+04 0.  0.
        5    1    3    3  502    0 -0.10580297560E+04 -0.94368759594E+03  0.56852837264E+03  0.15274880830E+04  0.46999998093E+01 0. -1.
       -5    1    3    3    0  502  0.10580297560E+04  0.94368759594E+03 -0.58637679658E+02  0.14189551475E+04  0.46999998093E+01 0.  1.
</event>
<event>
 5   0  0.7621125E-07  0.2894911E+04  0.7818609E-02  0.8274393E-01
       -3   -1    0    0    0  501  0.00000000000E+00  0.00000000000E+00  0.13325457307E+04  0.13325457345E+04  0.10100000352E+00 0. -1.
        3   -1    0    0  501    0  0.00000000000E+00  0.00000000000E+00 -0.15722739029E+04  0.15722739061E+04  0.10100000352E+00 0.  1.
    10030    2    1    2    0    0  0.00000000000E+00  0.00000000000E+00 -0.23972817218E+03  0.29048196406E+04  0.28949106287E+04 0.  0.
        4    1    3    3  502    0 -0.81305050219E+03  0.96796862396E+03  0.58761019031E+03  0.13940235740E+04  0.12699999809E+01 0. -1.
       -4    1    3    3    0  502  0.81305050219E+03 -0.96796862396E+03 -0.82733836248E+03  0.15107960667E+04  0.12699999809E+01 0.  1.
</event>
<event>
 5   0  0.8483636E-07  0.2911132E+04  0.7818609E-02  0.8269573E-01
        1   -1    0    0  501    0  0.00000000000E+00  0.00000000000E+00  0.11373608454E+04  0.11373608454E+04  0.50400001928E-02 0. -1.
       -1   -1    0    0    0  501  0.00000000000E+00  0.00000000000E+00 -0.18627968760E+04  0.18627968760E+04  0.50400001928E-02 0.  1.
    10030    2    1    2    0    0  0.00000000000E+00  0.00000000000E+00 -0.72543603060E+03  0.30001577215E+04  0.29111318966E+04 0.  0.
        2    1    3    3  502    0 -0.13877217832E+04  0.15647351111E+03 -0.78565391613E+03  0.16023444646E+04  0.25500000920E-02 0.  1.
       -2    1    3    3    0  502  0.13877217832E+04 -0.15647351111E+03  0.60217885534E+02  0.13978132569E+04  0.25500000920E-02 0. -1.
</event>
<event>
 5   0  0.8263673E-07  0.3100441E+04  0.7818609E-02  0.8215617E-01
        1   -1    0    0  501    0  0.00000000000E+00  0.00000000000E+00  0.22590835338E+04  0.22590835338E+04  0.50400001928E-02 0. -1.
       -1   -1    0    0    0  501  0.00000000000E+00  0.00000000000E+00 -0.10637870316E+04  0.10637870317E+04  0.50400001928E-02 0.  1.
    10030    2    1    2    0    0  0.00000000000E+00  0.00000000000E+00  0.11952965021E+04  0.33228705654E+04  0.31004411084E+04 0.  0.
        5    1    3    3  502    0  0.15266431928E+04  0.24316044821E+03  0.47360729502E+03  0.16168155126E+04  0.46999998093E+01 0.  1.
       -5    1    3    3    0  502 -0.15266431928E+04 -0.24316044821E+03  0.72168920712E+03  0.17060550529E+04  0.46999998093E+01 0. -1.
</event>
<event>
 5   0  0.2425845E-06  0.2904998E+04  0.7818609E-02  0.8271392E-01
       -2   -1    0    0    0  501  0.00000000000E+00  0.00000000000E+00  0.14785587584E+04  0.14785587584E+04  0.25500000920E-02 0.  1.
        2   -1    0    0  501    0  0.00000000000E+00  0.00000000000E+00 -0.14268989665E+04  0.14268989665E+04  0.25500000920E-02 0. -1.
    10030    2    1    2    0    0  0.00000000000E+00  0.00000000000E+00  0.51659791850E+02  0.29054577249E+04  0.29049984263E+04 0.  0.
        2    1    3    3  502    0  0.13580294510E+03 -0.13246796370E+04 -0.55437852251E+03  0.14424126063E+04  0.25500000920E-02 0.  1.
       -2    1    3    3    0  502 -0.13580294510E+03  0.13246796370E+04  0.60603831436E+03  0.14630451186E+04  0.25500000920E-02 0. -1.
</event>
<event>
 5   0  0.2425845E-06  0.2901309E+04  0.7818609E-02  0.8272488E-01
       -2   -1    0    0    0  501  0.00000000000E+00  0.00000000000E+00  0.11741892755E+04  0.11741892755E+04  0.25500000920E-02 0.  1.
        2   -1    0    0  501    0  0.00000000000E+00  0.00000000000E+00 -0.17922135601E+04  0.17922135601E+04  0.25500000920E-02 0. -1.
    10030    2    1    2    0    0  0.00000000000E+00  0.00000000000E+00 -0.61802428457E+03  0.29664028356E+04  0.29013086301E+04 0.  0.
        2    1    3    3  502    0  0.18411698408E+03  0.84514053360E+03  0.88169206696E+03  0.12351285303E+04  0.25500000920E-02 0.  1.
       -2    1    3    3    0  502 -0.18411698408E+03 -0.84514053360E+03 -0.14997163515E+04  0.17312743054E+04  0.25500000920E-02 0. -1.
</event>
<event>
 5   0  0.8355946E-07  0.2991528E+04  0.7818609E-02  0.8246154E-01
        1   -1    0    0  501    0  0.00000000000E+00  0.00000000000E+00  0.21902343708E+04  0.21902343708E+04  0.50400001928E-02 0. -1.
       -1   -1    0    0    0  501  0.00000000000E+00  0.00000000000E+00 -0.10214937072E+04  0.10214937072E+04  0.50400001928E-02 0.  1.
    10030    2    1    2    0    0  0.00000000000E+00  0.00000000000E+00  0.11687406636E+04  0.32117280780E+04  0.29915284568E+04 0.  0.
        4    1    3    3  502    0  0.45931432370E+03 -0.10061299635E+04 -0.49674884840E+03  0.12124471875E+04  0.12699999809E+01 0.  1.
       -4    1    3    3    0  502 -0.45931432370E+03  0.10061299635E+04  0.16654895120E+04  0.19992808904E+04  0.12699999809E+01 0. -1.
</event>
<event>
 5   0  0.2360103E-06  0.2902406E+04  0.7818609E-02  0.8272162E-01
        2   -1    0    0  501    0  0.00000000000E+00  0.00000000000E+00  0.16183250090E+04  0.16183250090E+04  0.25500000920E-02 0. -1.
       -2   -1    0    0    0  501  0.00000000000E+00  0.00000000000E+00 -0.13013390580E+04  0.13013390580E+04  0.25500000920E-02 0.  1.
    10030    2    1    2    0    0  0.00000000000E+00  0.00000000000E+00  0.31698595103E+03  0.29196640670E+04  0.29024055835E+04 0.  0.
        4    1    3    3  502    0 -0.97457720140E+03  0.29364250659E+03 -0.88204711174E+03  0.13468613007E+04  0.12699999809E+01 0.  1.
       -4    1    3    3    0  502  0.97457720140E+03 -0.29364250659E+03  0.11990330628E+04  0.15728027663E+04  0.12699999809E+01 0. -1.
</event>
<event>
 5   0  0.7621125E-07  0.2898766E+04  0.7818609E-02  0.8273245E-01
       -3   -1    0    0    0  501  0.00000000000E+00  0.00000000000E+00  0.16885531766E+04  0.16885531796E+04  0.10100000352E+00 0.  1.
        3   -1    0    0  501    0  0.00000000000E+00  0.00000000000E+00 -0.12440898026E+04  0.12440898067E+04  0.10100000352E+00 0. -1.
    10030    2    1    2    0    0  0.00000000000E+00  0.00000000000E+00  0.44446337405E+03  0.29326429863E+04  0.28987664953E+04 0.  0.
        5    1    3    3  502    0  0.55279400778E+03  0.88379413626E+03  0.12409836453E+04  0.16207207619E+04  0.46999998093E+01 0.  1.
       -5    1    3    3    0  502 -0.55279400778E+03 -0.88379413626E+03 -0.79652027121E+03  0.13119222244E+04  0.46999998093E+01 0. -1.
</event>
<event>
 5   0  0.7621125E-07  0.2866263E+04  0.7818609E-02  0.8282987E-01
        3   -1    0    0  501    0  0.00000000000E+00  0.00000000000E+00  0.18273783931E+04  0.18273783959E+04  0.10100000352E+00 0. -1.
       -3   -1    0    0    0  501  0.00000000000E+00  0.00000000000E+00 -0.11239410443E+04  0.11239410488E+04  0.10100000352E+00 0.  1.
    10030    2    1    2    0    0  0.00000000000E+00  0.00000000000E+00  0.70343734884E+03  0.29513194448E+04  0.28662627865E+04 0.  0.
        4    1    3    3  502    0  0.57881672881E+03 -0.13108135408E+04  0.32643322062E+03  0.14696330171E+04  0.12699999809E+01 0. -1.
       -4    1    3    3    0  502 -0.57881672881E+03  0.13108135408E+04  0.37700412822E+03  0.14816864277E+04  0.12699999809E+01 0.  1.
</event>
<event>
 5   0  0.8263673E-07  0.2911024E+04  0.7818609E-02  0.8269605E-01
        1   -1    0    0  501    0  0.00000000000E+00  0.00000000000E+00  0.15131752248E+04  0.15131752248E+04  0.50400001928E-02 0. -1.
       -1   -1    0    0    0  501  0.00000000000E+00  0.00000000000E+00 -0.14000459708E+04  0.14000459708E+04  0.50400001928E-02 0.  1.
    10030    2    1    2    0    0  0.00000000000E+00  0.00000000000E+00  0.11312925399E+03  0.29132211956E+04  0.29110237901E+04 0.  0.
        5    1    3    3  502    0  0.14547327379E+03 -0.40424032051E+03  0.14482689214E+04  0.15106547153E+04  0.46999998093E+01 0. -1.
       -5    1    3    3    0  502 -0.14547327379E+03  0.40424032051E+03 -0.13351396675E+04  0.14025664803E+04  0.46999998093E+01 0.  1.
</event>
<event>
 5   0  0.2425845E-06  0.2864641E+04  0.7818609E-02  0.8283476E-01
        2   -1    0    0  501    0  0.00000000000E+00  0.00000000000E+00  0.22506795808E+04  0.22506795808E+04  0.25500000920E-02 0. -1.
       -2   -1    0    0    0  501  0.00000000000E+00  0.00000000000E+00 -0.91152092034E+03  0.91152092034E+03  0.25500000920E-02 0.  1.
    10030    2    1    2    0    0  0.00000000000E+00  0.00000000000E+00  0.13391586604E+04  0.31622005011E+04  0.28646406566E+04 0.  0.
        2    1    3    3  502    0 -0.11571021604E+04  0.49829364614E+03  0.14218020477E+04  0.18996586615E+04  0.25500000920E-02 0. -1.
       -2    1    3    3    0  502  0.11571021604E+04 -0.49829364614E+03 -0.82643387220E+02  0.12625418396E+04  0.25500000920E-02 0.  1.
</event>
<event>
 5   0  0.8357118E-07  0.2897549E+04  0.7818609E-02  0.8273607E-01
        1   -1    0    0  501    0  0.00000000000E+00  0.00000000000E+00  0.25194106129E+04  0.25194106129E+04  0.50400001928E-02 0. -1.
       -1   -1    0    0    0  501  0.00000000000E+00  0.00000000000E+00 -0.83311048996E+03  0.83311048997E+03  0.50400001928E-02 0.  1.
    10030    2    1    2    0    0  0.00000000000E+00  0.00000000000E+00  0.16863001229E+04  0.33525211028E+04  0.28975489022E+04 0.  0.
        1    1    3    3  502    0  0.45943817696E+03  0.18014193484E+02  0.24327533983E+04  0.24758224990E+04  0.50400001928E-02 0. -1.
       -1    1    3    3    0  502 -0.45943817696E+03 -0.18014193484E+02 -0.74645327539E+03  0.87669860384E+03  0.50400001928E-02 0.  1.
</event>
<event>
 5   0  0.2425845E-06  0.2901663E+04  0.7818609E-02  0.8272383E-01
        2   -1    0    0  501    0  0.00000000000E+00  0.00000000000E+00  0.87349978345E+03  0.87349978345E+03  0.25500000920E-02 0.  1.
       -2   -1    0    0    0  501  0.00000000000E+00  0.00000000000E+00 -0.24097453803E+04  0.24097453803E+04  0.25500000920E-02 0. -1.
    10030    2    1    2    0    0  0.00000000000E+00  0.00000000000E+00 -0.15362455968E+04  0.32832451637E+04  0.29016630182E+04 0.  0.
        2    1    3    3  502    0 -0.46960407561E+03  0.10630216234E+04  0.21463904507E+03  0.11817837701E+04  0.25500000920E-02 0.  1.
       -2    1    3    3    0  502  0.46960407561E+03 -0.10630216234E+04 -0.17508846419E+04  0.21014613936E+04  0.25500000920E-02 0. -1.
</event>
<event>
 5   0  0.2425845E-06  0.2907407E+04  0.7818609E-02  0.8270677E-01
       -2   -1    0    0    0  501  0.00000000000E+00  0.00000000000E+00  0.10374879181E+04  0.10374879181E+04  0.25500000920E-02 0.  1.
        2   -1    0    0  501    0  0.00000000000E+00  0.00000000000E+00 -0.20368945044E+04  0.20368945044E+04  0.25500000920E-02 0. -1.
    10030    2    1    2    0    0  0.00000000000E+00  0.00000000000E+00 -0.99940658633E+03  0.30743824225E+04  0.29074067061E+04 0.  0.
        2    1    3    3  502    0  0.67495706823E+03 -0.12554057621E+04 -0.80184519541E+03  0.16354101592E+04  0.25500000920E-02 0. -1.
       -2    1    3    3    0  502 -0.67495706823E+03  0.12554057621E+04 -0.19756139092E+03  0.14389722633E+04  0.25500000920E-02 0.  1.
</event>
<event>
 5   0  0.8947674E-07  0.2877707E+04  0.7818609E-02  0.8279541E-01
       -1   -1    0    0    0  501  0.00000000000E+00  0.00000000000E+00  0.11076346217E+04  0.11076346217E+04  0.50400001928E-02 0.  1.
        1   -1    0    0  501    0  0.00000000000E+00  0.00000000000E+00 -0.18691178064E+04  0.18691178064E+04  0.50400001928E-02 0. -1.
    10030    2    1    2    0    0  0.00000000000E+00  0.00000000000E+00 -0.76148318468E+03  0.29767524281E+04  0.28777071390E+04 0.  0.
        3    1    3    3  502    0  0.12143711500E+04 -0.51098309425E+03 -0.97900612372E+03  0.16414182932E+04  0.10100000352E+00 0. -1.
       -3    1    3    3    0  502 -0.12143711500E+04  0.51098309425E+03  0.21752293904E+03  0.13353341349E+04  0.10100000352E+00 0.  1.
</event>
<event>
 5   0  0.8357118E-07  0.2906755E+04  0.7818609E-02  0.8270870E-01
        1   -1    0    0  501    0  0.00000000000E+00  0.00000000000E+00  0.18237938454E+04  0.18237938454E+04  0.50400001928E-02 0. -1.
       -1   -1    0    0    0  501  0.00000000000E+00  0.00000000000E+00 -0.11581938858E+04  0.11581938858E+04  0.50400001928E-02 0.  1.
    10030    2    1    2    0    0  0.00000000000E+00  0.00000000000E+00  0.66559995954E+03  0.29819877312E+04  0.29067554976E+04 0.  0.
        1    1    3    3  502    0  0.93574507241E+03  0.10000829749E+04  0.83172260367E+03  0.16023567914E+04  0.50400001928E-02 0. -1.
       -1    1    3    3    0  502 -0.93574507241E+03 -0.10000829749E+04 -0.16612264413E+03  0.13796309399E+04  0.50400001928E-02 0.  1.
</event>
<event>
 5   0  0.8947674E-07  0.2915009E+04  0.7818609E-02  0.8268426E-01
        1   -1    0    0  501    0  0.00000000000E+00  0.00000000000E+00  0.13051884079E+04  0.13051884079E+04  0.50400001928E-02 0.  1.
       -1   -1    0    0    0  501  0.00000000000E+00  0.00000000000E+00 -0.16275962359E+04  0.16275962359E+04  0.50400001928E-02 0. -1.
    10030    2    1    2    0    0  0.00000000000E+00  0.00000000000E+00 -0.32240782797E+03  0.29327846438E+04  0.29150092555E+04 0.  0.
        3    1    3    3  502    0 -0.72233538517E+03 -0.15930987339E+03  0.11023091058E+04  0.13274914008E+04  0.10100000352E+00 0.  1.
       -3    1    3    3    0  502  0.72233538517E+03  0.15930987339E+03 -0.14247169337E+04  0.16052932430E+04  0.10100000352E+00 0. -1.
</event>
<event>
 5   0  0.7621125E-07  0.2915496E+04  0.7818609E-02  0.8268282E-01
       -3   -1    0    0    0  501  0.00000000000E+00  0.00000000000E+00  0.11846563829E+04  0.11846563872E+04  0.10100000352E+00 0. -1.
        3   -1    0    0  501    0  0.00000000000E+00  0.00000000000E+00 -0.17937941295E+04  0.17937941323E+04  0.10100000352E+00 0.  1.
    10030    2    1    2    0    0  0.00000000000E+00  0.00000000000E+00 -0.60913774653E+03  0.29784505195E+04  0.29154963048E+04 0.  0.
        3    1    3    3  502    0 -0.62678778376E+03 -0.48648103237E+03 -0.15538826542E+04  0.17447286419E+04  0.10100000352E+00 0.  1.
       -3    1    3    3    0  502  0.62678778376E+03  0.48648103237E+03  0.94474490762E+03  0.12337218777E+04  0.10100000352E+00 0. -1.
</event>
<event>
 5   0  0.8355946E-07  0.2912328E+04  0.7818609E-02  0.8269219E-01
       -1   -1    0    0    0  501  0.00000000000E+00  0.00000000000E+00  0.13258579938E+04  0.13258579938E+04  0.50400001928E-02 0. -1.
        1   -1    0    0  501    0  0.00000000000E+00  0.00000000000E+00 -0.15992764742E+04  0.15992764742E+04  0.50400001928E-02 0.  1.
    10030    2    1    2    0    0  0.00000000000E+00  0.00000000000E+00 -0.27341848040E+03  0.29251344680E+04  0.29123279332E+04 0.  0.
        4    1    3    3  502    0  0.12162606645E+04 -0.71050106224E+03 -0.50753475781E+03  0.14972290763E+04  0.12699999809E+01 0.  1.
       -4    1    3    3    0  502 -0.12162606645E+04  0.71050106224E+03  0.23411627742E+03  0.14279053917E+04  0.12699999809E+01 0. -1.
</event>
<event>
 5   0  0.8355946E-07  0.2899862E+04  0.7818609E-02  0.8272919E-01
        1   -1    0    0  501    0  0.00000000000E+00  0.00000000000E+00  0.15655004460E+04  0.15655004460E+04  0.50400001928E-02 0.  1.
       -1   -1    0    0    0  501  0.00000000000E+00  0.00000000000E+00 -0.13428932042E+04  0.13428932042E+04  0.50400001928E-02 0. -1.
    10030    2    1    2    0    0  0.00000000000E+00  0.00000000000E+00  0.22260724180E+03  0.29083936502E+04  0.28998620036E+04 0.  0.
        4    1    3    3  502    0  0.17990264591E+03  0.14008392496E+04 -0.21765944505E+03  0.14290181287E+04  0.12699999809E+01 0. -1.
       -4    1    3    3    0  502 -0.17990264591E+03 -0.14008392496E+04  0.44026668686E+03  0.14793755215E+04  0.12699999809E+01 0.  1.
</event>
<event>
 5   0  0.2304435E-06  0.2899931E+04  0.7818609E-02  0.8272898E-01
       -2   -1    0    0    0  501  0.00000000000E+00  0.00000000000E+00  0.21555410593E+04  0.21555410593E+04  0.25500000920E-02 0. -1.
        2   -1    0    0  501    0  0.00000000000E+00  0.00000000000E+00 -0.97534705608E+03  0.97534705608E+03  0.25500000920E-02 0.  1.
    10030    2    1    2    0    0  0.00000000000E+00  0.00000000000E+00  0.11801940032E+04  0.31308881154E+04  0.28999314657E+04 0.  0.
        1    1    3    3  502    0  0.75144069988E+03  0.79098575068E+03 -0.44099175768E+03  0.11767732634E+04  0.50400001928E-02 0.  1.
       -1    1    3    3    0  502 -0.75144069988E+03 -0.79098575068E+03  0.16211857609E+04  0.19541148519E+04  0.50400001928E-02 0. -1.
</event>
<event>
 5   0  0.2378690E-06  0.2900972E+04  0.7818609E-02  0.8272588E-01
       -2   -1    0    0    0  501  0.00000000000E+00  0.00000000000E+00  0.21304971711E+04  0.21304971711E+04  0.25500000920E-02 0. -1.
        2   -1    0    0  501    0  0.00000000000E+00  0.00000000000E+00 -0.98752081903E+03  0.98752081903E+03  0.25500000920E-02 0.  1.
    10030    2    1    2    0    0  0.00000000000E+00  0.00000000000E+00  0.11429763520E+04  0.31180179901E+04  0.29009724654E+04 0.  0.
        3    1    3    3  502    0  0.11529397674E+03  0.13151293483E+04 -0.74344666410E+02  0.13222651185E+04  0.10100000352E+00 0.  1.
       -3    1    3    3    0  502 -0.11529397674E+03 -0.13151293483E+04  0.12173210184E+04  0.17957528716E+04  0.10100000352E+00 0. -1.
</event>
<event>
 5   0  0.7621125E-07  0.2898878E+04  0.7818609E-02  0.8273211E-01
       -3   -1    0    0    0  501  0.00000000000E+00  0.00000000000E+00  0.28391128338E+04  0.28391128356E+04  0.10100000352E+00 0. -1.
        3   -1    0    0  501    0  0.00000000000E+00  0.00000000000E+00 -0.73997514636E+03  0.73997515326E+03  0.10100000352E+00 0.  1.
    10030    2    1    2    0    0  0.00000000000E+00  0.00000000000E+00  0.20991376874E+04  0.35790879888E+04  0.28988776796E+04 0.  0.
        4    1    3    3  502    0  0.76517883775E+03 -0.11737173658E+04  0.59131679758E+03  0.15207788388E+04  0.12699999809E+01 0.  1.
       -4    1    3    3    0  502 -0.76517883775E+03  0.11737173658E+04  0.15078208898E+04  0.20583091500E+04  0.12699999809E+01 0. -1.
</event>
<event>
 5   0  0.2425845E-06  0.2902985E+04  0.7818609E-02  0.8271990E-01
       -2   -1    0    0    0  501  0.00000000000E+00  0.00000000000E+00  0.96263532483E+03  0.96263532483E+03  0.25500000920E-02 0.  1.
        2   -1    0    0  501    0  0.00000000000E+00  0.00000000000E+00 -0.21886075800E+04  0.21886075800E+04  0.25500000920E-02 0. -1.
    10030    2    1    2    0    0  0.00000000000E+00  0.00000000000E+00 -0.12259722552E+04  0.31512429049E+04  0.29029853384E+04 0.  0.
        2    1    3    3  502    0 -0.72374264691E+03 -0.12557421229E+04 -0.52793199388E+03  0.15425316490E+04  0.25500000920E-02 0. -1.
       -2    1    3    3    0  502  0.72374264691E+03  0.12557421229E+04 -0.69804026132E+03  0.16087112558E+04  0.25500000920E-02 0.  1.
</event>
<event>
 5   0  0.2360103E-06  0.2897715E+04  0.7818609E-02  0.8273558E-01
       -2   -1    0    0    0  501  0.00000000000E+00  0.00000000000E+00  0.14065129833E+04  0.14065129833E+04  0.25500000920E-02 0.  1.
        2   -1    0    0  501    0  0.00000000000E+00  0.00000000000E+00 -0.14924764613E+04  0.14924764613E+04  0.25500000920E-02 0. -1.
    10030    2    1    2    0    0  0.00000000000E+00  0.00000000000E+00 -0.85963477987E+02  0.28989894447E+04  0.28977146307E+04 0.  0.
        4    1    3    3  502    0  0.10115051601E+04  0.10027985849E+04  0.22253701208E+03  0.14416213183E+04  0.12699999809E+01 0.  1.
       -4    1    3    3    0  502 -0.10115051601E+04 -0.10027985849E+04 -0.30850049007E+03  0.14573681264E+04  0.12699999809E+01 0. -1.
</event>
<event>
 5   0  0.8355946E-07  0.2888211E+04  0.7818609E-02  0.8276394E-01
        1   -1    0    0  501    0  0.00000000000E+00  0.00000000000E+00  0.21097083537E+04  0.21097083537E+04  0.50400001928E-02 0.  1.
       -1   -1    0    0    0  501  0.00000000000E+00  0.00000000000E+00 -0.98849690705E+03  0.98849690706E+03  0.50400001928E-02 0. -1.
    10030    2    1    2    0    0  0.00000000000E+00  0.00000000000E+00  0.11212114466E+04  0.30982052607E+04  0.28882106450E+04 0.  0.
        4    1    3    3  502    0 -0.52950464880E+03 -0.42674698436E+03 -0.80597077413E+03  0.10545514039E+04  0.12699999809E+01 0. -1.
       -4    1    3    3    0  502  0.52950464880E+03  0.42674698436E+03  0.19271822208E+04  0.20436538569E+04  0.12699999809E+01 0.  1.
</event>
<event>
 5   0  0.2325590E-06  0.2899066E+04  0.7818609E-02  0.8273155E-01
        2   -1    0    0  501    0  0.00000000000E+00  0.00000000000E+00  0.23181439846E+04  0.23181439846E+04  0.25500000920E-02 0.  1.
       -2   -1    0    0    0  501  0.00000000000E+00  0.00000000000E+00 -0.90639135345E+03  0.90639135346E+03  0.25500000920E-02 0. -1.
    10030    2    1    2    0    0  0.00000000000E+00  0.00000000000E+00  0.14117526311E+04  0.32245353380E+04  0.28990658245E+04 0.  0.
        5    1    3    3  502    0 -0.26517542826E+03 -0.55233702998E+03 -0.75527572806E+03  0.97255216715E+03  0.46999998093E+01 0. -1.
       -5    1    3    3    0  502  0.26517542826E+03  0.55233702998E+03  0.21670283592E+04  0.22519831709E+04  0.46999998093E+01 0.  1.
</event>
<event>
 5   0  0.2378690E-06  0.2901747E+04  0.7818609E-02  0.8272358E-01
       -2   -1    0    0    0  501  0.00000000000E+00  0.00000000000E+00  0.17402976144E+04  0.17402976144E+04  0.25500000920E-02 0. -1.
        2   -1    0    0  501    0  0.00000000000E+00  0.00000000000E+00 -0.12095825197E+04  0.12095825197E+04  0.25500000920E-02 0.  1.
    10030    2    1    2    0    0  0.00000000000E+00  0.00000000000E+00  0.53071509472E+03  0.29498801341E+04  0.29017467660E+04 0.  0.
        3    1    3    3  502    0 -0.65245885005E+02  0.12081322669E+04 -0.54867024728E+03  0.13284877305E+04  0.10100000352E+00 0.  1.
       -3    1    3    3    0  502  0.65245885005E+02 -0.12081322669E+04  0.10793853420E+04  0.16213924036E+04  0.10100000352E+00 0. -1.
</event>
<event>
 5   0  0.8355946E-07  0.2818328E+04  0.7818609E-02  0.8297601E-01
       -1   -1    0    0    0  501  0.00000000000E+00  0.00000000000E+00  0.10548830099E+04  0.10548830099E+04  0.50400001928E-02 0. -1.
        1   -1    0    0  501    0  0.00000000000E+00  0.00000000000E+00 -0.18824300829E+04  0.18824300829E+04  0.50400001928E-02 0.  1.
    10030    2    1    2    0    0  0.00000000000E+00  0.00000000000E+00 -0.82754707299E+03  0.29373130928E+04  0.28183282362E+04 0.  0.
        4    1    3    3  502    0 -0.20386088595E+03  0.32268832117E+03 -0.18275282245E+04  0.18669622486E+04  0.12699999809E+01 0.  1.
       -4    1    3    3    0  502  0.20386088595E+03 -0.32268832117E+03  0.99998115150E+03  0.10703508442E+04  0.12699999809E+01 0. -1.
</event>
<event>
 5   0  0.8947674E-07  0.2900082E+04  0.7818609E-02  0.8272853E-01
        1   -1    0    0  501    0  0.00000000000E+00  0.00000000000E+00  0.24344505710E+04  0.24344505710E+04  0.50400001928E-02 0.  1.
       -1   -1    0    0    0  501  0.00000000000E+00  0.00000000000E+00 -0.86369367704E+03  0.86369367706E+03  0.50400001928E-02 0. -1.
    10030    2    1    2    0    0  0.00000000000E+00  0.00000000000E+00  0.15707568939E+04  0.32981442480E+04  0.29000824576E+04 0.  0.
        3    1    3    3  502    0  0.30334037991E+03 -0.13182648915E+04  0.13793518941E+04  0.19319548049E+04  0.10100000352E+00 0.  1.
       -3    1    3    3    0  502 -0.30334037991E+03  0.13182648915E+04  0.19140499981E+03  0.13661894431E+04  0.10100000352E+00 0. -1.
</event>
<event>
 5   0  0.2360103E-06  0.2868995E+04  0.7818609E-02  0.8282163E-01
       -2   -1    0    0    0  501  0.00000000000E+00  0.00000000000E+00  0.10135720301E+04  0.10135720301E+04  0.25500000920E-02 0.  1.
        2   -1    0    0  501    0  0.00000000000E+00  0.00000000000E+00 -0.20302286535E+04  0.20302286535E+04  0.25500000920E-02 0. -1.
    10030    2    1    2    0    0  0.00000000000E+00  0.00000000000E+00 -0.10166566234E+04  0.30438006836E+04  0.28689949305E+04 0.  0.
        4    1    3    3  502    0 -0.77994113515E+03  0.28012730963E+03  0.73391153192E+03  0.11069811351E+04  0.12699999809E+01 0.  1.
       -4    1    3    3    0  502  0.77994113515E+03 -0.28012730963E+03 -0.17505681554E+04  0.19368195485E+04  0.12699999809E+01 0. -1.
</event>
<event>
 5   0  0.2325590E-06  0.2893699E+04  0.7818609E-02  0.8274755E-01
        2   -1    0    0  501    0  0.00000000000E+00  0.00000000000E+00  0.26282428907E+04  0.26282428907E+04  0.25500000920E-02 0.  1.
       -2   -1    0    0    0  501  0.00000000000E+00  0.00000000000E+00 -0.79649147529E+03  0.79649147529E+03  0.25500000920E-02 0. -1.
    10030    2    1    2    0    0  0.00000000000E+00  0.00000000000E+00  0.18317514154E+04  0.34247343660E+04  0.28936987109E+04 0.  0.
        5    1    3    3  502    0 -0.11015448253E+04 -0.67345087643E+03  0.14303631862E+03  0.12990067604E+04  0.46999998093E+01 0.  1.
       -5    1    3    3    0  502  0.11015448253E+04  0.67345087643E+03  0.16887150968E+04  0.21257276056E+04  0.46999998093E+01 0. -1.
</event>
<event>
 5   0  0.2425845E-06  0.2904146E+04  0.7818609E-02  0.8271645E-01
       -2   -1    0    0    0  501  0.00000000000E+00  0.00000000000E+00  0.13695663598E+04  0.13695663598E+04  0.25500000920E-02 0. -1.
        2   -1    0    0  501    0  0.00000000000E+00  0.00000000000E+00 -0.15395499753E+04  0.15395499753E+04  0.25500000920E-02 0.  1.
    10030    2    1    2    0    0  0.00000000000E+00  0.00000000000E+00 -0.16998361554E+03  0.29091163351E+04  0.29041459023E+04 0.  0.
        2    1    3    3  502    0  0.95628702015E+03 -0.40395024803E+03 -0.11020398968E+04  0.15139856677E+04  0.25500000920E-02 0.  1.
       -2    1    3    3    0  502 -0.95628702015E+03  0.40395024803E+03  0.93205628127E+03  0.13951306674E+04  0.25500000920E-02 0. -1.
</event>
<event>
 5   0  0.2425845E-06  0.2892946E+04  0.7818609E-02  0.8274979E-01
        2   -1    0    0  501    0  0.00000000000E+00  0.00000000000E+00  0.23779800745E+04  0.23779800745E+04  0.25500000920E-02 0. -1.
       -2   -1    0    0    0  501  0.00000000000E+00  0.00000000000E+00 -0.87985777356E+03  0.87985777356E+03  0.25500000920E-02 0.  1.
    10030    2    1    2    0    0  0.00000000000E+00  0.00000000000E+00  0.14981223009E+04  0.32578378480E+04  0.28929460789E+04 0.  0.
        2    1    3    3  502    0 -0.91797657401E+03  0.70583034499E+02  0.20054027486E+04  0.22066497546E+04  0.25500000920E-02 0. -1.
       -2    1    3    3    0  502  0.91797657401E+03 -0.70583034499E+02 -0.50728044771E+03  0.10511880935E+04  0.25500000920E-02 0.  1.
</event>
<event>
 5   0  0.2360103E-06  0.2899505E+04  0.7818609E-02  0.8273025E-01
       -2   -1    0    0    0  501  0.00000000000E+00  0.00000000000E+00  0.10039602830E+04  0.10039602830E+04  0.25500000920E-02 0. -1.
        2   -1    0    0  501    0  0.00000000000E+00  0.00000000000E+00 -0.20934909192E+04  0.20934909192E+04  0.25500000920E-02 0.  1.
    10030    2    1    2    0    0  0.00000000000E+00  0.00000000000E+00 -0.10895306362E+04  0.30974512022E+04  0.28995046030E+04 0.  0.
        4    1    3    3  502    0  0.11455010060E+04 -0.79218878819E+03 -0.97479438058E+03  0.16999886259E+04  0.12699999809E+01 0.  1.
       -4    1    3    3    0  502 -0.11455010060E+04  0.79218878819E+03 -0.11473625566E+03  0.13974625763E+04  0.12699999809E+01 0. -1.
</event>
<event>
 5   0  0.2325590E-06  0.2895207E+04  0.7818609E-02  0.8274305E-01
       -2   -1    0    0    0  501  0.00000000000E+00  0.00000000000E+00  0.11876040866E+04  0.11876040866E+04  0.25500000920E-02 0. -1.
        2   -1    0    0  501    0  0.00000000000E+00  0.00000000000E+00 -0.17645239212E+04  0.17645239212E+04  0.25500000920E-02 0.  1.
    10030    2    1    2    0    0  0.00000000000E+00  0.00000000000E+00 -0.57691983462E+03  0.29521280078E+04  0.28952069493E+04 0.  0.
        5    1    3    3  502    0  0.84022468190E+03  0.68199047630E+03  0.69192395741E+03  0.12844724126E+04  0.46999998093E+01 0. -1.
       -5    1    3    3    0  502 -0.84022468190E+03 -0.68199047630E+03 -0.12688437920E+04  0.16676555953E+04  0.46999998093E+01 0.  1.
</event>
<event>
 5   0  0.2325590E-06  0.2894113E+04  0.7818609E-02  0.8274631E-01
        2   -1    0    0  501    0  0.00000000000E+00  0.00000000000E+00  0.15160448546E+04  0.15160448546E+04  0.25500000920E-02 0.  1.
       -2   -1    0    0    0  501  0.00000000000E+00  0.00000000000E+00 -0.13812071228E+04  0.13812071228E+04  0.25500000920E-02 0. -1.
    10030    2    1    2    0    0  0.00000000000E+00  0.00000000000E+00  0.13483773178E+03  0.28972519774E+04  0.28941126113E+04 0.  0.
        5    1    3    3  502    0 -0.11621135901E+04 -0.73696541694E+03 -0.38064215100E+03  0.14277732870E+04  0.46999998093E+01 0. -1.
       -5    1    3    3    0  502  0.11621135901E+04  0.73696541694E+03  0.51547988278E+03  0.14694786904E+04  0.46999998093E+01 0.  1.
</event>
<event>
 5   0  0.2378690E-06  0.2901260E+04  0.7818609E-02  0.8272503E-01
        2   -1    0    0  501    0  0.00000000000E+00  0.00000000000E+00  0.13487961815E+04  0.13487961815E+04  0.25500000920E-02 0. -1.
       -2   -1    0    0    0  501  0.00000000000E+00  0.00000000000E+00 -0.15601526865E+04  0.15601526865E+04  0.25500000920E-02 0.  1.
    10030    2    1    2    0    0  0.00000000000E+00  0.00000000000E+00 -0.21135650497E+03  0.29089488680E+04  0.29012604062E+04 0.  0.
        3    1    3    3  502    0  0.84074481190E+03 -0.83783095917E+03  0.73050748980E+03  0.13937193971E+04  0.10100000352E+00 0. -1.
       -3    1    3    3    0  502 -0.84074481190E+03  0.83783095917E+03 -0.94186399476E+03  0.15152294710E+04  0.10100000352E+00 0.  1.
</event>
<event>
 5   0  0.8357118E-07  0.2873864E+04  0.7818609E-02  0.8280696E-01
       -1   -1    0    0    0  501  0.00000000000E+00  0.00000000000E+00  0.79408882883E+03  0.79408882884E+03  0.50400001928E-02 0.  1.
        1   -1    0    0  501    0  0.00000000000E+00  0.00000000000E+00 -0.26001800920E+04  0.26001800921E+04  0.50400001928E-02 0. -1.
    10030    2    1    2    0    0  0.00000000000E+00  0.00000000000E+00 -0.18060912632E+04  0.33942689209E+04  0.28738642724E+04 0.  0.
        1    1    3    3  502    0  0.94915617161E+03 -0.89214708942E+03 -0.16194767727E+04  0.20783476332E+04  0.50400001928E-02 0. -1.
       -1    1    3    3    0  502 -0.94915617161E+03  0.89214708942E+03 -0.18661449055E+03  0.13159212877E+04  0.50400001928E-02 0.  1.
</event>
<event>
 5   0  0.8357118E-07  0.2908042E+04  0.7818609E-02  0.8270489E-01
        1   -1    0    0  501    0  0.00000000000E+00  0.00000000000E+00  0.18423353863E+04  0.18423353863E+04  0.50400001928E-02 0. -1.
       -1   -1    0    0    0  501  0.00000000000E+00  0.00000000000E+00 -0.11475530011E+04  0.11475530012E+04  0.50400001928E-02 0.  1.
    10030    2    1    2    0    0  0.00000000000E+00  0.00000000000E+00  0.69478238511E+03  0.29898883874E+04  0.29080422979E+04 0.  0.
        1    1    3    3  502    0  0.13045188899E+04 -0.58305904822E+03  0.70650009443E+02  0.14306358068E+04  0.50400001928E-02 0.  1.
       -1    1    3    3    0  502 -0.13045188899E+04  0.58305904822E+03  0.62413237567E+03  0.15592525806E+04  0.50400001928E-02 0. -1.
</event>
<event>
 5   0  0.2425845E-06  0.2895250E+04  0.7818609E-02  0.8274292E-01
        2   -1    0    0  501    0  0.00000000000E+00  0.00000000000E+00  0.16976081527E+04  0.16976081527E+04  0.25500000920E-02 0. -1.
       -2   -1    0    0    0  501  0.00000000000E+00  0.00000000000E+00 -0.12344537682E+04  0.12344537682E+04  0.25500000920E-02 0.  1.
    10030    2    1    2    0    0  0.00000000000E+00  0.00000000000E+00  0.46315438454E+03  0.29320619209E+04  0.28952504424E+04 0.  0.
        2    1    3    3  502    0  0.67402481203E+03 -0.81644750947E+03 -0.76825602955E+03  0.13080952985E+04  0.25500000920E-02 0.  1.
       -2    1    3    3    0  502 -0.67402481203E+03  0.81644750947E+03  0.12314104141E+04  0.16239666225E+04  0.25500000920E-02 0. -1.
</event>
<event>
 5   0  0.2360103E-06  0.2902934E+04  0.7818609E-02  0.8272005E-01
       -2   -1    0    0    0  501  0.00000000000E+00  0.00000000000E+00  0.12463036756E+04  0.12463036756E+04  0.25500000920E-02 0. -1.
        2   -1    0    0  501    0  0.00000000000E+00  0.00000000000E+00 -0.16904033761E+04  0.16904033761E+04  0.25500000920E-02 0.  1.
    10030    2    1    2    0    0  0.00000000000E+00  0.00000000000E+00 -0.44409970052E+03  0.29367070516E+04  0.29029336477E+04 0.  0.
        4    1    3    3  502    0 -0.12640716378E+02 -0.13839190496E+03  0.12395576011E+04  0.12473238419E+04  0.12699999809E+01 0. -1.
       -4    1    3    3    0  502  0.12640716378E+02  0.13839190496E+03 -0.16836573017E+04  0.16893832098E+04  0.12699999809E+01 0.  1.
</event>
<event>
 5   0  0.8263673E-07  0.2906800E+04  0.7818609E-02  0.8270857E-01
       -1   -1    0    0    0  501  0.00000000000E+00  0.00000000000E+00  0.79923856206E+03  0.79923856207E+03  0.50400001928E-02 0. -1.
        1   -1    0    0  501    0  0.00000000000E+00  0.00000000000E+00 -0.26429806784E+04  0.26429806785E+04  0.50400001928E-02 0.  1.
    10030    2    1    2    0    0  0.00000000000E+00  0.00000000000E+00 -0.18437421164E+04  0.34422192405E+04  0.29068003557E+04 0.  0.
        5    1    3    3  502    0  0.11863260262E+04 -0.10795074170E+02  0.72334054466E+02  0.11885875145E+04  0.46999998093E+01 0. -1.
       -5    1    3    3    0  502 -0.11863260262E+04  0.10795074170E+02 -0.19160761709E+04  0.22536317260E+04  0.46999998093E+01 0.  1.
</event>
<event>
 5   0  0.2304435E-06  0.2723066E+04  0.7818609E-02  0.8327560E-01
       -2   -1    0    0    0  501  0.00000000000E+00  0.00000000000E+00  0.91942867693E+03  0.91942867694E+03  0.25500000920E-02 0.  1.
        2   -1    0    0  501    0  0.00000000000E+00  0.00000000000E+00 -0.20162211857E+04  0.20162211857E+04  0.25500000920E-02 0. -1.
    10030    2    1    2    0    0  0.00000000000E+00  0.00000000000E+00 -0.10967925087E+04  0.29356498626E+04  0.27230656086E+04 0.  0.
        1    1    3    3  502    0 -0.54643834166E+03 -0.12416346918E+03 -0.18861392574E+04  0.19676210831E+04  0.50400001928E-02 0. -1.
       -1    1    3    3    0  502  0.54643834166E+03  0.12416346918E+03  0.78934674866E+03  0.96802877951E+03  0.50400001928E-02 0.  1.
</event>
<event>
 5   0  0.8263673E-07  0.2898901E+04  0.7818609E-02  0.8273205E-01
        1   -1    0    0  501    0  0.00000000000E+00  0.00000000000E+00  0.20019211686E+04  0.20019211686E+04  0.50400001928E-02 0.  1.
       -1   -1    0    0    0  501  0.00000000000E+00  0.00000000000E+00 -0.10494451334E+04  0.10494451334E+04  0.50400001928E-02 0. -1.
    10030    2    1    2    0    0  0.00000000000E+00  0.00000000000E+00  0.95247603525E+03  0.30513663020E+04  0.28989007764E+04 0.  0.
        5    1    3    3  502    0 -0.80450272491E+03 -0.23488850601E+03  0.17210112093E+04  0.19142358573E+04  0.46999998093E+01 0.  1.
       -5    1    3    3    0  502  0.80450272491E+03  0.23488850601E+03 -0.76853517405E+03  0.11371304448E+04  0.46999998093E+01 0. -1.
</event>
<event>
 5   0  0.8355946E-07  0.2885469E+04  0.7818609E-02  0.8277214E-01
       -1   -1    0    0    0  501  0.00000000000E+00  0.00000000000E+00  0.17245762537E+04  0.17245762537E+04  0.50400001928E-02 0.  1.
        1   -1    0    0  501    0  0.00000000000E+00  0.00000000000E+00 -0.12069532582E+04  0.12069532582E+04  0.50400001928E-02 0. -1.
    10030    2    1    2    0    0  0.00000000000E+00  0.00000000000E+00  0.51762299553E+03  0.29315295119E+04  0.28854690630E+04 0.  0.
        4    1    3    3  502    0  0.43607596422E+03  0.21786023177E+03 -0.11207508965E+04  0.12221740924E+04  0.12699999809E+01 0. -1.
       -4    1    3    3    0  502 -0.43607596422E+03 -0.21786023177E+03  0.16383738920E+04  0.17093554195E+04  0.12699999809E+01 0.  1.
</event>
<event>
 5   0  0.8357118E-07  0.2900945E+04  0.7818609E-02  0.8272596E-01
       -1   -1    0    0    0  501  0.00000000000E+00  0.00000000000E+00  0.13076538333E+04  0.13076538333E+04  0.50400001928E-02 0.  1.
        1   -1    0    0  501    0  0.00000000000E+00  0.00000000000E+00 -0.16088897528E+04  0.16088897528E+04  0.50400001928E-02 0. -1.
    10030    2    1    2    0    0  0.00000000000E+00  0.00000000000E+00 -0.30123591952E+03  0.29165435861E+04  0.29009452616E+04 0.  0.
        1    1    3    3  502    0  0.93584760188E+03  0.69372901483E+03  0.71820470525E+03  0.13685352311E+04  0.50400001928E-02 0.  1.
       -1    1    3    3    0  502 -0.93584760188E+03 -0.69372901483E+03 -0.10194406248E+04  0.15480083551E+04  0.50400001928E-02 0. -1.
</event>
<event>
 5   0  0.8357118E-07  0.2913213E+04  0.7818609E-02  0.8268957E-01
       -1   -1    0    0    0  501  0.00000000000E+00  0.00000000000E+00  0.17876159878E+04  0.17876159878E+04  0.50400001928E-02 0.  1.
        1   -1    0    0  501    0  0.00000000000E+00  0.00000000000E+00 -0.11868892094E+04  0.11868892095E+04  0.50400001928E-02 0. -1.
    10030    2    1    2    0    0  0.00000000000E+00  0.00000000000E+00  0.60072677836E+03  0.29745051973E+04  0.29132127465E+04 0.  0.
        1    1    3    3  502    0 -0.43545387769E+03 -0.12293388821E+04  0.96270875749E+03  0.16210189137E+04  0.50400001928E-02 0.  1.
       -1    1    3    3    0  502  0.43545387769E+03  0.12293388821E+04 -0.36198197912E+03  0.13534862836E+04  0.50400001928E-02 0. -1.
</event>
<event>
 5   0  0.8357118E-07  0.2904570E+04  0.7818609E-02  0.8271519E-01
        1   -1    0    0  501    0  0.00000000000E+00  0.00000000000E+00  0.10173050588E+04  0.10173050588E+04  0.50400001928E-02 0.  1.
       -1   -1    0    0    0  501  0.00000000000E+00  0.00000000000E+00 -0.20732534556E+04  0.20732534556E+04  0.50400001928E-02 0. -1.
    10030    2    1    2    0    0  0.00000000000E+00  0.00000000000E+00 -0.10559483968E+04  0.30905585144E+04  0.29045696608E+04 0.  0.
        1    1    3    3  502    0 -0.15580651879E+03 -0.84825228668E+03  0.71531733153E+03  0.11204849387E+04  0.50400001928E-02 0.  1.
       -1    1    3    3    0  502  0.15580651879E+03  0.84825228668E+03 -0.17712657283E+04  0.19700735757E+04  0.50400001928E-02 0. -1.
</event>
<event>
 5   0  0.8483636E-07  0.2899974E+04  0.7818609E-02  0.8272885E-01
       -1   -1    0    0    0  501  0.00000000000E+00  0.00000000000E+00  0.10021118070E+04  0.10021118070E+04  0.50400001928E-02 0.  1.
        1   -1    0    0  501    0  0.00000000000E+00  0.00000000000E+00 -0.20980319267E+04  0.20980319267E+04  0.50400001928E-02 0. -1.
    10030    2    1    2    0    0  0.00000000000E+00  0.00000000000E+00 -0.10959201197E+04  0.31001437337E+04  0.28999741828E+04 0.  0.
        2    1    3    3  502    0 -0.50821588630E+03  0.13725630936E+03 -0.19922672383E+04  0.20606434506E+04  0.25500000920E-02 0. -1.
       -2    1    3    3    0  502  0.50821588630E+03 -0.13725630936E+03  0.89634711861E+03  0.10395002831E+04  0.25500000920E-02 0.  1.
</event>
<event>
 5   0  0.8263673E-07  0.2900323E+04  0.7818609E-02  0.8272781E-01
       -1   -1    0    0    0  501  0.00000000000E+00  0.00000000000E+00  0.15555620059E+04  0.15555620059E+04  0.50400001928E-02 0. -1.
        1   -1    0    0  501    0  0.00000000000E+00  0.00000000000E+00 -0.13519024103E+04  0.13519024103E+04  0.50400001928E-02 0.  1.
    10030    2    1    2    0    0  0.00000000000E+00  0.00000000000E+00  0.20365959564E+03  0.29074644162E+04  0.29003227580E+04 0.  0.
        5    1    3    3  502    0  0.43775004640E+03  0.13702801323E+04  0.28572957542E+03  0.14666138634E+04  0.46999998093E+01 0. -1.
       -5    1    3    3    0  502 -0.43775004640E+03 -0.13702801323E+04 -0.82069979775E+02  0.14408505528E+04  0.46999998093E+01 0.  1.
</event>
<event>
 5   0  0.2378690E-06  0.2902438E+04  0.7818609E-02  0.8272153E-01
       -2   -1    0    0    0  501  0.00000000000E+00  0.00000000000E+00  0.11715756185E+04  0.11715756185E+04  0.25500000920E-02 0. -1.
        2   -1    0    0  501    0  0.00000000000E+00  0.00000000000E+00 -0.17976102999E+04  0.17976102999E+04  0.25500000920E-02 0.  1.
    10030    2    1    2    0    0  0.00000000000E+00  0.00000000000E+00 -0.62603468142E+03  0.29691859184E+04  0.29024378711E+04 0.  0.
        3    1    3    3  502    0 -0.77604762327E+03  0.56961284798E+03  0.79792547765E+03  0.12503574642E+04  0.10100000352E+00 0. -1.
       -3    1    3    3    0  502  0.77604762327E+03 -0.56961284798E+03 -0.14239601591E+04  0.17188284542E+04  0.10100000352E+00 0.  1.
</event>
<event>
 5   0  0.8947674E-07  0.2921582E+04  0.7818609E-02  0.8266485E-01
        1   -1    0    0  501    0  0.00000000000E+00  0.00000000000E+00  0.15790351678E+04  0.15790351678E+04  0.50400001928E-02 0.  1.
       -1   -1    0    0    0  501  0.00000000000E+00  0.00000000000E+00 -0.13514015149E+04  0.13514015149E+04  0.50400001928E-02 0. -1.
    10030    2    1    2    0    0  0.00000000000E+00  0.00000000000E+00  0.22763365294E+03  0.29304366827E+04  0.29215821179E+04 0.  0.
        3    1    3    3  502    0  0.78522999227E+03  0.76014424079E+03  0.10860351801E+04  0.15407393777E+04  0.10100000352E+00 0.  1.
       -3    1    3    3    0  502 -0.78522999227E+03 -0.76014424079E+03 -0.85840152712E+03  0.13896973050E+04  0.10100000352E+00 0. -1.
</event>
<event>
 5   0  0.8483636E-07  0.2885337E+04  0.7818609E-02  0.8277254E-01
        1   -1    0    0  501    0  0.00000000000E+00  0.00000000000E+00  0.18771278247E+04  0.18771278247E+04  0.50400001928E-02 0.  1.
       -1   -1    0    0    0  501  0.00000000000E+00  0.00000000000E+00 -0.11087642513E+04  0.11087642513E+04  0.50400001928E-02 0. -1.
    10030    2    1    2    0    0  0.00000000000E+00  0.00000000000E+00  0.76836357344E+03  0.29858920760E+04  0.28853368796E+04 0.  0.
        2    1    3    3  502    0  0.38764878812E+01  0.67862646513E+03  0.17016334791E+04  0.18319676317E+04  0.25500000920E-02 0.  1.
       -2    1    3    3    0  502 -0.38764878812E+01 -0.67862646513E+03 -0.93326990569E+03  0.11539244443E+04  0.25500000920E-02 0. -1.
</event>
<event>
 5   0  0.2325590E-06  0.2904193E+04  0.7818609E-02  0.8271631E-01
       -2   -1    0    0    0  501  0.00000000000E+00  0.00000000000E+00  0.97262566272E+03  0.97262566272E+03  0.25500000920E-02 0. -1.
        2   -1    0    0  501    0  0.00000000000E+00  0.00000000000E+00 -0.21679294179E+04  0.21679294179E+04  0.25500000920E-02 0.  1.
    10030    2    1    2    0    0  0.00000000000E+00  0.00000000000E+00 -0.11953037552E+04  0.31405550806E+04  0.29041926843E+04 0.  0.
        5    1    3    3  502    0 -0.14218214785E+04  0.24190150126E+03 -0.41519197992E+03  0.15008328099E+04  0.46999998093E+01 0.  1.
       -5    1    3    3    0  502  0.14218214785E+04 -0.24190150126E+03 -0.78011177528E+03  0.16397222707E+04  0.46999998093E+01 0. -1.
</event>
<event>
 5   0  0.2378690E-06  0.2900861E+04  0.7818609E-02  0.8272621E-01
       -2   -1    0    0    0  501  0.00000000000E+00  0.00000000000E+00  0.98787222830E+03  0.98787222830E+03  0.25500000920E-02 0.  1.
        2   -1    0    0  501    0  0.00000000000E+00  0.00000000000E+00 -0.21295751803E+04  0.21295751803E+04  0.25500000920E-02 0. -1.
    10030    2    1    2    0    0  0.00000000000E+00  0.00000000000E+00 -0.11417029520E+04  0.31174474086E+04  0.29008606852E+04 0.  0.
        3    1    3    3  502    0 -0.12450311911E+04 -0.55971620327E+03 -0.10977249311E+04  0.17516806014E+04  0.10100000352E+00 0. -1.
       -3    1    3    3    0  502  0.12450311911E+04  0.55971620327E+03 -0.43978020865E+02  0.13657668071E+04  0.10100000352E+00 0.  1.
</event>
<event>
 5   0  0.8357118E-07  0.2896851E+04  0.7818609E-02  0.8273815E-01
       -1   -1    0    0    0  501  0.00000000000E+00  0.00000000000E+00  0.11938387397E+04  0.11938387397E+04  0.50400001928E-02 0.  1.
        1   -1    0    0  501    0  0.00000000000E+00  0.00000000000E+00 -0.17573031545E+04  0.17573031545E+04  0.50400001928E-02 0. -1.
    10030    2    1    2    0    0  0.00000000000E+00  0.00000000000E+00 -0.56346441477E+03  0.29511418942E+04  0.28968511065E+04 0.  0.
        1    1    3    3  502    0 -0.13682758776E+04  0.41601211622E+03 -0.51558077525E+03  0.15202198834E+04  0.50400001928E-02 0. -1.
       -1    1    3    3    0  502  0.13682758776E+04 -0.41601211622E+03 -0.47883639527E+02  0.14309220108E+04  0.50400001928E-02 0.  1.
</event>
<event>
 5   0  0.2360103E-06  0.2896465E+04  0.7818609E-02  0.8273930E-01
       -2   -1    0    0    0  501  0.00000000000E+00  0.00000000000E+00  0.22474323717E+04  0.22474323717E+04  0.25500000920E-02 0.  1.
        2   -1    0    0  501    0  0.00000000000E+00  0.00000000000E+00 -0.93323248960E+03  0.93323248960E+03  0.25500000920E-02 0. -1.
    10030    2    1    2    0    0  0.00000000000E+00  0.00000000000E+00  0.13141998821E+04  0.31806648613E+04  0.28964646778E+04 0.  0.
        4    1    3    3  502    0  0.11646259828E+04  0.81992935757E+03  0.36919678537E+03  0.14713754485E+04  0.12699999809E+01 0. -1.
       -4    1    3    3    0  502 -0.11646259828E+04 -0.81992935757E+03  0.94500309676E+03  0.17092894129E+04  0.12699999809E+01 0.  1.
</event>
<event>
 5   0  0.2304435E-06  0.2815433E+04  0.7818609E-02  0.8298493E-01
        2   -1    0    0  501    0  0.00000000000E+00  0.00000000000E+00  0.18240829139E+04  0.18240829139E+04  0.25500000920E-02 0.  1.
       -2   -1    0    0    0  501  0.00000000000E+00  0.00000000000E+00 -0.10863902211E+04  0.10863902211E+04  0.25500000920E-02 0. -1.
    10030    2    1    2    0    0  0.00000000000E+00  0.00000000000E+00  0.73769269275E+03  0.29104731350E+04  0.28154330680E+04 0.  0.
        1    1    3    3  502    0 -0.68786414536E+03  0.97182596140E+03  0.11452404288E+04  0.16520225245E+04  0.50400001928E-02 0. -1.
       -1    1    3    3    0  502  0.68786414536E+03 -0.97182596140E+03 -0.40754773606E+03  0.12584506104E+04  0.50400001928E-02 0.  1.
</event>
<event>
 5   0  0.2378690E-06  0.2943119E+04  0.7818609E-02  0.8260163E-01
       -2   -1    0    0    0  501  0.00000000000E+00  0.00000000000E+00  0.13535278319E+04  0.13535278319E+04  0.25500000920E-02 0.  1.
        2   -1    0    0  501    0  0.00000000000E+00  0.00000000000E+00 -0.15998838433E+04  0.15998838433E+04  0.25500000920E-02 0. -1.
    10030    2    1    2    0    0  0.00000000000E+00  0.00000000000E+00 -0.24635601143E+03  0.29534116752E+04  0.29431189645E+04 0.  0.
        3    1    3    3  502    0 -0.63882843579E+02  0.30174054469E+03 -0.15670842405E+04  0.15971478958E+04  0.10100000352E+00 0. -1.
       -3    1    3    3    0  502  0.63882843579E+02 -0.30174054469E+03  0.13207282291E+04  0.13562637794E+04  0.10100000352E+00 0.  1.
</event>
<event>
 5   0  0.8263673E-07  0.2893980E+04  0.7818609E-02  0.8274671E-01
        1   -1    0    0  501    0  0.00000000000E+00  0.00000000000E+00  0.18316191588E+04  0.18316191588E+04  0.50400001928E-02 0.  1.
       -1   -1    0    0    0  501  0.00000000000E+00  0.00000000000E+00 -0.11431309668E+04  0.11431309668E+04  0.50400001928E-02 0. -1.
    10030    2    1    2    0    0  0.00000000000E+00  0.00000000000E+00  0.68848819207E+03  0.29747501256E+04  0.28939803591E+04 0.  0.
        5    1    3    3  502    0  0.14312176579E+03 -0.14827363971E+03 -0.11279612787E+04  0.11466419007E+04  0.46999998093E+01 0. -1.
       -5    1    3    3    0  502 -0.14312176579E+03  0.14827363971E+03  0.18164494708E+04  0.18281082249E+04  0.46999998093E+01 0.  1.
</event>
<event>
 5   0  0.8483636E-07  0.2923036E+04  0.7818609E-02  0.8266056E-01
       -1   -1    0    0    0  501  0.00000000000E+00  0.00000000000E+00  0.92832969300E+03  0.92832969301E+03  0.50400001928E-02 0. -1.
        1   -1    0    0  501    0  0.00000000000E+00  0.00000000000E+00 -0.23009447333E+04  0.23009447333E+04  0.50400001928E-02 0.  1.
    10030    2    1    2    0    0  0.00000000000E+00  0.00000000000E+00 -0.13726150403E+04  0.32292744263E+04  0.29230363103E+04 0.  0.
        2    1    3    3  502    0  0.26142683367E+01 -0.39044014813E+03  0.86964431055E+03  0.95327413190E+03  0.25500000920E-02 0. -1.
       -2    1    3    3    0  502 -0.26142683367E+01  0.39044014813E+03 -0.22422593509E+04  0.22760002944E+04  0.25500000920E-02 0.  1.
</event>
<event>
 5   0  0.8947674E-07  0.2947248E+04  0.7818609E-02  0.8258957E-01
       -1   -1    0    0    0  501  0.00000000000E+00  0.00000000000E+00  0.85998205697E+03  0.85998205698E+03  0.50400001928E-02 0.  1.
        1   -1    0    0  501    0  0.00000000000E+00  0.00000000000E+00 -0.25251316168E+04  0.25251316168E+04  0.50400001928E-02 0. -1.
    10030    2    1    2    0    0  0.00000000000E+00  0.00000000000E+00 -0.16651495598E+04  0.33851136738E+04  0.29472481280E+04 0.  0.
        3    1    3    3  502    0 -0.62240113698E+03 -0.11120242853E+04  0.17354902198E+02  0.12744733772E+04  0.10100000352E+00 0.  1.
       -3    1    3    3    0  502  0.62240113698E+03  0.11120242853E+04 -0.16825044620E+04  0.21106402965E+04  0.10100000352E+00 0. -1.
</event>
<event>
 5   0  0.2425845E-06  0.2920983E+04  0.7818609E-02  0.8266662E-01
        2   -1    0    0  501    0  0.00000000000E+00  0.00000000000E+00  0.16202027527E+04  0.16202027527E+04  0.25500000920E-02 0. -1.
       -2   -1    0    0    0  501  0.00000000000E+00  0.00000000000E+00 -0.13165234726E+04  0.13165234726E+04  0.25500000920E-02 0.  1.
    10030    2    1    2    0    0  0.00000000000E+00  0.00000000000E+00  0.30367928012E+03  0.29367262253E+04  0.29209826800E+04 0.  0.
        2    1    3    3  502    0 -0.71550786900E+03 -0.11835490196E+04 -0.32004621490E+03  0.14195666142E+04  0.25500000920E-02 0.  1.
       -2    1    3    3    0  502  0.71550786900E+03  0.11835490196E+04  0.62372549503E+03  0.15171596111E+04  0.25500000920E-02 0. -1.
</event>
<event>
 5   0  0.2360103E-06  0.2912939E+04  0.7818609E-02  0.8269038E-01
       -2   -1    0    0    0  501  0.00000000000E+00  0.00000000000E+00  0.11579233345E+04  0.11579233345E+04  0.25500000920E-02 0.  1.
        2   -1    0    0  501    0  0.00000000000E+00  0.00000000000E+00 -0.18319890895E+04  0.18319890895E+04  0.25500000920E-02 0. -1.
    10030    2    1    2    0    0  0.00000000000E+00  0.00000000000E+00 -0.67406575499E+03  0.29899124240E+04  0.29129386641E+04 0.  0.
        4    1    3    3  502    0  0.14704733898E+03 -0.96523151275E+03 -0.14463347837E+04  0.17450446162E+04  0.12699999809E+01 0. -1.
       -4    1    3    3    0  502 -0.14704733898E+03  0.96523151275E+03  0.77226902872E+03  0.12448678077E+04  0.12699999809E+01 0.  1.
</event>
<event>
 5   0  0.8483636E-07  0.2895911E+04  0.7818609E-02  0.8274095E-01
        1   -1    0    0  501    0  0.00000000000E+00  0.00000000000E+00  0.13152822367E+04  0.13152822367E+04  0.50400001928E-02 0.  1.
       -1   -1    0    0    0  501  0.00000000000E+00  0.00000000000E+00 -0.15940113477E+04  0.15940113477E+04  0.50400001928E-02 0. -1.
    10030    2    1    2    0    0  0.00000000000E+00  0.00000000000E+00 -0.27872911095E+03  0.29092935845E+04  0.28959107796E+04 0.  0.
        2    1    3    3  502    0  0.30215985048E+03  0.18878134101E+03  0.12705582683E+04  0.13195670817E+04  0.25500000920E-02 0.  1.
       -2    1    3    3    0  502 -0.30215985048E+03 -0.18878134101E+03 -0.15492873793E+04  0.15897265027E+04  0.25500000920E-02 0. -1.
</event>
<event>
 5   0  0.8263673E-07  0.2910763E+04  0.7818609E-02  0.8269682E-01
       -1   -1    0    0    0  501  0.00000000000E+00  0.00000000000E+00  0.10224620896E+04  0.10224620896E+04  0.50400001928E-02 0.  1.
        1   -1    0    0  501    0  0.00000000000E+00  0.00000000000E+00 -0.20716025187E+04  0.20716025187E+04  0.50400001928E-02 0. -1.
    10030    2    1    2    0    0  0.00000000000E+00  0.00000000000E+00 -0.10491404291E+04  0.30940646082E+04  0.29107628141E+04 0.  0.
        5    1    3    3  502    0  0.13556461695E+03  0.13893065497E+04 -0.96228121350E+03  0.16954520572E+04  0.46999998093E+01 0. -1.
       -5    1    3    3    0  502 -0.13556461695E+03 -0.13893065497E+04 -0.86859215584E+02  0.13986125510E+04  0.46999998093E+01 0.  1.
</event>
<event>
 5   0  0.8483636E-07  0.2903440E+04  0.7818609E-02  0.8271855E-01
       -1   -1    0    0    0  501  0.00000000000E+00  0.00000000000E+00  0.11313445927E+04  0.11313445927E+04  0.50400001928E-02 0.  1.
        1   -1    0    0  501    0  0.00000000000E+00  0.00000000000E+00 -0.18628198685E+04  0.18628198685E+04  0.50400001928E-02 0. -1.
    10030    2    1    2    0    0  0.00000000000E+00  0.00000000000E+00 -0.73147527582E+03  0.29941644613E+04  0.29034401564E+04 0.  0.
        2    1    3    3  502    0  0.85626951904E+03  0.14308820847E+03  0.83415709933E+03  0.12039475865E+04  0.25500000920E-02 0.  1.
       -2    1    3    3    0  502 -0.85626951904E+03 -0.14308820847E+03 -0.15656323751E+04  0.17902168748E+04  0.25500000920E-02 0. -1.
</event>
<event>
 5   0  0.2425845E-06  0.2900201E+04  0.7818609E-02  0.8272818E-01
       -2   -1    0    0    0  501  0.00000000000E+00  0.00000000000E+00  0.65716047981E+03  0.65716047981E+03  0.25500000920E-02 0.  1.
        2   -1    0    0  501    0  0.00000000000E+00  0.00000000000E+00 -0.31998148214E+04  0.31998148214E+04  0.25500000920E-02 0. -1.
    10030    2    1    2    0    0  0.00000000000E+00  0.00000000000E+00 -0.25426543416E+04  0.38569753013E+04  0.29002012643E+04 0.  0.
        2    1    3    3  502    0  0.14609961694E+03  0.74489733414E+03 -0.29144792152E+04  0.30117115122E+04  0.25500000920E-02 0. -1.
       -2    1    3    3    0  502 -0.14609961694E+03 -0.74489733414E+03  0.37182487361E+03  0.84526378908E+03  0.25500000920E-02 0.  1.
</event>
<event>
 5   0  0.2378690E-06  0.2943616E+04  0.7818609E-02  0.8260017E-01
        2   -1    0    0  501    0  0.00000000000E+00  0.00000000000E+00  0.12382244046E+04  0.12382244046E+04  0.25500000920E-02 0.  1.
       -2   -1    0    0    0  501  0.00000000000E+00  0.00000000000E+00 -0.17494557017E+04  0.17494557017E+04  0.25500000920E-02 0. -1.
    10030    2    1    2    0    0  0.00000000000E+00  0.00000000000E+00 -0.51123129712E+03  0.29876801064E+04  0.29436159700E+04 0.  0.
        3    1    3    3  502    0 -0.10922902858E+04  0.97007783060E+03 -0.43737642987E+03  0.15249417095E+04  0.10100000352E+00 0.  1.
       -3    1    3    3    0  502  0.10922902858E+04 -0.97007783060E+03 -0.73854867251E+02  0.14627383968E+04  0.10100000352E+00 0. -1.
</event>
<event>
 5   0  0.2425845E-06  0.3063514E+04  0.7818609E-02  0.8225823E-01
       -2   -1    0    0    0  501  0.00000000000E+00  0.00000000000E+00  0.18348485348E+04  0.18348485348E+04  0.25500000920E-02 0.  1.
        2   -1    0    0  501    0  0.00000000000E+00  0.00000000000E+00 -0.12787319587E+04  0.12787319587E+04  0.25500000920E-02 0. -1.
    10030    2    1    2    0    0  0.00000000000E+00  0.00000000000E+00  0.55611657605E+03  0.31135804935E+04  0.30635139698E+04 0.  0.
        2    1    3    3  502    0 -0.77543765080E+03 -0.23650603549E+03  0.15989289789E+04  0.17927109456E+04  0.25500000920E-02 0.  1.
       -2    1    3    3    0  502  0.77543765080E+03  0.23650603549E+03 -0.10428124028E+04  0.13208695479E+04  0.25500000920E-02 0. -1.
</event>
<event>
 5   0  0.8947674E-07  0.2900138E+04  0.7818609E-02  0.8272836E-01
        1   -1    0    0  501    0  0.00000000000E+00  0.00000000000E+00  0.26742964597E+04  0.26742964597E+04  0.50400001928E-02 0.  1.
       -1   -1    0    0    0  501  0.00000000000E+00  0.00000000000E+00 -0.78626309670E+03  0.78626309672E+03  0.50400001928E-02 0. -1.
    10030    2    1    2    0    0  0.00000000000E+00  0.00000000000E+00  0.18880333630E+04  0.34605595564E+04  0.29001383525E+04 0.  0.
        3    1    3    3  502    0  0.27650443643E+02 -0.44443213157E+02 -0.78513547771E+03  0.78687831002E+03  0.10100000352E+00 0. -1.
       -3    1    3    3    0  502 -0.27650443643E+02  0.44443213157E+02  0.26731688407E+04  0.26736812464E+04  0.10100000352E+00 0.  1.
</event>
<event>
 5   0  0.8263673E-07  0.2901416E+04  0.7818609E-02  0.8272456E-01
       -1   -1    0    0    0  501  0.00000000000E+00  0.00000000000E+00  0.19512247765E+04  0.19512247765E+04  0.50400001928E-02 0. -1.
        1   -1    0    0  501    0  0.00000000000E+00  0.00000000000E+00 -0.10785807465E+04  0.10785807465E+04  0.50400001928E-02 0.  1.
    10030    2    1    2    0    0  0.00000000000E+00  0.00000000000E+00  0.87264402997E+03  0.30298055230E+04  0.29014158447E+04 0.  0.
        5    1    3    3  502    0  0.91106263097E+03 -0.84124965793E+03  0.12224945860E+04  0.17413360409E+04  0.46999998093E+01 0. -1.
       -5    1    3    3    0  502 -0.91106263097E+03  0.84124965793E+03 -0.34985055608E+03  0.12884694820E+04  0.46999998093E+01 0.  1.
</event>
<event>
 5   0  0.2325590E-06  0.2912446E+04  0.7818609E-02  0.8269184E-01
        2   -1    0    0  501    0  0.00000000000E+00  0.00000000000E+00  0.22062830381E+04  0.22062830381E+04  0.25500000920E-02 0. -1.
       -2   -1    0    0    0  501  0.00000000000E+00  0.00000000000E+00 -0.96115778846E+03  0.96115778846E+03  0.25500000920E-02 0.  1.
    10030    2    1    2    0    0  0.00000000000E+00  0.00000000000E+00  0.12451252497E+04  0.31674408266E+04  0.29124464806E+04 0.  0.
        5    1    3    3  502    0  0.51906034293E+03  0.10057281085E+04 -0.37398958532E+03  0.11919743990E+04  0.46999998093E+01 0.  1.
       -5    1    3    3    0  502 -0.51906034293E+03 -0.10057281085E+04  0.16191148350E+04  0.19754664276E+04  0.46999998093E+01 0. -1.
</event>
<event>
 5   0  0.8263673E-07  0.2912845E+04  0.7818609E-02  0.8269066E-01
        1   -1    0    0  501    0  0.00000000000E+00  0.00000000000E+00  0.27997751093E+04  0.27997751093E+04  0.50400001928E-02 0.  1.
       -1   -1    0    0    0  501  0.00000000000E+00  0.00000000000E+00 -0.75762044961E+03  0.75762044963E+03  0.50400001928E-02 0. -1.
    10030    2    1    2    0    0  0.00000000000E+00  0.00000000000E+00  0.20421546596E+04  0.35573955589E+04  0.29128452600E+04 0.  0.
        5    1    3    3  502    0  0.10810871739E+04 -0.57015811591E+03  0.19883693206E+04  0.23339803769E+04  0.46999998093E+01 0.  1.
       -5    1    3    3    0  502 -0.10810871739E+04  0.57015811591E+03  0.53785339054E+02  0.12234151820E+04  0.46999998093E+01 0. -1.
</event>
<event>
 5   0  0.8483636E-07  0.2848482E+04  0.7818609E-02  0.8288373E-01
       -1   -1    0    0    0  501  0.00000000000E+00  0.00000000000E+00  0.18664227074E+04  0.18664227074E+04  0.50400001928E-02 0. -1.
        1   -1    0    0  501    0  0.00000000000E+00  0.00000000000E+00 -0.10868182493E+04  0.10868182493E+04  0.50400001928E-02 0.  1.
    10030    2    1    2    0    0  0.00000000000E+00  0.00000000000E+00  0.77960445805E+03  0.29532409567E+04  0.28484818829E+04 0.  0.
        2    1    3    3  502    0 -0.13474793513E+04  0.38245473269E+03  0.12246237858E+03  0.14060473886E+04  0.25500000920E-02 0. -1.
       -2    1    3    3    0  502  0.13474793513E+04 -0.38245473269E+03  0.65714207947E+03  0.15471935681E+04  0.25500000920E-02 0.  1.
</event>
<event>
 5   0  0.2325590E-06  0.2902416E+04  0.7818609E-02  0.8272159E-01
       -2   -1    0    0    0  501  0.00000000000E+00  0.00000000000E+00  0.92589711645E+03  0.92589711646E+03  0.25500000920E-02 0.  1.
        2   -1    0    0  501    0  0.00000000000E+00  0.00000000000E+00 -0.22745553331E+04  0.22745553331E+04  0.25500000920E-02 0. -1.
    10030    2    1    2    0    0  0.00000000000E+00  0.00000000000E+00 -0.13486582166E+04  0.32004524496E+04  0.29024157002E+04 0.  0.
        5    1    3    3  502    0 -0.10609830231E+04  0.33205270514E+03  0.35421024968E+03  0.11668037390E+04  0.46999998093E+01 0.  1.
       -5    1    3    3    0  502  0.10609830231E+04 -0.33205270514E+03 -0.17028684663E+04  0.20336487106E+04  0.46999998093E+01 0. -1.
</event>
<event>
 5   0  0.8357118E-07  0.2896806E+04  0.7818609E-02  0.8273828E-01
       -1   -1    0    0    0  501  0.00000000000E+00  0.00000000000E+00  0.11335839056E+04  0.11335839056E+04  0.50400001928E-02 0. -1.
        1   -1    0    0  501    0  0.00000000000E+00  0.00000000000E+00 -0.18506539508E+04  0.18506539508E+04  0.50400001928E-02 0.  1.
    10030    2    1    2    0    0  0.00000000000E+00  0.00000000000E+00 -0.71707004522E+03  0.29842378565E+04  0.28968061955E+04 0.  0.
        1    1    3    3  502    0 -0.76663439489E+03  0.11595126418E+04 -0.77785035545E+03  0.15928744575E+04  0.50400001928E-02 0. -1.
       -1    1    3    3    0  502  0.76663439489E+03 -0.11595126418E+04  0.60780310232E+02  0.13913633990E+04  0.50400001928E-02 0.  1.
</event>
<event>
 5   0  0.2378690E-06  0.2901205E+04  0.7818609E-02  0.8272519E-01
        2   -1    0    0  501    0  0.00000000000E+00  0.00000000000E+00  0.18584497071E+04  0.18584497071E+04  0.25500000920E-02 0. -1.
       -2   -1    0    0    0  501  0.00000000000E+00  0.00000000000E+00 -0.11322593671E+04  0.11322593671E+04  0.25500000920E-02 0.  1.
    10030    2    1    2    0    0  0.00000000000E+00  0.00000000000E+00  0.72619033998E+03  0.29907090743E+04  0.29012046389E+04 0.  0.
        3    1    3    3  502    0  0.22238954129E+03 -0.74029108497E+03 -0.90227535490E+03  0.11881030363E+04  0.10100000352E+00 0.  1.
       -3    1    3    3    0  502 -0.22238954129E+03  0.74029108497E+03  0.16284656949E+04  0.18026060380E+04  0.10100000352E+00 0. -1.
</event>
<event>
 5   0  0.2304435E-06  0.2901726E+04  0.7818609E-02  0.8272364E-01
        2   -1    0    0  501    0  0.00000000000E+00  0.00000000000E+00  0.18667212084E+04  0.18667212084E+04  0.25500000920E-02 0.  1.
       -2   -1    0    0    0  501  0.00000000000E+00  0.00000000000E+00 -0.11276478201E+04  0.11276478202E+04  0.25500000920E-02 0. -1.
    10030    2    1    2    0    0  0.00000000000E+00  0.00000000000E+00  0.73907338827E+03  0.29943690286E+04  0.29017264527E+04 0.  0.
        1    1    3    3  502    0 -0.44049999922E+03  0.10283007354E+04 -0.58384377217E+03  0.12618701209E+04  0.50400001928E-02 0. -1.
       -1    1    3    3    0  502  0.44049999922E+03 -0.10283007354E+04  0.13229171604E+04  0.17324989077E+04  0.50400001928E-02 0.  1.
</event>
<event>
 5   0  0.2378690E-06  0.2914760E+04  0.7818609E-02  0.8268500E-01
       -2   -1    0    0    0  501  0.00000000000E+00  0.00000000000E+00  0.21358432147E+04  0.21358432147E+04  0.25500000920E-02 0.  1.
        2   -1    0    0  501    0  0.00000000000E+00  0.00000000000E+00 -0.99443432754E+03  0.99443432754E+03  0.25500000920E-02 0. -1.
    10030    2    1    2    0    0  0.00000000000E+00  0.00000000000E+00  0.11414088872E+04  0.31302775423E+04  0.29147595516E+04 0.  0.
        3    1    3    3  502    0  0.22951387609E+03  0.14070616650E+04  0.24592557705E+03  0.14467130151E+04  0.10100000352E+00 0. -1.
       -3    1    3    3    0  502 -0.22951387609E+03 -0.14070616650E+04  0.89548331013E+03  0.16835645272E+04  0.10100000352E+00 0.  1.
</event>
<event>
 5   0  0.8483636E-07  0.2892291E+04  0.7818609E-02  0.8275175E-01
        1   -1    0    0  501    0  0.00000000000E+00  0.00000000000E+00  0.12251103766E+04  0.12251103766E+04  0.50400001928E-02 0. -1.
       -1   -1    0    0    0  501  0.00000000000E+00  0.00000000000E+00 -0.17070601586E+04  0.17070601586E+04  0.50400001928E-02 0.  1.
    10030    2    1    2    0    0  0.00000000000E+00  0.00000000000E+00 -0.48194978200E+03  0.29321705353E+04  0.28922912121E+04 0.  0.
        2    1    3    3  502    0  0.69553117389E+03  0.27753396083E+03 -0.14951862832E+04  0.16722352510E+04  0.25500000920E-02 0.  1.
       -2    1    3    3    0  502 -0.69553117389E+03 -0.27753396083E+03  0.10132365012E+04  0.12599352843E+04  0.25500000920E-02 0. -1.
</event>
<event>
 5   0  0.2360103E-06  0.2881605E+04  0.7818609E-02  0.8278371E-01
       -2   -1    0    0    0  501  0.00000000000E+00  0.00000000000E+00  0.20096880043E+04  0.20096880043E+04  0.25500000920E-02 0.  1.
        2   -1    0    0  501    0  0.00000000000E+00  0.00000000000E+00 -0.10329526522E+04  0.10329526522E+04  0.25500000920E-02 0. -1.
    10030    2    1    2    0    0  0.00000000000E+00  0.00000000000E+00  0.97673535208E+03  0.30426406564E+04  0.28816054928E+04 0.  0.
        4    1    3    3  502    0 -0.68935169999E+03  0.66668833501E+03 -0.64700543049E+03  0.11568477611E+04  0.12699999809E+01 0. -1.
       -4    1    3    3    0  502  0.68935169999E+03 -0.66668833501E+03  0.16237407826E+04  0.18857928954E+04  0.12699999809E+01 0.  1.
</event>
<event>
 5   0  0.8263673E-07  0.2896543E+04  0.7818609E-02  0.8273907E-01
        1   -1    0    0  501    0  0.00000000000E+00  0.00000000000E+00  0.71781208649E+03  0.71781208650E+03  0.50400001928E-02 0.  1.
       -1   -1    0    0    0  501  0.00000000000E+00  0.00000000000E+00 -0.29220606224E+04  0.29220606224E+04  0.50400001928E-02 0. -1.
    10030    2    1    2    0    0  0.00000000000E+00  0.00000000000E+00 -0.22042485359E+04  0.36398727089E+04  0.28965430653E+04 0.  0.
        5    1    3    3  502    0  0.14328632957E+04 -0.86075995454E+02 -0.13437171746E+04  0.19662411440E+04  0.46999998093E+01 0.  1.
       -5    1    3    3    0  502 -0.14328632957E+04  0.86075995454E+02 -0.86053136123E+03  0.16736315648E+04  0.46999998093E+01 0. -1.
</event>
<event>
 5   0  0.8483636E-07  0.2905486E+04  0.7818609E-02  0.8271247E-01
        1   -1    0    0  501    0  0.00000000000E+00  0.00000000000E+00  0.15028896971E+04  0.15028896971E+04  0.50400001928E-02 0. -1.
       -1   -1    0    0    0  501  0.00000000000E+00  0.00000000000E+00 -0.14042695965E+04  0.14042695965E+04  0.50400001928E-02 0.  1.
    10030    2    1    2    0    0  0.00000000000E+00  0.00000000000E+00  0.98620100616E+02  0.29071592936E+04  0.29054860581E+04 0.  0.
        2    1    3    3  502    0  0.86858709836E+03 -0.11349971710E+04 -0.21122458452E+03  0.14447414823E+04  0.25500000920E-02 0.  1.
       -2    1    3    3    0  502 -0.86858709836E+03  0.11349971710E+04  0.30984468514E+03  0.14624178112E+04  0.25500000920E-02 0. -1.
</event>
<event>
 5   0  0.8483636E-07  0.2919988E+04  0.7818609E-02  0.8266955E-01
        1   -1    0    0  501    0  0.00000000000E+00  0.00000000000E+00  0.10535883770E+04  0.10535883771E+04  0.50400001928E-02 0.  1.
       -1   -1    0    0    0  501  0.00000000000E+00  0.00000000000E+00 -0.20231649352E+04  0.20231649352E+04  0.50400001928E-02 0. -1.
    10030    2    1    2    0    0  0.00000000000E+00  0.00000000000E+00 -0.96957655811E+03  0.30767533122E+04  0.29199883976E+04 0.  0.
        2    1    3    3  502    0 -0.94204630706E+03  0.63263473906E+03  0.48317383068E+03  0.12333429808E+04  0.25500000920E-02 0.  1.
       -2    1    3    3    0  502  0.94204630706E+03 -0.63263473906E+03 -0.14527503888E+04  0.18434103314E+04  0.25500000920E-02 0. -1.
</event>
<event>
 5   0  0.8947674E-07  0.2899770E+04  0.7818609E-02  0.8272946E-01
       -1   -1    0    0    0  501  0.00000000000E+00  0.00000000000E+00  0.11268276963E+04  0.11268276963E+04  0.50400001928E-02 0. -1.
        1   -1    0    0  501    0  0.00000000000E+00  0.00000000000E+00 -0.18655617429E+04  0.18655617429E+04  0.50400001928E-02 0.  1.
    10030    2    1    2    0    0  0.00000000000E+00  0.00000000000E+00 -0.73873404659E+03  0.29923894393E+04  0.28997700882E+04 0.  0.
        3    1    3    3  502    0 -0.61239720410E+03  0.46427743904E+03  0.89936678257E+03  0.11829811900E+04  0.10100000352E+00 0. -1.
       -3    1    3    3    0  502  0.61239720410E+03 -0.46427743904E+03 -0.16381008292E+04  0.18094082493E+04  0.10100000352E+00 0.  1.
</event>
<event>
 5   0  0.8263673E-07  0.2864668E+04  0.7818609E-02  0.8283468E-01
       -1   -1    0    0    0  501  0.00000000000E+00  0.00000000000E+00  0.10692192803E+04  0.10692192803E+04  0.50400001928E-02 0.  1.
        1   -1    0    0  501    0  0.00000000000E+00  0.00000000000E+00 -0.19187651982E+04  0.19187651982E+04  0.50400001928E-02 0. -1.
    10030    2    1    2    0    0  0.00000000000E+00  0.00000000000E+00 -0.84954591782E+03  0.29879844785E+04  0.28646680396E+04 0.  0.
        5    1    3    3  502    0 -0.10494376599E+03 -0.16059422881E+03 -0.19052959315E+04  0.19149356065E+04  0.46999998093E+01 0. -1.
       -5    1    3    3    0  502  0.10494376599E+03  0.16059422881E+03  0.10557500137E+04  0.10730488720E+04  0.46999998093E+01 0.  1.
</event>
<event>
 5   0  0.2325590E-06  0.2894443E+04  0.7818609E-02  0.8274533E-01
        2   -1    0    0  501    0  0.00000000000E+00  0.00000000000E+00  0.23286800236E+04  0.23286800236E+04  0.25500000920E-02 0. -1.
       -2   -1    0    0    0  501  0.00000000000E+00  0.00000000000E+00 -0.89941529096E+03  0.89941529097E+03  0.25500000920E-02 0.  1.
    10030    2    1    2    0    0  0.00000000000E+00  0.00000000000E+00  0.14292647326E+04  0.32280953146E+04  0.28944432425E+04 0.  0.
        5    1    3    3  502    0  0.81756652536E+03  0.11898675429E+04  0.60183782221E+03  0.15641069808E+04  0.46999998093E+01 0.  1.
       -5    1    3    3    0  502 -0.81756652536E+03 -0.11898675429E+04  0.82742691043E+03  0.16639883338E+04  0.46999998093E+01 0. -1.
</event>
<event>
 5   0  0.8947674E-07  0.2847834E+04  0.7818609E-02  0.8288570E-01
        1   -1    0    0  501    0  0.00000000000E+00  0.00000000000E+00  0.11111142046E+04  0.11111142046E+04  0.50400001928E-02 0. -1.
       -1   -1    0    0    0  501  0.00000000000E+00  0.00000000000E+00 -0.18247806694E+04  0.18247806695E+04  0.50400001928E-02 0.  1.
    10030    2    1    2    0    0  0.00000000000E+00  0.00000000000E+00 -0.71366646485E+03  0.29358948741E+04  0.28478340697E+04 0.  0.
        3    1    3    3  502    0 -0.23300113663E+03  0.69239686422E+03  0.90318662984E+03  0.11616578867E+04  0.10100000352E+00 0. -1.
       -3    1    3    3    0  502  0.23300113663E+03 -0.69239686422E+03 -0.16168530947E+04  0.17742369873E+04  0.10100000352E+00 0.  1.
</event>
<event>
 5   0  0.8263673E-07  0.2901887E+04  0.7818609E-02  0.8272316E-01
       -1   -1    0    0    0  501  0.00000000000E+00  0.00000000000E+00  0.11639290468E+04  0.11639290468E+04  0.50400001928E-02 0.  1.
        1   -1    0    0  501    0  0.00000000000E+00  0.00000000000E+00 -0.18087325378E+04  0.18087325378E+04  0.50400001928E-02 0. -1.
    10030    2    1    2    0    0  0.00000000000E+00  0.00000000000E+00 -0.64480349095E+03  0.29726615846E+04  0.29018865165E+04 0.  0.
        5    1    3    3  502    0  0.36952735342E+03 -0.11037834367E+04 -0.12097416604E+04  0.16788047280E+04  0.46999998093E+01 0. -1.
       -5    1    3    3    0  502 -0.36952735342E+03  0.11037834367E+04  0.56493816942E+03  0.12938568566E+04  0.46999998093E+01 0.  1.
</event>
<event>
 5   0  0.8355946E-07  0.2887997E+04  0.7818609E-02  0.8276458E-01
       -1   -1    0    0    0  501  0.00000000000E+00  0.00000000000E+00  0.94129238260E+03  0.94129238262E+03  0.50400001928E-02 0.  1.
        1   -1    0    0  501    0  0.00000000000E+00  0.00000000000E+00 -0.22151794091E+04  0.22151794091E+04  0.50400001928E-02 0. -1.
    10030    2    1    2    0    0  0.00000000000E+00  0.00000000000E+00 -0.12738870265E+04  0.31564717917E+04  0.28879968863E+04 0.  0.
        4    1    3    3  502    0  0.81587654761E+03  0.55599072328E+03 -0.17886321316E+04  0.20430337101E+04  0.12699999809E+01 0. -1.
       -4    1    3    3    0  502 -0.81587654761E+03 -0.55599072328E+03  0.51474510519E+03  0.11134380816E+04  0.12699999809E+01 0.  1.
</event>
<event>
 5   0  0.8483636E-07  0.2897546E+04  0.7818609E-02  0.8273608E-01
        1   -1    0    0  501    0  0.00000000000E+00  0.00000000000E+00  0.14553941745E+04  0.14553941745E+04  0.50400001928E-02 0. -1.
       -1   -1    0    0    0  501  0.00000000000E+00  0.00000000000E+00 -0.14421823671E+04  0.14421823671E+04  0.50400001928E-02 0.  1.
    10030    2    1    2    0    0  0.00000000000E+00  0.00000000000E+00  0.13211807378E+02  0.28975765417E+04  0.28975464212E+04 0.  0.
        2    1    3    3  502    0 -0.52377783287E+03  0.70478329127E+03 -0.11457433130E+04  0.14435340124E+04  0.25500000920E-02 0.  1.
       -2    1    3    3    0  502  0.52377783287E+03 -0.70478329127E+03  0.11589551203E+04  0.14540425292E+04  0.25500000920E-02 0. -1.
</event>
<event>
 5   0  0.2425845E-06  0.2902112E+04  0.7818609E-02  0.8272250E-01
        2   -1    0    0  501    0  0.00000000000E+00  0.00000000000E+00  0.17121630199E+04  0.17121630199E+04  0.25500000920E-02 0. -1.
       -2   -1    0    0    0  501  0.00000000000E+00  0.00000000000E+00 -0.12297677505E+04  0.12297677505E+04  0.25500000920E-02 0.  1.
    10030    2    1    2    0    0  0.00000000000E+00  0.00000000000E+00  0.48239526938E+03  0.29419307703E+04  0.29021115522E+04 0.  0.
        2    1    3    3  502    0 -0.13890791017E+04  0.31373304758E+03  0.52357608325E+03  0.15172676398E+04  0.25500000920E-02 0. -1.
       -2    1    3    3    0  502  0.13890791017E+04 -0.31373304758E+03 -0.41180813867E+02  0.14246631305E+04  0.25500000920E-02 0.  1.
</event>
<event>
 5   0  0.2378690E-06  0.2913692E+04  0.7818609E-02  0.8268815E-01
       -2   -1    0    0    0  501  0.00000000000E+00  0.00000000000E+00  0.87209295951E+03  0.87209295951E+03  0.25500000920E-02 0. -1.
        2   -1    0    0  501    0  0.00000000000E+00  0.00000000000E+00 -0.24336860553E+04  0.24336860553E+04  0.25500000920E-02 0.  1.
    10030    2    1    2    0    0  0.00000000000E+00  0.00000000000E+00 -0.15615930958E+04  0.33057790148E+04  0.29136921419E+04 0.  0.
        3    1    3    3  502    0 -0.50513985330E+03 -0.10528395595E+04  0.20749081911E+03  0.11860395691E+04  0.10100000352E+00 0. -1.
       -3    1    3    3    0  502  0.50513985330E+03  0.10528395595E+04 -0.17690839149E+04  0.21197394457E+04  0.10100000352E+00 0.  1.
</event>
<event>
 5   0  0.2360103E-06  0.2899246E+04  0.7818609E-02  0.8273102E-01
        2   -1    0    0  501    0  0.00000000000E+00  0.00000000000E+00  0.17073292090E+04  0.17073292090E+04  0.25500000920E-02 0.  1.
       -2   -1    0    0    0  501  0.00000000000E+00  0.00000000000E+00 -0.12308155381E+04  0.12308155381E+04  0.25500000920E-02 0. -1.
    10030    2    1    2    0    0  0.00000000000E+00  0.00000000000E+00  0.47651367086E+03  0.29381447471E+04  0.28992463290E+04 0.  0.
        4    1    3    3  502    0 -0.25950014923E+03  0.10304591372E+04 -0.76098406186E+03  0.13070136633E+04  0.12699999809E+01 0. -1.
       -4    1    3    3    0  502  0.25950014923E+03 -0.10304591372E+04  0.12374977327E+04  0.16311310837E+04  0.12699999809E+01 0.  1.
</event>
<event>
 5   0  0.8263673E-07  0.2890437E+04  0.7818609E-02  0.8275728E-01
        1   -1    0    0  501    0  0.00000000000E+00  0.00000000000E+00  0.15159497104E+04  0.15159497104E+04  0.50400001928E-02 0.  1.
       -1   -1    0    0    0  501  0.00000000000E+00  0.00000000000E+00 -0.13777872802E+04  0.13777872802E+04  0.50400001928E-02 0. -1.
    10030    2    1    2    0    0  0.00000000000E+00  0.00000000000E+00  0.13816243016E+03  0.28937369906E+04  0.28904368033E+04 0.  0.
        5    1    3    3  502    0  0.12305260890E+04  0.40396271453E+03  0.71110415154E+03  0.14775220929E+04  0.46999998093E+01 0. -1.
       -5    1    3    3    0  502 -0.12305260890E+04 -0.40396271453E+03 -0.57294172139E+03  0.14162148978E+04  0.46999998093E+01 0.  1.
</event>
<event>
 5   0  0.2304435E-06  0.2900430E+04  0.7818609E-02  0.8272750E-01
        2   -1    0    0  501    0  0.00000000000E+00  0.00000000000E+00  0.17346065086E+04  0.17346065086E+04  0.25500000920E-02 0.  1.
       -2   -1    0    0    0  501  0.00000000000E+00  0.00000000000E+00 -0.12124497151E+04  0.12124497151E+04  0.25500000920E-02 0. -1.
    10030    2    1    2    0    0  0.00000000000E+00  0.00000000000E+00  0.52215679350E+03  0.29470562237E+04  0.29004297386E+04 0.  0.
        1    1    3    3  502    0 -0.93940611935E+03 -0.53246829492E+03 -0.72253161278E+03  0.12992529675E+04  0.50400001928E-02 0. -1.
       -1    1    3    3    0  502  0.93940611935E+03  0.53246829492E+03  0.12446884063E+04  0.16478032561E+04  0.50400001928E-02 0.  1.
</event>
<event>
 5   0  0.2325590E-06  0.2885046E+04  0.7818609E-02  0.8277341E-01
       -2   -1    0    0    0  501  0.00000000000E+00  0.00000000000E+00  0.17639910014E+04  0.17639910014E+04  0.25500000920E-02 0. -1.
        2   -1    0    0  501    0  0.00000000000E+00  0.00000000000E+00 -0.11796390255E+04  0.11796390255E+04  0.25500000920E-02 0.  1.
    10030    2    1    2    0    0  0.00000000000E+00  0.00000000000E+00  0.58435197592E+03  0.29436300269E+04  0.28850460141E+04 0.  0.
        5    1    3    3  502    0  0.53030952212E+03 -0.85228559446E+03  0.13491813936E+04  0.16816454580E+04  0.46999998093E+01 0. -1.
       -5    1    3    3    0  502 -0.53030952212E+03  0.85228559446E+03 -0.76482941767E+03  0.12619845688E+04  0.46999998093E+01 0.  1.
</event>
<event>
 5   0  0.8355946E-07  0.2889938E+04  0.7818609E-02  0.8275877E-01
        1   -1    0    0  501    0  0.00000000000E+00  0.00000000000E+00  0.20596881785E+04  0.20596881785E+04  0.50400001928E-02 0.  1.
       -1   -1    0    0    0  501  0.00000000000E+00  0.00000000000E+00 -0.10137144489E+04  0.10137144489E+04  0.50400001928E-02 0. -1.
    10030    2    1    2    0    0  0.00000000000E+00  0.00000000000E+00  0.10459737295E+04  0.30734026274E+04  0.28899381771E+04 0.  0.
        4    1    3    3  502    0 -0.20555404952E+03 -0.63958462718E+03 -0.83752995859E+03  0.10736754663E+04  0.12699999809E+01 0. -1.
       -4    1    3    3    0  502  0.20555404952E+03  0.63958462718E+03  0.18835036881E+04  0.19997271611E+04  0.12699999809E+01 0.  1.
</event>
<event>
 5   0  0.8483636E-07  0.2927625E+04  0.7818609E-02  0.8264705E-01
        1   -1    0    0  501    0  0.00000000000E+00  0.00000000000E+00  0.18391276409E+04  0.18391276409E+04  0.50400001928E-02 0. -1.
       -1   -1    0    0    0  501  0.00000000000E+00  0.00000000000E+00 -0.11650887914E+04  0.11650887915E+04  0.50400001928E-02 0.  1.
    10030    2    1    2    0    0  0.00000000000E+00  0.00000000000E+00  0.67403884943E+03  0.30042164323E+04  0.29276249763E+04 0.  0.
        2    1    3    3  502    0 -0.51493267303E+02 -0.39840638369E+03 -0.11074166415E+04  0.11780283617E+04  0.25500000920E-02 0.  1.
       -2    1    3    3    0  502  0.51493267303E+02  0.39840638369E+03  0.17814554909E+04  0.18261880706E+04  0.25500000920E-02 0. -1.
</event>
<event>
 5   0  0.8483636E-07  0.2899146E+04  0.7818609E-02  0.8273132E-01
       -1   -1    0    0    0  501  0.00000000000E+00  0.00000000000E+00  0.10108017077E+04  0.10108017077E+04  0.50400001928E-02 0.  1.
        1   -1    0    0  501    0  0.00000000000E+00  0.00000000000E+00 -0.20788073086E+04  0.20788073086E+04  0.50400001928E-02 0. -1.
    10030    2    1    2    0    0  0.00000000000E+00  0.00000000000E+00 -0.10680056009E+04  0.30896090164E+04  0.28991460657E+04 0.  0.
        2    1    3    3  502    0  0.72435868629E+03 -0.10589140217E+04  0.18505993545E+03  0.12962413323E+04  0.25500000920E-02 0.  1.
       -2    1    3    3    0  502 -0.72435868629E+03  0.10589140217E+04 -0.12530655364E+04  0.17933676841E+04  0.25500000920E-02 0. -1.
</event>
<event>
 5   0  0.8263673E-07  0.2902495E+04  0.7818609E-02  0.8272136E-01
        1   -1    0    0  501    0  0.00000000000E+00  0.00000000000E+00  0.16673870206E+04  0.16673870206E+04  0.50400001928E-02 0. -1.
       -1   -1    0    0    0  501  0.00000000000E+00  0.00000000000E+00 -0.12631253739E+04  0.12631253739E+04  0.50400001928E-02 0.  1.
    10030    2    1    2    0    0  0.00000000000E+00  0.00000000000E+00  0.40426164664E+03  0.29305123945E+04  0.29024946883E+04 0.  0.
        5    1    3    3  502    0 -0.28042643022E+03  0.92416914386E+03  0.12958087987E+04  0.16161281267E+04  0.46999998093E+01 0. -1.
       -5    1    3    3    0  502  0.28042643022E+03 -0.92416914386E+03 -0.89154715203E+03  0.13143842678E+04  0.46999998093E+01 0.  1.
</event>
<event>
 5   0  0.8355946E-07  0.2896657E+04  0.7818609E-02  0.8273873E-01
        1   -1    0    0  501    0  0.00000000000E+00  0.00000000000E+00  0.20628174463E+04  0.20628174463E+04  0.50400001928E-02 0.  1.
       -1   -1    0    0    0  501  0.00000000000E+00  0.00000000000E+00 -0.10168883789E+04  0.10168883789E+04  0.50400001928E-02 0. -1.
    10030    2    1    2    0    0  0.00000000000E+00  0.00000000000E+00  0.10459290674E+04  0.30797058252E+04  0.28966567550E+04 0.  0.
        4    1    3    3  502    0  0.81343558157E+03  0.32104504588E+03  0.17504376188E+04  0.19567270727E+04  0.12699999809E+01 0.  1.
       -4    1    3    3    0  502 -0.81343558157E+03 -0.32104504588E+03 -0.70450855139E+03  0.11229787526E+04  0.12699999809E+01 0. -1.
</event>
<event>
 5   0  0.2425845E-06  0.2902472E+04  0.7818609E-02  0.8272143E-01
        2   -1    0    0  501    0  0.00000000000E+00  0.00000000000E+00  0.14400510559E+04  0.14400510559E+04  0.25500000920E-02 0. -1.
       -2   -1    0    0    0  501  0.00000000000E+00  0.00000000000E+00 -0.14625073379E+04  0.14625073379E+04  0.25500000920E-02 0.  1.
    10030    2    1    2    0    0  0.00000000000E+00  0.00000000000E+00 -0.22456282015E+02  0.29025583938E+04  0.29024715235E+04 0.  0.
        2    1    3    3  502    0  0.95253340276E+03 -0.92840399051E+03  0.56916099230E+03  0.14467888886E+04  0.25500000920E-02 0.  1.
       -2    1    3    3    0  502 -0.95253340276E+03  0.92840399051E+03 -0.59161727432E+03  0.14557695052E+04  0.25500000920E-02 0. -1.
</event>
<event>
 5   0  0.2425845E-06  0.2950283E+04  0.7818609E-02  0.8258072E-01
        2   -1    0    0  501    0  0.00000000000E+00  0.00000000000E+00  0.22869537334E+04  0.22869537334E+04  0.25500000920E-02 0.  1.
       -2   -1    0    0    0  501  0.00000000000E+00  0.00000000000E+00 -0.95150234753E+03  0.95150234753E+03  0.25500000920E-02 0. -1.
    10030    2    1    2    0    0  0.00000000000E+00  0.00000000000E+00  0.13354513859E+04  0.32384560809E+04  0.29502825939E+04 0.  0.
        2    1    3    3  502    0  0.45076536301E+03 -0.99505886751E+03  0.17558716305E+04  0.20679498894E+04  0.25500000920E-02 0.  1.
       -2    1    3    3    0  502 -0.45076536301E+03  0.99505886751E+03 -0.42042024463E+03  0.11705061915E+04  0.25500000920E-02 0. -1.
</event>
<event>
 5   0  0.2378690E-06  0.2906527E+04  0.7818609E-02  0.8270938E-01
        2   -1    0    0  501    0  0.00000000000E+00  0.00000000000E+00  0.19446321162E+04  0.19446321162E+04  0.25500000920E-02 0. -1.
       -2   -1    0    0    0  501  0.00000000000E+00  0.00000000000E+00 -0.10860537592E+04  0.10860537592E+04  0.25500000920E-02 0.  1.
    10030    2    1    2    0    0  0.00000000000E+00  0.00000000000E+00  0.85857835702E+03  0.30306858754E+04  0.29065271511E+04 0.  0.
        3    1    3    3  502    0 -0.83586187503E+03 -0.56804220943E+03 -0.65965809071E+03  0.12068495485E+04  0.10100000352E+00 0.  1.
       -3    1    3    3    0  502  0.83586187503E+03  0.56804220943E+03  0.15182364477E+04  0.18238363269E+04  0.10100000352E+00 0. -1.
</event>
<event>
 5   0  0.8357118E-07  0.2883284E+04  0.7818609E-02  0.8277868E-01
       -1   -1    0    0    0  501  0.00000000000E+00  0.00000000000E+00  0.86500900590E+03  0.86500900592E+03  0.50400001928E-02 0.  1.
        1   -1    0    0  501    0  0.00000000000E+00  0.00000000000E+00 -0.24026704952E+04  0.24026704952E+04  0.50400001928E-02 0. -1.
    10030    2    1    2    0    0  0.00000000000E+00  0.00000000000E+00 -0.15376614892E+04  0.32676795011E+04  0.28832839725E+04 0.  0.
        1    1    3    3  502    0  0.42633717255E+03  0.13756484142E+04 -0.69573676735E+03  0.15994441515E+04  0.50400001928E-02 0.  1.
       -1    1    3    3    0  502 -0.42633717255E+03 -0.13756484142E+04 -0.84192472190E+03  0.16682353496E+04  0.50400001928E-02 0. -1.
</event>
<event>
 5   0  0.8483636E-07  0.2917800E+04  0.7818609E-02  0.8267601E-01
        1   -1    0    0  501    0  0.00000000000E+00  0.00000000000E+00  0.20251948199E+04  0.20251948199E+04  0.50400001928E-02 0.  1.
       -1   -1    0    0    0  501  0.00000000000E+00  0.00000000000E+00 -0.10509552950E+04  0.10509552950E+04  0.50400001928E-02 0. -1.
    10030    2    1    2    0    0  0.00000000000E+00  0.00000000000E+00  0.97423952497E+03  0.30761501149E+04  0.29178000064E+04 0.  0.
        2    1    3    3  502    0 -0.44632032347E+03  0.56628159053E+03 -0.84998129042E+03  0.11146052507E+04  0.25500000920E-02 0. -1.
       -2    1    3    3    0  502  0.44632032347E+03 -0.56628159053E+03  0.18242208154E+04  0.19615448642E+04  0.25500000920E-02 0.  1.
</event>
<event>
 5   0  0.8483636E-07  0.2777324E+04  0.7818609E-02  0.8310343E-01
        1   -1    0    0  501    0  0.00000000000E+00  0.00000000000E+00  0.21182688914E+04  0.21182688914E+04  0.50400001928E-02 0. -1.
       -1   -1    0    0    0  501  0.00000000000E+00  0.00000000000E+00 -0.91035731622E+03  0.91035731624E+03  0.50400001928E-02 0.  1.
    10030    2    1    2    0    0  0.00000000000E+00  0.00000000000E+00  0.12079115752E+04  0.30286262077E+04  0.27773235916E+04 0.  0.
        2    1    3    3  502    0 -0.20991248903E+03  0.89644897233E+03  0.17375856570E+04  0.19664404208E+04  0.25500000920E-02 0. -1.
       -2    1    3    3    0  502  0.20991248903E+03 -0.89644897233E+03 -0.52967408176E+03  0.10621857869E+04  0.25500000920E-02 0.  1.
</event>
<event>
 5   0  0.2378690E-06  0.2909529E+04  0.7818609E-02  0.8270048E-01
       -2   -1    0    0    0  501  0.00000000000E+00  0.00000000000E+00  0.20244075064E+04  0.20244075064E+04  0.25500000920E-02 0. -1.
        2   -1    0    0  501    0  0.00000000000E+00  0.00000000000E+00 -0.10454119140E+04  0.10454119140E+04  0.25500000920E-02 0.  1.
    10030    2    1    2    0    0  0.00000000000E+00  0.00000000000E+00  0.97899559241E+03  0.30698194203E+04  0.29095289831E+04 0.  0.
        3    1    3    3  502    0  0.10947029762E+04  0.93738974213E+03  0.69856993168E+03  0.16015848696E+04  0.10100000352E+00 0.  1.
       -3    1    3    3    0  502 -0.10947029762E+04 -0.93738974213E+03  0.28042566073E+03  0.14682345508E+04  0.10100000352E+00 0. -1.
</event>
<event>
 5   0  0.2425845E-06  0.2905906E+04  0.7818609E-02  0.8271122E-01
       -2   -1    0    0    0  501  0.00000000000E+00  0.00000000000E+00  0.96286874674E+03  0.96286874674E+03  0.25500000920E-02 0.  1.
        2   -1    0    0  501    0  0.00000000000E+00  0.00000000000E+00 -0.21924819029E+04  0.21924819029E+04  0.25500000920E-02 0. -1.
    10030    2    1    2    0    0  0.00000000000E+00  0.00000000000E+00 -0.12296131561E+04  0.31553506496E+04  0.29059059187E+04 0.  0.
        2    1    3    3  502    0  0.91059777930E+03 -0.11286018344E+04 -0.51682857518E+03  0.15394941352E+04  0.25500000920E-02 0.  1.
       -2    1    3    3    0  502 -0.91059777930E+03  0.11286018344E+04 -0.71278458095E+03  0.16158565144E+04  0.25500000920E-02 0. -1.
</event>
<event>
 5   0  0.2425845E-06  0.2885843E+04  0.7818609E-02  0.8277102E-01
       -2   -1    0    0    0  501  0.00000000000E+00  0.00000000000E+00  0.95857110807E+03  0.95857110807E+03  0.25500000920E-02 0.  1.
        2   -1    0    0  501    0  0.00000000000E+00  0.00000000000E+00 -0.21720055894E+04  0.21720055894E+04  0.25500000920E-02 0. -1.
    10030    2    1    2    0    0  0.00000000000E+00  0.00000000000E+00 -0.12134344813E+04  0.31305766975E+04  0.28858425491E+04 0.  0.
        2    1    3    3  502    0  0.10012610816E+04  0.10354944763E+04 -0.51435425278E+03  0.15294877774E+04  0.25500000920E-02 0. -1.
       -2    1    3    3    0  502 -0.10012610816E+04 -0.10354944763E+04 -0.69908022855E+03  0.16010889200E+04  0.25500000920E-02 0.  1.
</event>
<event>
 5   0  0.8355946E-07  0.2900315E+04  0.7818609E-02  0.8272784E-01
       -1   -1    0    0    0  501  0.00000000000E+00  0.00000000000E+00  0.13322127006E+04  0.13322127006E+04  0.50400001928E-02 0. -1.
        1   -1    0    0  501    0  0.00000000000E+00  0.00000000000E+00 -0.15785445232E+04  0.15785445232E+04  0.50400001928E-02 0.  1.
    10030    2    1    2    0    0  0.00000000000E+00  0.00000000000E+00 -0.24633182268E+03  0.29107572238E+04  0.29003151982E+04 0.  0.
        4    1    3    3  502    0  0.94623013759E+03  0.26213242351E+03 -0.11941962764E+04  0.15460178654E+04  0.12699999809E+01 0.  1.
       -4    1    3    3    0  502 -0.94623013759E+03 -0.26213242351E+03  0.94786445374E+03  0.13647393584E+04  0.12699999809E+01 0. -1.
</event>
<event>
 5   0  0.7621125E-07  0.2897433E+04  0.7818609E-02  0.8273642E-01
        3   -1    0    0  501    0  0.00000000000E+00  0.00000000000E+00  0.11871959165E+04  0.11871959208E+04  0.10100000352E+00 0.  1.
       -3   -1    0    0    0  501  0.00000000000E+00  0.00000000000E+00 -0.17678459709E+04  0.17678459738E+04  0.10100000352E+00 0. -1.
    10030    2    1    2    0    0  0.00000000000E+00  0.00000000000E+00 -0.58065005448E+03  0.29550418946E+04  0.28974330213E+04 0.  0.
        3    1    3    3  502    0 -0.74022929491E+03 -0.10818994484E+04 -0.91929894565E+03  0.16011109853E+04  0.10100000352E+00 0. -1.
       -3    1    3    3    0  502  0.74022929491E+03  0.10818994484E+04  0.33864889117E+03  0.13539309093E+04  0.10100000352E+00 0.  1.
</event>
<event>
 5   0  0.2304435E-06  0.2882241E+04  0.7818609E-02  0.8278181E-01
        2   -1    0    0  501    0  0.00000000000E+00  0.00000000000E+00  0.17389665094E+04  0.17389665094E+04  0.25500000920E-02 0. -1.
       -2   -1    0    0    0  501  0.00000000000E+00  0.00000000000E+00 -0.11942884750E+04  0.11942884751E+04  0.25500000920E-02 0.  1.
    10030    2    1    2    0    0  0.00000000000E+00  0.00000000000E+00  0.54467803431E+03  0.29332549844E+04  0.28822405594E+04 0.  0.
        1    1    3    3  502    0  0.62974038542E+02  0.12270174246E+04 -0.49417874202E+03  0.13242923087E+04  0.50400001928E-02 0.  1.
       -1    1    3    3    0  502 -0.62974038542E+02 -0.12270174246E+04  0.10388567763E+04  0.16089626757E+04  0.50400001928E-02 0. -1.
</event>
<event>
 5   0  0.2378690E-06  0.2899977E+04  0.7818609E-02  0.8272884E-01
        2   -1    0    0  501    0  0.00000000000E+00  0.00000000000E+00  0.16228498062E+04  0.16228498062E+04  0.25500000920E-02 0.  1.
       -2   -1    0    0    0  501  0.00000000000E+00  0.00000000000E+00 -0.12955402860E+04  0.12955402860E+04  0.25500000920E-02 0. -1.
    10030    2    1    2    0    0  0.00000000000E+00  0.00000000000E+00  0.32730952021E+03  0.29183900921E+04  0.28999774495E+04 0.  0.
        3    1    3    3  502    0 -0.62403336880E+03 -0.49693120259E+02 -0.11525408771E+04  0.13115782612E+04  0.10100000352E+00 0. -1.
       -3    1    3    3    0  502  0.62403336880E+03  0.49693120259E+02  0.14798503973E+04  0.16068118310E+04  0.10100000352E+00 0.  1.
</event>
<event>
 5   0  0.8483636E-07  0.2880217E+04  0.7818609E-02  0.8278788E-01
       -1   -1    0    0    0  501  0.00000000000E+00  0.00000000000E+00  0.11145066335E+04  0.11145066335E+04  0.50400001928E-02 0. -1.
        1   -1    0    0  501    0  0.00000000000E+00  0.00000000000E+00 -0.18608341892E+04  0.18608341892E+04  0.50400001928E-02 0.  1.
    10030    2    1    2    0    0  0.00000000000E+00  0.00000000000E+00 -0.74632755575E+03  0.29753408227E+04  0.28802166916E+04 0.  0.
        2    1    3    3  502    0 -0.11908989290E+04 -0.38005271287E+03 -0.11117827453E+04  0.16729438713E+04  0.25500000920E-02 0.  1.
       -2    1    3    3    0  502  0.11908989290E+04  0.38005271287E+03  0.36545518960E+03  0.13023969515E+04  0.25500000920E-02 0. -1.
</event>
<event>
 5   0  0.2378690E-06  0.2890819E+04  0.7818609E-02  0.8275614E-01
       -2   -1    0    0    0  501  0.00000000000E+00  0.00000000000E+00  0.16393375425E+04  0.16393375425E+04  0.25500000920E-02 0. -1.
        2   -1    0    0  501    0  0.00000000000E+00  0.00000000000E+00 -0.12744225599E+04  0.12744225599E+04  0.25500000920E-02 0.  1.
    10030    2    1    2    0    0  0.00000000000E+00  0.00000000000E+00  0.36491498260E+03  0.29137601023E+04  0.28908190862E+04 0.  0.
        3    1    3    3  502    0  0.13993693085E+04  0.18231407710E+03 -0.13265080110E+03  0.14174163572E+04  0.10100000352E+00 0. -1.
       -3    1    3    3    0  502 -0.13993693085E+04 -0.18231407710E+03  0.49756578370E+03  0.14963437452E+04  0.10100000352E+00 0.  1.
</event>
<event>
 5   0  0.2425845E-06  0.2877634E+04  0.7818609E-02  0.8279563E-01
       -2   -1    0    0    0  501  0.00000000000E+00  0.00000000000E+00  0.16139081288E+04  0.16139081288E+04  0.25500000920E-02 0.  1.
        2   -1    0    0  501    0  0.00000000000E+00  0.00000000000E+00 -0.12827214252E+04  0.12827214252E+04  0.25500000920E-02 0. -1.
    10030    2    1    2    0    0  0.00000000000E+00  0.00000000000E+00  0.33118670366E+03  0.28966295540E+04  0.28776341221E+04 0.  0.
        2    1    3    3  502    0  0.51921182662E+03 -0.13416409984E+04  0.14067015267E+03  0.14454651782E+04  0.25500000920E-02 0.  1.
       -2    1    3    3    0  502 -0.51921182662E+03  0.13416409984E+04  0.19051655099E+03  0.14511643758E+04  0.25500000920E-02 0. -1.
</event>
<event>
 5   0  0.2325590E-06  0.2915400E+04  0.7818609E-02  0.8268310E-01
       -2   -1    0    0    0  501  0.00000000000E+00  0.00000000000E+00  0.10172349814E+04  0.10172349814E+04  0.25500000920E-02 0.  1.
        2   -1    0    0  501    0  0.00000000000E+00  0.00000000000E+00 -0.20888875857E+04  0.20888875857E+04  0.25500000920E-02 0. -1.
    10030    2    1    2    0    0  0.00000000000E+00  0.00000000000E+00 -0.10716526043E+04  0.31061225672E+04  0.29154001609E+04 0.  0.
        5    1    3    3  502    0 -0.13049261172E+03 -0.84377665497E+03  0.72293814674E+03  0.11187712095E+04  0.46999998093E+01 0.  1.
       -5    1    3    3    0  502  0.13049261172E+03  0.84377665497E+03 -0.17945907510E+04  0.19873513577E+04  0.46999998093E+01 0. -1.
</event>
<event>
 5   0  0.8263673E-07  0.2896536E+04  0.7818609E-02  0.8273909E-01
       -1   -1    0    0    0  501  0.00000000000E+00  0.00000000000E+00  0.15096641164E+04  0.15096641164E+04  0.50400001928E-02 0. -1.
        1   -1    0    0  501    0  0.00000000000E+00  0.00000000000E+00 -0.13893687665E+04  0.13893687665E+04  0.50400001928E-02 0.  1.
    10030    2    1    2    0    0  0.00000000000E+00  0.00000000000E+00  0.12029534984E+03  0.28990328829E+04  0.28965359803E+04 0.  0.
        5    1    3    3  502    0  0.13224419949E+03  0.33766164678E+03 -0.13431858747E+04  0.13912851253E+04  0.46999998093E+01 0.  1.
       -5    1    3    3    0  502 -0.13224419949E+03 -0.33766164678E+03  0.14634812245E+04  0.15077477576E+04  0.46999998093E+01 0. -1.
</event>
<event>
 5   0  0.8263673E-07  0.2846351E+04  0.7818609E-02  0.8289021E-01
       -1   -1    0    0    0  501  0.00000000000E+00  0.00000000000E+00  0.11880414671E+04  0.11880414671E+04  0.50400001928E-02 0.  1.
        1   -1    0    0  501    0  0.00000000000E+00  0.00000000000E+00 -0.17048462854E+04  0.17048462854E+04  0.50400001928E-02 0. -1.
    10030    2    1    2    0    0  0.00000000000E+00  0.00000000000E+00 -0.51680481825E+03  0.28928877525E+04  0.28463507037E+04 0.  0.
        5    1    3    3  502    0  0.27797553335E+02 -0.26570090306E+03  0.11623208461E+04  0.11926363709E+04  0.46999998093E+01 0.  1.
       -5    1    3    3    0  502 -0.27797553335E+02  0.26570090306E+03 -0.16791256644E+04  0.17002513816E+04  0.46999998093E+01 0. -1.
</event>
<event>
 5   0  0.2304435E-06  0.2874353E+04  0.7818609E-02  0.8280549E-01
        2   -1    0    0  501    0  0.00000000000E+00  0.00000000000E+00  0.16263273659E+04  0.16263273659E+04  0.25500000920E-02 0.  1.
       -2   -1    0    0    0  501  0.00000000000E+00  0.00000000000E+00 -0.12700252958E+04  0.12700252958E+04  0.25500000920E-02 0. -1.
    10030    2    1    2    0    0  0.00000000000E+00  0.00000000000E+00  0.35630207008E+03  0.28963526617E+04  0.28743534187E+04 0.  0.
        1    1    3    3  502    0 -0.53546766535E+03 -0.25138393409E+03 -0.11416665184E+04  0.12858156720E+04  0.50400001928E-02 0. -1.
       -1    1    3    3    0  502  0.53546766535E+03  0.25138393409E+03  0.14979685885E+04  0.16105369897E+04  0.50400001928E-02 0.  1.
</event>
<event>
 5   0  0.8355946E-07  0.2893320E+04  0.7818609E-02  0.8274868E-01
        1   -1    0    0  501    0  0.00000000000E+00  0.00000000000E+00  0.14945968717E+04  0.14945968717E+04  0.50400001928E-02 0.  1.
       -1   -1    0    0    0  501  0.00000000000E+00  0.00000000000E+00 -0.14002602786E+04  0.14002602786E+04  0.50400001928E-02 0. -1.
    10030    2    1    2    0    0  0.00000000000E+00  0.00000000000E+00  0.94336593105E+02  0.28948571504E+04  0.28933196381E+04 0.  0.
        4    1    3    3  502    0 -0.13450629021E+04  0.45037775841E+03 -0.23721624697E+03  0.14381611511E+04  0.12699999809E+01 0. -1.
       -4    1    3    3    0  502  0.13450629021E+04 -0.45037775841E+03  0.33155284007E+03  0.14566959993E+04  0.12699999809E+01 0.  1.
</event>
<event>
 5   0  0.2425845E-06  0.2983078E+04  0.7818609E-02  0.8248580E-01
       -2   -1    0    0    0  501  0.00000000000E+00  0.00000000000E+00  0.16532917998E+04  0.16532917998E+04  0.25500000920E-02 0. -1.
        2   -1    0    0  501    0  0.00000000000E+00  0.00000000000E+00 -0.13456118294E+04  0.13456118294E+04  0.25500000920E-02 0.  1.
    10030    2    1    2    0    0  0.00000000000E+00  0.00000000000E+00  0.30767997037E+03  0.29989036292E+04  0.29830782781E+04 0.  0.
        2    1    3    3  502    0  0.12538354309E+04 -0.16763704136E+03  0.94827496287E+03  0.15809588454E+04  0.25500000920E-02 0. -1.
       -2    1    3    3    0  502 -0.12538354309E+04  0.16763704136E+03 -0.64059499250E+03  0.14179447838E+04  0.25500000920E-02 0.  1.
</event>
<event>
 5   0  0.8357118E-07  0.2903533E+04  0.7818609E-02  0.8271827E-01
       -1   -1    0    0    0  501  0.00000000000E+00  0.00000000000E+00  0.14737674688E+04  0.14737674689E+04  0.50400001928E-02 0.  1.
        1   -1    0    0  501    0  0.00000000000E+00  0.00000000000E+00 -0.14300935380E+04  0.14300935380E+04  0.50400001928E-02 0. -1.
    10030    2    1    2    0    0  0.00000000000E+00  0.00000000000E+00  0.43673930868E+02  0.29038610068E+04  0.29035325613E+04 0.  0.
        1    1    3    3  502    0 -0.12152350659E+04  0.77906983509E+03 -0.13270967155E+03  0.14496061294E+04  0.50400001928E-02 0.  1.
       -1    1    3    3    0  502  0.12152350659E+04 -0.77906983509E+03  0.17638360242E+03  0.14542548775E+04  0.50400001928E-02 0. -1.
</event>
<event>
 5   0  0.2360103E-06  0.2894799E+04  0.7818609E-02  0.8274427E-01
       -2   -1    0    0    0  501  0.00000000000E+00  0.00000000000E+00  0.12569947536E+04  0.12569947536E+04  0.25500000920E-02 0. -1.
        2   -1    0    0  501    0  0.00000000000E+00  0.00000000000E+00 -0.16666463646E+04  0.16666463646E+04  0.25500000920E-02 0.  1.
    10030    2    1    2    0    0  0.00000000000E+00  0.00000000000E+00 -0.40965161102E+03  0.29236411182E+04  0.28947992928E+04 0.  0.
        4    1    3    3  502    0 -0.92097964277E+03  0.66354157364E+02  0.92089045555E+03  0.13040886552E+04  0.12699999809E+01 0. -1.
       -4    1    3    3    0  502  0.92097964277E+03 -0.66354157364E+02 -0.13305420666E+04  0.16195524630E+04  0.12699999809E+01 0.  1.
</event>
<event>
 5   0  0.8355946E-07  0.2891921E+04  0.7818609E-02  0.8275285E-01
        1   -1    0    0  501    0  0.00000000000E+00  0.00000000000E+00  0.25420341646E+04  0.25420341646E+04  0.50400001928E-02 0. -1.
       -1   -1    0    0    0  501  0.00000000000E+00  0.00000000000E+00 -0.82249150397E+03  0.82249150398E+03  0.50400001928E-02 0.  1.
    10030    2    1    2    0    0  0.00000000000E+00  0.00000000000E+00  0.17195426607E+04  0.33645256686E+04  0.28919208172E+04 0.  0.
        4    1    3    3  502    0  0.83921844131E+03  0.11134330450E+04  0.41404361813E+03  0.14544601983E+04  0.12699999809E+01 0. -1.
       -4    1    3    3    0  502 -0.83921844131E+03 -0.11134330450E+04  0.13054990425E+04  0.19100654703E+04  0.12699999809E+01 0.  1.
</event>
<event>
 5   0  0.8483636E-07  0.2917727E+04  0.7818609E-02  0.8267623E-01
        1   -1    0    0  501    0  0.00000000000E+00  0.00000000000E+00  0.17432507004E+04  0.17432507004E+04  0.50400001928E-02 0.  1.
       -1   -1    0    0    0  501  0.00000000000E+00  0.00000000000E+00 -0.12208702320E+04  0.12208702320E+04  0.50400001928E-02 0. -1.
    10030    2    1    2    0    0  0.00000000000E+00  0.00000000000E+00  0.52238046841E+03  0.29641209324E+04  0.29177271202E+04 0.  0.
        2    1    3    3  502    0  0.11011296995E+04 -0.95570740804E+03  0.21121843244E+03  0.14732537090E+04  0.25500000920E-02 0.  1.
       -2    1    3    3    0  502 -0.11011296995E+04  0.95570740804E+03  0.31116203597E+03  0.14908672233E+04  0.25500000920E-02 0. -1.
</event>
<event>
 5   0  0.8355946E-07  0.2890293E+04  0.7818609E-02  0.8275771E-01
       -1   -1    0    0    0  501  0.00000000000E+00  0.00000000000E+00  0.94426644860E+03  0.94426644861E+03  0.50400001928E-02 0.  1.
        1   -1    0    0  501    0  0.00000000000E+00  0.00000000000E+00 -0.22117150298E+04  0.22117150298E+04  0.50400001928E-02 0. -1.
    10030    2    1    2    0    0  0.00000000000E+00  0.00000000000E+00 -0.12674485812E+04  0.31559814784E+04  0.28902929239E+04 0.  0.
        4    1    3    3  502    0  0.51885731809E+03  0.66395940658E+03 -0.19156973737E+04  0.20928337370E+04  0.12699999809E+01 0. -1.
       -4    1    3    3    0  502 -0.51885731809E+03 -0.66395940658E+03  0.64824879254E+03  0.10631477414E+04  0.12699999809E+01 0.  1.
</event>
<event>
 5   0  0.8263673E-07  0.2903625E+04  0.7818609E-02  0.8271800E-01
        1   -1    0    0  501    0  0.00000000000E+00  0.00000000000E+00  0.17109695084E+04  0.17109695084E+04  0.50400001928E-02 0. -1.
       -1   -1    0    0    0  501  0.00000000000E+00  0.00000000000E+00 -0.12319093487E+04  0.12319093487E+04  0.50400001928E-02 0.  1.
    10030    2    1    2    0    0  0.00000000000E+00  0.00000000000E+00  0.47906015972E+03  0.29428788571E+04  0.29036248605E+04 0.  0.
        5    1    3    3  502    0  0.12854597957E+04 -0.59141640006E+03  0.56881769303E+03  0.15250429183E+04  0.46999998093E+01 0. -1.
       -5    1    3    3    0  502 -0.12854597957E+04  0.59141640006E+03 -0.89757533312E+02  0.14178359388E+04  0.46999998093E+01 0.  1.
</event>
<event>
 5   0  0.2304435E-06  0.2910520E+04  0.7818609E-02  0.8269754E-01
       -2   -1    0    0    0  501  0.00000000000E+00  0.00000000000E+00  0.21744546088E+04  0.21744546088E+04  0.25500000920E-02 0. -1.
        2   -1    0    0  501    0  0.00000000000E+00  0.00000000000E+00 -0.97393704467E+03  0.97393704467E+03  0.25500000920E-02 0.  1.
    10030    2    1    2    0    0  0.00000000000E+00  0.00000000000E+00  0.12005175641E+04  0.31483916534E+04  0.29105201566E+04 0.  0.
        1    1    3    3  502    0  0.77746222828E+03  0.27262756069E+03  0.18978856661E+04  0.20689957238E+04  0.50400001928E-02 0. -1.
       -1    1    3    3    0  502 -0.77746222828E+03 -0.27262756069E+03 -0.69736810203E+03  0.10793959297E+04  0.50400001928E-02 0.  1.
</event>
<event>
 5   0  0.8263673E-07  0.2899839E+04  0.7818609E-02  0.8272925E-01
       -1   -1    0    0    0  501  0.00000000000E+00  0.00000000000E+00  0.12454397657E+04  0.12454397657E+04  0.50400001928E-02 0. -1.
        1   -1    0    0  501    0  0.00000000000E+00  0.00000000000E+00 -0.16879710769E+04  0.16879710769E+04  0.50400001928E-02 0.  1.
    10030    2    1    2    0    0  0.00000000000E+00  0.00000000000E+00 -0.44253131117E+03  0.29334108426E+04  0.28998388249E+04 0.  0.
        5    1    3    3  502    0 -0.59026160160E+03 -0.97752979233E+03  0.68253821695E+03  0.13303585084E+04  0.46999998093E+01 0. -1.
       -5    1    3    3    0  502  0.59026160160E+03  0.97752979233E+03 -0.11250695281E+04  0.16030523342E+04  0.46999998093E+01 0.  1.
</event>
<event>
 5   0  0.2304435E-06  0.2906918E+04  0.7818609E-02  0.8270822E-01
        2   -1    0    0  501    0  0.00000000000E+00  0.00000000000E+00  0.12966128757E+04  0.12966128757E+04  0.25500000920E-02 0.  1.
       -2   -1    0    0    0  501  0.00000000000E+00  0.00000000000E+00 -0.16292781985E+04  0.16292781985E+04  0.25500000920E-02 0. -1.
    10030    2    1    2    0    0  0.00000000000E+00  0.00000000000E+00 -0.33266532272E+03  0.29258910742E+04  0.29069180176E+04 0.  0.
        1    1    3    3  502    0  0.58815077255E+03  0.74097377706E+03 -0.12769745663E+04  0.15892222980E+04  0.50400001928E-02 0. -1.
       -1    1    3    3    0  502 -0.58815077255E+03 -0.74097377706E+03  0.94430924361E+03  0.13366687761E+04  0.50400001928E-02 0.  1.
</event>
<event>
 5   0  0.8947674E-07  0.2896868E+04  0.7818609E-02  0.8273810E-01
        1   -1    0    0  501    0  0.00000000000E+00  0.00000000000E+00  0.12643659256E+04  0.12643659256E+04  0.50400001928E-02 0. -1.
       -1   -1    0    0    0  501  0.00000000000E+00  0.00000000000E+00 -0.16592992088E+04  0.16592992088E+04  0.50400001928E-02 0.  1.
    10030    2    1    2    0    0  0.00000000000E+00  0.00000000000E+00 -0.39493328320E+03  0.29236651344E+04  0.28968682262E+04 0.  0.
        3    1    3    3  502    0 -0.93317578837E+03 -0.77369963456E+03  0.60266785977E+03  0.13537491407E+04  0.10100000352E+00 0. -1.
       -3    1    3    3    0  502  0.93317578837E+03  0.77369963456E+03 -0.99760114298E+03  0.15699159937E+04  0.10100000352E+00 0.  1.
</event>
<event>
 5   0  0.8263673E-07  0.2932661E+04  0.7818609E-02  0.8263226E-01
        1   -1    0    0  501    0  0.00000000000E+00  0.00000000000E+00  0.24194735515E+04  0.24194735515E+04  0.50400001928E-02 0. -1.
       -1   -1    0    0    0  501  0.00000000000E+00  0.00000000000E+00 -0.88867504983E+03  0.88867504985E+03  0.50400001928E-02 0.  1.
    10030    2    1    2    0    0  0.00000000000E+00  0.00000000000E+00  0.15307985016E+04  0.33081486013E+04  0.29326614390E+04 0.  0.
        5    1    3    3  502    0 -0.13329735021E+04  0.27308093091E+03  0.14887592109E+03  0.13687869381E+04  0.46999998093E+01 0.  1.
       -5    1    3    3    0  502  0.13329735021E+04 -0.27308093091E+03  0.13819225805E+04  0.19393616632E+04  0.46999998093E+01 0. -1.
</event>
<event>
 5   0  0.2360103E-06  0.2901381E+04  0.7818609E-02  0.8272467E-01
       -2   -1    0    0    0  501  0.00000000000E+00  0.00000000000E+00  0.74241631453E+03  0.74241631453E+03  0.25500000920E-02 0. -1.
        2   -1    0    0  501    0  0.00000000000E+00  0.00000000000E+00 -0.28346673847E+04  0.28346673847E+04  0.25500000920E-02 0.  1.
    10030    2    1    2    0    0  0.00000000000E+00  0.00000000000E+00 -0.20922510701E+04  0.35770836992E+04  0.29013812660E+04 0.  0.
        4    1    3    3  502    0 -0.15789077015E+03  0.13068219893E+04 -0.17978735182E+04  0.22282423583E+04  0.12699999809E+01 0.  1.
       -4    1    3    3    0  502  0.15789077015E+03 -0.13068219893E+04 -0.29437755191E+03  0.13488413409E+04  0.12699999809E+01 0. -1.
</event>
<event>
 5   0  0.2425845E-06  0.2899111E+04  0.7818609E-02  0.8273142E-01
       -2   -1    0    0    0  501  0.00000000000E+00  0.00000000000E+00  0.12131021291E+04  0.12131021291E+04  0.25500000920E-02 0.  1.
        2   -1    0    0  501    0  0.00000000000E+00  0.00000000000E+00 -0.17320973679E+04  0.17320973679E+04  0.25500000920E-02 0. -1.
    10030    2    1    2    0    0  0.00000000000E+00  0.00000000000E+00 -0.51899523885E+03  0.29451994970E+04  0.28991109015E+04 0.  0.
        2    1    3    3  502    0  0.12425318639E+04 -0.38502916561E+03 -0.90925767741E+03  0.15870987415E+04  0.25500000920E-02 0. -1.
       -2    1    3    3    0  502 -0.12425318639E+04  0.38502916561E+03  0.39026243856E+03  0.13581007555E+04  0.25500000920E-02 0.  1.
</event>
<event>
 5   0  0.8357118E-07  0.2902818E+04  0.7818609E-02  0.8272040E-01
       -1   -1    0    0    0  501  0.00000000000E+00  0.00000000000E+00  0.19766721888E+04  0.19766721888E+04  0.50400001928E-02 0. -1.
        1   -1    0    0  501    0  0.00000000000E+00  0.00000000000E+00 -0.10657244931E+04  0.10657244931E+04  0.50400001928E-02 0.  1.
    10030    2    1    2    0    0  0.00000000000E+00  0.00000000000E+00  0.91094769566E+03  0.30423966819E+04  0.29028179182E+04 0.  0.
        1    1    3    3  502    0 -0.63079701704E+03 -0.18781137930E+03  0.18112788141E+04  0.19271504698E+04  0.50400001928E-02 0. -1.
       -1    1    3    3    0  502  0.63079701704E+03  0.18781137930E+03 -0.90033111842E+03  0.11152462122E+04  0.50400001928E-02 0.  1.
</event>
<event>
 5   0  0.2325590E-06  0.3011963E+04  0.7818609E-02  0.8240323E-01
        2   -1    0    0  501    0  0.00000000000E+00  0.00000000000E+00  0.13928052416E+04  0.13928052416E+04  0.25500000920E-02 0. -1.
       -2   -1    0    0    0  501  0.00000000000E+00  0.00000000000E+00 -0.16283546777E+04  0.16283546777E+04  0.25500000920E-02 0.  1.
    10030    2    1    2    0    0  0.00000000000E+00  0.00000000000E+00 -0.23554943615E+03  0.30211599193E+04  0.30119634329E+04 0.  0.
        5    1    3    3  502    0  0.13816782664E+04  0.12166800190E+02 -0.71858270540E+03  0.15574228897E+04  0.46999998093E+01 0.  1.
       -5    1    3    3    0  502 -0.13816782664E+04 -0.12166800190E+02  0.48303326925E+03  0.14637370297E+04  0.46999998093E+01 0. -1.
</event>
<event>
 5   0  0.8357118E-07  0.2907896E+04  0.7818609E-02  0.8270532E-01
       -1   -1    0    0    0  501  0.00000000000E+00  0.00000000000E+00  0.17087848524E+04  0.17087848524E+04  0.50400001928E-02 0.  1.
        1   -1    0    0  501    0  0.00000000000E+00  0.00000000000E+00 -0.12371157990E+04  0.12371157990E+04  0.50400001928E-02 0. -1.
    10030    2    1    2    0    0  0.00000000000E+00  0.00000000000E+00  0.47166905336E+03  0.29459006514E+04  0.29078959665E+04 0.  0.
        1    1    3    3  502    0  0.36079185540E+01 -0.18289372282E+03 -0.12254112171E+04  0.12389898232E+04  0.50400001928E-02 0. -1.
       -1    1    3    3    0  502 -0.36079185540E+01  0.18289372282E+03  0.16970802705E+04  0.17069108282E+04  0.50400001928E-02 0.  1.
</event>
<event>
 5   0  0.2360103E-06  0.2899366E+04  0.7818609E-02  0.8273066E-01
       -2   -1    0    0    0  501  0.00000000000E+00  0.00000000000E+00  0.15164364347E+04  0.15164364347E+04  0.25500000920E-02 0. -1.
        2   -1    0    0  501    0  0.00000000000E+00  0.00000000000E+00 -0.13858684317E+04  0.13858684317E+04  0.25500000920E-02 0.  1.
    10030    2    1    2    0    0  0.00000000000E+00  0.00000000000E+00  0.13056800303E+03  0.29023048664E+04  0.28993664022E+04 0.  0.
        4    1    3    3  502    0  0.39066176548E+01  0.10125291705E+03  0.15128866856E+04  0.15162767397E+04  0.12699999809E+01 0. -1.
       -4    1    3    3    0  502 -0.39066176548E+01 -0.10125291705E+03 -0.13823186826E+04  0.13860281267E+04  0.12699999809E+01 0.  1.
</event>
<event>
 5   0  0.8355946E-07  0.2902945E+04  0.7818609E-02  0.8272002E-01
       -1   -1    0    0    0  501  0.00000000000E+00  0.00000000000E+00  0.13344476725E+04  0.13344476725E+04  0.50400001928E-02 0.  1.
        1   -1    0    0  501    0  0.00000000000E+00  0.00000000000E+00 -0.15787602187E+04  0.15787602187E+04  0.50400001928E-02 0. -1.
    10030    2    1    2    0    0  0.00000000000E+00  0.00000000000E+00 -0.24431254625E+03  0.29132078912E+04  0.29029453314E+04 0.  0.
        4    1    3    3  502    0 -0.94535856808E+03  0.48595244300E+03  0.86972988359E+03  0.13734206502E+04  0.12699999809E+01 0.  1.
       -4    1    3    3    0  502  0.94535856808E+03 -0.48595244300E+03 -0.11140424298E+04  0.15397872410E+04  0.12699999809E+01 0. -1.
</event>
<event>
 5   0  0.8483636E-07  0.2910126E+04  0.7818609E-02  0.8269871E-01
        1   -1    0    0  501    0  0.00000000000E+00  0.00000000000E+00  0.18675816006E+04  0.18675816006E+04  0.50400001928E-02 0. -1.
       -1   -1    0    0    0  501  0.00000000000E+00  0.00000000000E+00 -0.11336632898E+04  0.11336632898E+04  0.50400001928E-02 0.  1.
    10030    2    1    2    0    0  0.00000000000E+00  0.00000000000E+00  0.73391831079E+03  0.30012448904E+04  0.29101262524E+04 0.  0.
        2    1    3    3  502    0  0.10210886357E+04  0.81603449132E+03  0.10262519420E+04  0.16618445600E+04  0.25500000920E-02 0. -1.
       -2    1    3    3    0  502 -0.10210886357E+04 -0.81603449132E+03 -0.29233363126E+03  0.13394003304E+04  0.25500000920E-02 0.  1.
</event>
<event>
 5   0  0.2425845E-06  0.2889140E+04  0.7818609E-02  0.8276116E-01
        2   -1    0    0  501    0  0.00000000000E+00  0.00000000000E+00  0.13874753041E+04  0.13874753041E+04  0.25500000920E-02 0. -1.
       -2   -1    0    0    0  501  0.00000000000E+00  0.00000000000E+00 -0.15040141475E+04  0.15040141475E+04  0.25500000920E-02 0.  1.
    10030    2    1    2    0    0  0.00000000000E+00  0.00000000000E+00 -0.11653884340E+03  0.28914894516E+04  0.28891400012E+04 0.  0.
        2    1    3    3  502    0  0.13925407887E+03 -0.11543340576E+03 -0.14926361846E+04  0.15035555691E+04  0.25500000920E-02 0.  1.
       -2    1    3    3    0  502 -0.13925407887E+03  0.11543340576E+03  0.13760973412E+04  0.13879338825E+04  0.25500000920E-02 0. -1.
</event>
<event>
 5   0  0.8263673E-07  0.2924037E+04  0.7818609E-02  0.8265761E-01
        1   -1    0    0  501    0  0.00000000000E+00  0.00000000000E+00  0.14416681151E+04  0.14416681151E+04  0.50400001928E-02 0. -1.
       -1   -1    0    0    0  501  0.00000000000E+00  0.00000000000E+00 -0.14826563867E+04  0.14826563867E+04  0.50400001928E-02 0.  1.
    10030    2    1    2    0    0  0.00000000000E+00  0.00000000000E+00 -0.40988271546E+02  0.29243245018E+04  0.29240372353E+04 0.  0.
        5    1    3    3  502    0 -0.18694716912E+03  0.78140912967E+03  0.12010704486E+04  0.14450404093E+04  0.46999998093E+01 0. -1.
       -5    1    3    3    0  502  0.18694716912E+03 -0.78140912967E+03 -0.12420587202E+04  0.14792840925E+04  0.46999998093E+01 0.  1.
</event>
<event>
 5   0  0.8357118E-07  0.2896617E+04  0.7818609E-02  0.8273885E-01
        1   -1    0    0  501    0  0.00000000000E+00  0.00000000000E+00  0.11953639406E+04  0.11953639406E+04  0.50400001928E-02 0.  1.
       -1   -1    0    0    0  501  0.00000000000E+00  0.00000000000E+00 -0.17547769948E+04  0.17547769948E+04  0.50400001928E-02 0. -1.
    10030    2    1    2    0    0  0.00000000000E+00  0.00000000000E+00 -0.55941305416E+03  0.29501409354E+04  0.28966167461E+04 0.  0.
        1    1    3    3  502    0 -0.82042365172E+03  0.10138793180E+04 -0.92106553467E+03  0.15966865563E+04  0.50400001928E-02 0. -1.
       -1    1    3    3    0  502  0.82042365172E+03 -0.10138793180E+04  0.36165248051E+03  0.13534543792E+04  0.50400001928E-02 0.  1.
</event>
<event>
 5   0  0.8263673E-07  0.2904496E+04  0.7818609E-02  0.8271541E-01
       -1   -1    0    0    0  501  0.00000000000E+00  0.00000000000E+00  0.93192607628E+03  0.93192607629E+03  0.50400001928E-02 0.  1.
        1   -1    0    0  501    0  0.00000000000E+00  0.00000000000E+00 -0.22630803787E+04  0.22630803787E+04  0.50400001928E-02 0. -1.
    10030    2    1    2    0    0  0.00000000000E+00  0.00000000000E+00 -0.13311543024E+04  0.31950064550E+04  0.29044955622E+04 0.  0.
        5    1    3    3  502    0  0.83596838507E+03 -0.11480223756E+04 -0.33155630138E+03  0.14583381593E+04  0.46999998093E+01 0.  1.
       -5    1    3    3    0  502 -0.83596838507E+03  0.11480223756E+04 -0.99959800104E+03  0.17366682957E+04  0.46999998093E+01 0. -1.
</event>
<event>
 5   0  0.2425845E-06  0.2954073E+04  0.7818609E-02  0.8256969E-01
       -2   -1    0    0    0  501  0.00000000000E+00  0.00000000000E+00  0.26670581075E+04  0.26670581076E+04  0.25500000920E-02 0. -1.
        2   -1    0    0  501    0  0.00000000000E+00  0.00000000000E+00 -0.81799356067E+03  0.81799356068E+03  0.25500000920E-02 0.  1.
    10030    2    1    2    0    0  0.00000000000E+00  0.00000000000E+00  0.18490645469E+04  0.34850516682E+04  0.29540726856E+04 0.  0.
        2    1    3    3  502    0  0.10429567748E+03 -0.14700447782E+04  0.10408859672E+04  0.18042596362E+04  0.25500000920E-02 0.  1.
       -2    1    3    3    0  502 -0.10429567748E+03  0.14700447782E+04  0.80817857968E+03  0.16807920320E+04  0.25500000920E-02 0. -1.
</event>
<event>
 5   0  0.2425845E-06  0.2914377E+04  0.7818609E-02  0.8268613E-01
        2   -1    0    0  501    0  0.00000000000E+00  0.00000000000E+00  0.17256884352E+04  0.17256884352E+04  0.25500000920E-02 0.  1.
       -2   -1    0    0    0  501  0.00000000000E+00  0.00000000000E+00 -0.12304649019E+04  0.12304649019E+04  0.25500000920E-02 0. -1.
    10030    2    1    2    0    0  0.00000000000E+00  0.00000000000E+00  0.49522353322E+03  0.29561533371E+04  0.29143774986E+04 0.  0.
        2    1    3    3  502    0 -0.11194844144E+04  0.58125201170E+02  0.11919648011E+04  0.16362774765E+04  0.25500000920E-02 0.  1.
       -2    1    3    3    0  502  0.11194844144E+04 -0.58125201170E+02 -0.69674126787E+03  0.13198758606E+04  0.25500000920E-02 0. -1.
</event>
<event>
 5   0  0.8357118E-07  0.2917973E+04  0.7818609E-02  0.8267550E-01
        1   -1    0    0  501    0  0.00000000000E+00  0.00000000000E+00  0.18631836360E+04  0.18631836360E+04  0.50400001928E-02 0. -1.
       -1   -1    0    0    0  501  0.00000000000E+00  0.00000000000E+00 -0.11424752237E+04  0.11424752237E+04  0.50400001928E-02 0.  1.
    10030    2    1    2    0    0  0.00000000000E+00  0.00000000000E+00  0.72070841232E+03  0.30056588598E+04  0.29179726808E+04 0.  0.
        1    1    3    3  502    0  0.24796871966E+03 -0.98504107670E+03  0.14391306095E+04  0.17615025745E+04  0.50400001928E-02 0. -1.
       -1    1    3    3    0  502 -0.24796871966E+03  0.98504107670E+03 -0.71842219720E+03  0.12441562853E+04  0.50400001928E-02 0.  1.
</event>
<event>
 5   0  0.2378690E-06  0.2900407E+04  0.7818609E-02  0.8272756E-01
       -2   -1    0    0    0  501  0.00000000000E+00  0.00000000000E+00  0.13178609539E+04  0.13178609539E+04  0.25500000920E-02 0. -1.
        2   -1    0    0  501    0  0.00000000000E+00  0.00000000000E+00 -0.15958361363E+04  0.15958361363E+04  0.25500000920E-02 0.  1.
    10030    2    1    2    0    0  0.00000000000E+00  0.00000000000E+00 -0.27797518236E+03  0.29136970902E+04  0.29004069596E+04 0.  0.
        3    1    3    3  502    0  0.15427068216E+00  0.11235746560E+04  0.78209433399E+03  0.13689746487E+04  0.10100000352E+00 0. -1.
       -3    1    3    3    0  502 -0.15427068216E+00 -0.11235746560E+04 -0.10600695164E+04  0.15447224415E+04  0.10100000352E+00 0.  1.
</event>
<event>
 5   0  0.2378690E-06  0.2906270E+04  0.7818609E-02  0.8271014E-01
       -2   -1    0    0    0  501  0.00000000000E+00  0.00000000000E+00  0.10463264031E+04  0.10463264031E+04  0.25500000920E-02 0. -1.
        2   -1    0    0  501    0  0.00000000000E+00  0.00000000000E+00 -0.20181093752E+04  0.20181093752E+04  0.25500000920E-02 0.  1.
    10030    2    1    2    0    0  0.00000000000E+00  0.00000000000E+00 -0.97178297208E+03  0.30644357784E+04  0.29062698593E+04 0.  0.
        3    1    3    3  502    0 -0.11232693911E+04 -0.90786007823E+03 -0.31699598173E+03  0.14786583477E+04  0.10100000352E+00 0. -1.
       -3    1    3    3    0  502  0.11232693911E+04  0.90786007823E+03 -0.65478699035E+03  0.15857774307E+04  0.10100000352E+00 0.  1.
</event>
<event>
 5   0  0.2360103E-06  0.2902088E+04  0.7818609E-02  0.8272256E-01
       -2   -1    0    0    0  501  0.00000000000E+00  0.00000000000E+00  0.17365212529E+04  0.17365212529E+04  0.25500000920E-02 0. -1.
        2   -1    0    0  501    0  0.00000000000E+00  0.00000000000E+00 -0.12124983879E+04  0.12124983879E+04  0.25500000920E-02 0.  1.
    10030    2    1    2    0    0  0.00000000000E+00  0.00000000000E+00  0.52402286499E+03  0.29490196408E+04  0.29020883651E+04 0.  0.
        4    1    3    3  502    0 -0.70902424693E+03  0.11134932518E+04  0.87420314105E+03  0.15832925659E+04  0.12699999809E+01 0. -1.
       -4    1    3    3    0  502  0.70902424693E+03 -0.11134932518E+04 -0.35018027606E+03  0.13657270749E+04  0.12699999809E+01 0.  1.
</event>
<event>
 5   0  0.8355946E-07  0.2898851E+04  0.7818609E-02  0.8273219E-01
        1   -1    0    0  501    0  0.00000000000E+00  0.00000000000E+00  0.18574188648E+04  0.18574188648E+04  0.50400001928E-02 0. -1.
       -1   -1    0    0    0  501  0.00000000000E+00  0.00000000000E+00 -0.11310504344E+04  0.11310504344E+04  0.50400001928E-02 0.  1.
    10030    2    1    2    0    0  0.00000000000E+00  0.00000000000E+00  0.72636843046E+03  0.29884692992E+04  0.28988510924E+04 0.  0.
        4    1    3    3  502    0 -0.12103725464E+04  0.74240670863E+03  0.66314928846E+03  0.15671432652E+04  0.12699999809E+01 0. -1.
       -4    1    3    3    0  502  0.12103725464E+04 -0.74240670863E+03  0.63219141999E+02  0.14213260340E+04  0.12699999809E+01 0.  1.
</event>
<event>
 5   0  0.8355946E-07  0.2912118E+04  0.7818609E-02  0.8269281E-01
        1   -1    0    0  501    0  0.00000000000E+00  0.00000000000E+00  0.14536668676E+04  0.14536668676E+04  0.50400001928E-02 0. -1.
       -1   -1    0    0    0  501  0.00000000000E+00  0.00000000000E+00 -0.14584547045E+04  0.14584547045E+04  0.50400001928E-02 0.  1.
    10030    2    1    2    0    0  0.00000000000E+00  0.00000000000E+00 -0.47878368847E+01  0.29121215721E+04  0.29121176363E+04 0.  0.
        4    1    3    3  502    0  0.15448696075E+03  0.29348736366E+03  0.14153895801E+04  0.14537297995E+04  0.12699999809E+01 0. -1.
       -4    1    3    3    0  502 -0.15448696075E+03 -0.29348736366E+03 -0.14201774170E+04  0.14583917726E+04  0.12699999809E+01 0.  1.
</event>
<event>
 5   0  0.2325590E-06  0.2883483E+04  0.7818609E-02  0.8277809E-01
       -2   -1    0    0    0  501  0.00000000000E+00  0.00000000000E+00  0.15617580637E+04  0.15617580637E+04  0.25500000920E-02 0. -1.
        2   -1    0    0  501    0  0.00000000000E+00  0.00000000000E+00 -0.13309482059E+04  0.13309482059E+04  0.25500000920E-02 0.  1.
    10030    2    1    2    0    0  0.00000000000E+00  0.00000000000E+00  0.23080985778E+03  0.28927062696E+04  0.28834833747E+04 0.  0.
        5    1    3    3  502    0 -0.77780191286E+03  0.11601733867E+04  0.47378543951E+03  0.14749484179E+04  0.46999998093E+01 0. -1.
       -5    1    3    3    0  502  0.77780191286E+03 -0.11601733867E+04 -0.24297558173E+03  0.14177578517E+04  0.46999998093E+01 0.  1.
</event>
<event>
 5   0  0.8355946E-07  0.2814082E+04  0.7818609E-02  0.8298910E-01
       -1   -1    0    0    0  501  0.00000000000E+00  0.00000000000E+00  0.72236274961E+03  0.72236274963E+03  0.50400001928E-02 0.  1.
        1   -1    0    0  501    0  0.00000000000E+00  0.00000000000E+00 -0.27406786623E+04  0.27406786623E+04  0.50400001928E-02 0. -1.
    10030    2    1    2    0    0  0.00000000000E+00  0.00000000000E+00 -0.20183159126E+04  0.34630414119E+04  0.28140818569E+04 0.  0.
        4    1    3    3  502    0  0.11056406361E+04 -0.53704897871E+03 -0.18518345957E+04  0.22226461267E+04  0.12699999809E+01 0. -1.
       -4    1    3    3    0  502 -0.11056406361E+04  0.53704897871E+03 -0.16648131694E+03  0.12403952852E+04  0.12699999809E+01 0.  1.
</event>
<event>
 5   0  0.2378690E-06  0.2902107E+04  0.7818609E-02  0.8272251E-01
       -2   -1    0    0    0  501  0.00000000000E+00  0.00000000000E+00  0.13185498116E+04  0.13185498116E+04  0.25500000920E-02 0.  1.
        2   -1    0    0  501    0  0.00000000000E+00  0.00000000000E+00 -0.15968731267E+04  0.15968731267E+04  0.25500000920E-02 0. -1.
    10030    2    1    2    0    0  0.00000000000E+00  0.00000000000E+00 -0.27832331508E+03  0.29154229382E+04  0.29021073449E+04 0.  0.
        3    1    3    3  502    0  0.70813860929E+03  0.12093740154E+04  0.23874376086E+03  0.14216344089E+04  0.10100000352E+00 0.  1.
       -3    1    3    3    0  502 -0.70813860929E+03 -0.12093740154E+04 -0.51706707595E+03  0.14937885293E+04  0.10100000352E+00 0. -1.
</event>
<event>
 5   0  0.2325590E-06  0.2915080E+04  0.7818609E-02  0.8268405E-01
        2   -1    0    0  501    0  0.00000000000E+00  0.00000000000E+00  0.19681468620E+04  0.19681468620E+04  0.25500000920E-02 0. -1.
       -2   -1    0    0    0  501  0.00000000000E+00  0.00000000000E+00 -0.10794025000E+04  0.10794025000E+04  0.25500000920E-02 0.  1.
    10030    2    1    2    0    0  0.00000000000E+00  0.00000000000E+00  0.88874436207E+03  0.30475493620E+04  0.29150798570E+04 0.  0.
        5    1    3    3  502    0  0.28997817446E+03 -0.98397817892E+03 -0.63810305970E+03  0.12080968517E+04  0.46999998093E+01 0.  1.
       -5    1    3    3    0  502 -0.28997817446E+03  0.98397817892E+03  0.15268474218E+04  0.18394525103E+04  0.46999998093E+01 0. -1.
</event>
<event>
 5   0  0.8355946E-07  0.2903085E+04  0.7818609E-02  0.8271960E-01
       -1   -1    0    0    0  501  0.00000000000E+00  0.00000000000E+00  0.11321875672E+04  0.11321875672E+04  0.50400001928E-02 0.  1.
        1   -1    0    0  501    0  0.00000000000E+00  0.00000000000E+00 -0.18609773448E+04  0.18609773448E+04  0.50400001928E-02 0. -1.
    10030    2    1    2    0    0  0.00000000000E+00  0.00000000000E+00 -0.72878977766E+03  0.29931649120E+04  0.29030848507E+04 0.  0.
        4    1    3    3  502    0 -0.65010928077E+03  0.10494950265E+04 -0.11515583573E+04  0.16882446952E+04  0.12699999809E+01 0. -1.
       -4    1    3    3    0  502  0.65010928077E+03 -0.10494950265E+04  0.42276857968E+03  0.13049202169E+04  0.12699999809E+01 0.  1.
</event>
<event>
 5   0  0.8947674E-07  0.2887736E+04  0.7818609E-02  0.8276536E-01
        1   -1    0    0  501    0  0.00000000000E+00  0.00000000000E+00  0.16614787304E+04  0.16614787304E+04  0.50400001928E-02 0. -1.
       -1   -1    0    0    0  501  0.00000000000E+00  0.00000000000E+00 -0.12547590017E+04  0.12547590018E+04  0.50400001928E-02 0.  1.
    10030    2    1    2    0    0  0.00000000000E+00  0.00000000000E+00  0.40671972869E+03  0.29162377322E+04  0.28877364099E+04 0.  0.
        3    1    3    3  502    0 -0.16494558640E+03  0.37760161853E+03  0.16008406221E+04  0.16530216987E+04  0.10100000352E+00 0. -1.
       -3    1    3    3    0  502  0.16494558640E+03 -0.37760161853E+03 -0.11941208935E+04  0.12632160335E+04  0.10100000352E+00 0.  1.
</event>
<event>
 5   0  0.8355946E-07  0.2905211E+04  0.7818609E-02  0.8271329E-01
        1   -1    0    0  501    0  0.00000000000E+00  0.00000000000E+00  0.10467939087E+04  0.10467939087E+04  0.50400001928E-02 0.  1.
       -1   -1    0    0    0  501  0.00000000000E+00  0.00000000000E+00 -0.20157382111E+04  0.20157382111E+04  0.50400001928E-02 0. -1.
    10030    2    1    2    0    0  0.00000000000E+00  0.00000000000E+00 -0.96894430235E+03  0.30625321198E+04  0.29052108226E+04 0.  0.
        4    1    3    3  502    0 -0.36356140195E+03  0.49745828887E+03 -0.18711598557E+04  0.19699955484E+04  0.12699999809E+01 0. -1.
       -4    1    3    3    0  502  0.36356140195E+03 -0.49745828887E+03  0.90221555337E+03  0.10925365714E+04  0.12699999809E+01 0.  1.
</event>
<event>
 5   0  0.2325590E-06  0.2913470E+04  0.7818609E-02  0.8268881E-01
        2   -1    0    0  501    0  0.00000000000E+00  0.00000000000E+00  0.86673316256E+03  0.86673316256E+03  0.25500000920E-02 0. -1.
       -2   -1    0    0    0  501  0.00000000000E+00  0.00000000000E+00 -0.24483627230E+04  0.24483627230E+04  0.25500000920E-02 0.  1.
    10030    2    1    2    0    0  0.00000000000E+00  0.00000000000E+00 -0.15816295605E+04  0.33150958856E+04  0.29134702099E+04 0.  0.
        5    1    3    3  502    0  0.48070466449E+03 -0.77576812822E+03  0.50111600082E+03  0.10411688141E+04  0.46999998093E+01 0. -1.
       -5    1    3    3    0  502 -0.48070466449E+03  0.77576812822E+03 -0.20827455613E+04  0.22739270714E+04  0.46999998093E+01 0.  1.
</event>
<event>
 5   0  0.8355946E-07  0.2904863E+04  0.7818609E-02  0.8271432E-01
        1   -1    0    0  501    0  0.00000000000E+00  0.00000000000E+00  0.12530353395E+04  0.12530353395E+04  0.50400001928E-02 0. -1.
       -1   -1    0    0    0  501  0.00000000000E+00  0.00000000000E+00 -0.16835573301E+04  0.16835573301E+04  0.50400001928E-02 0.  1.
    10030    2    1    2    0    0  0.00000000000E+00  0.00000000000E+00 -0.43052199058E+03  0.29365926696E+04  0.29048627030E+04 0.  0.
        4    1    3    3  502    0  0.72556102260E+03  0.12556668513E+04 -0.13427868290E+03  0.14564238451E+04  0.12699999809E+01 0.  1.
       -4    1    3    3    0  502 -0.72556102260E+03 -0.12556668513E+04 -0.29624330768E+03  0.14801688246E+04  0.12699999809E+01 0. -1.
</event>
<event>
 5   0  0.8483636E-07  0.2907621E+04  0.7818609E-02  0.8270614E-01
        1   -1    0    0  501    0  0.00000000000E+00  0.00000000000E+00  0.25592056378E+04  0.25592056378E+04  0.50400001928E-02 0.  1.
       -1   -1    0    0    0  501  0.00000000000E+00  0.00000000000E+00 -0.82586738317E+03  0.82586738318E+03  0.50400001928E-02 0. -1.
    10030    2    1    2    0    0  0.00000000000E+00  0.00000000000E+00  0.17333382546E+04  0.33850730210E+04  0.29076206514E+04 0.  0.
        2    1    3    3  502    0  0.93109799635E+02  0.14217469723E+04  0.53019394862E+03  0.15202432408E+04  0.25500000920E-02 0. -1.
       -2    1    3    3    0  502 -0.93109799635E+02 -0.14217469723E+04  0.12031443060E+04  0.18648297802E+04  0.25500000920E-02 0.  1.
</event>
<event>
 5   0  0.8263673E-07  0.2920748E+04  0.7818609E-02  0.8266731E-01
       -1   -1    0    0    0  501  0.00000000000E+00  0.00000000000E+00  0.14581568942E+04  0.14581568942E+04  0.50400001928E-02 0. -1.
        1   -1    0    0  501    0  0.00000000000E+00  0.00000000000E+00 -0.14625943553E+04  0.14625943553E+04  0.50400001928E-02 0.  1.
    10030    2    1    2    0    0  0.00000000000E+00  0.00000000000E+00 -0.44374611329E+01  0.29207512495E+04  0.29207478786E+04 0.  0.
        5    1    3    3  502    0 -0.63332741029E+03  0.85565242006E+03 -0.10019324831E+04  0.14618944775E+04  0.46999998093E+01 0.  1.
       -5    1    3    3    0  502  0.63332741029E+03 -0.85565242006E+03  0.99749502195E+03  0.14588567721E+04  0.46999998093E+01 0. -1.
</event>
<event>
 5   0  0.2425845E-06  0.2827134E+04  0.7818609E-02  0.8294894E-01
        2   -1    0    0  501    0  0.00000000000E+00  0.00000000000E+00  0.14578093068E+04  0.14578093068E+04  0.25500000920E-02 0. -1.
       -2   -1    0    0    0  501  0.00000000000E+00  0.00000000000E+00 -0.13706674453E+04  0.13706674453E+04  0.25500000920E-02 0.  1.
    10030    2    1    2    0    0  0.00000000000E+00  0.00000000000E+00  0.87141861479E+02  0.28284767520E+04  0.28271340670E+04 0.  0.
        2    1    3    3  502    0 -0.32888018402E+03  0.64646861095E+03 -0.11703016002E+04  0.13768404685E+04  0.25500000920E-02 0.  1.
       -2    1    3    3    0  502  0.32888018402E+03 -0.64646861095E+03  0.12574434617E+04  0.14516362835E+04  0.25500000920E-02 0. -1.
</event>
<event>
 5   0  0.2360103E-06  0.2897844E+04  0.7818609E-02  0.8273519E-01
        2   -1    0    0  501    0  0.00000000000E+00  0.00000000000E+00  0.13652078787E+04  0.13652078787E+04  0.25500000920E-02 0.  1.
       -2   -1    0    0    0  501  0.00000000000E+00  0.00000000000E+00 -0.15377694677E+04  0.15377694677E+04  0.25500000920E-02 0. -1.
    10030    2    1    2    0    0  0.00000000000E+00  0.00000000000E+00 -0.17256158901E+03  0.29029773464E+04  0.28978440213E+04 0.  0.
        4    1    3    3  502    0 -0.12052217335E+04  0.18490679781E+03 -0.87036994092E+03  0.14980972591E+04  0.12699999809E+01 0. -1.
       -4    1    3    3    0  502  0.12052217335E+04 -0.18490679781E+03  0.69780835191E+03  0.14048800873E+04  0.12699999809E+01 0.  1.
</event>
<event>
 5   0  0.2378690E-06  0.2841678E+04  0.7818609E-02  0.8290445E-01
        2   -1    0    0  501    0  0.00000000000E+00  0.00000000000E+00  0.16735095102E+04  0.16735095102E+04  0.25500000920E-02 0. -1.
       -2   -1    0    0    0  501  0.00000000000E+00  0.00000000000E+00 -0.12063172370E+04  0.12063172370E+04  0.25500000920E-02 0.  1.
    10030    2    1    2    0    0  0.00000000000E+00  0.00000000000E+00  0.46719227322E+03  0.28798267471E+04  0.28416779327E+04 0.  0.
        3    1    3    3  502    0 -0.49646027604E+03  0.12071720441E+04  0.80242108347E+03  0.15321934457E+04  0.10100000352E+00 0. -1.
       -3    1    3    3    0  502  0.49646027604E+03 -0.12071720441E+04 -0.33522881025E+03  0.13476333014E+04  0.10100000352E+00 0.  1.
</event>
<event>
 5   0  0.8357118E-07  0.2920056E+04  0.7818609E-02  0.8266935E-01
       -1   -1    0    0    0  501  0.00000000000E+00  0.00000000000E+00  0.10876319552E+04  0.10876319552E+04  0.50400001928E-02 0.  1.
        1   -1    0    0  501    0  0.00000000000E+00  0.00000000000E+00 -0.19599290864E+04  0.19599290864E+04  0.50400001928E-02 0. -1.
    10030    2    1    2    0    0  0.00000000000E+00  0.00000000000E+00 -0.87229713119E+03  0.30475610416E+04  0.29200558243E+04 0.  0.
        1    1    3    3  502    0  0.48980257373E+02  0.99393135726E+03  0.67885675308E+03  0.12046348408E+04  0.50400001928E-02 0.  1.
       -1    1    3    3    0  502 -0.48980257373E+02 -0.99393135726E+03 -0.15511538843E+04  0.18429262007E+04  0.50400001928E-02 0. -1.
</event>
<event>
 5   0  0.8947674E-07  0.2913581E+04  0.7818609E-02  0.8268848E-01
        1   -1    0    0  501    0  0.00000000000E+00  0.00000000000E+00  0.18112210350E+04  0.18112210351E+04  0.50400001928E-02 0.  1.
       -1   -1    0    0    0  501  0.00000000000E+00  0.00000000000E+00 -0.11717167411E+04  0.11717167411E+04  0.50400001928E-02 0. -1.
    10030    2    1    2    0    0  0.00000000000E+00  0.00000000000E+00  0.63950429392E+03  0.29829377762E+04  0.29135806209E+04 0.  0.
        3    1    3    3  502    0  0.15162462207E+03  0.76688719998E+03 -0.93879171162E+03  0.12216529341E+04  0.10100000352E+00 0. -1.
       -3    1    3    3    0  502 -0.15162462207E+03 -0.76688719998E+03  0.15782960055E+04  0.17612848420E+04  0.10100000352E+00 0.  1.
</event>
<event>
 5   0  0.8263673E-07  0.2801091E+04  0.7818609E-02  0.8302930E-01
        1   -1    0    0  501    0  0.00000000000E+00  0.00000000000E+00  0.17170306504E+04  0.17170306504E+04  0.50400001928E-02 0. -1.
       -1   -1    0    0    0  501  0.00000000000E+00  0.00000000000E+00 -0.11423949037E+04  0.11423949037E+04  0.50400001928E-02 0.  1.
    10030    2    1    2    0    0  0.00000000000E+00  0.00000000000E+00  0.57463574672E+03  0.28594255542E+04  0.28010905481E+04 0.  0.
        5    1    3    3  502    0 -0.11804645485E+04 -0.12834169349E+03  0.10454395370E+04  0.15820663880E+04  0.46999998093E+01 0.  1.
       -5    1    3    3    0  502  0.11804645485E+04  0.12834169349E+03 -0.47080379026E+03  0.12773591662E+04  0.46999998093E+01 0. -1.
</event>
<event>
 5   0  0.8263673E-07  0.2909045E+04  0.7818609E-02  0.8270192E-01
        1   -1    0    0  501    0  0.00000000000E+00  0.00000000000E+00  0.20014123459E+04  0.20014123459E+04  0.50400001928E-02 0.  1.
       -1   -1    0    0    0  501  0.00000000000E+00  0.00000000000E+00 -0.10570711091E+04  0.10570711091E+04  0.50400001928E-02 0. -1.
    10030    2    1    2    0    0  0.00000000000E+00  0.00000000000E+00  0.94434123685E+03  0.30584834550E+04  0.29090446324E+04 0.  0.
        5    1    3    3  502    0  0.26607073589E+03 -0.12639379913E+03  0.19697163160E+04  0.19916258395E+04  0.46999998093E+01 0.  1.
       -5    1    3    3    0  502 -0.26607073589E+03  0.12639379913E+03 -0.10253750791E+04  0.10668576156E+04  0.46999998093E+01 0. -1.
</event>
<event>
 5   0  0.2425845E-06  0.2912814E+04  0.7818609E-02  0.8269075E-01
        2   -1    0    0  501    0  0.00000000000E+00  0.00000000000E+00  0.11307180404E+04  0.11307180404E+04  0.25500000920E-02 0. -1.
       -2   -1    0    0    0  501  0.00000000000E+00  0.00000000000E+00 -0.18759063148E+04  0.18759063148E+04  0.25500000920E-02 0.  1.
    10030    2    1    2    0    0  0.00000000000E+00  0.00000000000E+00 -0.74518827440E+03  0.30066243553E+04  0.29128138371E+04 0.  0.
        2    1    3    3  502    0 -0.11612825885E+04  0.49201566035E+03 -0.11243807452E+04  0.16896415953E+04  0.25500000920E-02 0.  1.
       -2    1    3    3    0  502  0.11612825885E+04 -0.49201566035E+03  0.37919247078E+03  0.13169827600E+04  0.25500000920E-02 0. -1.
</event>
<event>
 5   0  0.2425845E-06  0.2736138E+04  0.7818609E-02  0.8323374E-01
        2   -1    0    0  501    0  0.00000000000E+00  0.00000000000E+00  0.10521486650E+04  0.10521486650E+04  0.25500000920E-02 0. -1.
       -2   -1    0    0    0  501  0.00000000000E+00  0.00000000000E+00 -0.17788478831E+04  0.17788478831E+04  0.25500000920E-02 0.  1.
    10030    2    1    2    0    0  0.00000000000E+00  0.00000000000E+00 -0.72669921805E+03  0.28309965481E+04  0.27361377345E+04 0.  0.
        2    1    3    3  502    0 -0.61563836666E+03  0.10674306768E+04  0.25155504900E+03  0.12576560702E+04  0.25500000920E-02 0. -1.
       -2    1    3    3    0  502  0.61563836666E+03 -0.10674306768E+04 -0.97825426705E+03  0.15733404779E+04  0.25500000920E-02 0.  1.
</event>
<event>
 5   0  0.8947674E-07  0.2903743E+04  0.7818609E-02  0.8271765E-01
       -1   -1    0    0    0  501  0.00000000000E+00  0.00000000000E+00  0.29614905574E+04  0.29614905574E+04  0.50400001928E-02 0.  1.
        1   -1    0    0  501    0  0.00000000000E+00  0.00000000000E+00 -0.71178020505E+03  0.71178020507E+03  0.50400001928E-02 0. -1.
    10030    2    1    2    0    0  0.00000000000E+00  0.00000000000E+00  0.22497103523E+04  0.36732707624E+04  0.29037426582E+04 0.  0.
        3    1    3    3  502    0  0.11944416794E+04  0.56184500901E+03  0.35999885930E+03  0.13681958663E+04  0.10100000352E+00 0. -1.
       -3    1    3    3    0  502 -0.11944416794E+04 -0.56184500901E+03  0.18897114930E+04  0.23050748961E+04  0.10100000352E+00 0.  1.
</event>
<event>
 5   0  0.8357118E-07  0.2903783E+04  0.7818609E-02  0.8271753E-01
        1   -1    0    0  501    0  0.00000000000E+00  0.00000000000E+00  0.22836534364E+04  0.22836534364E+04  0.50400001928E-02 0. -1.
       -1   -1    0    0    0  501  0.00000000000E+00  0.00000000000E+00 -0.92307730263E+03  0.92307730264E+03  0.50400001928E-02 0.  1.
    10030    2    1    2    0    0  0.00000000000E+00  0.00000000000E+00  0.13605761337E+04  0.32067307390E+04  0.29037828116E+04 0.  0.
        1    1    3    3  502    0 -0.39491517755E+03  0.11367205953E+04  0.15773789096E+04  0.19839899026E+04  0.50400001928E-02 0. -1.
       -1    1    3    3    0  502  0.39491517755E+03 -0.11367205953E+04 -0.21680277589E+03  0.12227408364E+04  0.50400001928E-02 0.  1.
</event>
<event>
 5   0  0.2378690E-06  0.2892494E+04  0.7818609E-02  0.8275114E-01
       -2   -1    0    0    0  501  0.00000000000E+00  0.00000000000E+00  0.10266548811E+04  0.10266548811E+04  0.25500000920E-02 0. -1.
        2   -1    0    0  501    0  0.00000000000E+00  0.00000000000E+00 -0.20373257529E+04  0.20373257529E+04  0.25500000920E-02 0.  1.
    10030    2    1    2    0    0  0.00000000000E+00  0.00000000000E+00 -0.10106708718E+04  0.30639806341E+04  0.28924940302E+04 0.  0.
        3    1    3    3  502    0  0.48655568040E+03  0.33664208470E+03 -0.19032593210E+04  0.19931032026E+04  0.10100000352E+00 0.  1.
       -3    1    3    3    0  502 -0.48655568040E+03 -0.33664208470E+03  0.89258844918E+03  0.10708774314E+04  0.10100000352E+00 0. -1.
</event>
<event>
 5   0  0.2325590E-06  0.2896521E+04  0.7818609E-02  0.8273913E-01
       -2   -1    0    0    0  501  0.00000000000E+00  0.00000000000E+00  0.83742443158E+03  0.83742443158E+03  0.25500000920E-02 0.  1.
        2   -1    0    0  501    0  0.00000000000E+00  0.00000000000E+00 -0.25046537117E+04  0.25046537117E+04  0.25500000920E-02 0. -1.
    10030    2    1    2    0    0  0.00000000000E+00  0.00000000000E+00 -0.16672292801E+04  0.33420781433E+04  0.28965208170E+04 0.  0.
        5    1    3    3  502    0  0.57965574094E+03 -0.62982483535E+02  0.69600597157E+03  0.90797245206E+03  0.46999998093E+01 0.  1.
       -5    1    3    3    0  502 -0.57965574094E+03  0.62982483535E+02 -0.23632352517E+04  0.24341056912E+04  0.46999998093E+01 0. -1.
</event>
<event>
 5   0  0.8483636E-07  0.2897229E+04  0.7818609E-02  0.8273702E-01
        1   -1    0    0  501    0  0.00000000000E+00  0.00000000000E+00  0.22430226039E+04  0.22430226039E+04  0.50400001928E-02 0. -1.
       -1   -1    0    0    0  501  0.00000000000E+00  0.00000000000E+00 -0.93556072004E+03  0.93556072006E+03  0.50400001928E-02 0.  1.
    10030    2    1    2    0    0  0.00000000000E+00  0.00000000000E+00  0.13074618839E+04  0.31785833240E+04  0.28972289122E+04 0.  0.
        2    1    3    3  502    0  0.78218824935E+03  0.10592931128E+04  0.13161569486E+04  0.18617705201E+04  0.25500000920E-02 0. -1.
       -2    1    3    3    0  502 -0.78218824935E+03 -0.10592931128E+04 -0.86950646739E+01  0.13168128039E+04  0.25500000920E-02 0.  1.
</event>
<event>
 5   0  0.8483636E-07  0.2914503E+04  0.7818609E-02  0.8268575E-01
        1   -1    0    0  501    0  0.00000000000E+00  0.00000000000E+00  0.22806687023E+04  0.22806687023E+04  0.50400001928E-02 0.  1.
       -1   -1    0    0    0  501  0.00000000000E+00  0.00000000000E+00 -0.93112262313E+03  0.93112262314E+03  0.50400001928E-02 0. -1.
    10030    2    1    2    0    0  0.00000000000E+00  0.00000000000E+00  0.13495460792E+04  0.32117913255E+04  0.29145031992E+04 0.  0.
        2    1    3    3  502    0  0.37996459527E+03  0.97843059723E+03 -0.43922212891E+03  0.11378117620E+04  0.25500000920E-02 0.  1.
       -2    1    3    3    0  502 -0.37996459527E+03 -0.97843059723E+03  0.17887682081E+04  0.20739795634E+04  0.25500000920E-02 0. -1.
</event>
<event>
 5   0  0.8947674E-07  0.2901140E+04  0.7818609E-02  0.8272539E-01
        1   -1    0    0  501    0  0.00000000000E+00  0.00000000000E+00  0.28742535092E+04  0.28742535092E+04  0.50400001928E-02 0. -1.
       -1   -1    0    0    0  501  0.00000000000E+00  0.00000000000E+00 -0.73206927438E+03  0.73206927439E+03  0.50400001928E-02 0.  1.
    10030    2    1    2    0    0  0.00000000000E+00  0.00000000000E+00  0.21421842349E+04  0.36063227836E+04  0.29011395561E+04 0.  0.
        3    1    3    3  502    0  0.11065482146E+04 -0.92517992452E+03  0.87953882398E+03  0.16893772216E+04  0.10100000352E+00 0. -1.
       -3    1    3    3    0  502 -0.11065482146E+04  0.92517992452E+03  0.12626454109E+04  0.19169455620E+04  0.10100000352E+00 0.  1.
</event>
<event>
 5   0  0.2378690E-06  0.2899287E+04  0.7818609E-02  0.8273090E-01
       -2   -1    0    0    0  501  0.00000000000E+00  0.00000000000E+00  0.15727077214E+04  0.15727077214E+04  0.25500000920E-02 0. -1.
        2   -1    0    0  501    0  0.00000000000E+00  0.00000000000E+00 -0.13362094137E+04  0.13362094137E+04  0.25500000920E-02 0.  1.
    10030    2    1    2    0    0  0.00000000000E+00  0.00000000000E+00  0.23649830764E+03  0.29089171351E+04  0.28992874037E+04 0.  0.
        3    1    3    3  502    0 -0.10910510910E+04  0.32300754216E+03  0.10194197445E+04  0.15277247727E+04  0.10100000352E+00 0. -1.
       -3    1    3    3    0  502  0.10910510910E+04 -0.32300754216E+03 -0.78292143687E+03  0.13811923624E+04  0.10100000352E+00 0.  1.
</event>
<event>
 5   0  0.8263673E-07  0.2882348E+04  0.7818609E-02  0.8278149E-01
       -1   -1    0    0    0  501  0.00000000000E+00  0.00000000000E+00  0.14348629594E+04  0.14348629594E+04  0.50400001928E-02 0.  1.
        1   -1    0    0  501    0  0.00000000000E+00  0.00000000000E+00 -0.14475125759E+04  0.14475125759E+04  0.50400001928E-02 0. -1.
    10030    2    1    2    0    0  0.00000000000E+00  0.00000000000E+00 -0.12649616503E+02  0.28823755352E+04  0.28823477780E+04 0.  0.
        5    1    3    3  502    0 -0.13617962381E+04 -0.18598010635E+03  0.42713350901E+03  0.14392854890E+04  0.46999998093E+01 0.  1.
       -5    1    3    3    0  502  0.13617962381E+04  0.18598010635E+03 -0.43978312552E+03  0.14430900463E+04  0.46999998093E+01 0. -1.
</event>
<event>
 5   0  0.8355946E-07  0.2905513E+04  0.7818609E-02  0.8271239E-01
       -1   -1    0    0    0  501  0.00000000000E+00  0.00000000000E+00  0.11469396518E+04  0.11469396518E+04  0.50400001928E-02 0.  1.
        1   -1    0    0  501    0  0.00000000000E+00  0.00000000000E+00 -0.18401151536E+04  0.18401151536E+04  0.50400001928E-02 0. -1.
    10030    2    1    2    0    0  0.00000000000E+00  0.00000000000E+00 -0.69317550180E+03  0.29870548054E+04  0.29055127145E+04 0.  0.
        4    1    3    3  502    0  0.39610309584E+03 -0.74254957187E+03 -0.15639750941E+04  0.17760341317E+04  0.12699999809E+01 0. -1.
       -4    1    3    3    0  502 -0.39610309584E+03  0.74254957187E+03  0.87079959230E+03  0.12110206737E+04  0.12699999809E+01 0.  1.
</event>
<event>
 5   0  0.2378690E-06  0.2907713E+04  0.7818609E-02  0.8270586E-01
        2   -1    0    0  501    0  0.00000000000E+00  0.00000000000E+00  0.10264129610E+04  0.10264129610E+04  0.25500000920E-02 0. -1.
       -2   -1    0    0    0  501  0.00000000000E+00  0.00000000000E+00 -0.20593065401E+04  0.20593065401E+04  0.25500000920E-02 0.  1.
    10030    2    1    2    0    0  0.00000000000E+00  0.00000000000E+00 -0.10328935792E+04  0.30857195011E+04  0.29077131382E+04 0.  0.
        3    1    3    3  502    0 -0.32972926691E+03  0.61938213324E+03 -0.18677175414E+04  0.19951752908E+04  0.10100000352E+00 0.  1.
       -3    1    3    3    0  502  0.32972926691E+03 -0.61938213324E+03  0.83482396227E+03  0.10905442103E+04  0.10100000352E+00 0. -1.
</event>
<event>
 5   0  0.2325590E-06  0.2901539E+04  0.7818609E-02  0.8272420E-01
       -2   -1    0    0    0  501  0.00000000000E+00  0.00000000000E+00  0.18121759047E+04  0.18121759047E+04  0.25500000920E-02 0.  1.
        2   -1    0    0  501    0  0.00000000000E+00  0.00000000000E+00 -0.11614393913E+04  0.11614393913E+04  0.25500000920E-02 0. -1.
    10030    2    1    2    0    0  0.00000000000E+00  0.00000000000E+00  0.65073651341E+03  0.29736152961E+04  0.29015392327E+04 0.  0.
        5    1    3    3  502    0 -0.45863339870E+02  0.12578978010E+04 -0.41386802755E+03  0.13250355308E+04  0.46999998093E+01 0. -1.
       -5    1    3    3    0  502  0.45863339870E+02 -0.12578978010E+04  0.10646045410E+04  0.16485797652E+04  0.46999998093E+01 0.  1.
</event>
<event>
 5   0  0.2325590E-06  0.2898544E+04  0.7818609E-02  0.8273311E-01
       -2   -1    0    0    0  501  0.00000000000E+00  0.00000000000E+00  0.15061281223E+04  0.15061281223E+04  0.25500000920E-02 0.  1.
        2   -1    0    0  501    0  0.00000000000E+00  0.00000000000E+00 -0.13945620470E+04  0.13945620470E+04  0.25500000920E-02 0. -1.
    10030    2    1    2    0    0  0.00000000000E+00  0.00000000000E+00  0.11156607525E+03  0.29006901693E+04  0.28985438532E+04 0.  0.
        5    1    3    3  502    0  0.11013994099E+04  0.29154341667E+03 -0.84058597245E+03  0.14158690232E+04  0.46999998093E+01 0. -1.
       -5    1    3    3    0  502 -0.11013994099E+04 -0.29154341667E+03  0.95215204771E+03  0.14848211461E+04  0.46999998093E+01 0.  1.
</event>
<event>
 5   0  0.2325590E-06  0.2899112E+04  0.7818609E-02  0.8273142E-01
        2   -1    0    0  501    0  0.00000000000E+00  0.00000000000E+00  0.14897865068E+04  0.14897865068E+04  0.25500000920E-02 0. -1.
       -2   -1    0    0    0  501  0.00000000000E+00  0.00000000000E+00 -0.14104122514E+04  0.14104122514E+04  0.25500000920E-02 0.  1.
    10030    2    1    2    0    0  0.00000000000E+00  0.00000000000E+00  0.79374255390E+02  0.29001987582E+04  0.28991123753E+04 0.  0.
        5    1    3    3  502    0 -0.13945984159E+04 -0.64801129858E+02 -0.35044250150E+03  0.14394220941E+04  0.46999998093E+01 0. -1.
       -5    1    3    3    0  502  0.13945984159E+04  0.64801129858E+02  0.42981675689E+03  0.14607766642E+04  0.46999998093E+01 0.  1.
</event>
<event>
 5   0  0.2425845E-06  0.2910584E+04  0.7818609E-02  0.8269735E-01
       -2   -1    0    0    0  501  0.00000000000E+00  0.00000000000E+00  0.22081448780E+04  0.22081448780E+04  0.25500000920E-02 0. -1.
        2   -1    0    0  501    0  0.00000000000E+00  0.00000000000E+00 -0.95911972095E+03  0.95911972095E+03  0.25500000920E-02 0.  1.
    10030    2    1    2    0    0  0.00000000000E+00  0.00000000000E+00  0.12490251571E+04  0.31672645990E+04  0.29105843394E+04 0.  0.
        2    1    3    3  502    0 -0.43324679988E+03 -0.76202172062E+03 -0.63961196589E+03  0.10851190530E+04  0.25500000920E-02 0.  1.
       -2    1    3    3    0  502  0.43324679988E+03  0.76202172062E+03  0.18886371230E+04  0.20821455460E+04  0.25500000920E-02 0. -1.
</event>
<event>
 5   0  0.2360103E-06  0.2907268E+04  0.7818609E-02  0.8270718E-01
       -2   -1    0    0    0  501  0.00000000000E+00  0.00000000000E+00  0.13223529976E+04  0.13223529976E+04  0.25500000920E-02 0.  1.
        2   -1    0    0  501    0  0.00000000000E+00  0.00000000000E+00 -0.15979486019E+04  0.15979486019E+04  0.25500000920E-02 0. -1.
    10030    2    1    2    0    0  0.00000000000E+00  0.00000000000E+00 -0.27559560429E+03  0.29203015996E+04  0.29072682187E+04 0.  0.
        4    1    3    3  502    0  0.12882629571E+04  0.37689265300E+03 -0.69831462920E+03  0.15130480669E+04  0.12699999809E+01 0. -1.
       -4    1    3    3    0  502 -0.12882629571E+04 -0.37689265300E+03  0.42271902491E+03  0.14072535327E+04  0.12699999809E+01 0.  1.
</event>
<event>
 5   0  0.2325590E-06  0.2913440E+04  0.7818609E-02  0.8268890E-01
       -2   -1    0    0    0  501  0.00000000000E+00  0.00000000000E+00  0.85300458675E+03  0.85300458676E+03  0.25500000920E-02 0.  1.
        2   -1    0    0  501    0  0.00000000000E+00  0.00000000000E+00 -0.24877157284E+04  0.24877157284E+04  0.25500000920E-02 0. -1.
    10030    2    1    2    0    0  0.00000000000E+00  0.00000000000E+00 -0.16347111417E+04  0.33407203152E+04  0.29134398411E+04 0.  0.
        5    1    3    3  502    0 -0.14114595106E+03 -0.10510351017E+04 -0.19625303252E+04  0.22307273100E+04  0.46999998093E+01 0.  1.
       -5    1    3    3    0  502  0.14114595106E+03  0.10510351017E+04  0.32781918350E+03  0.11099930052E+04  0.46999998093E+01 0. -1.
</event>
<event>
 5   0  0.2325590E-06  0.2894580E+04  0.7818609E-02  0.8274492E-01
       -2   -1    0    0    0  501  0.00000000000E+00  0.00000000000E+00  0.11465272465E+04  0.11465272465E+04  0.25500000920E-02 0.  1.
        2   -1    0    0  501    0  0.00000000000E+00  0.00000000000E+00 -0.18269503831E+04  0.18269503831E+04  0.25500000920E-02 0. -1.
    10030    2    1    2    0    0  0.00000000000E+00  0.00000000000E+00 -0.68042313657E+03  0.29734776296E+04  0.28945800333E+04 0.  0.
        5    1    3    3  502    0  0.11802871305E+04 -0.79317002170E+03 -0.61667524663E+03  0.15500022076E+04  0.46999998093E+01 0.  1.
       -5    1    3    3    0  502 -0.11802871305E+04  0.79317002170E+03 -0.63747889944E+02  0.14234754221E+04  0.46999998093E+01 0. -1.
</event>
<event>
 5   0  0.2304435E-06  0.2926923E+04  0.7818609E-02  0.8264912E-01
        2   -1    0    0  501    0  0.00000000000E+00  0.00000000000E+00  0.33064979486E+04  0.33064979486E+04  0.25500000920E-02 0. -1.
       -2   -1    0    0    0  501  0.00000000000E+00  0.00000000000E+00 -0.64773052559E+03  0.64773052559E+03  0.25500000920E-02 0.  1.
    10030    2    1    2    0    0  0.00000000000E+00  0.00000000000E+00  0.26587674231E+04  0.39542284742E+04  0.29269230630E+04 0.  0.
        1    1    3    3  502    0  0.77094517042E+03 -0.43410899146E+03 -0.24549173556E+03  0.91819021151E+03  0.50400001928E-02 0.  1.
       -1    1    3    3    0  502 -0.77094517042E+03  0.43410899146E+03  0.29042591586E+04  0.30360382627E+04  0.50400001928E-02 0. -1.
</event>
<event>
 5   0  0.2304435E-06  0.2908436E+04  0.7818609E-02  0.8270372E-01
        2   -1    0    0  501    0  0.00000000000E+00  0.00000000000E+00  0.12650676169E+04  0.12650676169E+04  0.25500000920E-02 0.  1.
       -2   -1    0    0    0  501  0.00000000000E+00  0.00000000000E+00 -0.16716497336E+04  0.16716497336E+04  0.25500000920E-02 0. -1.
    10030    2    1    2    0    0  0.00000000000E+00  0.00000000000E+00 -0.40658211674E+03  0.29367173505E+04  0.29084359679E+04 0.  0.
        1    1    3    3  502    0  0.13078008438E+04 -0.59141382271E+03 -0.43930867881E+03  0.15010348004E+04  0.50400001928E-02 0.  1.
       -1    1    3    3    0  502 -0.13078008438E+04  0.59141382271E+03  0.32726562072E+02  0.14356825501E+04  0.50400001928E-02 0. -1.
</event>
<event>
 5   0  0.8483636E-07  0.2910153E+04  0.7818609E-02  0.8269863E-01
        1   -1    0    0  501    0  0.00000000000E+00  0.00000000000E+00  0.16104535658E+04  0.16104535658E+04  0.50400001928E-02 0. -1.
       -1   -1    0    0    0  501  0.00000000000E+00  0.00000000000E+00 -0.13146903068E+04  0.13146903068E+04  0.50400001928E-02 0.  1.
    10030    2    1    2    0    0  0.00000000000E+00  0.00000000000E+00  0.29576325898E+03  0.29251438726E+04  0.29101530493E+04 0.  0.
        2    1    3    3  502    0 -0.80757895999E+03 -0.32256122853E+03 -0.10247547499E+04  0.13440058855E+04  0.25500000920E-02 0.  1.
       -2    1    3    3    0  502  0.80757895999E+03  0.32256122853E+03  0.13205180089E+04  0.15811379872E+04  0.25500000920E-02 0. -1.
</event>
<event>
 5   0  0.2378690E-06  0.2892981E+04  0.7818609E-02  0.8274969E-01
        2   -1    0    0  501    0  0.00000000000E+00  0.00000000000E+00  0.14101449404E+04  0.14101449404E+04  0.25500000920E-02 0. -1.
       -2   -1    0    0    0  501  0.00000000000E+00  0.00000000000E+00 -0.14837732637E+04  0.14837732637E+04  0.25500000920E-02 0.  1.
    10030    2    1    2    0    0  0.00000000000E+00  0.00000000000E+00 -0.73628323264E+02  0.28939182041E+04  0.28929814106E+04 0.  0.
        3    1    3    3  502    0 -0.25438195914E+01 -0.86445559609E+03 -0.11969506351E+04  0.14764757979E+04  0.10100000352E+00 0.  1.
       -3    1    3    3    0  502  0.25438195914E+01  0.86445559609E+03  0.11233223118E+04  0.14174424063E+04  0.10100000352E+00 0. -1.
</event>
<event>
 5   0  0.8355946E-07  0.2851077E+04  0.7818609E-02  0.8287584E-01
        1   -1    0    0  501    0  0.00000000000E+00  0.00000000000E+00  0.24145659076E+04  0.24145659076E+04  0.50400001928E-02 0.  1.
       -1   -1    0    0    0  501  0.00000000000E+00  0.00000000000E+00 -0.84162531624E+03  0.84162531626E+03  0.50400001928E-02 0. -1.
    10030    2    1    2    0    0  0.00000000000E+00  0.00000000000E+00  0.15729405914E+04  0.32561912239E+04  0.28510768461E+04 0.  0.
        4    1    3    3  502    0 -0.76670989297E+03 -0.82569017050E+03 -0.21085102293E+03  0.11463280876E+04  0.12699999809E+01 0. -1.
       -4    1    3    3    0  502  0.76670989297E+03  0.82569017050E+03  0.17837916143E+04  0.21098631363E+04  0.12699999809E+01 0.  1.
</event>
<event>
 5   0  0.8357118E-07  0.2896879E+04  0.7818609E-02  0.8273807E-01
       -1   -1    0    0    0  501  0.00000000000E+00  0.00000000000E+00  0.14929884316E+04  0.14929884316E+04  0.50400001928E-02 0. -1.
        1   -1    0    0  501    0  0.00000000000E+00  0.00000000000E+00 -0.14052197910E+04  0.14052197910E+04  0.50400001928E-02 0.  1.
    10030    2    1    2    0    0  0.00000000000E+00  0.00000000000E+00  0.87768640630E+02  0.28982082226E+04  0.28968789356E+04 0.  0.
        1    1    3    3  502    0 -0.60352335733E+03 -0.69448395572E+02 -0.12716005416E+04  0.14092662842E+04  0.50400001928E-02 0.  1.
       -1    1    3    3    0  502  0.60352335733E+03  0.69448395572E+02  0.13593691822E+04  0.14889419384E+04  0.50400001928E-02 0. -1.
</event>
<event>
 5   0  0.8263673E-07  0.2858248E+04  0.7818609E-02  0.8285409E-01
       -1   -1    0    0    0  501  0.00000000000E+00  0.00000000000E+00  0.12374500094E+04  0.12374500094E+04  0.50400001928E-02 0. -1.
        1   -1    0    0  501    0  0.00000000000E+00  0.00000000000E+00 -0.16504870352E+04  0.16504870352E+04  0.50400001928E-02 0.  1.
    10030    2    1    2    0    0  0.00000000000E+00  0.00000000000E+00 -0.41303702575E+03  0.28879370446E+04  0.28582478530E+04 0.  0.
        5    1    3    3  502    0 -0.93422801008E+03 -0.10612745576E+04 -0.41673598841E+03  0.14740341365E+04  0.46999998093E+01 0. -1.
       -5    1    3    3    0  502  0.93422801008E+03  0.10612745576E+04  0.36989626564E+01  0.14139029082E+04  0.46999998093E+01 0.  1.
</event>
<event>
 5   0  0.2360103E-06  0.2895733E+04  0.7818609E-02  0.8274148E-01
       -2   -1    0    0    0  501  0.00000000000E+00  0.00000000000E+00  0.11656684723E+04  0.11656684723E+04  0.25500000920E-02 0. -1.
        2   -1    0    0  501    0  0.00000000000E+00  0.00000000000E+00 -0.17983819916E+04  0.17983819916E+04  0.25500000920E-02 0.  1.
    10030    2    1    2    0    0  0.00000000000E+00  0.00000000000E+00 -0.63271351929E+03  0.29640504638E+04  0.28957328528E+04 0.  0.
        4    1    3    3  502    0  0.14119536290E+04  0.20216606969E+03 -0.57088247084E+03  0.15363569177E+04  0.12699999809E+01 0.  1.
       -4    1    3    3    0  502 -0.14119536290E+04 -0.20216606969E+03 -0.61831048442E+02  0.14276935461E+04  0.12699999809E+01 0. -1.
</event>
<event>
 5   0  0.8355946E-07  0.2891604E+04  0.7818609E-02  0.8275380E-01
       -1   -1    0    0    0  501  0.00000000000E+00  0.00000000000E+00  0.16849630535E+04  0.16849630536E+04  0.50400001928E-02 0.  1.
        1   -1    0    0  501    0  0.00000000000E+00  0.00000000000E+00 -0.12405868707E+04  0.12405868707E+04  0.50400001928E-02 0. -1.
    10030    2    1    2    0    0  0.00000000000E+00  0.00000000000E+00  0.44437618281E+03  0.29255499243E+04  0.28916037363E+04 0.  0.
        4    1    3    3  502    0 -0.14183026158E+04 -0.67301984143E+02  0.49783757653E+03  0.15046447197E+04  0.12699999809E+01 0.  1.
       -4    1    3    3    0  502  0.14183026158E+04  0.67301984143E+02 -0.53461393719E+02  0.14209052046E+04  0.12699999809E+01 0. -1.
</event>
<event>
 5   0  0.2425845E-06  0.2887053E+04  0.7818609E-02  0.8276740E-01
       -2   -1    0    0    0  501  0.00000000000E+00  0.00000000000E+00  0.10602590221E+04  0.10602590221E+04  0.25500000920E-02 0.  1.
        2   -1    0    0  501    0  0.00000000000E+00  0.00000000000E+00 -0.19653399029E+04  0.19653399029E+04  0.25500000920E-02 0. -1.
    10030    2    1    2    0    0  0.00000000000E+00  0.00000000000E+00 -0.90508088077E+03  0.30255989250E+04  0.28870534208E+04 0.  0.
        2    1    3    3  502    0 -0.11792463131E+04 -0.83254037495E+03 -0.45767673683E+03  0.15143359397E+04  0.25500000920E-02 0.  1.
       -2    1    3    3    0  502  0.11792463131E+04  0.83254037495E+03 -0.44740414393E+03  0.15112629853E+04  0.25500000920E-02 0. -1.
</event>
<event>
 5   0  0.2304435E-06  0.2901549E+04  0.7818609E-02  0.8272417E-01
        2   -1    0    0  501    0  0.00000000000E+00  0.00000000000E+00  0.16450146705E+04  0.16450146705E+04  0.25500000920E-02 0. -1.
       -2   -1    0    0    0  501  0.00000000000E+00  0.00000000000E+00 -0.12794700805E+04  0.12794700805E+04  0.25500000920E-02 0.  1.
    10030    2    1    2    0    0  0.00000000000E+00  0.00000000000E+00  0.36554458995E+03  0.29244847510E+04  0.29015492779E+04 0.  0.
        1    1    3    3  502    0  0.12576274075E+04 -0.47079538902E+03 -0.37063253300E+03  0.13930698005E+04  0.50400001928E-02 0.  1.
       -1    1    3    3    0  502 -0.12576274075E+04  0.47079538902E+03  0.73617712296E+03  0.15314149506E+04  0.50400001928E-02 0. -1.
</event>
<event>
 5   0  0.2325590E-06  0.2907209E+04  0.7818609E-02  0.8270736E-01
       -2   -1    0    0    0  501  0.00000000000E+00  0.00000000000E+00  0.87871316214E+03  0.87871316215E+03  0.25500000920E-02 0.  1.
        2   -1    0    0  501    0  0.00000000000E+00  0.00000000000E+00 -0.24046146107E+04  0.24046146107E+04  0.25500000920E-02 0. -1.
    10030    2    1    2    0    0  0.00000000000E+00  0.00000000000E+00 -0.15259014485E+04  0.32833277728E+04  0.29072093205E+04 0.  0.
        5    1    3    3  502    0  0.73384462541E+03 -0.14681378262E+03 -0.21703081106E+04  0.22957224584E+04  0.46999998093E+01 0. -1.
       -5    1    3    3    0  502 -0.73384462541E+03  0.14681378262E+03  0.64440666206E+03  0.98760531444E+03  0.46999998093E+01 0.  1.
</event>
<event>
 5   0  0.8483636E-07  0.2906148E+04  0.7818609E-02  0.8271051E-01
        1   -1    0    0  501    0  0.00000000000E+00  0.00000000000E+00  0.15374823130E+04  0.15374823130E+04  0.50400001928E-02 0.  1.
       -1   -1    0    0    0  501  0.00000000000E+00  0.00000000000E+00 -0.13732994574E+04  0.13732994574E+04  0.50400001928E-02 0. -1.
    10030    2    1    2    0    0  0.00000000000E+00  0.00000000000E+00  0.16418285554E+03  0.29107817704E+04  0.29061477087E+04 0.  0.
        2    1    3    3  502    0  0.84529159864E+03  0.89932846993E+03  0.85020022108E+03  0.14987161170E+04  0.25500000920E-02 0.  1.
       -2    1    3    3    0  502 -0.84529159864E+03 -0.89932846993E+03 -0.68601736554E+03  0.14120656534E+04  0.25500000920E-02 0. -1.
</event>
<event>
 5   0  0.8355946E-07  0.2899592E+04  0.7818609E-02  0.8272999E-01
        1   -1    0    0  501    0  0.00000000000E+00  0.00000000000E+00  0.16153551671E+04  0.16153551671E+04  0.50400001928E-02 0. -1.
       -1   -1    0    0    0  501  0.00000000000E+00  0.00000000000E+00 -0.13012053127E+04  0.13012053127E+04  0.50400001928E-02 0.  1.
    10030    2    1    2    0    0  0.00000000000E+00  0.00000000000E+00  0.31414985436E+03  0.29165604798E+04  0.28995921957E+04 0.  0.
        4    1    3    3  502    0  0.12348212967E+04 -0.30894612326E+03  0.85516500442E+03  0.15334732275E+04  0.12699999809E+01 0. -1.
       -4    1    3    3    0  502 -0.12348212967E+04  0.30894612326E+03 -0.54101515006E+03  0.13830872523E+04  0.12699999809E+01 0.  1.
</event>
<event>
 5   0  0.2360103E-06  0.2901566E+04  0.7818609E-02  0.8272412E-01
        2   -1    0    0  501    0  0.00000000000E+00  0.00000000000E+00  0.16396991380E+04  0.16396991380E+04  0.25500000920E-02 0. -1.
       -2   -1    0    0    0  501  0.00000000000E+00  0.00000000000E+00 -0.12836328456E+04  0.12836328456E+04  0.25500000920E-02 0.  1.
    10030    2    1    2    0    0  0.00000000000E+00  0.00000000000E+00  0.35606629245E+03  0.29233319836E+04  0.29015662463E+04 0.  0.
        4    1    3    3  502    0  0.85134977056E+03 -0.66419692342E+03 -0.79816034058E+03  0.13427641368E+04  0.12699999809E+01 0.  1.
       -4    1    3    3    0  502 -0.85134977056E+03  0.66419692342E+03  0.11542266330E+04  0.15805678468E+04  0.12699999809E+01 0. -1.
</event>
<event>
 5   0  0.2378690E-06  0.2909498E+04  0.7818609E-02  0.8270057E-01
        2   -1    0    0  501    0  0.00000000000E+00  0.00000000000E+00  0.25394831760E+04  0.25394831760E+04  0.25500000920E-02 0.  1.
       -2   -1    0    0    0  501  0.00000000000E+00  0.00000000000E+00 -0.83335642437E+03  0.83335642438E+03  0.25500000920E-02 0. -1.
    10030    2    1    2    0    0  0.00000000000E+00  0.00000000000E+00  0.17061267516E+04  0.33728396003E+04  0.29094979768E+04 0.  0.
        3    1    3    3  502    0  0.71212833541E+03  0.89342394123E+03 -0.19088193592E+03  0.11583475422E+04  0.10100000352E+00 0. -1.
       -3    1    3    3    0  502 -0.71212833541E+03 -0.89342394123E+03  0.18970086875E+04  0.22144920581E+04  0.10100000352E+00 0.  1.
</event>
<event>
 5   0  0.8357118E-07  0.2890574E+04  0.7818609E-02  0.8275687E-01
       -1   -1    0    0    0  501  0.00000000000E+00  0.00000000000E+00  0.19390791297E+04  0.19390791297E+04  0.50400001928E-02 0.  1.
        1   -1    0    0  501    0  0.00000000000E+00  0.00000000000E+00 -0.10772406153E+04  0.10772406153E+04  0.50400001928E-02 0. -1.
    10030    2    1    2    0    0  0.00000000000E+00  0.00000000000E+00  0.86183851438E+03  0.30163197451E+04  0.28905741955E+04 0.  0.
        1    1    3    3  502    0  0.11965356292E+04  0.30504416299E+03  0.12146616919E+04  0.17320948240E+04  0.50400001928E-02 0.  1.
       -1    1    3    3    0  502 -0.11965356292E+04 -0.30504416299E+03 -0.35282317753E+03  0.12842249211E+04  0.50400001928E-02 0. -1.
</event>
<event>
 5   0  0.8947674E-07  0.2896556E+04  0.7818609E-02  0.8273903E-01
       -1   -1    0    0    0  501  0.00000000000E+00  0.00000000000E+00  0.10075004612E+04  0.10075004612E+04  0.50400001928E-02 0. -1.
        1   -1    0    0  501    0  0.00000000000E+00  0.00000000000E+00 -0.20818932924E+04  0.20818932924E+04  0.50400001928E-02 0.  1.
    10030    2    1    2    0    0  0.00000000000E+00  0.00000000000E+00 -0.10743928313E+04  0.30893937536E+04  0.28965555076E+04 0.  0.
        3    1    3    3  502    0 -0.91486335236E+03 -0.65043582000E+03 -0.15132534389E+04  0.18841384476E+04  0.10100000352E+00 0.  1.
       -3    1    3    3    0  502  0.91486335236E+03  0.65043582000E+03  0.43886060759E+03  0.12052553060E+04  0.10100000352E+00 0. -1.
</event>
<event>
 5   0  0.8483636E-07  0.2904981E+04  0.7818609E-02  0.8271397E-01
        1   -1    0    0  501    0  0.00000000000E+00  0.00000000000E+00  0.15619579484E+04  0.15619579484E+04  0.50400001928E-02 0.  1.
       -1   -1    0    0    0  501  0.00000000000E+00  0.00000000000E+00 -0.13506952750E+04  0.13506952750E+04  0.50400001928E-02 0. -1.
    10030    2    1    2    0    0  0.00000000000E+00  0.00000000000E+00  0.21126267334E+03  0.29126532234E+04  0.29049813911E+04 0.  0.
        2    1    3    3  502    0 -0.33119330162E+03  0.40879454058E+03  0.14630632003E+04  0.15547848429E+04  0.25500000920E-02 0.  1.
       -2    1    3    3    0  502  0.33119330162E+03 -0.40879454058E+03 -0.12518005270E+04  0.13578683805E+04  0.25500000920E-02 0. -1.
</event>
<event>
 5   0  0.8483636E-07  0.2906843E+04  0.7818609E-02  0.8270844E-01
       -1   -1    0    0    0  501  0.00000000000E+00  0.00000000000E+00  0.16887671999E+04  0.16887671999E+04  0.50400001928E-02 0.  1.
        1   -1    0    0  501    0  0.00000000000E+00  0.00000000000E+00 -0.12508731972E+04  0.12508731972E+04  0.50400001928E-02 0. -1.
    10030    2    1    2    0    0  0.00000000000E+00  0.00000000000E+00  0.43789400267E+03  0.29396403971E+04  0.29068427041E+04 0.  0.
        2    1    3    3  502    0 -0.50963316930E+03 -0.99074309148E+03  0.11628244339E+04  0.16104218406E+04  0.25500000920E-02 0.  1.
       -2    1    3    3    0  502  0.50963316930E+03  0.99074309148E+03 -0.72493043128E+03  0.13292185564E+04  0.25500000920E-02 0. -1.
</event>
<event>
 5   0  0.2325590E-06  0.2895300E+04  0.7818609E-02  0.8274277E-01
       -2   -1    0    0    0  501  0.00000000000E+00  0.00000000000E+00  0.83880749500E+03  0.83880749500E+03  0.25500000920E-02 0. -1.
        2   -1    0    0  501    0  0.00000000000E+00  0.00000000000E+00 -0.24984160213E+04  0.24984160213E+04  0.25500000920E-02 0.  1.
    10030    2    1    2    0    0  0.00000000000E+00  0.00000000000E+00 -0.16596085263E+04  0.33372235163E+04  0.28952996973E+04 0.  0.
        5    1    3    3  502    0 -0.24188739601E+03 -0.77259873794E+03 -0.22130860629E+04  0.23565208113E+04  0.46999998093E+01 0.  1.
       -5    1    3    3    0  502  0.24188739601E+03  0.77259873794E+03  0.55347753656E+03  0.98070270505E+03  0.46999998093E+01 0. -1.
</event>
<event>
 5   0  0.8263673E-07  0.2892535E+04  0.7818609E-02  0.8275102E-01
        1   -1    0    0  501    0  0.00000000000E+00  0.00000000000E+00  0.15860435591E+04  0.15860435591E+04  0.50400001928E-02 0. -1.
       -1   -1    0    0    0  501  0.00000000000E+00  0.00000000000E+00 -0.13188098463E+04  0.13188098464E+04  0.50400001928E-02 0.  1.
    10030    2    1    2    0    0  0.00000000000E+00  0.00000000000E+00  0.26723371275E+03  0.29048534055E+04  0.28925351251E+04 0.  0.
        5    1    3    3  502    0  0.13228253356E+04  0.58144094450E+03  0.72304977469E+02  0.14467862800E+04  0.46999998093E+01 0.  1.
       -5    1    3    3    0  502 -0.13228253356E+04 -0.58144094450E+03  0.19492873528E+03  0.14580671254E+04  0.46999998093E+01 0. -1.
</event>
<event>
 5   0  0.8947674E-07  0.2886667E+04  0.7818609E-02  0.8276856E-01
       -1   -1    0    0    0  501  0.00000000000E+00  0.00000000000E+00  0.15997778333E+04  0.15997778333E+04  0.50400001928E-02 0. -1.
        1   -1    0    0  501    0  0.00000000000E+00  0.00000000000E+00 -0.13021879317E+04  0.13021879318E+04  0.50400001928E-02 0.  1.
    10030    2    1    2    0    0  0.00000000000E+00  0.00000000000E+00  0.29758990157E+03  0.29019657651E+04  0.28866668585E+04 0.  0.
        3    1    3    3  502    0  0.80829980902E+03 -0.79407516103E+03  0.10475731817E+04  0.15431505189E+04  0.10100000352E+00 0. -1.
       -3    1    3    3    0  502 -0.80829980902E+03  0.79407516103E+03 -0.74998328014E+03  0.13588152462E+04  0.10100000352E+00 0.  1.
</event>
<event>
 5   0  0.8263673E-07  0.2903032E+04  0.7818609E-02  0.8271976E-01
       -1   -1    0    0    0  501  0.00000000000E+00  0.00000000000E+00  0.13694299932E+04  0.13694299933E+04  0.50400001928E-02 0.  1.
        1   -1    0    0  501    0  0.00000000000E+00  0.00000000000E+00 -0.15385223234E+04  0.15385223235E+04  0.50400001928E-02 0. -1.
    10030    2    1    2    0    0  0.00000000000E+00  0.00000000000E+00 -0.16909233020E+03  0.29079523167E+04  0.29030319427E+04 0.  0.
        5    1    3    3  502    0  0.57587180865E+03 -0.68410760885E+03  0.10607398435E+04  0.13873797844E+04  0.46999998093E+01 0.  1.
       -5    1    3    3    0  502 -0.57587180865E+03  0.68410760885E+03 -0.12298321737E+04  0.15205725323E+04  0.46999998093E+01 0. -1.
</event>
<event>
 5   0  0.8357118E-07  0.2905158E+04  0.7818609E-02  0.8271344E-01
        1   -1    0    0  501    0  0.00000000000E+00  0.00000000000E+00  0.17862939541E+04  0.17862939541E+04  0.50400001928E-02 0.  1.
       -1   -1    0    0    0  501  0.00000000000E+00  0.00000000000E+00 -0.11812089619E+04  0.11812089619E+04  0.50400001928E-02 0. -1.
    10030    2    1    2    0    0  0.00000000000E+00  0.00000000000E+00  0.60508499215E+03  0.29675029160E+04  0.29051584653E+04 0.  0.
        1    1    3    3  502    0 -0.34434320343E+03  0.12503422869E+04 -0.36575958720E+03  0.13474821527E+04  0.50400001928E-02 0. -1.
       -1    1    3    3    0  502  0.34434320343E+03 -0.12503422869E+04  0.97084457935E+03  0.16200207633E+04  0.50400001928E-02 0.  1.
</event>
<event>
 5   0  0.2425845E-06  0.2925296E+04  0.7818609E-02  0.8265391E-01
       -2   -1    0    0    0  501  0.00000000000E+00  0.00000000000E+00  0.13393944792E+04  0.13393944792E+04  0.25500000920E-02 0. -1.
        2   -1    0    0  501    0  0.00000000000E+00  0.00000000000E+00 -0.15972433739E+04  0.15972433740E+04  0.25500000920E-02 0.  1.
    10030    2    1    2    0    0  0.00000000000E+00  0.00000000000E+00 -0.25784889476E+03  0.29366378531E+04  0.29252958531E+04 0.  0.
        2    1    3    3  502    0 -0.94342065382E+02  0.79762625548E+03  0.10982023833E+04  0.13605721383E+04  0.25500000920E-02 0. -1.
       -2    1    3    3    0  502  0.94342065382E+02 -0.79762625548E+03 -0.13560512781E+04  0.15760657149E+04  0.25500000920E-02 0.  1.
</event>
<event>
 5   0  0.2304435E-06  0.2892208E+04  0.7818609E-02  0.8275200E-01
       -2   -1    0    0    0  501  0.00000000000E+00  0.00000000000E+00  0.91119464858E+03  0.91119464858E+03  0.25500000920E-02 0. -1.
        2   -1    0    0  501    0  0.00000000000E+00  0.00000000000E+00 -0.22950278470E+04  0.22950278470E+04  0.25500000920E-02 0.  1.
    10030    2    1    2    0    0  0.00000000000E+00  0.00000000000E+00 -0.13838331984E+04  0.32062224956E+04  0.28922082169E+04 0.  0.
        1    1    3    3  502    0  0.10654190589E+04  0.54728981941E+03 -0.15901840620E+04  0.19908112086E+04  0.50400001928E-02 0.  1.
       -1    1    3    3    0  502 -0.10654190589E+04 -0.54728981941E+03  0.20635086357E+03  0.12154112869E+04  0.50400001928E-02 0. -1.
</event>
<event>
 5   0  0.7621125E-07  0.2898384E+04  0.7818609E-02  0.8273358E-01
       -3   -1    0    0    0  501  0.00000000000E+00  0.00000000000E+00  0.17413861782E+04  0.17413861811E+04  0.10100000352E+00 0.  1.
        3   -1    0    0  501    0  0.00000000000E+00  0.00000000000E+00 -0.12060266163E+04  0.12060266205E+04  0.10100000352E+00 0. -1.
    10030    2    1    2    0    0  0.00000000000E+00  0.00000000000E+00  0.53535956193E+03  0.29474128017E+04  0.28983844401E+04 0.  0.
        4    1    3    3  502    0 -0.12969637169E+04  0.93700877661E+02  0.91823707309E+03  0.15918717514E+04  0.12699999809E+01 0.  1.
       -4    1    3    3    0  502  0.12969637169E+04 -0.93700877661E+02 -0.38287751116E+03  0.13555410503E+04  0.12699999809E+01 0. -1.
</event>
<event>
 5   0  0.8483636E-07  0.2927338E+04  0.7818609E-02  0.8264790E-01
       -1   -1    0    0    0  501  0.00000000000E+00  0.00000000000E+00  0.19569251917E+04  0.19569251917E+04  0.50400001928E-02 0. -1.
        1   -1    0    0  501    0  0.00000000000E+00  0.00000000000E+00 -0.10947416120E+04  0.10947416120E+04  0.50400001928E-02 0.  1.
    10030    2    1    2    0    0  0.00000000000E+00  0.00000000000E+00  0.86218357967E+03  0.30516668037E+04  0.29273383398E+04 0.  0.
        2    1    3    3  502    0  0.90398674927E+03 -0.35882220918E+03 -0.70915571636E+03  0.12036807096E+04  0.25500000920E-02 0.  1.
       -2    1    3    3    0  502 -0.90398674927E+03  0.35882220918E+03  0.15713392960E+04  0.18479860941E+04  0.25500000920E-02 0. -1.
</event>
<event>
 5   0  0.8947674E-07  0.2866586E+04  0.7818609E-02  0.8282889E-01
       -1   -1    0    0    0  501  0.00000000000E+00  0.00000000000E+00  0.18606647664E+04  0.18606647664E+04  0.50400001928E-02 0.  1.
        1   -1    0    0  501    0  0.00000000000E+00  0.00000000000E+00 -0.11040829273E+04  0.11040829273E+04  0.50400001928E-02 0. -1.
    10030    2    1    2    0    0  0.00000000000E+00  0.00000000000E+00  0.75658183908E+03  0.29647476937E+04  0.28665855661E+04 0.  0.
        3    1    3    3  502    0  0.64081682348E+03  0.44500548644E+03  0.16218165098E+04  0.17997124454E+04  0.10100000352E+00 0.  1.
       -3    1    3    3    0  502 -0.64081682348E+03 -0.44500548644E+03 -0.86523467075E+03  0.11650352483E+04  0.10100000352E+00 0. -1.
</event>
<event>
 5   0  0.2425845E-06  0.2897274E+04  0.7818609E-02  0.8273689E-01
        2   -1    0    0  501    0  0.00000000000E+00  0.00000000000E+00  0.18707436748E+04  0.18707436748E+04  0.25500000920E-02 0. -1.
       -2   -1    0    0    0  501  0.00000000000E+00  0.00000000000E+00 -0.11217727787E+04  0.11217727787E+04  0.25500000920E-02 0.  1.
    10030    2    1    2    0    0  0.00000000000E+00  0.00000000000E+00  0.74897089615E+03  0.29925164535E+04  0.28972741191E+04 0.  0.
        2    1    3    3  502    0 -0.63049377034E+03  0.43697244733E+03 -0.89476471457E+03  0.11785886511E+04  0.25500000920E-02 0.  1.
       -2    1    3    3    0  502  0.63049377034E+03 -0.43697244733E+03  0.16437356107E+04  0.18139278023E+04  0.25500000920E-02 0. -1.
</event>
<event>
 5   0  0.2378690E-06  0.2901679E+04  0.7818609E-02  0.8272378E-01
       -2   -1    0    0    0  501  0.00000000000E+00  0.00000000000E+00  0.12340561958E+04  0.12340561958E+04  0.25500000920E-02 0. -1.
        2   -1    0    0  501    0  0.00000000000E+00  0.00000000000E+00 -0.17057043280E+04  0.17057043280E+04  0.25500000920E-02 0.  1.
    10030    2    1    2    0    0  0.00000000000E+00  0.00000000000E+00 -0.47164813218E+03  0.29397605238E+04  0.29016788204E+04 0.  0.
        3    1    3    3  502    0 -0.11626242326E+04 -0.85501379060E+03 -0.38674654992E+03  0.14940939035E+04  0.10100000352E+00 0.  1.
       -3    1    3    3    0  502  0.11626242326E+04  0.85501379060E+03 -0.84901582259E+02  0.14456666203E+04  0.10100000352E+00 0. -1.
</event>
<event>
 5   0  0.8357118E-07  0.2878781E+04  0.7818609E-02  0.8279219E-01
        1   -1    0    0  501    0  0.00000000000E+00  0.00000000000E+00  0.32040673161E+04  0.32040673161E+04  0.50400001928E-02 0. -1.
       -1   -1    0    0    0  501  0.00000000000E+00  0.00000000000E+00 -0.64662959968E+03  0.64662959970E+03  0.50400001928E-02 0.  1.
    10030    2    1    2    0    0  0.00000000000E+00  0.00000000000E+00  0.25574377164E+04  0.38506969158E+04  0.28787808295E+04 0.  0.
        1    1    3    3  502    0  0.84669563857E+03  0.54340618003E+03  0.26556562938E+04  0.28398405117E+04  0.50400001928E-02 0. -1.
       -1    1    3    3    0  502 -0.84669563857E+03 -0.54340618003E+03 -0.98218577363E+02  0.10108564042E+04  0.50400001928E-02 0.  1.
</event>
<event>
 5   0  0.2425845E-06  0.2908659E+04  0.7818609E-02  0.8270306E-01
       -2   -1    0    0    0  501  0.00000000000E+00  0.00000000000E+00  0.12380205189E+04  0.12380205189E+04  0.25500000920E-02 0. -1.
        2   -1    0    0  501    0  0.00000000000E+00  0.00000000000E+00 -0.17084325513E+04  0.17084325513E+04  0.25500000920E-02 0.  1.
    10030    2    1    2    0    0  0.00000000000E+00  0.00000000000E+00 -0.47041203248E+03  0.29464530702E+04  0.29086591782E+04 0.  0.
        2    1    3    3  502    0  0.81193062089E+03 -0.51229970714E+03 -0.13418254569E+04  0.16499023850E+04  0.25500000920E-02 0.  1.
       -2    1    3    3    0  502 -0.81193062089E+03  0.51229970714E+03  0.87141342445E+03  0.12965506852E+04  0.25500000920E-02 0. -1.
</event>
<event>
 5   0  0.8355946E-07  0.2898865E+04  0.7818609E-02  0.8273215E-01
        1   -1    0    0  501    0  0.00000000000E+00  0.00000000000E+00  0.31585543060E+04  0.31585543060E+04  0.50400001928E-02 0. -1.
       -1   -1    0    0    0  501  0.00000000000E+00  0.00000000000E+00 -0.66513191449E+03  0.66513191451E+03  0.50400001928E-02 0.  1.
    10030    2    1    2    0    0  0.00000000000E+00  0.00000000000E+00  0.24934223915E+04  0.38236862205E+04  0.28988654833E+04 0.  0.
        4    1    3    3  502    0 -0.74141484310E+03 -0.12219862177E+03  0.28815751684E+04  0.29779364562E+04  0.12699999809E+01 0. -1.
       -4    1    3    3    0  502  0.74141484310E+03  0.12219862177E+03 -0.38815277694E+03  0.84574976434E+03  0.12699999809E+01 0.  1.
</event>
<event>
 5   0  0.8947674E-07  0.2901135E+04  0.7818609E-02  0.8272540E-01
        1   -1    0    0  501    0  0.00000000000E+00  0.00000000000E+00  0.13483994031E+04  0.13483994031E+04  0.50400001928E-02 0. -1.
       -1   -1    0    0    0  501  0.00000000000E+00  0.00000000000E+00 -0.15604772261E+04  0.15604772261E+04  0.50400001928E-02 0.  1.
    10030    2    1    2    0    0  0.00000000000E+00  0.00000000000E+00 -0.21207782300E+03  0.29088766292E+04  0.29011353365E+04 0.  0.
        3    1    3    3  502    0 -0.10065764078E+04 -0.87671780020E+03 -0.67528296767E+03  0.14959402604E+04  0.10100000352E+00 0.  1.
       -3    1    3    3    0  502  0.10065764078E+04  0.87671780020E+03  0.46320514467E+03  0.14129363688E+04  0.10100000352E+00 0. -1.
</event>
<event>
 5   0  0.2325590E-06  0.2718871E+04  0.7818609E-02  0.8328908E-01
       -2   -1    0    0    0  501  0.00000000000E+00  0.00000000000E+00  0.67131791131E+03  0.67131791131E+03  0.25500000920E-02 0.  1.
        2   -1    0    0  501    0  0.00000000000E+00  0.00000000000E+00 -0.27528898898E+04  0.27528898898E+04  0.25500000920E-02 0. -1.
    10030    2    1    2    0    0  0.00000000000E+00  0.00000000000E+00 -0.20815719785E+04  0.34242078011E+04  0.27188705676E+04 0.  0.
        5    1    3    3  502    0 -0.68883739735E+02 -0.48449696945E+03  0.55652765097E+03  0.74109877837E+03  0.46999998093E+01 0.  1.
       -5    1    3    3    0  502  0.68883739735E+02  0.48449696945E+03 -0.26380996295E+04  0.26831090228E+04  0.46999998093E+01 0. -1.
</event>
<event>
 5   0  0.2425845E-06  0.2903688E+04  0.7818609E-02  0.8271781E-01
        2   -1    0    0  501    0  0.00000000000E+00  0.00000000000E+00  0.16049601834E+04  0.16049601834E+04  0.25500000920E-02 0.  1.
       -2   -1    0    0    0  501  0.00000000000E+00  0.00000000000E+00 -0.13133352104E+04  0.13133352104E+04  0.25500000920E-02 0. -1.
    10030    2    1    2    0    0  0.00000000000E+00  0.00000000000E+00  0.29162497303E+03  0.29182953938E+04  0.29036878070E+04 0.  0.
        2    1    3    3  502    0 -0.56887995297E+03 -0.12970282140E+04 -0.17508066145E+03  0.14270808760E+04  0.25500000920E-02 0.  1.
       -2    1    3    3    0  502  0.56887995297E+03  0.12970282140E+04  0.46670563448E+03  0.14912145178E+04  0.25500000920E-02 0. -1.
</event>
<event>
 5   0  0.7621125E-07  0.2903468E+04  0.7818609E-02  0.8271846E-01
       -3   -1    0    0    0  501  0.00000000000E+00  0.00000000000E+00  0.18064191449E+04  0.18064191478E+04  0.10100000352E+00 0.  1.
        3   -1    0    0  501    0  0.00000000000E+00  0.00000000000E+00 -0.11666901691E+04  0.11666901735E+04  0.10100000352E+00 0. -1.
    10030    2    1    2    0    0  0.00000000000E+00  0.00000000000E+00  0.63972897579E+03  0.29731093213E+04  0.29034679047E+04 0.  0.
        5    1    3    3  502    0  0.21949961943E+03 -0.14276220828E+04  0.17068386295E+03  0.14544552125E+04  0.46999998093E+01 0. -1.
       -5    1    3    3    0  502 -0.21949961943E+03  0.14276220828E+04  0.46904511284E+03  0.15186541088E+04  0.46999998093E+01 0.  1.
</event>
<event>
 5   0  0.8263673E-07  0.2903254E+04  0.7818609E-02  0.8271910E-01
        1   -1    0    0  501    0  0.00000000000E+00  0.00000000000E+00  0.13890119759E+04  0.13890119759E+04  0.50400001928E-02 0. -1.
       -1   -1    0    0    0  501  0.00000000000E+00  0.00000000000E+00 -0.15170647333E+04  0.15170647333E+04  0.50400001928E-02 0.  1.
    10030    2    1    2    0    0  0.00000000000E+00  0.00000000000E+00 -0.12805275738E+03  0.29060767092E+04  0.29032540935E+04 0.  0.
        5    1    3    3  502    0 -0.29854247418E+03 -0.27085700886E+03 -0.14599100019E+04  0.15145462791E+04  0.46999998093E+01 0.  1.
       -5    1    3    3    0  502  0.29854247418E+03  0.27085700886E+03  0.13318572445E+04  0.13915304301E+04  0.46999998093E+01 0. -1.
</event>
<event>
 5   0  0.8483636E-07  0.2910322E+04  0.7818609E-02  0.8269813E-01
        1   -1    0    0  501    0  0.00000000000E+00  0.00000000000E+00  0.16073985857E+04  0.16073985857E+04  0.50400001928E-02 0. -1.
       -1   -1    0    0    0  501  0.00000000000E+00  0.00000000000E+00 -0.13173423606E+04  0.13173423606E+04  0.50400001928E-02 0.  1.
    10030    2    1    2    0    0  0.00000000000E+00  0.00000000000E+00  0.29005622512E+03  0.29247409464E+04  0.29103224889E+04 0.  0.
        2    1    3    3  502    0 -0.72899368216E+03 -0.11574710343E+04 -0.35374037294E+03  0.14129059542E+04  0.25500000920E-02 0.  1.
       -2    1    3    3    0  502  0.72899368216E+03  0.11574710343E+04  0.64379659806E+03  0.15118349922E+04  0.25500000920E-02 0. -1.
</event>
<event>
 5   0  0.8357118E-07  0.2911440E+04  0.7818609E-02  0.8269482E-01
        1   -1    0    0  501    0  0.00000000000E+00  0.00000000000E+00  0.21461699513E+04  0.21461699513E+04  0.50400001928E-02 0.  1.
       -1   -1    0    0    0  501  0.00000000000E+00  0.00000000000E+00 -0.98739679257E+03  0.98739679258E+03  0.50400001928E-02 0. -1.
    10030    2    1    2    0    0  0.00000000000E+00  0.00000000000E+00  0.11587731587E+04  0.31335667439E+04  0.29114404175E+04 0.  0.
        1    1    3    3  502    0  0.10843589601E+03 -0.57822896977E+03 -0.85374859303E+03  0.10368190513E+04  0.50400001928E-02 0. -1.
       -1    1    3    3    0  502 -0.10843589601E+03  0.57822896977E+03  0.20125217517E+04  0.20967476926E+04  0.50400001928E-02 0.  1.
</event>
<event>
 5   0  0.2425845E-06  0.2908378E+04  0.7818609E-02  0.8270389E-01
        2   -1    0    0  501    0  0.00000000000E+00  0.00000000000E+00  0.13085504195E+04  0.13085504195E+04  0.25500000920E-02 0. -1.
       -2   -1    0    0    0  501  0.00000000000E+00  0.00000000000E+00 -0.16160371625E+04  0.16160371625E+04  0.25500000920E-02 0.  1.
    10030    2    1    2    0    0  0.00000000000E+00  0.00000000000E+00 -0.30748674301E+03  0.29245875821E+04  0.29083783158E+04 0.  0.
        2    1    3    3  502    0 -0.73843295681E+03 -0.10864630759E+04  0.47341590400E+03  0.13963552074E+04  0.25500000920E-02 0.  1.
       -2    1    3    3    0  502  0.73843295681E+03  0.10864630759E+04 -0.78090264701E+03  0.15282323747E+04  0.25500000920E-02 0. -1.
</event>
<event>
 5   0  0.8357118E-07  0.2894078E+04  0.7818609E-02  0.8274642E-01
       -1   -1    0    0    0  501  0.00000000000E+00  0.00000000000E+00  0.97638484708E+03  0.97638484710E+03  0.50400001928E-02 0.  1.
        1   -1    0    0  501    0  0.00000000000E+00  0.00000000000E+00 -0.21445654196E+04  0.21445654196E+04  0.50400001928E-02 0. -1.
    10030    2    1    2    0    0  0.00000000000E+00  0.00000000000E+00 -0.11681805725E+04  0.31209502667E+04  0.28940775244E+04 0.  0.
        1    1    3    3  502    0  0.12910191165E+04 -0.51060464322E+03 -0.10240870961E+04  0.17251671923E+04  0.50400001928E-02 0. -1.
       -1    1    3    3    0  502 -0.12910191165E+04  0.51060464322E+03 -0.14409347639E+03  0.13957830744E+04  0.50400001928E-02 0.  1.
</event>
<event>
 5   0  0.7621125E-07  0.2879168E+04  0.7818609E-02  0.8279103E-01
        4   -1    0    0  501    0  0.00000000000E+00  0.00000000000E+00  0.19247999927E+04  0.19248004117E+04  0.12699999809E+01 0.  1.
       -4   -1    0    0    0  501  0.00000000000E+00  0.00000000000E+00 -0.10766834017E+04  0.10766841507E+04  0.12699999809E+01 0. -1.
    10030    2    1    2    0    0  0.00000000000E+00  0.00000000000E+00  0.84811659107E+03  0.30014845624E+04  0.28791679052E+04 0.  0.
        5    1    3    3  502    0 -0.41623637774E+03 -0.40268262969E+03 -0.94987535636E+03  0.11125157550E+04  0.46999998093E+01 0. -1.
       -5    1    3    3    0  502  0.41623637774E+03  0.40268262969E+03  0.17979919474E+04  0.18889688074E+04  0.46999998093E+01 0.  1.
</event>
<event>
 5   0  0.8947674E-07  0.2870647E+04  0.7818609E-02  0.8281665E-01
        1   -1    0    0  501    0  0.00000000000E+00  0.00000000000E+00  0.16355949004E+04  0.16355949004E+04  0.50400001928E-02 0. -1.
       -1   -1    0    0    0  501  0.00000000000E+00  0.00000000000E+00 -0.12595744216E+04  0.12595744216E+04  0.50400001928E-02 0.  1.
    10030    2    1    2    0    0  0.00000000000E+00  0.00000000000E+00  0.37602047887E+03  0.28951693220E+04  0.28706469658E+04 0.  0.
        3    1    3    3  502    0  0.99541709305E+03  0.27507545738E+02 -0.85452299115E+03  0.13121819260E+04  0.10100000352E+00 0.  1.
       -3    1    3    3    0  502 -0.99541709305E+03 -0.27507545738E+02  0.12305434700E+04  0.15829873960E+04  0.10100000352E+00 0. -1.
</event>
<event>
 5   0  0.7621125E-07  0.2881869E+04  0.7818609E-02  0.8278293E-01
        3   -1    0    0  501    0  0.00000000000E+00  0.00000000000E+00  0.90333365129E+03  0.90333365694E+03  0.10100000352E+00 0.  1.
       -3   -1    0    0    0  501  0.00000000000E+00  0.00000000000E+00 -0.22984769095E+04  0.22984769118E+04  0.10100000352E+00 0. -1.
    10030    2    1    2    0    0  0.00000000000E+00  0.00000000000E+00 -0.13951432583E+04  0.32018105687E+04  0.28818685270E+04 0.  0.
        3    1    3    3  502    0 -0.13960594773E+04 -0.35094838361E+03 -0.62604487667E+03  0.15697385228E+04  0.10100000352E+00 0. -1.
       -3    1    3    3    0  502  0.13960594773E+04  0.35094838361E+03 -0.76909838159E+03  0.16320720459E+04  0.10100000352E+00 0.  1.
</event>
<event>
 5   0  0.8263673E-07  0.2896806E+04  0.7818609E-02  0.8273828E-01
        1   -1    0    0  501    0  0.00000000000E+00  0.00000000000E+00  0.21644982195E+04  0.21644982195E+04  0.50400001928E-02 0.  1.
       -1   -1    0    0    0  501  0.00000000000E+00  0.00000000000E+00 -0.96921824078E+03  0.96921824080E+03  0.50400001928E-02 0. -1.
    10030    2    1    2    0    0  0.00000000000E+00  0.00000000000E+00  0.11952799787E+04  0.31337164603E+04  0.28968059352E+04 0.  0.
        5    1    3    3  502    0  0.55345257407E+03  0.55012020978E+03 -0.72236050298E+03  0.10633761250E+04  0.46999998093E+01 0. -1.
       -5    1    3    3    0  502 -0.55345257407E+03 -0.55012020978E+03  0.19176404817E+04  0.20703403353E+04  0.46999998093E+01 0.  1.
</event>
<event>
 5   0  0.2425845E-06  0.2907145E+04  0.7818609E-02  0.8270755E-01
       -2   -1    0    0    0  501  0.00000000000E+00  0.00000000000E+00  0.18451559643E+04  0.18451559643E+04  0.25500000920E-02 0. -1.
        2   -1    0    0  501    0  0.00000000000E+00  0.00000000000E+00 -0.11450916281E+04  0.11450916281E+04  0.25500000920E-02 0.  1.
    10030    2    1    2    0    0  0.00000000000E+00  0.00000000000E+00  0.70006433622E+03  0.29902475923E+04  0.29071447485E+04 0.  0.
        2    1    3    3  502    0  0.12827098937E+04  0.11791624207E+03  0.10428010612E+04  0.16573119697E+04  0.25500000920E-02 0. -1.
       -2    1    3    3    0  502 -0.12827098937E+04 -0.11791624207E+03 -0.34273672495E+03  0.13329356227E+04  0.25500000920E-02 0.  1.
</event>
<event>
 5   0  0.7621125E-07  0.2891890E+04  0.7818609E-02  0.8275295E-01
       -3   -1    0    0    0  501  0.00000000000E+00  0.00000000000E+00  0.19039749963E+04  0.19039749990E+04  0.10100000352E+00 0. -1.
        3   -1    0    0  501    0  0.00000000000E+00  0.00000000000E+00 -0.10981009247E+04  0.10981009293E+04  0.10100000352E+00 0.  1.
    10030    2    1    2    0    0  0.00000000000E+00  0.00000000000E+00  0.80587407168E+03  0.30020759283E+04  0.28918898423E+04 0.  0.
        5    1    3    3  502    0 -0.65164870724E+03  0.27157050397E+02  0.17425916003E+04  0.18606534117E+04  0.46999998093E+01 0. -1.
       -5    1    3    3    0  502  0.65164870724E+03 -0.27157050397E+02 -0.93671752862E+03  0.11414225166E+04  0.46999998093E+01 0.  1.
</event>
<event>
 5   0  0.8357118E-07  0.2918876E+04  0.7818609E-02  0.8267283E-01
        1   -1    0    0  501    0  0.00000000000E+00  0.00000000000E+00  0.23024612562E+04  0.23024612562E+04  0.50400001928E-02 0.  1.
       -1   -1    0    0    0  501  0.00000000000E+00  0.00000000000E+00 -0.92507947920E+03  0.92507947922E+03  0.50400001928E-02 0. -1.
    10030    2    1    2    0    0  0.00000000000E+00  0.00000000000E+00  0.13773817770E+04  0.32275407355E+04  0.29188762631E+04 0.  0.
        1    1    3    3  502    0  0.42269306190E+03 -0.12952159559E+04  0.12671838744E+04  0.18606474058E+04  0.50400001928E-02 0. -1.
       -1    1    3    3    0  502 -0.42269306190E+03  0.12952159559E+04  0.11019790262E+03  0.13668933297E+04  0.50400001928E-02 0.  1.
</event>
<event>
 5   0  0.2425845E-06  0.2902074E+04  0.7818609E-02  0.8272261E-01
        2   -1    0    0  501    0  0.00000000000E+00  0.00000000000E+00  0.16769240902E+04  0.16769240902E+04  0.25500000920E-02 0. -1.
       -2   -1    0    0    0  501  0.00000000000E+00  0.00000000000E+00 -0.12555775985E+04  0.12555775985E+04  0.25500000920E-02 0.  1.
    10030    2    1    2    0    0  0.00000000000E+00  0.00000000000E+00  0.42134649178E+03  0.29325016887E+04  0.29020739633E+04 0.  0.
        2    1    3    3  502    0  0.33220510594E+03  0.13456765898E+04  0.64447922277E+03  0.15285807749E+04  0.25500000920E-02 0. -1.
       -2    1    3    3    0  502 -0.33220510594E+03 -0.13456765898E+04 -0.22313273099E+03  0.14039209138E+04  0.25500000920E-02 0.  1.
</event>
<event>
 5   0  0.8483636E-07  0.2904379E+04  0.7818609E-02  0.8271576E-01
       -1   -1    0    0    0  501  0.00000000000E+00  0.00000000000E+00  0.13498334049E+04  0.13498334049E+04  0.50400001928E-02 0. -1.
        1   -1    0    0  501    0  0.00000000000E+00  0.00000000000E+00 -0.15623074966E+04  0.15623074966E+04  0.50400001928E-02 0.  1.
    10030    2    1    2    0    0  0.00000000000E+00  0.00000000000E+00 -0.21247409165E+03  0.29121409015E+04  0.29043793469E+04 0.  0.
        2    1    3    3  502    0  0.95713631958E+03  0.50015382321E+03  0.86722876673E+03  0.13850449505E+04  0.25500000920E-02 0. -1.
       -2    1    3    3    0  502 -0.95713631958E+03 -0.50015382321E+03 -0.10797028584E+04  0.15270959510E+04  0.25500000920E-02 0.  1.
</event>
<event>
 5   0  0.8483636E-07  0.2890896E+04  0.7818609E-02  0.8275591E-01
        1   -1    0    0  501    0  0.00000000000E+00  0.00000000000E+00  0.22195510866E+04  0.22195510866E+04  0.50400001928E-02 0.  1.
       -1   -1    0    0    0  501  0.00000000000E+00  0.00000000000E+00 -0.94132570584E+03  0.94132570585E+03  0.50400001928E-02 0. -1.
    10030    2    1    2    0    0  0.00000000000E+00  0.00000000000E+00  0.12782253807E+04  0.31608767924E+04  0.28908963961E+04 0.  0.
        2    1    3    3  502    0 -0.72109185731E+03  0.83154306430E+02  0.20058204387E+04  0.21331206571E+04  0.25500000920E-02 0.  1.
       -2    1    3    3    0  502  0.72109185731E+03 -0.83154306430E+02 -0.72759505797E+03  0.10277561353E+04  0.25500000920E-02 0. -1.
</event>
<event>
 5   0  0.8355946E-07  0.2899541E+04  0.7818609E-02  0.8273014E-01
        1   -1    0    0  501    0  0.00000000000E+00  0.00000000000E+00  0.16778900592E+04  0.16778900592E+04  0.50400001928E-02 0.  1.
       -1   -1    0    0    0  501  0.00000000000E+00  0.00000000000E+00 -0.12526654642E+04  0.12526654642E+04  0.50400001928E-02 0. -1.
    10030    2    1    2    0    0  0.00000000000E+00  0.00000000000E+00  0.42522459506E+03  0.29305555234E+04  0.28995412947E+04 0.  0.
        4    1    3    3  502    0 -0.13242047207E+03 -0.73988117449E+03  0.14655797369E+04  0.16470837598E+04  0.12699999809E+01 0.  1.
       -4    1    3    3    0  502  0.13242047207E+03  0.73988117449E+03 -0.10403551419E+04  0.12834717636E+04  0.12699999809E+01 0. -1.
</event>
<event>
 5   0  0.8355946E-07  0.2802526E+04  0.7818609E-02  0.8302485E-01
        1   -1    0    0  501    0  0.00000000000E+00  0.00000000000E+00  0.14672615049E+04  0.14672615050E+04  0.50400001928E-02 0. -1.
       -1   -1    0    0    0  501  0.00000000000E+00  0.00000000000E+00 -0.13382330970E+04  0.13382330971E+04  0.50400001928E-02 0.  1.
    10030    2    1    2    0    0  0.00000000000E+00  0.00000000000E+00  0.12902840790E+03  0.28054946020E+04  0.28025259378E+04 0.  0.
        4    1    3    3  502    0  0.23669715049E+03  0.67154435723E+03  0.12726641675E+04  0.14583117160E+04  0.12699999809E+01 0. -1.
       -4    1    3    3    0  502 -0.23669715049E+03 -0.67154435723E+03 -0.11436357596E+04  0.13471828860E+04  0.12699999809E+01 0.  1.
</event>
<event>
 5   0  0.8263673E-07  0.2907840E+04  0.7818609E-02  0.8270549E-01
       -1   -1    0    0    0  501  0.00000000000E+00  0.00000000000E+00  0.15693843832E+04  0.15693843832E+04  0.50400001928E-02 0. -1.
        1   -1    0    0  501    0  0.00000000000E+00  0.00000000000E+00 -0.13469506258E+04  0.13469506258E+04  0.50400001928E-02 0.  1.
    10030    2    1    2    0    0  0.00000000000E+00  0.00000000000E+00  0.22243375743E+03  0.29163350090E+04  0.29078399386E+04 0.  0.
        5    1    3    3  502    0 -0.12692238105E+04  0.11350123600E+03  0.81329739793E+03  0.15117163620E+04  0.46999998093E+01 0. -1.
       -5    1    3    3    0  502  0.12692238105E+04 -0.11350123600E+03 -0.59086364050E+03  0.14046186470E+04  0.46999998093E+01 0.  1.
</event>
<event>
 5   0  0.8947674E-07  0.2927518E+04  0.7818609E-02  0.8264737E-01
       -1   -1    0    0    0  501  0.00000000000E+00  0.00000000000E+00  0.10176755347E+04  0.10176755347E+04  0.50400001928E-02 0. -1.
        1   -1    0    0  501    0  0.00000000000E+00  0.00000000000E+00 -0.21053773267E+04  0.21053773267E+04  0.50400001928E-02 0.  1.
    10030    2    1    2    0    0  0.00000000000E+00  0.00000000000E+00 -0.10877017920E+04  0.31230528614E+04  0.29275184008E+04 0.  0.
        3    1    3    3  502    0 -0.60821597183E+03  0.13283700285E+04 -0.63984666889E+03  0.15949599904E+04  0.10100000352E+00 0.  1.
       -3    1    3    3    0  502  0.60821597183E+03 -0.13283700285E+04 -0.44785512312E+03  0.15280928710E+04  0.10100000352E+00 0. -1.
</event>
<event>
 5   0  0.2325590E-06  0.2868368E+04  0.7818609E-02  0.8282352E-01
        2   -1    0    0  501    0  0.00000000000E+00  0.00000000000E+00  0.17558289727E+04  0.17558289727E+04  0.25500000920E-02 0.  1.
       -2   -1    0    0    0  501  0.00000000000E+00  0.00000000000E+00 -0.11714601648E+04  0.11714601648E+04  0.25500000920E-02 0. -1.
    10030    2    1    2    0    0  0.00000000000E+00  0.00000000000E+00  0.58436880787E+03  0.29272891374E+04  0.28683679664E+04 0.  0.
        5    1    3    3  502    0  0.21041422079E+03  0.80066709054E+03 -0.90299136123E+03  0.12250540489E+04  0.46999998093E+01 0. -1.
       -5    1    3    3    0  502 -0.21041422079E+03 -0.80066709054E+03  0.14873601691E+04  0.17022350886E+04  0.46999998093E+01 0.  1.
</event>
<event>
 5   0  0.8263673E-07  0.2898016E+04  0.7818609E-02  0.8273468E-01
        1   -1    0    0  501    0  0.00000000000E+00  0.00000000000E+00  0.17353320721E+04  0.17353320721E+04  0.50400001928E-02 0.  1.
       -1   -1    0    0    0  501  0.00000000000E+00  0.00000000000E+00 -0.12099264980E+04  0.12099264980E+04  0.50400001928E-02 0. -1.
    10030    2    1    2    0    0  0.00000000000E+00  0.00000000000E+00  0.52540557408E+03  0.29452585701E+04  0.28980160502E+04 0.  0.
        5    1    3    3  502    0 -0.50222157297E+03  0.48580366393E+03 -0.10273881986E+04  0.12424895609E+04  0.46999998093E+01 0. -1.
       -5    1    3    3    0  502  0.50222157297E+03 -0.48580366393E+03  0.15527937727E+04  0.17027690092E+04  0.46999998093E+01 0.  1.
</event>
<event>
 5   0  0.2304435E-06  0.2898757E+04  0.7818609E-02  0.8273247E-01
       -2   -1    0    0    0  501  0.00000000000E+00  0.00000000000E+00  0.10977782636E+04  0.10977782636E+04  0.25500000920E-02 0.  1.
        2   -1    0    0  501    0  0.00000000000E+00  0.00000000000E+00 -0.19135910670E+04  0.19135910670E+04  0.25500000920E-02 0. -1.
    10030    2    1    2    0    0  0.00000000000E+00  0.00000000000E+00 -0.81581280348E+03  0.30113693306E+04  0.28987574433E+04 0.  0.
        1    1    3    3  502    0  0.60890000390E+03  0.13027803560E+04 -0.22004192453E+03  0.14547901290E+04  0.50400001928E-02 0. -1.
       -1    1    3    3    0  502 -0.60890000390E+03 -0.13027803560E+04 -0.59577087895E+03  0.15565792016E+04  0.50400001928E-02 0.  1.
</event>
<event>
 5   0  0.8947674E-07  0.2910449E+04  0.7818609E-02  0.8269775E-01
        1   -1    0    0  501    0  0.00000000000E+00  0.00000000000E+00  0.17006584977E+04  0.17006584977E+04  0.50400001928E-02 0. -1.
       -1   -1    0    0    0  501  0.00000000000E+00  0.00000000000E+00 -0.12452106562E+04  0.12452106562E+04  0.50400001928E-02 0.  1.
    10030    2    1    2    0    0  0.00000000000E+00  0.00000000000E+00  0.45544784150E+03  0.29458691540E+04  0.29104488204E+04 0.  0.
        3    1    3    3  502    0 -0.84713344667E+03 -0.83713632401E+03 -0.61866196194E+03  0.13420785874E+04  0.10100000352E+00 0.  1.
       -3    1    3    3    0  502  0.84713344667E+03  0.83713632401E+03  0.10741098034E+04  0.16037905666E+04  0.10100000352E+00 0. -1.
</event>
<event>
 5   0  0.8355946E-07  0.2914624E+04  0.7818609E-02  0.8268540E-01
        1   -1    0    0  501    0  0.00000000000E+00  0.00000000000E+00  0.19808515588E+04  0.19808515588E+04  0.50400001928E-02 0. -1.
       -1   -1    0    0    0  501  0.00000000000E+00  0.00000000000E+00 -0.10721442411E+04  0.10721442411E+04  0.50400001928E-02 0.  1.
    10030    2    1    2    0    0  0.00000000000E+00  0.00000000000E+00  0.90870731770E+03  0.30529957998E+04  0.29146242236E+04 0.  0.
        4    1    3    3  502    0  0.59617112166E+03 -0.13218518561E+04  0.60630845472E+03  0.15717264046E+04  0.12699999809E+01 0. -1.
       -4    1    3    3    0  502 -0.59617112166E+03  0.13218518561E+04  0.30239886298E+03  0.14812693952E+04  0.12699999809E+01 0.  1.
</event>
<event>
 5   0  0.2304435E-06  0.2898125E+04  0.7818609E-02  0.8273436E-01
        2   -1    0    0  501    0  0.00000000000E+00  0.00000000000E+00  0.20976436512E+04  0.20976436512E+04  0.25500000920E-02 0. -1.
       -2   -1    0    0    0  501  0.00000000000E+00  0.00000000000E+00 -0.10010191749E+04  0.10010191749E+04  0.25500000920E-02 0.  1.
    10030    2    1    2    0    0  0.00000000000E+00  0.00000000000E+00  0.10966244763E+04  0.30986628261E+04  0.28981245777E+04 0.  0.
        1    1    3    3  502    0 -0.57490190848E+03 -0.40330360304E+03  0.19035429987E+04  0.20289509478E+04  0.50400001928E-02 0. -1.
       -1    1    3    3    0  502  0.57490190848E+03  0.40330360304E+03 -0.80691852246E+03  0.10697118783E+04  0.50400001928E-02 0.  1.
</event>
<event>
 5   0  0.2325590E-06  0.2912146E+04  0.7818609E-02  0.8269273E-01
        2   -1    0    0  501    0  0.00000000000E+00  0.00000000000E+00  0.17870048247E+04  0.17870048247E+04  0.25500000920E-02 0.  1.
       -2   -1    0    0    0  501  0.00000000000E+00  0.00000000000E+00 -0.11864255047E+04  0.11864255047E+04  0.25500000920E-02 0. -1.
    10030    2    1    2    0    0  0.00000000000E+00  0.00000000000E+00  0.60057932003E+03  0.29734303294E+04  0.29121456702E+04 0.  0.
        5    1    3    3  502    0 -0.63087358427E+02  0.67476094062E+03 -0.10155684134E+04  0.12209355569E+04  0.46999998093E+01 0. -1.
       -5    1    3    3    0  502  0.63087358427E+02 -0.67476094062E+03  0.16161477334E+04  0.17524947726E+04  0.46999998093E+01 0.  1.
</event>
<event>
 5   0  0.2304435E-06  0.2894659E+04  0.7818609E-02  0.8274468E-01
       -2   -1    0    0    0  501  0.00000000000E+00  0.00000000000E+00  0.12872661188E+04  0.12872661188E+04  0.25500000920E-02 0.  1.
        2   -1    0    0  501    0  0.00000000000E+00  0.00000000000E+00 -0.16272952862E+04  0.16272952862E+04  0.25500000920E-02 0. -1.
    10030    2    1    2    0    0  0.00000000000E+00  0.00000000000E+00 -0.34002916735E+03  0.29145614050E+04  0.28946585894E+04 0.  0.
        1    1    3    3  502    0  0.86685075522E+03 -0.52613390791E+03  0.86980822269E+03  0.13359691109E+04  0.50400001928E-02 0.  1.
       -1    1    3    3    0  502 -0.86685075522E+03  0.52613390791E+03 -0.12098373900E+04  0.15785922942E+04  0.50400001928E-02 0. -1.
</event>
<event>
 5   0  0.2378690E-06  0.2898551E+04  0.7818609E-02  0.8273309E-01
        2   -1    0    0  501    0  0.00000000000E+00  0.00000000000E+00  0.14396172513E+04  0.14396172513E+04  0.25500000920E-02 0.  1.
       -2   -1    0    0    0  501  0.00000000000E+00  0.00000000000E+00 -0.14589985711E+04  0.14589985711E+04  0.25500000920E-02 0. -1.
    10030    2    1    2    0    0  0.00000000000E+00  0.00000000000E+00 -0.19381319724E+02  0.28986158224E+04  0.28985510260E+04 0.  0.
        3    1    3    3  502    0  0.79470827340E+03 -0.11168037018E+04  0.46105094807E+03  0.14461603421E+04  0.10100000352E+00 0.  1.
       -3    1    3    3    0  502 -0.79470827340E+03  0.11168037018E+04 -0.48043226779E+03  0.14524554803E+04  0.10100000352E+00 0. -1.
</event>
<event>
 5   0  0.2425845E-06  0.2931321E+04  0.7818609E-02  0.8263619E-01
       -2   -1    0    0    0  501  0.00000000000E+00  0.00000000000E+00  0.89808264175E+03  0.89808264175E+03  0.25500000920E-02 0. -1.
        2   -1    0    0  501    0  0.00000000000E+00  0.00000000000E+00 -0.23919404201E+04  0.23919404201E+04  0.25500000920E-02 0.  1.
    10030    2    1    2    0    0  0.00000000000E+00  0.00000000000E+00 -0.14938577783E+04  0.32900230618E+04  0.29313206385E+04 0.  0.
        2    1    3    3  502    0 -0.43913707542E+03  0.88498028219E+03  0.46820257514E+03  0.10932726660E+04  0.25500000920E-02 0. -1.
       -2    1    3    3    0  502  0.43913707542E+03 -0.88498028219E+03 -0.19620603535E+04  0.21967503958E+04  0.25500000920E-02 0.  1.
</event>
<event>
 5   0  0.2304435E-06  0.2764794E+04  0.7818609E-02  0.8314282E-01
       -2   -1    0    0    0  501  0.00000000000E+00  0.00000000000E+00  0.10883149657E+04  0.10883149657E+04  0.25500000920E-02 0. -1.
        2   -1    0    0  501    0  0.00000000000E+00  0.00000000000E+00 -0.17559454746E+04  0.17559454746E+04  0.25500000920E-02 0.  1.
    10030    2    1    2    0    0  0.00000000000E+00  0.00000000000E+00 -0.66763050892E+03  0.28442604403E+04  0.27647941977E+04 0.  0.
        1    1    3    3  502    0 -0.31873601426E+02  0.39203986540E+03 -0.16971647675E+04  0.17421479360E+04  0.50400001928E-02 0.  1.
       -1    1    3    3    0  502  0.31873601426E+02 -0.39203986540E+03  0.10295342586E+04  0.11021125043E+04  0.50400001928E-02 0. -1.
</event>
<event>
 5   0  0.8263673E-07  0.2883689E+04  0.7818609E-02  0.8277747E-01
       -1   -1    0    0    0  501  0.00000000000E+00  0.00000000000E+00  0.94359926347E+03  0.94359926349E+03  0.50400001928E-02 0. -1.
        1   -1    0    0  501    0  0.00000000000E+00  0.00000000000E+00 -0.22031763948E+04  0.22031763948E+04  0.50400001928E-02 0.  1.
    10030    2    1    2    0    0  0.00000000000E+00  0.00000000000E+00 -0.12595771314E+04  0.31467756583E+04  0.28836890425E+04 0.  0.
        5    1    3    3  502    0 -0.13173216760E+04 -0.32981979972E+03 -0.10104604531E+03  0.13617451640E+04  0.46999998093E+01 0.  1.
       -5    1    3    3    0  502  0.13173216760E+04  0.32981979972E+03 -0.11585310860E+04  0.17850304943E+04  0.46999998093E+01 0. -1.
</event>
<event>
 5   0  0.8263673E-07  0.2932810E+04  0.7818609E-02  0.8263182E-01
       -1   -1    0    0    0  501  0.00000000000E+00  0.00000000000E+00  0.15090322952E+04  0.15090322952E+04  0.50400001928E-02 0.  1.
        1   -1    0    0  501    0  0.00000000000E+00  0.00000000000E+00 -0.14249820198E+04  0.14249820198E+04  0.50400001928E-02 0. -1.
    10030    2    1    2    0    0  0.00000000000E+00  0.00000000000E+00  0.84050275409E+02  0.29340143151E+04  0.29328101801E+04 0.  0.
        5    1    3    3  502    0 -0.46124776487E+03 -0.13251932093E+04 -0.38410192215E+03  0.14547999585E+04  0.46999998093E+01 0. -1.
       -5    1    3    3    0  502  0.46124776487E+03  0.13251932093E+04  0.46815219756E+03  0.14792143566E+04  0.46999998093E+01 0.  1.
</event>
<event>
 5   0  0.2425845E-06  0.2897797E+04  0.7818609E-02  0.8273533E-01
       -2   -1    0    0    0  501  0.00000000000E+00  0.00000000000E+00  0.18274609356E+04  0.18274609356E+04  0.25500000920E-02 0. -1.
        2   -1    0    0  501    0  0.00000000000E+00  0.00000000000E+00 -0.11487559680E+04  0.11487559680E+04  0.25500000920E-02 0.  1.
    10030    2    1    2    0    0  0.00000000000E+00  0.00000000000E+00  0.67870496765E+03  0.29762169036E+04  0.28977968570E+04 0.  0.
        2    1    3    3  502    0 -0.64020100295E+03  0.80053746882E+03  0.13910704912E+04  0.17279452175E+04  0.25500000920E-02 0. -1.
       -2    1    3    3    0  502  0.64020100295E+03 -0.80053746882E+03 -0.71236552359E+03  0.12482716861E+04  0.25500000920E-02 0.  1.
</event>
<event>
 5   0  0.8947674E-07  0.2899949E+04  0.7818609E-02  0.8272893E-01
       -1   -1    0    0    0  501  0.00000000000E+00  0.00000000000E+00  0.13698206545E+04  0.13698206546E+04  0.50400001928E-02 0.  1.
        1   -1    0    0  501    0  0.00000000000E+00  0.00000000000E+00 -0.15348186407E+04  0.15348186407E+04  0.50400001928E-02 0. -1.
    10030    2    1    2    0    0  0.00000000000E+00  0.00000000000E+00 -0.16499798611E+03  0.29046392952E+04  0.28999491547E+04 0.  0.
        3    1    3    3  502    0 -0.33937810307E+03  0.14094742310E+04 -0.10766252603E+03  0.14537490617E+04  0.10100000352E+00 0.  1.
       -3    1    3    3    0  502  0.33937810307E+03 -0.14094742310E+04 -0.57335460075E+02  0.14508902335E+04  0.10100000352E+00 0. -1.
</event>
<event>
 5   0  0.8263673E-07  0.2949236E+04  0.7818609E-02  0.8258377E-01
        1   -1    0    0  501    0  0.00000000000E+00  0.00000000000E+00  0.23821854021E+04  0.23821854021E+04  0.50400001928E-02 0. -1.
       -1   -1    0    0    0  501  0.00000000000E+00  0.00000000000E+00 -0.91281652550E+03  0.91281652552E+03  0.50400001928E-02 0.  1.
    10030    2    1    2    0    0  0.00000000000E+00  0.00000000000E+00  0.14693688766E+04  0.32950019276E+04  0.29492359701E+04 0.  0.
        5    1    3    3  502    0 -0.48610812349E+03  0.11846942625E+04 -0.82256933633E+02  0.12831951903E+04  0.46999998093E+01 0.  1.
       -5    1    3    3    0  502  0.48610812349E+03 -0.11846942625E+04  0.15516258102E+04  0.20118067373E+04  0.46999998093E+01 0. -1.
</event>
<event>
 5   0  0.8483636E-07  0.2880920E+04  0.7818609E-02  0.8278577E-01
        1   -1    0    0  501    0  0.00000000000E+00  0.00000000000E+00  0.13961723098E+04  0.13961723098E+04  0.50400001928E-02 0.  1.
       -1   -1    0    0    0  501  0.00000000000E+00  0.00000000000E+00 -0.14861524291E+04  0.14861524291E+04  0.50400001928E-02 0. -1.
    10030    2    1    2    0    0  0.00000000000E+00  0.00000000000E+00 -0.89980119306E+02  0.28823247390E+04  0.28809199015E+04 0.  0.
        2    1    3    3  502    0 -0.78953876676E+03 -0.26455088627E+03 -0.12209636830E+04  0.14778737939E+04  0.25500000920E-02 0. -1.
       -2    1    3    3    0  502  0.78953876676E+03  0.26455088627E+03  0.11309835637E+04  0.14044509450E+04  0.25500000920E-02 0.  1.
</event>
<event>
 5   0  0.2378690E-06  0.2947111E+04  0.7818609E-02  0.8258997E-01
        2   -1    0    0  501    0  0.00000000000E+00  0.00000000000E+00  0.24816234580E+04  0.24816234580E+04  0.25500000920E-02 0. -1.
       -2   -1    0    0    0  501  0.00000000000E+00  0.00000000000E+00 -0.87497773620E+03  0.87497773621E+03  0.25500000920E-02 0.  1.
    10030    2    1    2    0    0  0.00000000000E+00  0.00000000000E+00  0.16066457218E+04  0.33566011942E+04  0.29471106362E+04 0.  0.
        3    1    3    3  502    0 -0.19313798026E+03 -0.78208098312E+03  0.22086241676E+04  0.23509516514E+04  0.10100000352E+00 0. -1.
       -3    1    3    3    0  502  0.19313798026E+03  0.78208098312E+03 -0.60197844575E+03  0.10056495428E+04  0.10100000352E+00 0.  1.
</event>
<event>
 5   0  0.7621125E-07  0.2766387E+04  0.7818609E-02  0.8313780E-01
        3   -1    0    0  501    0  0.00000000000E+00  0.00000000000E+00  0.14801691429E+04  0.14801691464E+04  0.10100000352E+00 0.  1.
       -3   -1    0    0    0  501  0.00000000000E+00  0.00000000000E+00 -0.12925713803E+04  0.12925713842E+04  0.10100000352E+00 0. -1.
    10030    2    1    2    0    0  0.00000000000E+00  0.00000000000E+00  0.18759776262E+03  0.27727405306E+04  0.27663870173E+04 0.  0.
        2    1    3    3  502    0  0.11887444997E+04  0.15217562255E+02  0.80244405864E+03  0.14343156999E+04  0.25500000920E-02 0.  1.
       -2    1    3    3    0  502 -0.11887444997E+04 -0.15217562255E+02 -0.61484629603E+03  0.13384248307E+04  0.25500000920E-02 0. -1.
</event>
<event>
 5   0  0.2425845E-06  0.2889468E+04  0.7818609E-02  0.8276018E-01
        2   -1    0    0  501    0  0.00000000000E+00  0.00000000000E+00  0.15754927903E+04  0.15754927903E+04  0.25500000920E-02 0.  1.
       -2   -1    0    0    0  501  0.00000000000E+00  0.00000000000E+00 -0.13248279602E+04  0.13248279602E+04  0.25500000920E-02 0. -1.
    10030    2    1    2    0    0  0.00000000000E+00  0.00000000000E+00  0.25066483004E+03  0.29003207505E+04  0.28894683938E+04 0.  0.
        2    1    3    3  502    0  0.11625586000E+04 -0.80873202805E+03 -0.16151513039E+03  0.14253691203E+04  0.25500000920E-02 0. -1.
       -2    1    3    3    0  502 -0.11625586000E+04  0.80873202805E+03  0.41217996043E+03  0.14749516302E+04  0.25500000920E-02 0.  1.
</event>
<event>
 5   0  0.8357118E-07  0.2898313E+04  0.7818609E-02  0.8273380E-01
       -1   -1    0    0    0  501  0.00000000000E+00  0.00000000000E+00  0.12407574487E+04  0.12407574487E+04  0.50400001928E-02 0.  1.
        1   -1    0    0  501    0  0.00000000000E+00  0.00000000000E+00 -0.16925587993E+04  0.16925587993E+04  0.50400001928E-02 0. -1.
    10030    2    1    2    0    0  0.00000000000E+00  0.00000000000E+00 -0.45180135062E+03  0.29333162480E+04  0.28983132596E+04 0.  0.
        1    1    3    3  502    0  0.13750959428E+04  0.44365421528E+03 -0.33831424776E+03  0.14839725216E+04  0.50400001928E-02 0. -1.
       -1    1    3    3    0  502 -0.13750959428E+04 -0.44365421528E+03 -0.11348710286E+03  0.14493437264E+04  0.50400001928E-02 0.  1.
</event>
<event>
 5   0  0.2378690E-06  0.2897081E+04  0.7818609E-02  0.8273746E-01
       -2   -1    0    0    0  501  0.00000000000E+00  0.00000000000E+00  0.15624589121E+04  0.15624589121E+04  0.25500000920E-02 0.  1.
        2   -1    0    0  501    0  0.00000000000E+00  0.00000000000E+00 -0.13429279413E+04  0.13429279413E+04  0.25500000920E-02 0. -1.
    10030    2    1    2    0    0  0.00000000000E+00  0.00000000000E+00  0.21953097078E+03  0.29053868534E+04  0.28970811036E+04 0.  0.
        3    1    3    3  502    0  0.44922421534E+03  0.12318515076E+04 -0.50763672861E+03  0.14060425281E+04  0.10100000352E+00 0.  1.
       -3    1    3    3    0  502 -0.44922421534E+03 -0.12318515076E+04  0.72716769939E+03  0.14993443253E+04  0.10100000352E+00 0. -1.
</event>
<event>
 5   0  0.8483636E-07  0.2904235E+04  0.7818609E-02  0.8271619E-01
       -1   -1    0    0    0  501  0.00000000000E+00  0.00000000000E+00  0.17660671218E+04  0.17660671218E+04  0.50400001928E-02 0.  1.
        1   -1    0    0  501    0  0.00000000000E+00  0.00000000000E+00 -0.11939779664E+04  0.11939779664E+04  0.50400001928E-02 0. -1.
    10030    2    1    2    0    0  0.00000000000E+00  0.00000000000E+00  0.57208915546E+03  0.29600450882E+04  0.29042349978E+04 0.  0.
        2    1    3    3  502    0 -0.39748008082E+03  0.11263189288E+04  0.11277846775E+04  0.16427060062E+04  0.25500000920E-02 0.  1.
       -2    1    3    3    0  502  0.39748008082E+03 -0.11263189288E+04 -0.55569552202E+03  0.13173390821E+04  0.25500000920E-02 0. -1.
</event>
<event>
 5   0  0.8947674E-07  0.2905712E+04  0.7818609E-02  0.8271180E-01
        1   -1    0    0  501    0  0.00000000000E+00  0.00000000000E+00  0.20457413885E+04  0.20457413885E+04  0.50400001928E-02 0. -1.
       -1   -1    0    0    0  501  0.00000000000E+00  0.00000000000E+00 -0.10317972326E+04  0.10317972326E+04  0.50400001928E-02 0.  1.
    10030    2    1    2    0    0  0.00000000000E+00  0.00000000000E+00  0.10139441559E+04  0.30775386212E+04  0.29057118256E+04 0.  0.
        3    1    3    3  502    0 -0.67665893577E+03  0.15741596025E+03 -0.84446948038E+03  0.10935153467E+04  0.10100000352E+00 0.  1.
       -3    1    3    3    0  502  0.67665893577E+03 -0.15741596025E+03  0.18584136363E+04  0.19840232745E+04  0.10100000352E+00 0. -1.
</event>
<event>
 5   0  0.8263673E-07  0.2889061E+04  0.7818609E-02  0.8276140E-01
        1   -1    0    0  501    0  0.00000000000E+00  0.00000000000E+00  0.23788075301E+04  0.23788075301E+04  0.50400001928E-02 0. -1.
       -1   -1    0    0    0  501  0.00000000000E+00  0.00000000000E+00 -0.87719089767E+03  0.87719089768E+03  0.50400001928E-02 0.  1.
    10030    2    1    2    0    0  0.00000000000E+00  0.00000000000E+00  0.15016166324E+04  0.32559984277E+04  0.28890609635E+04 0.  0.
        5    1    3    3  502    0 -0.17962178673E+03 -0.53440722049E+03  0.22496845026E+04  0.23192579664E+04  0.46999998093E+01 0. -1.
       -5    1    3    3    0  502  0.17962178673E+03  0.53440722049E+03 -0.74806787017E+03  0.93674046136E+03  0.46999998093E+01 0.  1.
</event>
<event>
 5   0  0.8483636E-07  0.2907975E+04  0.7818609E-02  0.8270509E-01
       -1   -1    0    0    0  501  0.00000000000E+00  0.00000000000E+00  0.99859326168E+03  0.99859326169E+03  0.50400001928E-02 0. -1.
        1   -1    0    0  501    0  0.00000000000E+00  0.00000000000E+00 -0.21170575307E+04  0.21170575307E+04  0.50400001928E-02 0.  1.
    10030    2    1    2    0    0  0.00000000000E+00  0.00000000000E+00 -0.11184642691E+04  0.31156507924E+04  0.29079748175E+04 0.  0.
        2    1    3    3  502    0 -0.61325303974E+03  0.54923780934E+03 -0.18432954758E+04  0.20187817299E+04  0.25500000920E-02 0.  1.
       -2    1    3    3    0  502  0.61325303974E+03 -0.54923780934E+03  0.72483120676E+03  0.10968690625E+04  0.25500000920E-02 0. -1.
</event>
<event>
 5   0  0.2360103E-06  0.2893277E+04  0.7818609E-02  0.8274880E-01
        2   -1    0    0  501    0  0.00000000000E+00  0.00000000000E+00  0.13052482977E+04  0.13052482977E+04  0.25500000920E-02 0.  1.
       -2   -1    0    0    0  501  0.00000000000E+00  0.00000000000E+00 -0.16033450587E+04  0.16033450587E+04  0.25500000920E-02 0. -1.
    10030    2    1    2    0    0  0.00000000000E+00  0.00000000000E+00 -0.29809676101E+03  0.29085933565E+04  0.28932773172E+04 0.  0.
        4    1    3    3  502    0  0.14305704834E+04 -0.11436473341E+03 -0.33208526400E+03  0.14730558155E+04  0.12699999809E+01 0. -1.
       -4    1    3    3    0  502 -0.14305704834E+04  0.11436473341E+03  0.33988502989E+02  0.14355375409E+04  0.12699999809E+01 0.  1.
</event>
<event>
 5   0  0.8355946E-07  0.2902820E+04  0.7818609E-02  0.8272039E-01
        1   -1    0    0  501    0  0.00000000000E+00  0.00000000000E+00  0.22443006088E+04  0.22443006088E+04  0.50400001928E-02 0. -1.
       -1   -1    0    0    0  501  0.00000000000E+00  0.00000000000E+00 -0.93864000132E+03  0.93864000133E+03  0.50400001928E-02 0.  1.
    10030    2    1    2    0    0  0.00000000000E+00  0.00000000000E+00  0.13056606075E+04  0.31829406101E+04  0.29028195441E+04 0.  0.
        4    1    3    3  502    0  0.98484027679E+02  0.14336703374E+04  0.42951293767E+03  0.14998642327E+04  0.12699999809E+01 0.  1.
       -4    1    3    3    0  502 -0.98484027679E+02 -0.14336703374E+04  0.87614766979E+03  0.16830763774E+04  0.12699999809E+01 0. -1.
</event>
<event>
 5   0  0.8263673E-07  0.2897783E+04  0.7818609E-02  0.8273537E-01
       -1   -1    0    0    0  501  0.00000000000E+00  0.00000000000E+00  0.15972346974E+04  0.15972346975E+04  0.50400001928E-02 0.  1.
        1   -1    0    0  501    0  0.00000000000E+00  0.00000000000E+00 -0.13143260090E+04  0.13143260090E+04  0.50400001928E-02 0. -1.
    10030    2    1    2    0    0  0.00000000000E+00  0.00000000000E+00  0.28290868849E+03  0.29115607064E+04  0.28977833634E+04 0.  0.
        5    1    3    3  502    0  0.30041180551E+03 -0.23587296246E+03 -0.12628249527E+04  0.13193302310E+04  0.46999998093E+01 0. -1.
       -5    1    3    3    0  502 -0.30041180551E+03  0.23587296246E+03  0.15457336412E+04  0.15922304754E+04  0.46999998093E+01 0.  1.
</event>
<event>
 5   0  0.8483636E-07  0.2908604E+04  0.7818609E-02  0.8270322E-01
       -1   -1    0    0    0  501  0.00000000000E+00  0.00000000000E+00  0.10935858319E+04  0.10935858319E+04  0.50400001928E-02 0. -1.
        1   -1    0    0  501    0  0.00000000000E+00  0.00000000000E+00 -0.19339987726E+04  0.19339987726E+04  0.50400001928E-02 0.  1.
    10030    2    1    2    0    0  0.00000000000E+00  0.00000000000E+00 -0.84041294066E+03  0.30275846045E+04  0.29086035527E+04 0.  0.
        2    1    3    3  502    0  0.11993611533E+04  0.44451603946E+03  0.30015200914E+03  0.13138313872E+04  0.25500000920E-02 0. -1.
       -2    1    3    3    0  502 -0.11993611533E+04 -0.44451603946E+03 -0.11405649498E+04  0.17137532174E+04  0.25500000920E-02 0.  1.
</event>
<event>
 5   0  0.2304435E-06  0.2900426E+04  0.7818609E-02  0.8272751E-01
        2   -1    0    0  501    0  0.00000000000E+00  0.00000000000E+00  0.16092958992E+04  0.16092958992E+04  0.25500000920E-02 0.  1.
       -2   -1    0    0    0  501  0.00000000000E+00  0.00000000000E+00 -0.13068561402E+04  0.13068561402E+04  0.25500000920E-02 0. -1.
    10030    2    1    2    0    0  0.00000000000E+00  0.00000000000E+00  0.30243975899E+03  0.29161520395E+04  0.29004263323E+04 0.  0.
        1    1    3    3  502    0 -0.14316407934E+04  0.10410271654E+03 -0.56504974179E+02  0.14365324740E+04  0.50400001928E-02 0.  1.
       -1    1    3    3    0  502  0.14316407934E+04 -0.10410271654E+03  0.35894473317E+03  0.14796195654E+04  0.50400001928E-02 0. -1.
</event>
<event>
 5   0  0.2378690E-06  0.2906600E+04  0.7818609E-02  0.8270916E-01
       -2   -1    0    0    0  501  0.00000000000E+00  0.00000000000E+00  0.23988305916E+04  0.23988305916E+04  0.25500000920E-02 0.  1.
        2   -1    0    0  501    0  0.00000000000E+00  0.00000000000E+00 -0.88046293304E+03  0.88046293305E+03  0.25500000920E-02 0. -1.
    10030    2    1    2    0    0  0.00000000000E+00  0.00000000000E+00  0.15183676586E+04  0.32792935247E+04  0.29066003637E+04 0.  0.
        3    1    3    3  502    0 -0.54316151085E+03  0.13479286140E+04  0.74557795526E+03  0.16333470155E+04  0.10100000352E+00 0. -1.
       -3    1    3    3    0  502  0.54316151085E+03 -0.13479286140E+04  0.77278970332E+03  0.16459465092E+04  0.10100000352E+00 0.  1.
</event>
<event>
 5   0  0.2378690E-06  0.2883346E+04  0.7818609E-02  0.8277850E-01
        2   -1    0    0  501    0  0.00000000000E+00  0.00000000000E+00  0.16220735866E+04  0.16220735866E+04  0.25500000920E-02 0. -1.
       -2   -1    0    0    0  501  0.00000000000E+00  0.00000000000E+00 -0.12813359041E+04  0.12813359041E+04  0.25500000920E-02 0.  1.
    10030    2    1    2    0    0  0.00000000000E+00  0.00000000000E+00  0.34073768251E+03  0.29034094908E+04  0.28833460602E+04 0.  0.
        3    1    3    3  502    0  0.80029365785E+03  0.10455498563E+03  0.13732603686E+04  0.15928734206E+04  0.10100000352E+00 0. -1.
       -3    1    3    3    0  502 -0.80029365785E+03 -0.10455498563E+03 -0.10325226861E+04  0.13105360702E+04  0.10100000352E+00 0.  1.
</event>
<event>
 5   0  0.8355946E-07  0.2887920E+04  0.7818609E-02  0.8276481E-01
       -1   -1    0    0    0  501  0.00000000000E+00  0.00000000000E+00  0.18337871619E+04  0.18337871620E+04  0.50400001928E-02 0.  1.
        1   -1    0    0  501    0  0.00000000000E+00  0.00000000000E+00 -0.11370023192E+04  0.11370023192E+04  0.50400001928E-02 0. -1.
    10030    2    1    2    0    0  0.00000000000E+00  0.00000000000E+00  0.69678484274E+03  0.29707894812E+04  0.28879198438E+04 0.  0.
        4    1    3    3  502    0 -0.27033799809E+03 -0.13617241910E+04  0.75682879862E+03  0.15811915915E+04  0.12699999809E+01 0.  1.
       -4    1    3    3    0  502  0.27033799809E+03  0.13617241910E+04 -0.60043955880E+02  0.13895978897E+04  0.12699999809E+01 0. -1.
</event>
<event>
 5   0  0.2304435E-06  0.2902281E+04  0.7818609E-02  0.8272199E-01
        2   -1    0    0  501    0  0.00000000000E+00  0.00000000000E+00  0.24233971024E+04  0.24233971024E+04  0.25500000920E-02 0.  1.
       -2   -1    0    0    0  501  0.00000000000E+00  0.00000000000E+00 -0.86894911013E+03  0.86894911013E+03  0.25500000920E-02 0. -1.
    10030    2    1    2    0    0  0.00000000000E+00  0.00000000000E+00  0.15544479922E+04  0.32923462125E+04  0.29022810033E+04 0.  0.
        1    1    3    3  502    0  0.12064673192E+04 -0.77249058795E+03  0.51482766170E+03  0.15222853287E+04  0.50400001928E-02 0.  1.
       -1    1    3    3    0  502 -0.12064673192E+04  0.77249058795E+03  0.10396203305E+04  0.17700608838E+04  0.50400001928E-02 0. -1.
</event>
<event>
 5   0  0.8483636E-07  0.2895809E+04  0.7818609E-02  0.8274125E-01
        1   -1    0    0  501    0  0.00000000000E+00  0.00000000000E+00  0.24318440825E+04  0.24318440825E+04  0.50400001928E-02 0.  1.
       -1   -1    0    0    0  501  0.00000000000E+00  0.00000000000E+00 -0.86207331384E+03  0.86207331386E+03  0.50400001928E-02 0. -1.
    10030    2    1    2    0    0  0.00000000000E+00  0.00000000000E+00  0.15697707687E+04  0.32939173964E+04  0.28958093080E+04 0.  0.
        2    1    3    3  502    0 -0.40822224458E+03 -0.13332573054E+04  0.12286581949E+04  0.18584459646E+04  0.25500000920E-02 0. -1.
       -2    1    3    3    0  502  0.40822224458E+03  0.13332573054E+04  0.34111257379E+03  0.14354714318E+04  0.25500000920E-02 0.  1.
</event>
<event>
 5   0  0.8947674E-07  0.2887758E+04  0.7818609E-02  0.8276529E-01
        1   -1    0    0  501    0  0.00000000000E+00  0.00000000000E+00  0.14509708404E+04  0.14509708404E+04  0.50400001928E-02 0. -1.
       -1   -1    0    0    0  501  0.00000000000E+00  0.00000000000E+00 -0.14368218557E+04  0.14368218557E+04  0.50400001928E-02 0.  1.
    10030    2    1    2    0    0  0.00000000000E+00  0.00000000000E+00  0.14148984699E+02  0.28877926960E+04  0.28877580337E+04 0.  0.
        3    1    3    3  502    0 -0.38506267480E+03  0.42515003369E+01 -0.13845223440E+04  0.14370781015E+04  0.10100000352E+00 0.  1.
       -3    1    3    3    0  502  0.38506267480E+03 -0.42515003369E+01  0.13986713287E+04  0.14507145945E+04  0.10100000352E+00 0. -1.
</event>
<event>
 5   0  0.8263673E-07  0.2922359E+04  0.7818609E-02  0.8266256E-01
        1   -1    0    0  501    0  0.00000000000E+00  0.00000000000E+00  0.22047805619E+04  0.22047805619E+04  0.50400001928E-02 0. -1.
       -1   -1    0    0    0  501  0.00000000000E+00  0.00000000000E+00 -0.96837111705E+03  0.96837111706E+03  0.50400001928E-02 0.  1.
    10030    2    1    2    0    0  0.00000000000E+00  0.00000000000E+00  0.12364094449E+04  0.31731516790E+04  0.29223591947E+04 0.  0.
        5    1    3    3  502    0  0.12992692976E+04 -0.60819981886E+03  0.31687101745E+03  0.14691620262E+04  0.46999998093E+01 0.  1.
       -5    1    3    3    0  502 -0.12992692976E+04  0.60819981886E+03  0.91953842744E+03  0.17039896528E+04  0.46999998093E+01 0. -1.
</event>
<event>
 5   0  0.2425845E-06  0.2896891E+04  0.7818609E-02  0.8273803E-01
        2   -1    0    0  501    0  0.00000000000E+00  0.00000000000E+00  0.21888518569E+04  0.21888518569E+04  0.25500000920E-02 0. -1.
       -2   -1    0    0    0  501  0.00000000000E+00  0.00000000000E+00 -0.95849086430E+03  0.95849086431E+03  0.25500000920E-02 0.  1.
    10030    2    1    2    0    0  0.00000000000E+00  0.00000000000E+00  0.12303609926E+04  0.31473427212E+04  0.28968910978E+04 0.  0.
        2    1    3    3  502    0 -0.54195752667E+03 -0.12214732505E+04  0.80476815041E+01  0.13363306580E+04  0.25500000920E-02 0.  1.
       -2    1    3    3    0  502  0.54195752667E+03  0.12214732505E+04  0.12223133111E+04  0.18110120631E+04  0.25500000920E-02 0. -1.
</event>
<event>
 5   0  0.2304435E-06  0.2925512E+04  0.7818609E-02  0.8265327E-01
       -2   -1    0    0    0  501  0.00000000000E+00  0.00000000000E+00  0.95212099042E+03  0.95212099042E+03  0.25500000920E-02 0.  1.
        2   -1    0    0  501    0  0.00000000000E+00  0.00000000000E+00 -0.22472511977E+04  0.22472511977E+04  0.25500000920E-02 0. -1.
    10030    2    1    2    0    0  0.00000000000E+00  0.00000000000E+00 -0.12951302073E+04  0.31993721881E+04  0.29255119457E+04 0.  0.
        1    1    3    3  502    0 -0.53897412117E+03  0.66031645988E+03  0.65247310050E+03  0.10734207364E+04  0.50400001928E-02 0.  1.
       -1    1    3    3    0  502  0.53897412117E+03 -0.66031645988E+03 -0.19476033078E+04  0.21259514517E+04  0.50400001928E-02 0. -1.
</event>
<event>
 5   0  0.2325590E-06  0.2904604E+04  0.7818609E-02  0.8271509E-01
       -2   -1    0    0    0  501  0.00000000000E+00  0.00000000000E+00  0.15494889196E+04  0.15494889196E+04  0.25500000920E-02 0. -1.
        2   -1    0    0  501    0  0.00000000000E+00  0.00000000000E+00 -0.13612105079E+04  0.13612105079E+04  0.25500000920E-02 0.  1.
    10030    2    1    2    0    0  0.00000000000E+00  0.00000000000E+00  0.18827841174E+03  0.29106994275E+04  0.29046036557E+04 0.  0.
        5    1    3    3  502    0 -0.91876856586E+03 -0.12405055109E+03  0.12143556618E+04  0.15278108456E+04  0.46999998093E+01 0. -1.
       -5    1    3    3    0  502  0.91876856586E+03  0.12405055109E+03 -0.10260772500E+04  0.13828885819E+04  0.46999998093E+01 0.  1.
</event>
<event>
 5   0  0.8483636E-07  0.2909213E+04  0.7818609E-02  0.8270142E-01
       -1   -1    0    0    0  501  0.00000000000E+00  0.00000000000E+00  0.10330895659E+04  0.10330895659E+04  0.50400001928E-02 0.  1.
        1   -1    0    0  501    0  0.00000000000E+00  0.00000000000E+00 -0.20481094467E+04  0.20481094467E+04  0.50400001928E-02 0. -1.
    10030    2    1    2    0    0  0.00000000000E+00  0.00000000000E+00 -0.10150198809E+04  0.30811990126E+04  0.29092132952E+04 0.  0.
        2    1    3    3  502    0  0.11359833808E+04  0.59219120467E+03 -0.12372502966E+04  0.17809932512E+04  0.25500000920E-02 0. -1.
       -2    1    3    3    0  502 -0.11359833808E+04 -0.59219120467E+03  0.22223041577E+03  0.13002057614E+04  0.25500000920E-02 0.  1.
</event>
<event>
 5   0  0.2360103E-06  0.2889428E+04  0.7818609E-02  0.8276030E-01
        2   -1    0    0  501    0  0.00000000000E+00  0.00000000000E+00  0.27160926748E+04  0.27160926748E+04  0.25500000920E-02 0.  1.
       -2   -1    0    0    0  501  0.00000000000E+00  0.00000000000E+00 -0.76845624587E+03  0.76845624587E+03  0.25500000920E-02 0. -1.
    10030    2    1    2    0    0  0.00000000000E+00  0.00000000000E+00  0.19476364289E+04  0.34845489207E+04  0.28894278882E+04 0.  0.
        4    1    3    3  502    0 -0.31273469859E+03  0.54292819700E+03  0.25437154400E+04  0.26197450012E+04  0.12699999809E+01 0.  1.
       -4    1    3    3    0  502  0.31273469859E+03 -0.54292819700E+03 -0.59607901106E+03  0.86480391947E+03  0.12699999809E+01 0. -1.
</event>
<event>
 5   0  0.2304435E-06  0.2903608E+04  0.7818609E-02  0.8271805E-01
       -2   -1    0    0    0  501  0.00000000000E+00  0.00000000000E+00  0.11467586439E+04  0.11467586439E+04  0.25500000920E-02 0.  1.
        2   -1    0    0  501    0  0.00000000000E+00  0.00000000000E+00 -0.18379936170E+04  0.18379936170E+04  0.25500000920E-02 0. -1.
    10030    2    1    2    0    0  0.00000000000E+00  0.00000000000E+00 -0.69123497313E+03  0.29847522610E+04  0.29036081470E+04 0.  0.
        1    1    3    3  502    0 -0.33662908132E+03  0.61590084883E+03 -0.16519916480E+04  0.17949176580E+04  0.50400001928E-02 0. -1.
       -1    1    3    3    0  502  0.33662908132E+03 -0.61590084883E+03  0.96075667487E+03  0.11898346029E+04  0.50400001928E-02 0.  1.
</event>
<event>
 5   0  0.8357118E-07  0.2890380E+04  0.7818609E-02  0.8275745E-01
       -1   -1    0    0    0  501  0.00000000000E+00  0.00000000000E+00  0.10858868663E+04  0.10858868663E+04  0.50400001928E-02 0. -1.
        1   -1    0    0  501    0  0.00000000000E+00  0.00000000000E+00 -0.19233809956E+04  0.19233809956E+04  0.50400001928E-02 0.  1.
    10030    2    1    2    0    0  0.00000000000E+00  0.00000000000E+00 -0.83749412925E+03  0.30092678619E+04  0.28903800179E+04 0.  0.
        1    1    3    3  502    0  0.40499374933E+03  0.10899487139E+04  0.47478829310E+03  0.12559586216E+04  0.50400001928E-02 0. -1.
       -1    1    3    3    0  502 -0.40499374933E+03 -0.10899487139E+04 -0.13122824224E+04  0.17533092403E+04  0.50400001928E-02 0.  1.
</event>
<event>
 5   0  0.8263673E-07  0.2903166E+04  0.7818609E-02  0.8271936E-01
       -1   -1    0    0    0  501  0.00000000000E+00  0.00000000000E+00  0.11637980365E+04  0.11637980366E+04  0.50400001928E-02 0.  1.
        1   -1    0    0  501    0  0.00000000000E+00  0.00000000000E+00 -0.18105316227E+04  0.18105316227E+04  0.50400001928E-02 0. -1.
    10030    2    1    2    0    0  0.00000000000E+00  0.00000000000E+00 -0.64673358620E+03  0.29743296593E+04  0.29031659599E+04 0.  0.
        5    1    3    3  502    0  0.38254446777E+03  0.28878157868E+02 -0.17576464713E+04  0.17990323582E+04  0.46999998093E+01 0. -1.
       -5    1    3    3    0  502 -0.38254446777E+03 -0.28878157868E+02  0.11109128851E+04  0.11752973011E+04  0.46999998093E+01 0.  1.
</event>
<event>
 5   0  0.2325590E-06  0.2896950E+04  0.7818609E-02  0.8273786E-01
       -2   -1    0    0    0  501  0.00000000000E+00  0.00000000000E+00  0.12594822006E+04  0.12594822006E+04  0.25500000920E-02 0. -1.
        2   -1    0    0  501    0  0.00000000000E+00  0.00000000000E+00 -0.16658269378E+04  0.16658269378E+04  0.25500000920E-02 0.  1.
    10030    2    1    2    0    0  0.00000000000E+00  0.00000000000E+00 -0.40634473722E+03  0.29253091383E+04  0.28969496905E+04 0.  0.
        5    1    3    3  502    0 -0.99207388334E+03  0.46112554497E+03 -0.11617864378E+04  0.15958123872E+04  0.46999998093E+01 0.  1.
       -5    1    3    3    0  502  0.99207388334E+03 -0.46112554497E+03  0.75544170057E+03  0.13294967511E+04  0.46999998093E+01 0. -1.
</event>
<event>
 5   0  0.2325590E-06  0.2901748E+04  0.7818609E-02  0.8272358E-01
        2   -1    0    0  501    0  0.00000000000E+00  0.00000000000E+00  0.12868079508E+04  0.12868079509E+04  0.25500000920E-02 0.  1.
       -2   -1    0    0    0  501  0.00000000000E+00  0.00000000000E+00 -0.16358584228E+04  0.16358584228E+04  0.25500000920E-02 0. -1.
    10030    2    1    2    0    0  0.00000000000E+00  0.00000000000E+00 -0.34905047199E+03  0.29226663737E+04  0.29017481800E+04 0.  0.
        5    1    3    3  502    0  0.96702231482E+03  0.84623319944E+03  0.50395589010E+03  0.13803030154E+04  0.46999998093E+01 0.  1.
       -5    1    3    3    0  502 -0.96702231482E+03 -0.84623319944E+03 -0.85300636209E+03  0.15423633583E+04  0.46999998093E+01 0. -1.
</event>
<event>
 5   0  0.2325590E-06  0.2905782E+04  0.7818609E-02  0.8271159E-01
        2   -1    0    0  501    0  0.00000000000E+00  0.00000000000E+00  0.14021254194E+04  0.14021254194E+04  0.25500000920E-02 0. -1.
       -2   -1    0    0    0  501  0.00000000000E+00  0.00000000000E+00 -0.15054947015E+04  0.15054947015E+04  0.25500000920E-02 0.  1.
    10030    2    1    2    0    0  0.00000000000E+00  0.00000000000E+00 -0.10336928211E+03  0.29076201209E+04  0.29057820908E+04 0.  0.
        5    1    3    3  502    0  0.14979282211E+03 -0.29254136911E+03 -0.14678013510E+04  0.15041546590E+04  0.46999998093E+01 0.  1.
       -5    1    3    3    0  502 -0.14979282211E+03  0.29254136911E+03  0.13644320689E+04  0.14034654619E+04  0.46999998093E+01 0. -1.
</event>
<event>
 5   0  0.2360103E-06  0.2904677E+04  0.7818609E-02  0.8271487E-01
        2   -1    0    0  501    0  0.00000000000E+00  0.00000000000E+00  0.85515170851E+03  0.85515170852E+03  0.25500000920E-02 0.  1.
       -2   -1    0    0    0  501  0.00000000000E+00  0.00000000000E+00 -0.24665640642E+04  0.24665640642E+04  0.25500000920E-02 0. -1.
    10030    2    1    2    0    0  0.00000000000E+00  0.00000000000E+00 -0.16114123557E+04  0.33217157727E+04  0.29046765559E+04 0.  0.
        4    1    3    3  502    0 -0.34518698498E+03  0.11334989280E+04 -0.17661125073E+04  0.21267648849E+04  0.12699999809E+01 0. -1.
       -4    1    3    3    0  502  0.34518698498E+03 -0.11334989280E+04  0.15470015164E+03  0.11949508878E+04  0.12699999809E+01 0.  1.
</event>
<event>
 5   0  0.2360103E-06  0.2897510E+04  0.7818609E-02  0.8273619E-01
        2   -1    0    0  501    0  0.00000000000E+00  0.00000000000E+00  0.31497675310E+04  0.31497675310E+04  0.25500000920E-02 0.  1.
       -2   -1    0    0    0  501  0.00000000000E+00  0.00000000000E+00 -0.66636398603E+03  0.66636398603E+03  0.25500000920E-02 0. -1.
    10030    2    1    2    0    0  0.00000000000E+00  0.00000000000E+00  0.24834035450E+04  0.38161315171E+04  0.28975104121E+04 0.  0.
        4    1    3    3  502    0 -0.10543048248E+04 -0.92069970140E+03  0.17338643436E+04  0.22283477688E+04  0.12699999809E+01 0. -1.
       -4    1    3    3    0  502  0.10543048248E+04  0.92069970140E+03  0.74953920138E+03  0.15877837482E+04  0.12699999809E+01 0.  1.
</event>
<event>
 5   0  0.8263673E-07  0.2904310E+04  0.7818609E-02  0.8271596E-01
        1   -1    0    0  501    0  0.00000000000E+00  0.00000000000E+00  0.26040481168E+04  0.26040481168E+04  0.50400001928E-02 0.  1.
       -1   -1    0    0    0  501  0.00000000000E+00  0.00000000000E+00 -0.80979866746E+03  0.80979866747E+03  0.50400001928E-02 0. -1.
    10030    2    1    2    0    0  0.00000000000E+00  0.00000000000E+00  0.17942494493E+04  0.34138467842E+04  0.29043103794E+04 0.  0.
        5    1    3    3  502    0 -0.93187229152E+02  0.13205868928E+04  0.15985580222E+04  0.20755826752E+04  0.46999998093E+01 0. -1.
       -5    1    3    3    0  502  0.93187229152E+02 -0.13205868928E+04  0.19569142707E+03  0.13382641091E+04  0.46999998093E+01 0.  1.
</event>
<event>
 5   0  0.2378690E-06  0.2922649E+04  0.7818609E-02  0.8266171E-01
       -2   -1    0    0    0  501  0.00000000000E+00  0.00000000000E+00  0.85126626268E+03  0.85126626268E+03  0.25500000920E-02 0.  1.
        2   -1    0    0  501    0  0.00000000000E+00  0.00000000000E+00 -0.25085794697E+04  0.25085794697E+04  0.25500000920E-02 0. -1.
    10030    2    1    2    0    0  0.00000000000E+00  0.00000000000E+00 -0.16573132070E+04  0.33598457323E+04  0.29226488464E+04 0.  0.
        3    1    3    3  502    0 -0.21383623106E+03  0.35133365523E+03  0.78335605754E+03  0.88476437207E+03  0.10100000352E+00 0.  1.
       -3    1    3    3    0  502  0.21383623106E+03 -0.35133365523E+03 -0.24406692645E+04  0.24750813603E+04  0.10100000352E+00 0. -1.
</event>
<event>
 5   0  0.2360103E-06  0.2906446E+04  0.7818609E-02  0.8270962E-01
       -2   -1    0    0    0  501  0.00000000000E+00  0.00000000000E+00  0.15680493097E+04  0.15680493097E+04  0.25500000920E-02 0. -1.
        2   -1    0    0  501    0  0.00000000000E+00  0.00000000000E+00 -0.13468050575E+04  0.13468050575E+04  0.25500000920E-02 0.  1.
    10030    2    1    2    0    0  0.00000000000E+00  0.00000000000E+00  0.22124425215E+03  0.29148543672E+04  0.29064457612E+04 0.  0.
        4    1    3    3  502    0  0.11431922912E+04 -0.39834878475E+02  0.10095297507E+04  0.15256563711E+04  0.12699999809E+01 0. -1.
       -4    1    3    3    0  502 -0.11431922912E+04  0.39834878475E+02 -0.78828549852E+03  0.13891979961E+04  0.12699999809E+01 0.  1.
</event>
<event>
 5   0  0.8947674E-07  0.2897722E+04  0.7818609E-02  0.8273556E-01
        1   -1    0    0  501    0  0.00000000000E+00  0.00000000000E+00  0.20391314276E+04  0.20391314276E+04  0.50400001928E-02 0. -1.
       -1   -1    0    0    0  501  0.00000000000E+00  0.00000000000E+00 -0.10294571182E+04  0.10294571182E+04  0.50400001928E-02 0.  1.
    10030    2    1    2    0    0  0.00000000000E+00  0.00000000000E+00  0.10096743094E+04  0.30685885458E+04  0.28977221144E+04 0.  0.
        3    1    3    3  502    0 -0.10275580429E+04  0.50778204018E+03  0.14433701626E+04  0.18431048718E+04  0.10100000352E+00 0. -1.
       -3    1    3    3    0  502  0.10275580429E+04 -0.50778204018E+03 -0.43369585322E+03  0.12254836740E+04  0.10100000352E+00 0.  1.
</event>
<event>
 5   0  0.2325590E-06  0.2896720E+04  0.7818609E-02  0.8273854E-01
       -2   -1    0    0    0  501  0.00000000000E+00  0.00000000000E+00  0.92038724656E+03  0.92038724656E+03  0.25500000920E-02 0. -1.
        2   -1    0    0  501    0  0.00000000000E+00  0.00000000000E+00 -0.22792007041E+04  0.22792007041E+04  0.25500000920E-02 0.  1.
    10030    2    1    2    0    0  0.00000000000E+00  0.00000000000E+00 -0.13588134575E+04  0.31995879506E+04  0.28967203941E+04 0.  0.
        5    1    3    3  502    0 -0.54285190570E+03 -0.58338595495E+03 -0.20152785245E+04  0.21671172062E+04  0.46999998093E+01 0.  1.
       -5    1    3    3    0  502  0.54285190570E+03  0.58338595495E+03  0.65646506701E+03  0.10324707445E+04  0.46999998093E+01 0. -1.
</event>
<event>
 5   0  0.2425845E-06  0.2897637E+04  0.7818609E-02  0.8273581E-01
        2   -1    0    0  501    0  0.00000000000E+00  0.00000000000E+00  0.23579503531E+04  0.23579503531E+04  0.25500000920E-02 0.  1.
       -2   -1    0    0    0  501  0.00000000000E+00  0.00000000000E+00 -0.89021146294E+03  0.89021146295E+03  0.25500000920E-02 0. -1.
    10030    2    1    2    0    0  0.00000000000E+00  0.00000000000E+00  0.14677388902E+04  0.32481618161E+04  0.28976365772E+04 0.  0.
        2    1    3    3  502    0  0.12792044248E+04 -0.50818783770E+03  0.12407355395E+04  0.18531172434E+04  0.25500000920E-02 0.  1.
       -2    1    3    3    0  502 -0.12792044248E+04  0.50818783770E+03  0.22700335072E+03  0.13950445727E+04  0.25500000920E-02 0. -1.
</event>
<event>
 5   0  0.8357118E-07  0.2905174E+04  0.7818609E-02  0.8271340E-01
       -1   -1    0    0    0  501  0.00000000000E+00  0.00000000000E+00  0.14873769223E+04  0.14873769223E+04  0.50400001928E-02 0.  1.
        1   -1    0    0  501    0  0.00000000000E+00  0.00000000000E+00 -0.14186103904E+04  0.14186103904E+04  0.50400001928E-02 0. -1.
    10030    2    1    2    0    0  0.00000000000E+00  0.00000000000E+00  0.68766531814E+02  0.29059873127E+04  0.29051735621E+04 0.  0.
        1    1    3    3  502    0 -0.11189562864E+04  0.40513317333E+03  0.86757053832E+03  0.14727099844E+04  0.50400001928E-02 0.  1.
       -1    1    3    3    0  502  0.11189562864E+04 -0.40513317333E+03 -0.79880400650E+03  0.14332773283E+04  0.50400001928E-02 0. -1.
</event>
<event>
 5   0  0.2325590E-06  0.2893260E+04  0.7818609E-02  0.8274886E-01
        2   -1    0    0  501    0  0.00000000000E+00  0.00000000000E+00  0.22270151463E+04  0.22270151463E+04  0.25500000920E-02 0.  1.
       -2   -1    0    0    0  501  0.00000000000E+00  0.00000000000E+00 -0.93970562205E+03  0.93970562205E+03  0.25500000920E-02 0. -1.
    10030    2    1    2    0    0  0.00000000000E+00  0.00000000000E+00  0.12873095242E+04  0.31667207684E+04  0.28932602049E+04 0.  0.
        5    1    3    3  502    0  0.10409530076E+04  0.61688296482E+03  0.15114266934E+04  0.19361199591E+04  0.46999998093E+01 0.  1.
       -5    1    3    3    0  502 -0.10409530076E+04 -0.61688296482E+03 -0.22411716916E+03  0.12306008093E+04  0.46999998093E+01 0. -1.
</event>
<event>
 5   0  0.8483636E-07  0.2888317E+04  0.7818609E-02  0.8276362E-01
       -1   -1    0    0    0  501  0.00000000000E+00  0.00000000000E+00  0.10344559396E+04  0.10344559396E+04  0.50400001928E-02 0.  1.
        1   -1    0    0  501    0  0.00000000000E+00  0.00000000000E+00 -0.20161259047E+04  0.20161259047E+04  0.50400001928E-02 0. -1.
    10030    2    1    2    0    0  0.00000000000E+00  0.00000000000E+00 -0.98166996505E+03  0.30505818443E+04  0.28883167535E+04 0.  0.
        2    1    3    3  502    0 -0.17087317497E+03  0.59993345306E+03 -0.18664967711E+04  0.19679756062E+04  0.25500000920E-02 0. -1.
       -2    1    3    3    0  502  0.17087317497E+03 -0.59993345306E+03  0.88482680605E+03  0.10826062381E+04  0.25500000920E-02 0.  1.
</event>
<event>
 5   0  0.2378690E-06  0.2874642E+04  0.7818609E-02  0.8280462E-01
       -2   -1    0    0    0  501  0.00000000000E+00  0.00000000000E+00  0.14208216367E+04  0.14208216367E+04  0.25500000920E-02 0.  1.
        2   -1    0    0  501    0  0.00000000000E+00  0.00000000000E+00 -0.14540119784E+04  0.14540119784E+04  0.25500000920E-02 0. -1.
    10030    2    1    2    0    0  0.00000000000E+00  0.00000000000E+00 -0.33190341696E+02  0.28748336151E+04  0.28746420152E+04 0.  0.
        3    1    3    3  502    0  0.50950269840E+03 -0.50764866038E+03  0.12279119389E+04  0.14230488052E+04  0.10100000352E+00 0.  1.
       -3    1    3    3    0  502 -0.50950269840E+03  0.50764866038E+03 -0.12611022806E+04  0.14517848099E+04  0.10100000352E+00 0. -1.
</event>
<event>
 5   0  0.8483636E-07  0.2903154E+04  0.7818609E-02  0.8271940E-01
       -1   -1    0    0    0  501  0.00000000000E+00  0.00000000000E+00  0.95687795069E+03  0.95687795070E+03  0.50400001928E-02 0.  1.
        1   -1    0    0  501    0  0.00000000000E+00  0.00000000000E+00 -0.22020326385E+04  0.22020326385E+04  0.50400001928E-02 0. -1.
    10030    2    1    2    0    0  0.00000000000E+00  0.00000000000E+00 -0.12451546878E+04  0.31589105892E+04  0.29031544764E+04 0.  0.
        2    1    3    3  502    0 -0.44126463001E+03 -0.99347031793E+03 -0.16692887228E+04  0.19920398055E+04  0.25500000920E-02 0. -1.
       -2    1    3    3    0  502  0.44126463001E+03  0.99347031793E+03  0.42413403503E+03  0.11668707838E+04  0.25500000920E-02 0.  1.
</event>
<event>
 5   0  0.8263673E-07  0.2906519E+04  0.7818609E-02  0.8270940E-01
        1   -1    0    0  501    0  0.00000000000E+00  0.00000000000E+00  0.16487185567E+04  0.16487185567E+04  0.50400001928E-02 0.  1.
       -1   -1    0    0    0  501  0.00000000000E+00  0.00000000000E+00 -0.12809729646E+04  0.12809729646E+04  0.50400001928E-02 0. -1.
    10030    2    1    2    0    0  0.00000000000E+00  0.00000000000E+00  0.36774559202E+03  0.29296915213E+04  0.29065194975E+04 0.  0.
        5    1    3    3  502    0 -0.70000930067E+02  0.53217028528E+03  0.15451344185E+04  0.16357162969E+04  0.46999998093E+01 0.  1.
       -5    1    3    3    0  502  0.70000930067E+02 -0.53217028528E+03 -0.11773888265E+04  0.12939752244E+04  0.46999998093E+01 0. -1.
</event>
<event>
 5   0  0.2425845E-06  0.2902882E+04  0.7818609E-02  0.8272020E-01
       -2   -1    0    0    0  501  0.00000000000E+00  0.00000000000E+00  0.12686205948E+04  0.12686205948E+04  0.25500000920E-02 0. -1.
        2   -1    0    0  501    0  0.00000000000E+00  0.00000000000E+00 -0.16606081270E+04  0.16606081270E+04  0.25500000920E-02 0.  1.
    10030    2    1    2    0    0  0.00000000000E+00  0.00000000000E+00 -0.39198753222E+03  0.29292287218E+04  0.29028824777E+04 0.  0.
        2    1    3    3  502    0  0.11739961138E+04 -0.57374526265E+03 -0.83357576896E+03  0.15499351807E+04  0.25500000920E-02 0.  1.
       -2    1    3    3    0  502 -0.11739961138E+04  0.57374526265E+03  0.44158823674E+03  0.13792935411E+04  0.25500000920E-02 0. -1.
</event>
<event>
 5   0  0.2304435E-06  0.2960826E+04  0.7818609E-02  0.8255007E-01
        2   -1    0    0  501    0  0.00000000000E+00  0.00000000000E+00  0.10566987689E+04  0.10566987689E+04  0.25500000920E-02 0. -1.
       -2   -1    0    0    0  501  0.00000000000E+00  0.00000000000E+00 -0.20740277945E+04  0.20740277945E+04  0.25500000920E-02 0.  1.
    10030    2    1    2    0    0  0.00000000000E+00  0.00000000000E+00 -0.10173290256E+04  0.31307265634E+04  0.29608259774E+04 0.  0.
        1    1    3    3  502    0  0.66768462436E+03  0.13150474554E+04 -0.64436446921E+03  0.16094589578E+04  0.50400001928E-02 0. -1.
       -1    1    3    3    0  502 -0.66768462436E+03 -0.13150474554E+04 -0.37296455637E+03  0.15212676056E+04  0.50400001928E-02 0.  1.
</event>
<event>
 5   0  0.8355946E-07  0.2912899E+04  0.7818609E-02  0.8269050E-01
       -1   -1    0    0    0  501  0.00000000000E+00  0.00000000000E+00  0.10335582436E+04  0.10335582436E+04  0.50400001928E-02 0.  1.
        1   -1    0    0  501    0  0.00000000000E+00  0.00000000000E+00 -0.20523713601E+04  0.20523713601E+04  0.50400001928E-02 0. -1.
    10030    2    1    2    0    0  0.00000000000E+00  0.00000000000E+00 -0.10188131165E+04  0.30859296037E+04  0.29128991319E+04 0.  0.
        4    1    3    3  502    0 -0.86715750371E+03 -0.81559533726E+03 -0.13983484483E+04  0.18364470823E+04  0.12699999809E+01 0. -1.
       -4    1    3    3    0  502  0.86715750371E+03  0.81559533726E+03  0.37953533179E+03  0.12494825214E+04  0.12699999809E+01 0.  1.
</event>
<event>
 5   0  0.8947674E-07  0.2903438E+04  0.7818609E-02  0.8271855E-01
        1   -1    0    0  501    0  0.00000000000E+00  0.00000000000E+00  0.13331560078E+04  0.13331560078E+04  0.50400001928E-02 0.  1.
       -1   -1    0    0    0  501  0.00000000000E+00  0.00000000000E+00 -0.15808264392E+04  0.15808264393E+04  0.50400001928E-02 0. -1.
    10030    2    1    2    0    0  0.00000000000E+00  0.00000000000E+00 -0.24767043141E+03  0.29139824471E+04  0.29034381446E+04 0.  0.
        3    1    3    3  502    0 -0.11232368008E+04  0.16463296042E+03 -0.10319545808E+04  0.15341757362E+04  0.10100000352E+00 0. -1.
       -3    1    3    3    0  502  0.11232368008E+04 -0.16463296042E+03  0.78428414941E+03  0.13798067109E+04  0.10100000352E+00 0.  1.
</event>
<event>
 5   0  0.2425845E-06  0.2891073E+04  0.7818609E-02  0.8275538E-01
       -2   -1    0    0    0  501  0.00000000000E+00  0.00000000000E+00  0.11985036342E+04  0.11985036342E+04  0.25500000920E-02 0. -1.
        2   -1    0    0  501    0  0.00000000000E+00  0.00000000000E+00 -0.17434877170E+04  0.17434877170E+04  0.25500000920E-02 0.  1.
    10030    2    1    2    0    0  0.00000000000E+00  0.00000000000E+00 -0.54498408275E+03  0.29419913512E+04  0.28910734097E+04 0.  0.
        2    1    3    3  502    0  0.12082971649E+04 -0.74404443684E+03  0.80298691613E+01  0.14190308811E+04  0.25500000920E-02 0. -1.
       -2    1    3    3    0  502 -0.12082971649E+04  0.74404443684E+03 -0.55301395191E+03  0.15229604702E+04  0.25500000920E-02 0.  1.
</event>
<event>
 5   0  0.8947674E-07  0.2910219E+04  0.7818609E-02  0.8269844E-01
       -1   -1    0    0    0  501  0.00000000000E+00  0.00000000000E+00  0.15888785289E+04  0.15888785289E+04  0.50400001928E-02 0. -1.
        1   -1    0    0  501    0  0.00000000000E+00  0.00000000000E+00 -0.13326024176E+04  0.13326024176E+04  0.50400001928E-02 0.  1.
    10030    2    1    2    0    0  0.00000000000E+00  0.00000000000E+00  0.25627611133E+03  0.29214809466E+04  0.29102188021E+04 0.  0.
        3    1    3    3  502    0 -0.76885950628E+02 -0.24807842099E+03  0.15654220497E+04  0.15868208961E+04  0.10100000352E+00 0. -1.
       -3    1    3    3    0  502  0.76885950628E+02  0.24807842099E+03 -0.13091459383E+04  0.13346600505E+04  0.10100000352E+00 0.  1.
</event>
<event>
 5   0  0.8357118E-07  0.2966890E+04  0.7818609E-02  0.8253249E-01
        1   -1    0    0  501    0  0.00000000000E+00  0.00000000000E+00  0.11988516706E+04  0.11988516706E+04  0.50400001928E-02 0.  1.
       -1   -1    0    0    0  501  0.00000000000E+00  0.00000000000E+00 -0.18355972955E+04  0.18355972955E+04  0.50400001928E-02 0. -1.
    10030    2    1    2    0    0  0.00000000000E+00  0.00000000000E+00 -0.63674562488E+03  0.30344489662E+04  0.29668898762E+04 0.  0.
        1    1    3    3  502    0  0.55534325928E+02  0.15622252931E+03 -0.18260910914E+04  0.18336025235E+04  0.50400001928E-02 0. -1.
       -1    1    3    3    0  502 -0.55534325928E+02 -0.15622252931E+03  0.11893454665E+04  0.12008464427E+04  0.50400001928E-02 0.  1.
</event>
<event>
 5   0  0.8483636E-07  0.2894851E+04  0.7818609E-02  0.8274411E-01
        1   -1    0    0  501    0  0.00000000000E+00  0.00000000000E+00  0.16698249325E+04  0.16698249325E+04  0.50400001928E-02 0.  1.
       -1   -1    0    0    0  501  0.00000000000E+00  0.00000000000E+00 -0.12546466083E+04  0.12546466083E+04  0.50400001928E-02 0. -1.
    10030    2    1    2    0    0  0.00000000000E+00  0.00000000000E+00  0.41517832419E+03  0.29244715408E+04  0.28948507306E+04 0.  0.
        2    1    3    3  502    0  0.25884014687E+03  0.76301925139E+03 -0.10071467790E+04  0.12897834058E+04  0.25500000920E-02 0. -1.
       -2    1    3    3    0  502 -0.25884014687E+03 -0.76301925139E+03  0.14223251031E+04  0.16346881350E+04  0.25500000920E-02 0.  1.
</event>
<event>
 5   0  0.2360103E-06  0.2898878E+04  0.7818609E-02  0.8273211E-01
       -2   -1    0    0    0  501  0.00000000000E+00  0.00000000000E+00  0.14943096007E+04  0.14943096007E+04  0.25500000920E-02 0. -1.
        2   -1    0    0  501    0  0.00000000000E+00  0.00000000000E+00 -0.14059154893E+04  0.14059154893E+04  0.25500000920E-02 0.  1.
    10030    2    1    2    0    0  0.00000000000E+00  0.00000000000E+00  0.88394111455E+02  0.29002250900E+04  0.28988777232E+04 0.  0.
        4    1    3    3  502    0  0.10394879753E+04 -0.99581912834E+03  0.21362869461E+03  0.14552765439E+04  0.12699999809E+01 0. -1.
       -4    1    3    3    0  502 -0.10394879753E+04  0.99581912834E+03 -0.12523458315E+03  0.14449485461E+04  0.12699999809E+01 0.  1.
</event>
<event>
 5   0  0.8483636E-07  0.2918210E+04  0.7818609E-02  0.8267480E-01
        1   -1    0    0  501    0  0.00000000000E+00  0.00000000000E+00  0.12428909284E+04  0.12428909284E+04  0.50400001928E-02 0.  1.
       -1   -1    0    0    0  501  0.00000000000E+00  0.00000000000E+00 -0.17129314942E+04  0.17129314943E+04  0.50400001928E-02 0. -1.
    10030    2    1    2    0    0  0.00000000000E+00  0.00000000000E+00 -0.47004056586E+03  0.29558224227E+04  0.29182097356E+04 0.  0.
        2    1    3    3  502    0 -0.78476808991E+03  0.13320671069E+03  0.10035992269E+04  0.12809435549E+04  0.25500000920E-02 0.  1.
       -2    1    3    3    0  502  0.78476808991E+03 -0.13320671069E+03 -0.14736397928E+04  0.16748788677E+04  0.25500000920E-02 0. -1.
</event>
<event>
 5   0  0.2360103E-06  0.2886040E+04  0.7818609E-02  0.8277043E-01
       -2   -1    0    0    0  501  0.00000000000E+00  0.00000000000E+00  0.73027598392E+03  0.73027598393E+03  0.25500000920E-02 0.  1.
        2   -1    0    0  501    0  0.00000000000E+00  0.00000000000E+00 -0.28513960239E+04  0.28513960239E+04  0.25500000920E-02 0. -1.
    10030    2    1    2    0    0  0.00000000000E+00  0.00000000000E+00 -0.21211200400E+04  0.35816720078E+04  0.28860395264E+04 0.  0.
        4    1    3    3  502    0  0.78535680271E+02  0.94061845703E+02  0.72380675713E+03  0.73410715734E+03  0.12699999809E+01 0.  1.
       -4    1    3    3    0  502 -0.78535680271E+02 -0.94061845703E+02 -0.28449267971E+04  0.28475648505E+04  0.12699999809E+01 0. -1.
</event>
<event>
 5   0  0.2304435E-06  0.2895697E+04  0.7818609E-02  0.8274159E-01
       -2   -1    0    0    0  501  0.00000000000E+00  0.00000000000E+00  0.10981399118E+04  0.10981399118E+04  0.25500000920E-02 0. -1.
        2   -1    0    0  501    0  0.00000000000E+00  0.00000000000E+00 -0.19089239739E+04  0.19089239739E+04  0.25500000920E-02 0.  1.
    10030    2    1    2    0    0  0.00000000000E+00  0.00000000000E+00 -0.81078406207E+03  0.30070638856E+04  0.28956972247E+04 0.  0.
        1    1    3    3  502    0 -0.76442110566E+03 -0.10232661643E+04 -0.11134144558E+04  0.16944335397E+04  0.50400001928E-02 0.  1.
       -1    1    3    3    0  502  0.76442110566E+03  0.10232661643E+04  0.30263039378E+03  0.13126303460E+04  0.50400001928E-02 0. -1.
</event>
<event>
 5   0  0.8483636E-07  0.2894686E+04  0.7818609E-02  0.8274460E-01
        1   -1    0    0  501    0  0.00000000000E+00  0.00000000000E+00  0.25898086975E+04  0.25898086975E+04  0.50400001928E-02 0. -1.
       -1   -1    0    0    0  501  0.00000000000E+00  0.00000000000E+00 -0.80886338967E+03  0.80886338969E+03  0.50400001928E-02 0.  1.
    10030    2    1    2    0    0  0.00000000000E+00  0.00000000000E+00  0.17809453078E+04  0.33986720872E+04  0.28946857803E+04 0.  0.
        2    1    3    3  502    0  0.12990832957E+03 -0.59159189793E+03  0.24338520768E+04  0.25080855407E+04  0.25500000920E-02 0. -1.
       -2    1    3    3    0  502 -0.12990832957E+03  0.59159189793E+03 -0.65290676897E+03  0.89058654648E+03  0.25500000920E-02 0.  1.
</event>
<event>
 5   0  0.2378690E-06  0.2896605E+04  0.7818609E-02  0.8273888E-01
        2   -1    0    0  501    0  0.00000000000E+00  0.00000000000E+00  0.13881531661E+04  0.13881531661E+04  0.25500000920E-02 0. -1.
       -2   -1    0    0    0  501  0.00000000000E+00  0.00000000000E+00 -0.15110581363E+04  0.15110581363E+04  0.25500000920E-02 0.  1.
    10030    2    1    2    0    0  0.00000000000E+00  0.00000000000E+00 -0.12290497029E+03  0.28992113024E+04  0.28966050031E+04 0.  0.
        3    1    3    3  502    0 -0.42630665774E+03  0.12590179336E+04  0.51414460711E+03  0.14252046207E+04  0.10100000352E+00 0.  1.
       -3    1    3    3    0  502  0.42630665774E+03 -0.12590179336E+04 -0.63704957740E+03  0.14740066817E+04  0.10100000352E+00 0. -1.
</event>
<event>
 5   0  0.2360103E-06  0.2884986E+04  0.7818609E-02  0.8277359E-01
        2   -1    0    0  501    0  0.00000000000E+00  0.00000000000E+00  0.20277916056E+04  0.20277916056E+04  0.25500000920E-02 0. -1.
       -2   -1    0    0    0  501  0.00000000000E+00  0.00000000000E+00 -0.10261342022E+04  0.10261342022E+04  0.25500000920E-02 0.  1.
    10030    2    1    2    0    0  0.00000000000E+00  0.00000000000E+00  0.10016574034E+04  0.30539258078E+04  0.28849861847E+04 0.  0.
        4    1    3    3  502    0  0.46003014764E+03 -0.13502540378E+04  0.72779258021E+03  0.16014048070E+04  0.12699999809E+01 0. -1.
       -4    1    3    3    0  502 -0.46003014764E+03  0.13502540378E+04  0.27386482317E+03  0.14525210007E+04  0.12699999809E+01 0.  1.
</event>
<event>
 5   0  0.8947674E-07  0.2890437E+04  0.7818609E-02  0.8275728E-01
        1   -1    0    0  501    0  0.00000000000E+00  0.00000000000E+00  0.12905421166E+04  0.12905421166E+04  0.50400001928E-02 0. -1.
       -1   -1    0    0    0  501  0.00000000000E+00  0.00000000000E+00 -0.16184335363E+04  0.16184335363E+04  0.50400001928E-02 0.  1.
    10030    2    1    2    0    0  0.00000000000E+00  0.00000000000E+00 -0.32789141968E+03  0.29089756529E+04  0.28904370891E+04 0.  0.
        3    1    3    3  502    0  0.66054235438E+03 -0.11697688266E+04 -0.70026257371E+03  0.15149399302E+04  0.10100000352E+00 0.  1.
       -3    1    3    3    0  502 -0.66054235438E+03  0.11697688266E+04  0.37237115402E+03  0.13940357227E+04  0.10100000352E+00 0. -1.
</event>
<event>
 5   0  0.8483636E-07  0.2899759E+04  0.7818609E-02  0.8272949E-01
       -1   -1    0    0    0  501  0.00000000000E+00  0.00000000000E+00  0.11557628490E+04  0.11557628490E+04  0.50400001928E-02 0.  1.
        1   -1    0    0  501    0  0.00000000000E+00  0.00000000000E+00 -0.18188429723E+04  0.18188429723E+04  0.50400001928E-02 0. -1.
    10030    2    1    2    0    0  0.00000000000E+00  0.00000000000E+00 -0.66308012331E+03  0.29746058214E+04  0.28997593939E+04 0.  0.
        2    1    3    3  502    0  0.11003373619E+04  0.92705674579E+03 -0.51496996023E+03  0.15281919316E+04  0.25500000920E-02 0. -1.
       -2    1    3    3    0  502 -0.11003373619E+04 -0.92705674579E+03 -0.14811016308E+03  0.14464138897E+04  0.25500000920E-02 0.  1.
</event>
<event>
 5   0  0.8263673E-07  0.2903225E+04  0.7818609E-02  0.8271919E-01
        1   -1    0    0  501    0  0.00000000000E+00  0.00000000000E+00  0.21741216640E+04  0.21741216640E+04  0.50400001928E-02 0. -1.
       -1   -1    0    0    0  501  0.00000000000E+00  0.00000000000E+00 -0.96920945184E+03  0.96920945185E+03  0.50400001928E-02 0.  1.
    10030    2    1    2    0    0  0.00000000000E+00  0.00000000000E+00  0.12049122121E+04  0.31433311158E+04  0.29032252866E+04 0.  0.
        5    1    3    3  502    0  0.74163581066E+03 -0.45339895408E+03  0.18611714404E+04  0.20541605360E+04  0.46999998093E+01 0. -1.
       -5    1    3    3    0  502 -0.74163581066E+03  0.45339895408E+03 -0.65625922827E+03  0.10891705798E+04  0.46999998093E+01 0.  1.
</event>
<event>
 5   0  0.2360103E-06  0.2910172E+04  0.7818609E-02  0.8269857E-01
        2   -1    0    0  501    0  0.00000000000E+00  0.00000000000E+00  0.15214182210E+04  0.15214182210E+04  0.25500000920E-02 0. -1.
       -2   -1    0    0    0  501  0.00000000000E+00  0.00000000000E+00 -0.13916462056E+04  0.13916462056E+04  0.25500000920E-02 0.  1.
    10030    2    1    2    0    0  0.00000000000E+00  0.00000000000E+00  0.12977201538E+03  0.29130644267E+04  0.29101724310E+04 0.  0.
        4    1    3    3  502    0  0.44195861236E+03  0.13089917075E+04 -0.39217214289E+03  0.14361710580E+04  0.12699999809E+01 0.  1.
       -4    1    3    3    0  502 -0.44195861236E+03 -0.13089917075E+04  0.52194415827E+03  0.14768933687E+04  0.12699999809E+01 0. -1.
</event>
<event>
 5   0  0.8357118E-07  0.2914405E+04  0.7818609E-02  0.8268604E-01
        1   -1    0    0  501    0  0.00000000000E+00  0.00000000000E+00  0.18771085593E+04  0.18771085593E+04  0.50400001928E-02 0. -1.
       -1   -1    0    0    0  501  0.00000000000E+00  0.00000000000E+00 -0.11312288978E+04  0.11312288978E+04  0.50400001928E-02 0.  1.
    10030    2    1    2    0    0  0.00000000000E+00  0.00000000000E+00  0.74587966144E+03  0.30083374571E+04  0.29144052200E+04 0.  0.
        1    1    3    3  502    0 -0.68720849342E+03 -0.61250561431E+03 -0.79307880869E+03  0.12150689848E+04  0.50400001928E-02 0.  1.
       -1    1    3    3    0  502  0.68720849342E+03  0.61250561431E+03  0.15389584701E+04  0.17932684723E+04  0.50400001928E-02 0. -1.
</event>
<event>
 5   0  0.8263673E-07  0.2904429E+04  0.7818609E-02  0.8271561E-01
        1   -1    0    0  501    0  0.00000000000E+00  0.00000000000E+00  0.21809263161E+04  0.21809263161E+04  0.50400001928E-02 0.  1.
       -1   -1    0    0    0  501  0.00000000000E+00  0.00000000000E+00 -0.96698692661E+03  0.96698692662E+03  0.50400001928E-02 0. -1.
    10030    2    1    2    0    0  0.00000000000E+00  0.00000000000E+00  0.12139393895E+04  0.31479132427E+04  0.29044291939E+04 0.  0.
        5    1    3    3  502    0  0.10523098387E+04 -0.75983705472E+03  0.13128737142E+04  0.18461765424E+04  0.46999998093E+01 0.  1.
       -5    1    3    3    0  502 -0.10523098387E+04  0.75983705472E+03 -0.98934324759E+02  0.13017367003E+04  0.46999998093E+01 0. -1.
</event>
<event>
 5   0  0.8357118E-07  0.2909179E+04  0.7818609E-02  0.8270152E-01
        1   -1    0    0  501    0  0.00000000000E+00  0.00000000000E+00  0.27708511416E+04  0.27708511416E+04  0.50400001928E-02 0. -1.
       -1   -1    0    0    0  501  0.00000000000E+00  0.00000000000E+00 -0.76360291794E+03  0.76360291796E+03  0.50400001928E-02 0.  1.
    10030    2    1    2    0    0  0.00000000000E+00  0.00000000000E+00  0.20072482237E+04  0.35344540596E+04  0.29091785899E+04 0.  0.
        1    1    3    3  502    0 -0.84858062295E+03  0.80037539546E+03  0.20593854277E+04  0.23668033689E+04  0.50400001928E-02 0. -1.
       -1    1    3    3    0  502  0.84858062295E+03 -0.80037539546E+03 -0.52137204038E+02  0.11676506906E+04  0.50400001928E-02 0.  1.
</event>
<event>
 5   0  0.8483636E-07  0.2913381E+04  0.7818609E-02  0.8268907E-01
       -1   -1    0    0    0  501  0.00000000000E+00  0.00000000000E+00  0.10883896517E+04  0.10883896517E+04  0.50400001928E-02 0. -1.
        1   -1    0    0  501    0  0.00000000000E+00  0.00000000000E+00 -0.19496208457E+04  0.19496208457E+04  0.50400001928E-02 0.  1.
    10030    2    1    2    0    0  0.00000000000E+00  0.00000000000E+00 -0.86123119397E+03  0.30380104974E+04  0.29133809591E+04 0.  0.
        2    1    3    3  502    0  0.59004870512E+02  0.80084161756E+03  0.83674333324E+03  0.11597276736E+04  0.25500000920E-02 0. -1.
       -2    1    3    3    0  502 -0.59004870512E+02 -0.80084161756E+03 -0.16979745272E+04  0.18782828238E+04  0.25500000920E-02 0.  1.
</event>
<event>
 5   0  0.2325590E-06  0.2893570E+04  0.7818609E-02  0.8274793E-01
       -2   -1    0    0    0  501  0.00000000000E+00  0.00000000000E+00  0.10988573297E+04  0.10988573297E+04  0.25500000920E-02 0. -1.
        2   -1    0    0  501    0  0.00000000000E+00  0.00000000000E+00 -0.19048753291E+04  0.19048753291E+04  0.25500000920E-02 0.  1.
    10030    2    1    2    0    0  0.00000000000E+00  0.00000000000E+00 -0.80601799938E+03  0.30037326588E+04  0.28935695724E+04 0.  0.
        5    1    3    3  502    0 -0.54616309550E+03  0.15211931179E+03  0.97873021159E+03  0.11310920957E+04  0.46999998093E+01 0. -1.
       -5    1    3    3    0  502  0.54616309550E+03 -0.15211931179E+03 -0.17847482110E+04  0.18726405631E+04  0.46999998093E+01 0.  1.
</event>
<event>
 5   0  0.2360103E-06  0.2886093E+04  0.7818609E-02  0.8277027E-01
        2   -1    0    0  501    0  0.00000000000E+00  0.00000000000E+00  0.12443618118E+04  0.12443618118E+04  0.25500000920E-02 0. -1.
       -2   -1    0    0    0  501  0.00000000000E+00  0.00000000000E+00 -0.16734546175E+04  0.16734546175E+04  0.25500000920E-02 0.  1.
    10030    2    1    2    0    0  0.00000000000E+00  0.00000000000E+00 -0.42909280571E+03  0.29178164293E+04  0.28860928744E+04 0.  0.
        4    1    3    3  502    0  0.86313705079E+03 -0.99495598505E+03  0.38137171201E+03  0.13712727578E+04  0.12699999809E+01 0. -1.
       -4    1    3    3    0  502 -0.86313705079E+03  0.99495598505E+03 -0.81046451772E+03  0.15465436716E+04  0.12699999809E+01 0.  1.
</event>
<event>
 5   0  0.8947674E-07  0.2898550E+04  0.7818609E-02  0.8273309E-01
        1   -1    0    0  501    0  0.00000000000E+00  0.00000000000E+00  0.29917576620E+04  0.29917576620E+04  0.50400001928E-02 0. -1.
       -1   -1    0    0    0  501  0.00000000000E+00  0.00000000000E+00 -0.70206161581E+03  0.70206161583E+03  0.50400001928E-02 0.  1.
    10030    2    1    2    0    0  0.00000000000E+00  0.00000000000E+00  0.22896960462E+04  0.36938192779E+04  0.28985501330E+04 0.  0.
        3    1    3    3  502    0  0.86893587981E+03 -0.74973464340E+03  0.17016863601E+02  0.11477984068E+04  0.10100000352E+00 0.  1.
       -3    1    3    3    0  502 -0.86893587981E+03  0.74973464340E+03  0.22726791826E+04  0.25460208711E+04  0.10100000352E+00 0. -1.
</event>
<event>
 5   0  0.8483636E-07  0.2912995E+04  0.7818609E-02  0.8269021E-01
       -1   -1    0    0    0  501  0.00000000000E+00  0.00000000000E+00  0.13131136536E+04  0.13131136536E+04  0.50400001928E-02 0.  1.
        1   -1    0    0  501    0  0.00000000000E+00  0.00000000000E+00 -0.16155384136E+04  0.16155384136E+04  0.50400001928E-02 0. -1.
    10030    2    1    2    0    0  0.00000000000E+00  0.00000000000E+00 -0.30242475999E+03  0.29286520672E+04  0.29129953992E+04 0.  0.
        2    1    3    3  502    0 -0.11982623500E+04  0.53888503660E+03 -0.78320522964E+03  0.15295882367E+04  0.25500000920E-02 0. -1.
       -2    1    3    3    0  502  0.11982623500E+04 -0.53888503660E+03  0.48078046966E+03  0.13990638306E+04  0.25500000920E-02 0.  1.
</event>
<event>
 5   0  0.2360103E-06  0.2901909E+04  0.7818609E-02  0.8272310E-01
        2   -1    0    0  501    0  0.00000000000E+00  0.00000000000E+00  0.89028421860E+03  0.89028421861E+03  0.25500000920E-02 0.  1.
       -2   -1    0    0    0  501  0.00000000000E+00  0.00000000000E+00 -0.23647148656E+04  0.23647148656E+04  0.25500000920E-02 0. -1.
    10030    2    1    2    0    0  0.00000000000E+00  0.00000000000E+00 -0.14744306469E+04  0.32549990842E+04  0.29019085625E+04 0.  0.
        4    1    3    3  502    0  0.13969753924E+04 -0.15788721581E+03 -0.33466343893E+03  0.14451539192E+04  0.12699999809E+01 0.  1.
       -4    1    3    3    0  502 -0.13969753924E+04  0.15788721581E+03 -0.11397672080E+04  0.18098451650E+04  0.12699999809E+01 0. -1.
</event>
<event>
 5   0  0.8357118E-07  0.2896002E+04  0.7818609E-02  0.8274068E-01
        1   -1    0    0  501    0  0.00000000000E+00  0.00000000000E+00  0.25623491664E+04  0.25623491664E+04  0.50400001928E-02 0. -1.
       -1   -1    0    0    0  501  0.00000000000E+00  0.00000000000E+00 -0.81827523192E+03  0.81827523194E+03  0.50400001928E-02 0.  1.
    10030    2    1    2    0    0  0.00000000000E+00  0.00000000000E+00  0.17440739345E+04  0.33806243983E+04  0.28960019741E+04 0.  0.
        1    1    3    3  502    0  0.92827426998E+03 -0.10875488463E+04  0.11388741763E+04  0.18279742894E+04  0.50400001928E-02 0. -1.
       -1    1    3    3    0  502 -0.92827426998E+03  0.10875488463E+04  0.60519975817E+03  0.15526501089E+04  0.50400001928E-02 0.  1.
</event>
<event>
 5   0  0.2304435E-06  0.2942719E+04  0.7818609E-02  0.8260280E-01
        2   -1    0    0  501    0  0.00000000000E+00  0.00000000000E+00  0.31775720795E+04  0.31775720795E+04  0.25500000920E-02 0. -1.
       -2   -1    0    0    0  501  0.00000000000E+00  0.00000000000E+00 -0.68130588501E+03  0.68130588502E+03  0.25500000920E-02 0.  1.
    10030    2    1    2    0    0  0.00000000000E+00  0.00000000000E+00  0.24962661945E+04  0.38588779645E+04  0.29427188502E+04 0.  0.
        1    1    3    3  502    0 -0.37082025335E+02 -0.52765228876E+03  0.30485796085E+04  0.30941282526E+04  0.50400001928E-02 0. -1.
       -1    1    3    3    0  502  0.37082025335E+02  0.52765228876E+03 -0.55231341403E+03  0.76474971185E+03  0.50400001928E-02 0.  1.
</event>
<event>
 5   0  0.8357118E-07  0.2912480E+04  0.7818609E-02  0.8269174E-01
       -1   -1    0    0    0  501  0.00000000000E+00  0.00000000000E+00  0.16276772613E+04  0.16276772613E+04  0.50400001928E-02 0.  1.
        1   -1    0    0  501    0  0.00000000000E+00  0.00000000000E+00 -0.13028600158E+04  0.13028600158E+04  0.50400001928E-02 0. -1.
    10030    2    1    2    0    0  0.00000000000E+00  0.00000000000E+00  0.32481724546E+03  0.29305372771E+04  0.29124804702E+04 0.  0.
        1    1    3    3  502    0 -0.27674115618E+03  0.96339248794E+03 -0.90051413666E+03  0.13474555517E+04  0.50400001928E-02 0. -1.
       -1    1    3    3    0  502  0.27674115618E+03 -0.96339248794E+03  0.12253313821E+04  0.15830817254E+04  0.50400001928E-02 0.  1.
</event>
<event>
 5   0  0.8357118E-07  0.2908878E+04  0.7818609E-02  0.8270241E-01
        1   -1    0    0  501    0  0.00000000000E+00  0.00000000000E+00  0.20032846152E+04  0.20032846152E+04  0.50400001928E-02 0.  1.
       -1   -1    0    0    0  501  0.00000000000E+00  0.00000000000E+00 -0.10559624271E+04  0.10559624271E+04  0.50400001928E-02 0. -1.
    10030    2    1    2    0    0  0.00000000000E+00  0.00000000000E+00  0.94732218818E+03  0.30592470423E+04  0.29088783298E+04 0.  0.
        1    1    3    3  502    0  0.13796454828E+04  0.42204466074E+03  0.66715526375E+03  0.15895406569E+04  0.50400001928E-02 0. -1.
       -1    1    3    3    0  502 -0.13796454828E+04 -0.42204466074E+03  0.28016692443E+03  0.14697063854E+04  0.50400001928E-02 0.  1.
</event>
<event>
 5   0  0.2325590E-06  0.2882260E+04  0.7818609E-02  0.8278175E-01
       -2   -1    0    0    0  501  0.00000000000E+00  0.00000000000E+00  0.25016849226E+04  0.25016849226E+04  0.25500000920E-02 0.  1.
        2   -1    0    0  501    0  0.00000000000E+00  0.00000000000E+00 -0.83018287842E+03  0.83018287843E+03  0.25500000920E-02 0. -1.
    10030    2    1    2    0    0  0.00000000000E+00  0.00000000000E+00  0.16715020442E+04  0.33318678010E+04  0.28822602172E+04 0.  0.
        5    1    3    3  502    0 -0.51919509923E+03 -0.13414593275E+04  0.73393698244E+03  0.16148567313E+04  0.46999998093E+01 0.  1.
       -5    1    3    3    0  502  0.51919509923E+03  0.13414593275E+04  0.93756506175E+03  0.17170110697E+04  0.46999998093E+01 0. -1.
</event>
<event>
 5   0  0.7621125E-07  0.2905274E+04  0.7818609E-02  0.8271310E-01
       -3   -1    0    0    0  501  0.00000000000E+00  0.00000000000E+00  0.11708547448E+04  0.11708547491E+04  0.10100000352E+00 0.  1.
        3   -1    0    0  501    0  0.00000000000E+00  0.00000000000E+00 -0.18022345127E+04  0.18022345155E+04  0.10100000352E+00 0. -1.
    10030    2    1    2    0    0  0.00000000000E+00  0.00000000000E+00 -0.63137976787E+03  0.29730892646E+04  0.29052744043E+04 0.  0.
        2    1    3    3  502    0  0.17847847931E+03 -0.50524853627E+03  0.10660204525E+04  0.11931178719E+04  0.25500000920E-02 0.  1.
       -2    1    3    3    0  502 -0.17847847931E+03  0.50524853627E+03 -0.16974002204E+04  0.17799713928E+04  0.25500000920E-02 0. -1.
</event>
<event>
 5   0  0.2378690E-06  0.2902274E+04  0.7818609E-02  0.8272201E-01
        2   -1    0    0  501    0  0.00000000000E+00  0.00000000000E+00  0.13843870340E+04  0.13843870340E+04  0.25500000920E-02 0.  1.
       -2   -1    0    0    0  501  0.00000000000E+00  0.00000000000E+00 -0.15211052741E+04  0.15211052741E+04  0.25500000920E-02 0. -1.
    10030    2    1    2    0    0  0.00000000000E+00  0.00000000000E+00 -0.13671824005E+03  0.29054923081E+04  0.29022738801E+04 0.  0.
        3    1    3    3  502    0  0.11952382340E+04  0.68999382058E+03  0.38059387087E+03  0.14316206248E+04  0.10100000352E+00 0.  1.
       -3    1    3    3    0  502 -0.11952382340E+04 -0.68999382058E+03 -0.51731211092E+03  0.14738716833E+04  0.10100000352E+00 0. -1.
</event>
<event>
 5   0  0.2360103E-06  0.2909109E+04  0.7818609E-02  0.8270172E-01
       -2   -1    0    0    0  501  0.00000000000E+00  0.00000000000E+00  0.14620588356E+04  0.14620588356E+04  0.25500000920E-02 0. -1.
        2   -1    0    0  501    0  0.00000000000E+00  0.00000000000E+00 -0.14470890418E+04  0.14470890418E+04  0.25500000920E-02 0.  1.
    10030    2    1    2    0    0  0.00000000000E+00  0.00000000000E+00  0.14969793763E+02  0.29091478773E+04  0.29091093616E+04 0.  0.
        4    1    3    3  502    0 -0.51115220054E+03  0.13393915167E+04  0.25341801950E+03  0.14558394529E+04  0.12699999809E+01 0. -1.
       -4    1    3    3    0  502  0.51115220054E+03 -0.13393915167E+04 -0.23844822574E+03  0.14533084244E+04  0.12699999809E+01 0.  1.
</event>
<event>
 5   0  0.2378690E-06  0.2899852E+04  0.7818609E-02  0.8272921E-01
       -2   -1    0    0    0  501  0.00000000000E+00  0.00000000000E+00  0.26785132316E+04  0.26785132316E+04  0.25500000920E-02 0. -1.
        2   -1    0    0  501    0  0.00000000000E+00  0.00000000000E+00 -0.78487029289E+03  0.78487029289E+03  0.25500000920E-02 0.  1.
    10030    2    1    2    0    0  0.00000000000E+00  0.00000000000E+00  0.18936429387E+04  0.34633835245E+04  0.28998520408E+04 0.  0.
        3    1    3    3  502    0  0.26711989605E+03 -0.93107925289E+02  0.26452356240E+04  0.26603183345E+04  0.10100000352E+00 0. -1.
       -3    1    3    3    0  502 -0.26711989605E+03  0.93107925289E+02 -0.75159268524E+03  0.80306518996E+03  0.10100000352E+00 0.  1.
</event>
<event>
 5   0  0.2304435E-06  0.2902984E+04  0.7818609E-02  0.8271990E-01
       -2   -1    0    0    0  501  0.00000000000E+00  0.00000000000E+00  0.11924764094E+04  0.11924764094E+04  0.25500000920E-02 0.  1.
        2   -1    0    0  501    0  0.00000000000E+00  0.00000000000E+00 -0.17667675526E+04  0.17667675526E+04  0.25500000920E-02 0. -1.
    10030    2    1    2    0    0  0.00000000000E+00  0.00000000000E+00 -0.57429114323E+03  0.29592439620E+04  0.29029837253E+04 0.  0.
        1    1    3    3  502    0 -0.24372442541E+03 -0.12218552978E+03 -0.17404319518E+04  0.17616566856E+04  0.50400001928E-02 0. -1.
       -1    1    3    3    0  502  0.24372442541E+03  0.12218552978E+03  0.11661408085E+04  0.11975872764E+04  0.50400001928E-02 0.  1.
</event>
<event>
 5   0  0.8483636E-07  0.2877860E+04  0.7818609E-02  0.8279495E-01
       -1   -1    0    0    0  501  0.00000000000E+00  0.00000000000E+00  0.10551270262E+04  0.10551270262E+04  0.50400001928E-02 0.  1.
        1   -1    0    0  501    0  0.00000000000E+00  0.00000000000E+00 -0.19623411701E+04  0.19623411701E+04  0.50400001928E-02 0. -1.
    10030    2    1    2    0    0  0.00000000000E+00  0.00000000000E+00 -0.90721414391E+03  0.30174681963E+04  0.28778597626E+04 0.  0.
        2    1    3    3  502    0 -0.53931760297E+03  0.13042641818E+04 -0.15974196456E+03  0.14203823528E+04  0.25500000920E-02 0.  1.
       -2    1    3    3    0  502  0.53931760297E+03 -0.13042641818E+04 -0.74747217934E+03  0.15970858436E+04  0.25500000920E-02 0. -1.
</event>
<event>
 5   0  0.8355946E-07  0.2858546E+04  0.7818609E-02  0.8285319E-01
        1   -1    0    0  501    0  0.00000000000E+00  0.00000000000E+00  0.23075238093E+04  0.23075238093E+04  0.50400001928E-02 0. -1.
       -1   -1    0    0    0  501  0.00000000000E+00  0.00000000000E+00 -0.88528695946E+03  0.88528695948E+03  0.50400001928E-02 0.  1.
    10030    2    1    2    0    0  0.00000000000E+00  0.00000000000E+00  0.14222368499E+04  0.31928107688E+04  0.28585456002E+04 0.  0.
        4    1    3    3  502    0  0.94284068006E+03  0.10652926809E+04  0.55707007157E+03  0.15277845795E+04  0.12699999809E+01 0. -1.
       -4    1    3    3    0  502 -0.94284068006E+03 -0.10652926809E+04  0.86516677830E+03  0.16650261893E+04  0.12699999809E+01 0.  1.
</event>
<event>
 5   0  0.2325590E-06  0.2913545E+04  0.7818609E-02  0.8268859E-01
        2   -1    0    0  501    0  0.00000000000E+00  0.00000000000E+00  0.18145011696E+04  0.18145011696E+04  0.25500000920E-02 0.  1.
       -2   -1    0    0    0  501  0.00000000000E+00  0.00000000000E+00 -0.11695699348E+04  0.11695699348E+04  0.25500000920E-02 0. -1.
    10030    2    1    2    0    0  0.00000000000E+00  0.00000000000E+00  0.64493123477E+03  0.29840711043E+04  0.29135449298E+04 0.  0.
        5    1    3    3  502    0 -0.88134835683E+03 -0.11586869000E+04  0.26794487171E+03  0.14802522767E+04  0.46999998093E+01 0. -1.
       -5    1    3    3    0  502  0.88134835683E+03  0.11586869000E+04  0.37698636306E+03  0.15038188276E+04  0.46999998093E+01 0.  1.
</event>
<event>
 5   0  0.8357118E-07  0.2950535E+04  0.7818609E-02  0.8257999E-01
        1   -1    0    0  501    0  0.00000000000E+00  0.00000000000E+00  0.13360136595E+04  0.13360136596E+04  0.50400001928E-02 0.  1.
       -1   -1    0    0    0  501  0.00000000000E+00  0.00000000000E+00 -0.16290364254E+04  0.16290364255E+04  0.50400001928E-02 0. -1.
    10030    2    1    2    0    0  0.00000000000E+00  0.00000000000E+00 -0.29302276590E+03  0.29650500850E+04  0.29505354879E+04 0.  0.
        1    1    3    3  502    0 -0.28017399456E+02 -0.73157441256E+03 -0.14336042593E+04  0.16097227302E+04  0.50400001928E-02 0. -1.
       -1    1    3    3    0  502  0.28017399456E+02  0.73157441256E+03  0.11405814934E+04  0.13553273549E+04  0.50400001928E-02 0.  1.
</event>
<event>
 5   0  0.8355946E-07  0.2896867E+04  0.7818609E-02  0.8273810E-01
       -1   -1    0    0    0  501  0.00000000000E+00  0.00000000000E+00  0.13012651839E+04  0.13012651839E+04  0.50400001928E-02 0.  1.
        1   -1    0    0  501    0  0.00000000000E+00  0.00000000000E+00 -0.16122458069E+04  0.16122458069E+04  0.50400001928E-02 0. -1.
    10030    2    1    2    0    0  0.00000000000E+00  0.00000000000E+00 -0.31098062293E+03  0.29135109908E+04  0.28968668153E+04 0.  0.
        4    1    3    3  502    0 -0.71921757251E+03  0.90981139787E+03  0.71720888367E+03  0.13636058419E+04  0.12699999809E+01 0.  1.
       -4    1    3    3    0  502  0.71921757251E+03 -0.90981139787E+03 -0.10281895066E+04  0.15499051489E+04  0.12699999809E+01 0. -1.
</event>
<event>
 5   0  0.8263673E-07  0.2899418E+04  0.7818609E-02  0.8273051E-01
        1   -1    0    0  501    0  0.00000000000E+00  0.00000000000E+00  0.14598301785E+04  0.14598301786E+04  0.50400001928E-02 0.  1.
       -1   -1    0    0    0  501  0.00000000000E+00  0.00000000000E+00 -0.14396579209E+04  0.14396579209E+04  0.50400001928E-02 0. -1.
    10030    2    1    2    0    0  0.00000000000E+00  0.00000000000E+00  0.20172257684E+02  0.28994880994E+04  0.28994179276E+04 0.  0.
        5    1    3    3  502    0 -0.10060862654E+04  0.42670744825E+03  0.96265585839E+03  0.14563712478E+04  0.46999998093E+01 0.  1.
       -5    1    3    3    0  502  0.10060862654E+04 -0.42670744825E+03 -0.94248360071E+03  0.14431168516E+04  0.46999998093E+01 0. -1.
</event>
<event>
 5   0  0.2360103E-06  0.2892013E+04  0.7818609E-02  0.8275258E-01
        2   -1    0    0  501    0  0.00000000000E+00  0.00000000000E+00  0.12041410934E+04  0.12041410934E+04  0.25500000920E-02 0. -1.
       -2   -1    0    0    0  501  0.00000000000E+00  0.00000000000E+00 -0.17364538827E+04  0.17364538827E+04  0.25500000920E-02 0.  1.
    10030    2    1    2    0    0  0.00000000000E+00  0.00000000000E+00 -0.53231278936E+03  0.29405949761E+04  0.28920134695E+04 0.  0.
        4    1    3    3  502    0 -0.10249729744E+04  0.45234919540E+03  0.66339125195E+03  0.13020287858E+04  0.12699999809E+01 0. -1.
       -4    1    3    3    0  502  0.10249729744E+04 -0.45234919540E+03 -0.11957040413E+04  0.16385661903E+04  0.12699999809E+01 0.  1.
</event>
<event>
 5   0  0.8357118E-07  0.2894551E+04  0.7818609E-02  0.8274501E-01
        1   -1    0    0  501    0  0.00000000000E+00  0.00000000000E+00  0.18149959494E+04  0.18149959494E+04  0.50400001928E-02 0.  1.
       -1   -1    0    0    0  501  0.00000000000E+00  0.00000000000E+00 -0.11540556728E+04  0.11540556728E+04  0.50400001928E-02 0. -1.
    10030    2    1    2    0    0  0.00000000000E+00  0.00000000000E+00  0.66094027660E+03  0.29690516222E+04  0.28945509990E+04 0.  0.
        1    1    3    3  502    0 -0.84610860859E+03 -0.26389050946E+03  0.15040636812E+04  0.17457793491E+04  0.50400001928E-02 0.  1.
       -1    1    3    3    0  502  0.84610860859E+03  0.26389050946E+03 -0.84312340464E+03  0.12232722730E+04  0.50400001928E-02 0. -1.
</event>
<event>
 5   0  0.2425845E-06  0.2843443E+04  0.7818609E-02  0.8289907E-01
       -2   -1    0    0    0  501  0.00000000000E+00  0.00000000000E+00  0.18098812643E+04  0.18098812643E+04  0.25500000920E-02 0. -1.
        2   -1    0    0  501    0  0.00000000000E+00  0.00000000000E+00 -0.11168089995E+04  0.11168089995E+04  0.25500000920E-02 0.  1.
    10030    2    1    2    0    0  0.00000000000E+00  0.00000000000E+00  0.69307226481E+03  0.29266902638E+04  0.28434427612E+04 0.  0.
        2    1    3    3  502    0  0.12644756679E+04 -0.52803088923E+03 -0.43472056258E+02  0.13709869272E+04  0.25500000920E-02 0.  1.
       -2    1    3    3    0  502 -0.12644756679E+04  0.52803088923E+03  0.73654432107E+03  0.15557033367E+04  0.25500000920E-02 0. -1.
</event>
<event>
 5   0  0.2325590E-06  0.2904582E+04  0.7818609E-02  0.8271516E-01
       -2   -1    0    0    0  501  0.00000000000E+00  0.00000000000E+00  0.10669934389E+04  0.10669934389E+04  0.25500000920E-02 0.  1.
        2   -1    0    0  501    0  0.00000000000E+00  0.00000000000E+00 -0.19767212497E+04  0.19767212497E+04  0.25500000920E-02 0. -1.
    10030    2    1    2    0    0  0.00000000000E+00  0.00000000000E+00 -0.90972781083E+03  0.30437146885E+04  0.29045816249E+04 0.  0.
        5    1    3    3  502    0 -0.50998264712E+03 -0.10530997796E+04 -0.13563179056E+04  0.17912905396E+04  0.46999998093E+01 0. -1.
       -5    1    3    3    0  502  0.50998264712E+03  0.10530997796E+04  0.44659009476E+03  0.12524241490E+04  0.46999998093E+01 0.  1.
</event>
<event>
 5   0  0.8947674E-07  0.2886327E+04  0.7818609E-02  0.8276957E-01
        1   -1    0    0  501    0  0.00000000000E+00  0.00000000000E+00  0.11605475919E+04  0.11605475919E+04  0.50400001928E-02 0.  1.
       -1   -1    0    0    0  501  0.00000000000E+00  0.00000000000E+00 -0.17946017901E+04  0.17946017902E+04  0.50400001928E-02 0. -1.
    10030    2    1    2    0    0  0.00000000000E+00  0.00000000000E+00 -0.63405419828E+03  0.29551493820E+04  0.28863269295E+04 0.  0.
        3    1    3    3  502    0 -0.10116677600E+04  0.25351020822E+03 -0.13382991884E+04  0.16966979136E+04  0.10100000352E+00 0. -1.
       -3    1    3    3    0  502  0.10116677600E+04 -0.25351020822E+03  0.70424499008E+03  0.12584514685E+04  0.10100000352E+00 0.  1.
</event>
<event>
 5   0  0.8263673E-07  0.2899356E+04  0.7818609E-02  0.8273069E-01
       -1   -1    0    0    0  501  0.00000000000E+00  0.00000000000E+00  0.10278252203E+04  0.10278252204E+04  0.50400001928E-02 0.  1.
        1   -1    0    0  501    0  0.00000000000E+00  0.00000000000E+00 -0.20446733631E+04  0.20446733631E+04  0.50400001928E-02 0. -1.
    10030    2    1    2    0    0  0.00000000000E+00  0.00000000000E+00 -0.10168481428E+04  0.30724985834E+04  0.28993563768E+04 0.  0.
        5    1    3    3  502    0 -0.12411061158E+04  0.26230995127E+03 -0.12520360976E+04  0.17823488381E+04  0.46999998093E+01 0. -1.
       -5    1    3    3    0  502  0.12411061158E+04 -0.26230995127E+03  0.23518795480E+03  0.12901497453E+04  0.46999998093E+01 0.  1.
</event>
<event>
 5   0  0.2425845E-06  0.2913993E+04  0.7818609E-02  0.8268726E-01
       -2   -1    0    0    0  501  0.00000000000E+00  0.00000000000E+00  0.10453386736E+04  0.10453386736E+04  0.25500000920E-02 0. -1.
        2   -1    0    0  501    0  0.00000000000E+00  0.00000000000E+00 -0.20307664056E+04  0.20307664056E+04  0.25500000920E-02 0.  1.
    10030    2    1    2    0    0  0.00000000000E+00  0.00000000000E+00 -0.98542773204E+03  0.30761050792E+04  0.29139929038E+04 0.  0.
        2    1    3    3  502    0 -0.91918632670E+02 -0.32191544250E+03 -0.19896139183E+04  0.20175832402E+04  0.25500000920E-02 0.  1.
       -2    1    3    3    0  502  0.91918632670E+02  0.32191544250E+03  0.10041861862E+04  0.10585218391E+04  0.25500000920E-02 0. -1.
</event>
<event>
 5   0  0.8355946E-07  0.2900617E+04  0.7818609E-02  0.8272694E-01
       -1   -1    0    0    0  501  0.00000000000E+00  0.00000000000E+00  0.15198242040E+04  0.15198242040E+04  0.50400001928E-02 0.  1.
        1   -1    0    0  501    0  0.00000000000E+00  0.00000000000E+00 -0.13839726377E+04  0.13839726377E+04  0.50400001928E-02 0. -1.
    10030    2    1    2    0    0  0.00000000000E+00  0.00000000000E+00  0.13585156636E+03  0.29037968417E+04  0.29006172532E+04 0.  0.
        4    1    3    3  502    0  0.32175429185E+03 -0.92957557851E+03  0.11348129674E+04  0.15018117939E+04  0.12699999809E+01 0.  1.
       -4    1    3    3    0  502 -0.32175429185E+03  0.92957557851E+03 -0.99896140105E+03  0.14019850478E+04  0.12699999809E+01 0. -1.
</event>
<event>
 5   0  0.2378690E-06  0.2889865E+04  0.7818609E-02  0.8275899E-01
       -2   -1    0    0    0  501  0.00000000000E+00  0.00000000000E+00  0.14368610592E+04  0.14368610592E+04  0.25500000920E-02 0. -1.
        2   -1    0    0  501    0  0.00000000000E+00  0.00000000000E+00 -0.14530489964E+04  0.14530489964E+04  0.25500000920E-02 0.  1.
    10030    2    1    2    0    0  0.00000000000E+00  0.00000000000E+00 -0.16187937143E+02  0.28899100556E+04  0.28898647166E+04 0.  0.
        3    1    3    3  502    0  0.58221656428E+03  0.81981065890E+03 -0.10457825792E+04  0.14507676786E+04  0.10100000352E+00 0.  1.
       -3    1    3    3    0  502 -0.58221656428E+03 -0.81981065890E+03  0.10295946420E+04  0.14391423770E+04  0.10100000352E+00 0. -1.
</event>
<event>
 5   0  0.2325590E-06  0.2898839E+04  0.7818609E-02  0.8273223E-01
        2   -1    0    0  501    0  0.00000000000E+00  0.00000000000E+00  0.73646093266E+03  0.73646093267E+03  0.25500000920E-02 0. -1.
       -2   -1    0    0    0  501  0.00000000000E+00  0.00000000000E+00 -0.28525840956E+04  0.28525840956E+04  0.25500000920E-02 0.  1.
    10030    2    1    2    0    0  0.00000000000E+00  0.00000000000E+00 -0.21161231629E+04  0.35890450283E+04  0.28988389010E+04 0.  0.
        5    1    3    3  502    0  0.11360233464E+04 -0.77815460694E+03 -0.49787069111E+03  0.14642304979E+04  0.46999998093E+01 0. -1.
       -5    1    3    3    0  502 -0.11360233464E+04  0.77815460694E+03 -0.16182524718E+04  0.21248145304E+04  0.46999998093E+01 0.  1.
</event>
<event>
 5   0  0.2304435E-06  0.2926912E+04  0.7818609E-02  0.8264915E-01
       -2   -1    0    0    0  501  0.00000000000E+00  0.00000000000E+00  0.22598180057E+04  0.22598180057E+04  0.25500000920E-02 0. -1.
        2   -1    0    0  501    0  0.00000000000E+00  0.00000000000E+00 -0.94773259137E+03  0.94773259137E+03  0.25500000920E-02 0.  1.
    10030    2    1    2    0    0  0.00000000000E+00  0.00000000000E+00  0.13120854143E+04  0.32075505970E+04  0.29269118022E+04 0.  0.
        1    1    3    3  502    0  0.17717498808E+03  0.51785767321E+03  0.21434321035E+04  0.22122090156E+04  0.50400001928E-02 0. -1.
       -1    1    3    3    0  502 -0.17717498808E+03 -0.51785767321E+03 -0.83134668922E+03  0.99534158147E+03  0.50400001928E-02 0.  1.
</event>
<event>
 5   0  0.8357118E-07  0.2899063E+04  0.7818609E-02  0.8273156E-01
       -1   -1    0    0    0  501  0.00000000000E+00  0.00000000000E+00  0.92085908862E+03  0.92085908863E+03  0.50400001928E-02 0. -1.
        1   -1    0    0  501    0  0.00000000000E+00  0.00000000000E+00 -0.22817190728E+04  0.22817190728E+04  0.50400001928E-02 0.  1.
    10030    2    1    2    0    0  0.00000000000E+00  0.00000000000E+00 -0.13608599842E+04  0.32025781614E+04  0.28990631217E+04 0.  0.
        1    1    3    3  502    0 -0.35499252589E+03  0.18631665401E+03  0.85839280726E+03  0.94740266021E+03  0.50400001928E-02 0. -1.
       -1    1    3    3    0  502  0.35499252589E+03 -0.18631665401E+03 -0.22192527914E+04  0.22551755012E+04  0.50400001928E-02 0.  1.
</event>
<event>
 5   0  0.2304435E-06  0.2904985E+04  0.7818609E-02  0.8271396E-01
        2   -1    0    0  501    0  0.00000000000E+00  0.00000000000E+00  0.21222537456E+04  0.21222537456E+04  0.25500000920E-02 0.  1.
       -2   -1    0    0    0  501  0.00000000000E+00  0.00000000000E+00 -0.99410117269E+03  0.99410117269E+03  0.25500000920E-02 0. -1.
    10030    2    1    2    0    0  0.00000000000E+00  0.00000000000E+00  0.11281525729E+04  0.31163549183E+04  0.29049853268E+04 0.  0.
        1    1    3    3  502    0 -0.62068815226E+03  0.60621151363E+03 -0.68558148555E+03  0.11057884766E+04  0.50400001928E-02 0. -1.
       -1    1    3    3    0  502  0.62068815226E+03 -0.60621151363E+03  0.18137340584E+04  0.20105664417E+04  0.50400001928E-02 0.  1.
</event>
<event>
 5   0  0.8357118E-07  0.2893911E+04  0.7818609E-02  0.8274691E-01
       -1   -1    0    0    0  501  0.00000000000E+00  0.00000000000E+00  0.89406450507E+03  0.89406450509E+03  0.50400001928E-02 0.  1.
        1   -1    0    0  501    0  0.00000000000E+00  0.00000000000E+00 -0.23417559880E+04  0.23417559880E+04  0.50400001928E-02 0. -1.
    10030    2    1    2    0    0  0.00000000000E+00  0.00000000000E+00 -0.14476914830E+04  0.32358204931E+04  0.28939114765E+04 0.  0.
        1    1    3    3  502    0 -0.10557521950E+04 -0.96162064313E+03 -0.98452995606E+03  0.17345391875E+04  0.50400001928E-02 0. -1.
       -1    1    3    3    0  502  0.10557521950E+04  0.96162064313E+03 -0.46316152690E+03  0.15012813056E+04  0.50400001928E-02 0.  1.
</event>
<event>
 5   0  0.2360103E-06  0.2889956E+04  0.7818609E-02  0.8275872E-01
       -2   -1    0    0    0  501  0.00000000000E+00  0.00000000000E+00  0.12377385723E+04  0.12377385723E+04  0.25500000920E-02 0.  1.
        2   -1    0    0  501    0  0.00000000000E+00  0.00000000000E+00 -0.16869168334E+04  0.16869168334E+04  0.25500000920E-02 0. -1.
    10030    2    1    2    0    0  0.00000000000E+00  0.00000000000E+00 -0.44917826109E+03  0.29246554057E+04  0.28899564239E+04 0.  0.
        4    1    3    3  502    0 -0.11190948733E+04 -0.71119213737E+02 -0.11468650020E+04  0.16039738850E+04  0.12699999809E+01 0. -1.
       -4    1    3    3    0  502  0.11190948733E+04  0.71119213737E+02  0.69768674092E+03  0.13206815208E+04  0.12699999809E+01 0.  1.
</event>
<event>
 5   0  0.8357118E-07  0.2911554E+04  0.7818609E-02  0.8269448E-01
        1   -1    0    0  501    0  0.00000000000E+00  0.00000000000E+00  0.12134470658E+04  0.12134470658E+04  0.50400001928E-02 0.  1.
       -1   -1    0    0    0  501  0.00000000000E+00  0.00000000000E+00 -0.17465007346E+04  0.17465007346E+04  0.50400001928E-02 0. -1.
    10030    2    1    2    0    0  0.00000000000E+00  0.00000000000E+00 -0.53305366883E+03  0.29599478004E+04  0.29115536690E+04 0.  0.
        1    1    3    3  502    0  0.50220753500E+03 -0.72496615440E+03  0.91095507696E+03  0.12679225077E+04  0.50400001928E-02 0.  1.
       -1    1    3    3    0  502 -0.50220753500E+03  0.72496615440E+03 -0.14440087458E+04  0.16920252927E+04  0.50400001928E-02 0. -1.
</event>
<event>
 5   0  0.2325590E-06  0.2899368E+04  0.7818609E-02  0.8273065E-01
        2   -1    0    0  501    0  0.00000000000E+00  0.00000000000E+00  0.23566322571E+04  0.23566322571E+04  0.25500000920E-02 0. -1.
       -2   -1    0    0    0  501  0.00000000000E+00  0.00000000000E+00 -0.89177427820E+03  0.89177427820E+03  0.25500000920E-02 0.  1.
    10030    2    1    2    0    0  0.00000000000E+00  0.00000000000E+00  0.14648579789E+04  0.32484065353E+04  0.28993682278E+04 0.  0.
        5    1    3    3  502    0 -0.13316389844E+04 -0.57260881834E+03  0.70950360287E+03  0.16138651418E+04  0.46999998093E+01 0.  1.
       -5    1    3    3    0  502  0.13316389844E+04  0.57260881834E+03  0.75535437604E+03  0.16345413935E+04  0.46999998093E+01 0. -1.
</event>
<event>
 5   0  0.2325590E-06  0.2910896E+04  0.7818609E-02  0.8269643E-01
       -2   -1    0    0    0  501  0.00000000000E+00  0.00000000000E+00  0.92073159846E+03  0.92073159846E+03  0.25500000920E-02 0. -1.
        2   -1    0    0  501    0  0.00000000000E+00  0.00000000000E+00 -0.23007014694E+04  0.23007014694E+04  0.25500000920E-02 0.  1.
    10030    2    1    2    0    0  0.00000000000E+00  0.00000000000E+00 -0.13799698709E+04  0.32214330678E+04  0.29108957669E+04 0.  0.
        5    1    3    3  502    0  0.93519854299E+03 -0.11012511955E+04 -0.49527215243E+03  0.15273071418E+04  0.46999998093E+01 0. -1.
       -5    1    3    3    0  502 -0.93519854299E+03  0.11012511955E+04 -0.88469771849E+03  0.16941259261E+04  0.46999998093E+01 0.  1.
</event>
<event>
 5   0  0.2425845E-06  0.2899619E+04  0.7818609E-02  0.8272991E-01
       -2   -1    0    0    0  501  0.00000000000E+00  0.00000000000E+00  0.12520230805E+04  0.12520230805E+04  0.25500000920E-02 0.  1.
        2   -1    0    0  501    0  0.00000000000E+00  0.00000000000E+00 -0.16788404103E+04  0.16788404103E+04  0.25500000920E-02 0. -1.
    10030    2    1    2    0    0  0.00000000000E+00  0.00000000000E+00 -0.42681732973E+03  0.29308634908E+04  0.28996185557E+04 0.  0.
        2    1    3    3  502    0 -0.66435992346E+03  0.25059757549E+03 -0.14910600008E+04  0.16514942260E+04  0.25500000920E-02 0. -1.
       -2    1    3    3    0  502  0.66435992346E+03 -0.25059757549E+03  0.10642426710E+04  0.12793692648E+04  0.25500000920E-02 0.  1.
</event>
<event>
 5   0  0.2425845E-06  0.2907878E+04  0.7818609E-02  0.8270537E-01
       -2   -1    0    0    0  501  0.00000000000E+00  0.00000000000E+00  0.10529045947E+04  0.10529045947E+04  0.25500000920E-02 0.  1.
        2   -1    0    0  501    0  0.00000000000E+00  0.00000000000E+00 -0.20077213941E+04  0.20077213941E+04  0.25500000920E-02 0. -1.
    10030    2    1    2    0    0  0.00000000000E+00  0.00000000000E+00 -0.95481679945E+03  0.30606259888E+04  0.29078783198E+04 0.  0.
        2    1    3    3  502    0  0.10341830773E+04 -0.76347120264E+03 -0.11924437138E+04  0.17533809983E+04  0.25500000920E-02 0. -1.
       -2    1    3    3    0  502 -0.10341830773E+04  0.76347120264E+03  0.23762691439E+03  0.13072449905E+04  0.25500000920E-02 0.  1.
</event>
<event>
 5   0  0.2304435E-06  0.2902575E+04  0.7818609E-02  0.8272112E-01
        2   -1    0    0  501    0  0.00000000000E+00  0.00000000000E+00  0.11166649258E+04  0.11166649258E+04  0.25500000920E-02 0. -1.
       -2   -1    0    0    0  501  0.00000000000E+00  0.00000000000E+00 -0.18861834275E+04  0.18861834275E+04  0.25500000920E-02 0.  1.
    10030    2    1    2    0    0  0.00000000000E+00  0.00000000000E+00 -0.76951850170E+03  0.30028483533E+04  0.29025746345E+04 0.  0.
        1    1    3    3  502    0  0.52371669734E+03  0.92053942155E+03 -0.14112894539E+04  0.17644857405E+04  0.50400001928E-02 0.  1.
       -1    1    3    3    0  502 -0.52371669734E+03 -0.92053942155E+03  0.64177095221E+03  0.12383626128E+04  0.50400001928E-02 0. -1.
</event>
<event>
 5   0  0.8263673E-07  0.2904484E+04  0.7818609E-02  0.8271544E-01
        1   -1    0    0  501    0  0.00000000000E+00  0.00000000000E+00  0.74140512227E+03  0.74140512229E+03  0.50400001928E-02 0.  1.
       -1   -1    0    0    0  501  0.00000000000E+00  0.00000000000E+00 -0.28446087309E+04  0.28446087309E+04  0.50400001928E-02 0. -1.
    10030    2    1    2    0    0  0.00000000000E+00  0.00000000000E+00 -0.21032036086E+04  0.35860138532E+04  0.29044844527E+04 0.  0.
        5    1    3    3  502    0  0.64643977233E+03  0.11516911020E+04 -0.30598459876E+03  0.13557010874E+04  0.46999998093E+01 0.  1.
       -5    1    3    3    0  502 -0.64643977233E+03 -0.11516911020E+04 -0.17972190098E+04  0.22303127657E+04  0.46999998093E+01 0. -1.
</event>
<event>
 5   0  0.8947674E-07  0.2899707E+04  0.7818609E-02  0.8272965E-01
       -1   -1    0    0    0  501  0.00000000000E+00  0.00000000000E+00  0.12268305721E+04  0.12268305721E+04  0.50400001928E-02 0. -1.
        1   -1    0    0  501    0  0.00000000000E+00  0.00000000000E+00 -0.17134192915E+04  0.17134192915E+04  0.50400001928E-02 0.  1.
    10030    2    1    2    0    0  0.00000000000E+00  0.00000000000E+00 -0.48658871941E+03  0.29402498636E+04  0.28997069988E+04 0.  0.
        3    1    3    3  502    0  0.11295032142E+04  0.38971598655E+03 -0.10760067981E+04  0.16079324305E+04  0.10100000352E+00 0.  1.
       -3    1    3    3    0  502 -0.11295032142E+04 -0.38971598655E+03  0.58941807872E+03  0.13323174332E+04  0.10100000352E+00 0. -1.
</event>
<event>
 5   0  0.2378690E-06  0.2900743E+04  0.7818609E-02  0.8272656E-01
       -2   -1    0    0    0  501  0.00000000000E+00  0.00000000000E+00  0.82647418895E+03  0.82647418896E+03  0.25500000920E-02 0.  1.
        2   -1    0    0  501    0  0.00000000000E+00  0.00000000000E+00 -0.25452433404E+04  0.25452433404E+04  0.25500000920E-02 0. -1.
    10030    2    1    2    0    0  0.00000000000E+00  0.00000000000E+00 -0.17187691514E+04  0.33717175293E+04  0.29007433016E+04 0.  0.
        3    1    3    3  502    0 -0.10587152033E+04 -0.43150272823E+02  0.29178829639E+03  0.10990360539E+04  0.10100000352E+00 0.  1.
       -3    1    3    3    0  502  0.10587152033E+04  0.43150272823E+02 -0.20105574478E+04  0.22726814754E+04  0.10100000352E+00 0. -1.
</event>
<event>
 5   0  0.8357118E-07  0.2909296E+04  0.7818609E-02  0.8270117E-01
       -1   -1    0    0    0  501  0.00000000000E+00  0.00000000000E+00  0.82179518319E+03  0.82179518321E+03  0.50400001928E-02 0.  1.
        1   -1    0    0  501    0  0.00000000000E+00  0.00000000000E+00 -0.25748516440E+04  0.25748516440E+04  0.50400001928E-02 0. -1.
    10030    2    1    2    0    0  0.00000000000E+00  0.00000000000E+00 -0.17530564608E+04  0.33966468272E+04  0.29092959138E+04 0.  0.
        1    1    3    3  502    0 -0.58435697160E+03 -0.13009569053E+04 -0.54212383029E+03  0.15257326722E+04  0.50400001928E-02 0. -1.
       -1    1    3    3    0  502  0.58435697160E+03  0.13009569053E+04 -0.12109326306E+04  0.18709141550E+04  0.50400001928E-02 0.  1.
</event>
<event>
 5   0  0.2425845E-06  0.2893838E+04  0.7818609E-02  0.8274713E-01
        2   -1    0    0  501    0  0.00000000000E+00  0.00000000000E+00  0.16436182217E+04  0.16436182217E+04  0.25500000920E-02 0.  1.
       -2   -1    0    0    0  501  0.00000000000E+00  0.00000000000E+00 -0.12737593295E+04  0.12737593295E+04  0.25500000920E-02 0. -1.
    10030    2    1    2    0    0  0.00000000000E+00  0.00000000000E+00  0.36985889223E+03  0.29173775512E+04  0.28938376209E+04 0.  0.
        2    1    3    3  502    0  0.92181459143E+03 -0.81399060913E+03  0.95352949272E+03  0.15561302472E+04  0.25500000920E-02 0.  1.
       -2    1    3    3    0  502 -0.92181459143E+03  0.81399060913E+03 -0.58367060049E+03  0.13612473040E+04  0.25500000920E-02 0. -1.
</event>
<event>
 5   0  0.8355946E-07  0.2896321E+04  0.7818609E-02  0.8273973E-01
        1   -1    0    0  501    0  0.00000000000E+00  0.00000000000E+00  0.12620764793E+04  0.12620764793E+04  0.50400001928E-02 0.  1.
       -1   -1    0    0    0  501  0.00000000000E+00  0.00000000000E+00 -0.16616808894E+04  0.16616808894E+04  0.50400001928E-02 0. -1.
    10030    2    1    2    0    0  0.00000000000E+00  0.00000000000E+00 -0.39960441007E+03  0.29237573687E+04  0.28963206774E+04 0.  0.
        4    1    3    3  502    0  0.21409819608E+03 -0.30098659999E+03  0.12137251642E+04  0.12686848932E+04  0.12699999809E+01 0.  1.
       -4    1    3    3    0  502 -0.21409819608E+03  0.30098659999E+03 -0.16133295743E+04  0.16550724755E+04  0.12699999809E+01 0. -1.
</event>
<event>
 5   0  0.8357118E-07  0.2902465E+04  0.7818609E-02  0.8272144E-01
       -1   -1    0    0    0  501  0.00000000000E+00  0.00000000000E+00  0.19493043385E+04  0.19493043385E+04  0.50400001928E-02 0. -1.
        1   -1    0    0  501    0  0.00000000000E+00  0.00000000000E+00 -0.10804246320E+04  0.10804246321E+04  0.50400001928E-02 0.  1.
    10030    2    1    2    0    0  0.00000000000E+00  0.00000000000E+00  0.86887970645E+03  0.30297289706E+04  0.29024654504E+04 0.  0.
        1    1    3    3  502    0  0.15894001034E+03 -0.37444991884E+03 -0.10196958264E+04  0.10978407202E+04  0.50400001928E-02 0.  1.
       -1    1    3    3    0  502 -0.15894001034E+03  0.37444991884E+03  0.18885755328E+04  0.19318882503E+04  0.50400001928E-02 0. -1.
</event>
<event>
 5   0  0.8483636E-07  0.2894559E+04  0.7818609E-02  0.8274498E-01
       -1   -1    0    0    0  501  0.00000000000E+00  0.00000000000E+00  0.15084801227E+04  0.15084801227E+04  0.50400001928E-02 0. -1.
        1   -1    0    0  501    0  0.00000000000E+00  0.00000000000E+00 -0.13885617141E+04  0.13885617141E+04  0.50400001928E-02 0.  1.
    10030    2    1    2    0    0  0.00000000000E+00  0.00000000000E+00  0.11991840862E+03  0.28970418367E+04  0.28945588574E+04 0.  0.
        2    1    3    3  502    0 -0.28496316933E+03 -0.13721512160E+04  0.42167588692E+03  0.14634936013E+04  0.25500000920E-02 0. -1.
       -2    1    3    3    0  502  0.28496316933E+03  0.13721512160E+04 -0.30175747830E+03  0.14335482354E+04  0.25500000920E-02 0.  1.
</event>
<event>
 5   0  0.8263673E-07  0.2898698E+04  0.7818609E-02  0.8273265E-01
        1   -1    0    0  501    0  0.00000000000E+00  0.00000000000E+00  0.19001400623E+04  0.19001400624E+04  0.50400001928E-02 0. -1.
       -1   -1    0    0    0  501  0.00000000000E+00  0.00000000000E+00 -0.11055038515E+04  0.11055038515E+04  0.50400001928E-02 0.  1.
    10030    2    1    2    0    0  0.00000000000E+00  0.00000000000E+00  0.79463621082E+03  0.30056439139E+04  0.28986977472E+04 0.  0.
        5    1    3    3  502    0  0.70049653450E+03  0.96903001379E+03  0.12466072282E+04  0.17273581661E+04  0.46999998093E+01 0. -1.
       -5    1    3    3    0  502 -0.70049653450E+03 -0.96903001379E+03 -0.45197101741E+03  0.12782857478E+04  0.46999998093E+01 0.  1.
</event>
<event>
 5   0  0.2360103E-06  0.2890416E+04  0.7818609E-02  0.8275735E-01
        2   -1    0    0  501    0  0.00000000000E+00  0.00000000000E+00  0.15987761770E+04  0.15987761770E+04  0.25500000920E-02 0.  1.
       -2   -1    0    0    0  501  0.00000000000E+00  0.00000000000E+00 -0.13063902657E+04  0.13063902657E+04  0.25500000920E-02 0. -1.
    10030    2    1    2    0    0  0.00000000000E+00  0.00000000000E+00  0.29238591127E+03  0.29051664428E+04  0.28904156343E+04 0.  0.
        4    1    3    3  502    0 -0.98813926267E+03 -0.46584462935E+03  0.10971681874E+04  0.15482926292E+04  0.12699999809E+01 0.  1.
       -4    1    3    3    0  502  0.98813926267E+03  0.46584462935E+03 -0.80478227615E+03  0.13568738136E+04  0.12699999809E+01 0. -1.
</event>
<event>
 5   0  0.2360103E-06  0.2896224E+04  0.7818609E-02  0.8274002E-01
        2   -1    0    0  501    0  0.00000000000E+00  0.00000000000E+00  0.12030931589E+04  0.12030931589E+04  0.25500000920E-02 0.  1.
       -2   -1    0    0    0  501  0.00000000000E+00  0.00000000000E+00 -0.17430312739E+04  0.17430312739E+04  0.25500000920E-02 0. -1.
    10030    2    1    2    0    0  0.00000000000E+00  0.00000000000E+00 -0.53993811504E+03  0.29461244328E+04  0.28962244397E+04 0.  0.
        4    1    3    3  502    0 -0.12092845769E+04  0.71020361785E+03 -0.63711560427E+03  0.15403493996E+04  0.12699999809E+01 0. -1.
       -4    1    3    3    0  502  0.12092845769E+04 -0.71020361785E+03  0.97177489225E+02  0.14057750332E+04  0.12699999809E+01 0.  1.
</event>
<event>
 5   0  0.8483636E-07  0.2842524E+04  0.7818609E-02  0.8290187E-01
        1   -1    0    0  501    0  0.00000000000E+00  0.00000000000E+00  0.17449232236E+04  0.17449232236E+04  0.50400001928E-02 0.  1.
       -1   -1    0    0    0  501  0.00000000000E+00  0.00000000000E+00 -0.11576355644E+04  0.11576355644E+04  0.50400001928E-02 0. -1.
    10030    2    1    2    0    0  0.00000000000E+00  0.00000000000E+00  0.58728765924E+03  0.29025587880E+04  0.28425236539E+04 0.  0.
        2    1    3    3  502    0 -0.75156353136E+03  0.61117349837E+03  0.13556111652E+04  0.16661519793E+04  0.25500000920E-02 0.  1.
       -2    1    3    3    0  502  0.75156353136E+03 -0.61117349837E+03 -0.76832350596E+03  0.12364068087E+04  0.25500000920E-02 0. -1.
</event>
<event>
 5   0  0.2360103E-06  0.2897207E+04  0.7818609E-02  0.8273709E-01
        2   -1    0    0  501    0  0.00000000000E+00  0.00000000000E+00  0.15170719408E+04  0.15170719408E+04  0.25500000920E-02 0. -1.
       -2   -1    0    0    0  501  0.00000000000E+00  0.00000000000E+00 -0.13832250032E+04  0.13832250032E+04  0.25500000920E-02 0.  1.
    10030    2    1    2    0    0  0.00000000000E+00  0.00000000000E+00  0.13384693760E+03  0.29002969440E+04  0.28972068204E+04 0.  0.
        4    1    3    3  502    0 -0.12911195848E+04  0.58973143128E+03 -0.22265532414E+03  0.14367845870E+04  0.12699999809E+01 0. -1.
       -4    1    3    3    0  502  0.12911195848E+04 -0.58973143128E+03  0.35650226175E+03  0.14635123569E+04  0.12699999809E+01 0.  1.
</event>
<event>
 5   0  0.2304435E-06  0.2910129E+04  0.7818609E-02  0.8269870E-01
        2   -1    0    0  501    0  0.00000000000E+00  0.00000000000E+00  0.24190125569E+04  0.24190125569E+04  0.25500000920E-02 0. -1.
       -2   -1    0    0    0  501  0.00000000000E+00  0.00000000000E+00 -0.87523863180E+03  0.87523863180E+03  0.25500000920E-02 0.  1.
    10030    2    1    2    0    0  0.00000000000E+00  0.00000000000E+00  0.15437739251E+04  0.32942511887E+04  0.29101293721E+04 0.  0.
        1    1    3    3  502    0 -0.71105496899E+03 -0.12559839098E+04  0.56279404846E+03  0.15491390808E+04  0.50400001928E-02 0. -1.
       -1    1    3    3    0  502  0.71105496899E+03  0.12559839098E+04  0.98097987669E+03  0.17451121079E+04  0.50400001928E-02 0.  1.
</event>
<event>
 5   0  0.2360103E-06  0.2861385E+04  0.7818609E-02  0.8284460E-01
       -2   -1    0    0    0  501  0.00000000000E+00  0.00000000000E+00  0.11860074275E+04  0.11860074275E+04  0.25500000920E-02 0. -1.
        2   -1    0    0  501    0  0.00000000000E+00  0.00000000000E+00 -0.17258585455E+04  0.17258585455E+04  0.25500000920E-02 0.  1.
    10030    2    1    2    0    0  0.00000000000E+00  0.00000000000E+00 -0.53985111796E+03  0.29118659730E+04  0.28613850169E+04 0.  0.
        4    1    3    3  502    0  0.11805402101E+04 -0.11313669472E+03  0.54444528458E+03  0.13049511026E+04  0.12699999809E+01 0. -1.
       -4    1    3    3    0  502 -0.11805402101E+04  0.11313669472E+03 -0.10842964025E+04  0.16069148704E+04  0.12699999809E+01 0.  1.
</event>
<event>
 5   0  0.8263673E-07  0.2742016E+04  0.7818609E-02  0.8321500E-01
       -1   -1    0    0    0  501  0.00000000000E+00  0.00000000000E+00  0.17171223366E+04  0.17171223366E+04  0.50400001928E-02 0.  1.
        1   -1    0    0  501    0  0.00000000000E+00  0.00000000000E+00 -0.10946585664E+04  0.10946585664E+04  0.50400001928E-02 0. -1.
    10030    2    1    2    0    0  0.00000000000E+00  0.00000000000E+00  0.62246377021E+03  0.28117809030E+04  0.27420158099E+04 0.  0.
        5    1    3    3  502    0  0.61013856352E+02 -0.69071479229E+03  0.15240457189E+04  0.16743796040E+04  0.46999998093E+01 0.  1.
       -5    1    3    3    0  502 -0.61013856352E+02  0.69071479229E+03 -0.90158194867E+03  0.11374012991E+04  0.46999998093E+01 0. -1.
</event>
<event>
 5   0  0.2325590E-06  0.2918577E+04  0.7818609E-02  0.8267372E-01
        2   -1    0    0  501    0  0.00000000000E+00  0.00000000000E+00  0.15257119548E+04  0.15257119548E+04  0.25500000920E-02 0.  1.
       -2   -1    0    0    0  501  0.00000000000E+00  0.00000000000E+00 -0.13957572791E+04  0.13957572791E+04  0.25500000920E-02 0. -1.
    10030    2    1    2    0    0  0.00000000000E+00  0.00000000000E+00  0.12995467574E+03  0.29214692339E+04  0.29185774389E+04 0.  0.
        5    1    3    3  502    0 -0.47888725492E+03  0.11509327922E+02 -0.13148063680E+04  0.13993581896E+04  0.46999998093E+01 0. -1.
       -5    1    3    3    0  502  0.47888725492E+03 -0.11509327922E+02  0.14447610437E+04  0.15221110442E+04  0.46999998093E+01 0.  1.
</event>
<event>
 5   0  0.8263673E-07  0.2884553E+04  0.7818609E-02  0.8277488E-01
       -1   -1    0    0    0  501  0.00000000000E+00  0.00000000000E+00  0.10637501421E+04  0.10637501422E+04  0.50400001928E-02 0.  1.
        1   -1    0    0  501    0  0.00000000000E+00  0.00000000000E+00 -0.19554980560E+04  0.19554980560E+04  0.50400001928E-02 0. -1.
    10030    2    1    2    0    0  0.00000000000E+00  0.00000000000E+00 -0.89174791386E+03  0.30192481982E+04  0.28845528839E+04 0.  0.
        5    1    3    3  502    0  0.11729644009E+04 -0.82753466849E+03 -0.59196253273E+03  0.15527719870E+04  0.46999998093E+01 0. -1.
       -5    1    3    3    0  502 -0.11729644009E+04  0.82753466849E+03 -0.29978538113E+03  0.14664762112E+04  0.46999998093E+01 0.  1.
</event>
<event>
 5   0  0.8947674E-07  0.2900142E+04  0.7818609E-02  0.8272835E-01
       -1   -1    0    0    0  501  0.00000000000E+00  0.00000000000E+00  0.95183999212E+03  0.95183999213E+03  0.50400001928E-02 0.  1.
        1   -1    0    0  501    0  0.00000000000E+00  0.00000000000E+00 -0.22090959369E+04  0.22090959370E+04  0.50400001928E-02 0. -1.
    10030    2    1    2    0    0  0.00000000000E+00  0.00000000000E+00 -0.12572559448E+04  0.31609359291E+04  0.29001419684E+04 0.  0.
        3    1    3    3  502    0  0.25414605854E+03  0.11461189845E+03  0.92235409452E+03  0.96356794893E+03  0.10100000352E+00 0.  1.
       -3    1    3    3    0  502 -0.25414605854E+03 -0.11461189845E+03 -0.21796100394E+04  0.21973679801E+04  0.10100000352E+00 0. -1.
</event>
<event>
 5   0  0.2325590E-06  0.2904384E+04  0.7818609E-02  0.8271574E-01
       -2   -1    0    0    0  501  0.00000000000E+00  0.00000000000E+00  0.10401707615E+04  0.10401707615E+04  0.25500000920E-02 0.  1.
        2   -1    0    0  501    0  0.00000000000E+00  0.00000000000E+00 -0.20274187962E+04  0.20274187962E+04  0.25500000920E-02 0. -1.
    10030    2    1    2    0    0  0.00000000000E+00  0.00000000000E+00 -0.98724803469E+03  0.30675895576E+04  0.29043841020E+04 0.  0.
        5    1    3    3  502    0  0.10455486619E+04 -0.74828657866E+03  0.21939205956E+03  0.13043234928E+04  0.46999998093E+01 0.  1.
       -5    1    3    3    0  502 -0.10455486619E+04  0.74828657866E+03 -0.12066400942E+04  0.17632660648E+04  0.46999998093E+01 0. -1.
</event>
<event>
 5   0  0.8357118E-07  0.2894082E+04  0.7818609E-02  0.8274640E-01
       -1   -1    0    0    0  501  0.00000000000E+00  0.00000000000E+00  0.19625039444E+04  0.19625039445E+04  0.50400001928E-02 0. -1.
        1   -1    0    0  501    0  0.00000000000E+00  0.00000000000E+00 -0.10669674078E+04  0.10669674078E+04  0.50400001928E-02 0.  1.
    10030    2    1    2    0    0  0.00000000000E+00  0.00000000000E+00  0.89553653668E+03  0.30294713522E+04  0.28940820627E+04 0.  0.
        1    1    3    3  502    0  0.10492822939E+04 -0.58074004305E+03 -0.39985029393E+03  0.12641726889E+04  0.50400001928E-02 0.  1.
       -1    1    3    3    0  502 -0.10492822939E+04  0.58074004305E+03  0.12953868306E+04  0.17652986633E+04  0.50400001928E-02 0. -1.
</event>
<event>
 5   0  0.8355946E-07  0.2906267E+04  0.7818609E-02  0.8271015E-01
       -1   -1    0    0    0  501  0.00000000000E+00  0.00000000000E+00  0.88984868787E+03  0.88984868788E+03  0.50400001928E-02 0.  1.
        1   -1    0    0  501    0  0.00000000000E+00  0.00000000000E+00 -0.23729849311E+04  0.23729849311E+04  0.50400001928E-02 0. -1.
    10030    2    1    2    0    0  0.00000000000E+00  0.00000000000E+00 -0.14831362432E+04  0.32628336190E+04  0.29062673843E+04 0.  0.
        4    1    3    3  502    0 -0.29578534797E+03  0.14097710319E+04 -0.95650534537E+03  0.17291175273E+04  0.12699999809E+01 0. -1.
       -4    1    3    3    0  502  0.29578534797E+03 -0.14097710319E+04 -0.52663089785E+03  0.15337160917E+04  0.12699999809E+01 0.  1.
</event>
<event>
 5   0  0.8263673E-07  0.2713753E+04  0.7818609E-02  0.8330556E-01
       -1   -1    0    0    0  501  0.00000000000E+00  0.00000000000E+00  0.11047168997E+04  0.11047168997E+04  0.50400001928E-02 0.  1.
        1   -1    0    0  501    0  0.00000000000E+00  0.00000000000E+00 -0.16665937719E+04  0.16665937719E+04  0.50400001928E-02 0. -1.
    10030    2    1    2    0    0  0.00000000000E+00  0.00000000000E+00 -0.56187687225E+03  0.27713106716E+04  0.27137533453E+04 0.  0.
        5    1    3    3  502    0  0.59694537739E+03 -0.97480531785E+03 -0.10275417708E+04  0.15370274468E+04  0.46999998093E+01 0.  1.
       -5    1    3    3    0  502 -0.59694537739E+03  0.97480531785E+03  0.46566489859E+03  0.12342832248E+04  0.46999998093E+01 0. -1.
</event>
<event>
 5   0  0.8357118E-07  0.2897077E+04  0.7818609E-02  0.8273748E-01
        1   -1    0    0  501    0  0.00000000000E+00  0.00000000000E+00  0.11274762268E+04  0.11274762268E+04  0.50400001928E-02 0.  1.
       -1   -1    0    0    0  501  0.00000000000E+00  0.00000000000E+00 -0.18610276980E+04  0.18610276980E+04  0.50400001928E-02 0. -1.
    10030    2    1    2    0    0  0.00000000000E+00  0.00000000000E+00 -0.73355147126E+03  0.29885039248E+04  0.28970774839E+04 0.  0.
        1    1    3    3  502    0  0.41787042427E+03  0.12742460771E+04  0.19818083235E+03  0.13555789902E+04  0.50400001928E-02 0.  1.
       -1    1    3    3    0  502 -0.41787042427E+03 -0.12742460771E+04 -0.93173230360E+03  0.16329249346E+04  0.50400001928E-02 0. -1.
</event>
<event>
 5   0  0.8357118E-07  0.2914494E+04  0.7818609E-02  0.8268578E-01
       -1   -1    0    0    0  501  0.00000000000E+00  0.00000000000E+00  0.11570754386E+04  0.11570754386E+04  0.50400001928E-02 0.  1.
        1   -1    0    0  501    0  0.00000000000E+00  0.00000000000E+00 -0.18352895108E+04  0.18352895108E+04  0.50400001928E-02 0. -1.
    10030    2    1    2    0    0  0.00000000000E+00  0.00000000000E+00 -0.67821407227E+03  0.29923649494E+04  0.29144937232E+04 0.  0.
        1    1    3    3  502    0  0.70894306053E+03  0.94633088240E+03  0.53536917036E+03  0.12979840333E+04  0.50400001928E-02 0.  1.
       -1    1    3    3    0  502 -0.70894306053E+03 -0.94633088240E+03 -0.12135832426E+04  0.16943809161E+04  0.50400001928E-02 0. -1.
</event>
<event>
 5   0  0.2360103E-06  0.2897240E+04  0.7818609E-02  0.8273699E-01
        2   -1    0    0  501    0  0.00000000000E+00  0.00000000000E+00  0.16645426274E+04  0.16645426274E+04  0.25500000920E-02 0.  1.
       -2   -1    0    0    0  501  0.00000000000E+00  0.00000000000E+00 -0.12607062306E+04  0.12607062306E+04  0.25500000920E-02 0. -1.
    10030    2    1    2    0    0  0.00000000000E+00  0.00000000000E+00  0.40383639684E+03  0.29252488581E+04  0.28972395562E+04 0.  0.
        4    1    3    3  502    0 -0.73520312181E+03  0.22128701870E+03 -0.10383736984E+04  0.12913996769E+04  0.12699999809E+01 0. -1.
       -4    1    3    3    0  502  0.73520312181E+03 -0.22128701870E+03  0.14422100953E+04  0.16338491812E+04  0.12699999809E+01 0.  1.
</event>
<event>
 5   0  0.8355946E-07  0.2909153E+04  0.7818609E-02  0.8270159E-01
        1   -1    0    0  501    0  0.00000000000E+00  0.00000000000E+00  0.15148424969E+04  0.15148424969E+04  0.50400001928E-02 0.  1.
       -1   -1    0    0    0  501  0.00000000000E+00  0.00000000000E+00 -0.13967078282E+04  0.13967078282E+04  0.50400001928E-02 0. -1.
    10030    2    1    2    0    0  0.00000000000E+00  0.00000000000E+00  0.11813466870E+03  0.29115503252E+04  0.29091527110E+04 0.  0.
        4    1    3    3  502    0 -0.13853653486E+04 -0.43054005105E+03 -0.46797329152E+02  0.14514797579E+04  0.12699999809E+01 0. -1.
       -4    1    3    3    0  502  0.13853653486E+04  0.43054005105E+03  0.16493199786E+03  0.14600705673E+04  0.12699999809E+01 0.  1.
</event>
<event>
 5   0  0.8357118E-07  0.2892927E+04  0.7818609E-02  0.8274985E-01
       -1   -1    0    0    0  501  0.00000000000E+00  0.00000000000E+00  0.14278738066E+04  0.14278738066E+04  0.50400001928E-02 0.  1.
        1   -1    0    0  501    0  0.00000000000E+00  0.00000000000E+00 -0.14652952089E+04  0.14652952089E+04  0.50400001928E-02 0. -1.
    10030    2    1    2    0    0  0.00000000000E+00  0.00000000000E+00 -0.37421402348E+02  0.28931690155E+04  0.28929269937E+04 0.  0.
        1    1    3    3  502    0 -0.40427987871E+03 -0.20661182066E+02  0.13700694159E+04  0.14286214716E+04  0.50400001928E-02 0.  1.
       -1    1    3    3    0  502  0.40427987871E+03  0.20661182066E+02 -0.14074908182E+04  0.14645475439E+04  0.50400001928E-02 0. -1.
</event>
<event>
 5   0  0.8947674E-07  0.2905164E+04  0.7818609E-02  0.8271343E-01
        1   -1    0    0  501    0  0.00000000000E+00  0.00000000000E+00  0.15734264264E+04  0.15734264264E+04  0.50400001928E-02 0. -1.
       -1   -1    0    0    0  501  0.00000000000E+00  0.00000000000E+00 -0.13410188255E+04  0.13410188255E+04  0.50400001928E-02 0.  1.
    10030    2    1    2    0    0  0.00000000000E+00  0.00000000000E+00  0.23240760087E+03  0.29144452519E+04  0.29051639943E+04 0.  0.
        3    1    3    3  502    0 -0.17240134188E+03  0.10650651817E+04 -0.85948155372E+03  0.13794182163E+04  0.10100000352E+00 0.  1.
       -3    1    3    3    0  502  0.17240134188E+03 -0.10650651817E+04  0.10918891546E+04  0.15350270356E+04  0.10100000352E+00 0. -1.
</event>
<event>
 5   0  0.8263673E-07  0.2895716E+04  0.7818609E-02  0.8274153E-01
        1   -1    0    0  501    0  0.00000000000E+00  0.00000000000E+00  0.13207297889E+04  0.13207297889E+04  0.50400001928E-02 0. -1.
       -1   -1    0    0    0  501  0.00000000000E+00  0.00000000000E+00 -0.15872230986E+04  0.15872230986E+04  0.50400001928E-02 0.  1.
    10030    2    1    2    0    0  0.00000000000E+00  0.00000000000E+00 -0.26649330975E+03  0.29079528875E+04  0.28957160275E+04 0.  0.
        5    1    3    3  502    0 -0.11361622644E+04  0.76415795023E+03 -0.60583994247E+03  0.14972862752E+04  0.46999998093E+01 0.  1.
       -5    1    3    3    0  502  0.11361622644E+04 -0.76415795023E+03  0.33934663272E+03  0.14106666123E+04  0.46999998093E+01 0. -1.
</event>
<event>
 5   0  0.2360103E-06  0.2891605E+04  0.7818609E-02  0.8275380E-01
       -2   -1    0    0    0  501  0.00000000000E+00  0.00000000000E+00  0.10186290145E+04  0.10186290145E+04  0.25500000920E-02 0.  1.
        2   -1    0    0  501    0  0.00000000000E+00  0.00000000000E+00 -0.20521155533E+04  0.20521155533E+04  0.25500000920E-02 0. -1.
    10030    2    1    2    0    0  0.00000000000E+00  0.00000000000E+00 -0.10334865388E+04  0.30707445677E+04  0.28916047058E+04 0.  0.
        4    1    3    3  502    0  0.13343347387E+04  0.46814440557E+03 -0.83662606138E+03  0.16430316975E+04  0.12699999809E+01 0. -1.
       -4    1    3    3    0  502 -0.13343347387E+04 -0.46814440557E+03 -0.19686047742E+03  0.14277128703E+04  0.12699999809E+01 0.  1.
</event>
<event>
 5   0  0.8483636E-07  0.2880382E+04  0.7818609E-02  0.8278738E-01
        1   -1    0    0  501    0  0.00000000000E+00  0.00000000000E+00  0.12259196657E+04  0.12259196658E+04  0.50400001928E-02 0.  1.
       -1   -1    0    0    0  501  0.00000000000E+00  0.00000000000E+00 -0.16919140173E+04  0.16919140173E+04  0.50400001928E-02 0. -1.
    10030    2    1    2    0    0  0.00000000000E+00  0.00000000000E+00 -0.46599435158E+03  0.29178336831E+04  0.28803823820E+04 0.  0.
        2    1    3    3  502    0 -0.85355365909E+03 -0.10501165816E+04  0.26621045379E+03  0.13791905922E+04  0.25500000920E-02 0.  1.
       -2    1    3    3    0  502  0.85355365909E+03  0.10501165816E+04 -0.73220480538E+03  0.15386430908E+04  0.25500000920E-02 0. -1.
</event>
<event>
 5   0  0.8355946E-07  0.2899304E+04  0.7818609E-02  0.8273085E-01
       -1   -1    0    0    0  501  0.00000000000E+00  0.00000000000E+00  0.66111338451E+03  0.66111338453E+03  0.50400001928E-02 0. -1.
        1   -1    0    0  501    0  0.00000000000E+00  0.00000000000E+00 -0.31787141856E+04  0.31787141856E+04  0.50400001928E-02 0.  1.
    10030    2    1    2    0    0  0.00000000000E+00  0.00000000000E+00 -0.25176008011E+04  0.38398275701E+04  0.28993037051E+04 0.  0.
        4    1    3    3  502    0  0.48751462072E+03 -0.13535049218E+04 -0.10224677915E+04  0.17649612110E+04  0.12699999809E+01 0. -1.
       -4    1    3    3    0  502 -0.48751462072E+03  0.13535049218E+04 -0.14951330096E+04  0.20748663591E+04  0.12699999809E+01 0.  1.
</event>
<event>
 5   0  0.2360103E-06  0.2900058E+04  0.7818609E-02  0.8272860E-01
       -2   -1    0    0    0  501  0.00000000000E+00  0.00000000000E+00  0.10363431745E+04  0.10363431745E+04  0.25500000920E-02 0. -1.
        2   -1    0    0  501    0  0.00000000000E+00  0.00000000000E+00 -0.20288499526E+04  0.20288499526E+04  0.25500000920E-02 0.  1.
    10030    2    1    2    0    0  0.00000000000E+00  0.00000000000E+00 -0.99250677808E+03  0.30651931271E+04  0.29000584825E+04 0.  0.
        4    1    3    3  502    0 -0.75559774022E+03  0.95363404878E+03  0.33748370260E+03  0.12626332430E+04  0.12699999809E+01 0. -1.
       -4    1    3    3    0  502  0.75559774022E+03 -0.95363404878E+03 -0.13299904807E+04  0.18025598841E+04  0.12699999809E+01 0.  1.
</event>
<event>
 5   0  0.2325590E-06  0.2996098E+04  0.7818609E-02  0.8244846E-01
       -2   -1    0    0    0  501  0.00000000000E+00  0.00000000000E+00  0.10380579561E+04  0.10380579561E+04  0.25500000920E-02 0.  1.
        2   -1    0    0  501    0  0.00000000000E+00  0.00000000000E+00 -0.21618747367E+04  0.21618747367E+04  0.25500000920E-02 0. -1.
    10030    2    1    2    0    0  0.00000000000E+00  0.00000000000E+00 -0.11238167806E+04  0.31999326929E+04  0.29960983099E+04 0.  0.
        5    1    3    3  502    0 -0.14663799757E+04  0.29750857177E+03 -0.48380603530E+03  0.15725367891E+04  0.46999998093E+01 0. -1.
       -5    1    3    3    0  502  0.14663799757E+04 -0.29750857177E+03 -0.64001074532E+03  0.16273959037E+04  0.46999998093E+01 0.  1.
</event>
<event>
 5   0  0.8355946E-07  0.2898289E+04  0.7818609E-02  0.8273387E-01
       -1   -1    0    0    0  501  0.00000000000E+00  0.00000000000E+00  0.63977930098E+03  0.63977930100E+03  0.50400001928E-02 0. -1.
        1   -1    0    0  501    0  0.00000000000E+00  0.00000000000E+00 -0.32824119643E+04  0.32824119643E+04  0.50400001928E-02 0.  1.
    10030    2    1    2    0    0  0.00000000000E+00  0.00000000000E+00 -0.26426326634E+04  0.39221912653E+04  0.28982886206E+04 0.  0.
        4    1    3    3  502    0 -0.62307128269E+03  0.24779774092E+03 -0.30598424822E+04  0.31324525810E+04  0.12699999809E+01 0.  1.
       -4    1    3    3    0  502  0.62307128269E+03 -0.24779774092E+03  0.41720981881E+03  0.78973868433E+03  0.12699999809E+01 0. -1.
</event>
<event>
 5   0  0.2360103E-06  0.2907498E+04  0.7818609E-02  0.8270650E-01
        2   -1    0    0  501    0  0.00000000000E+00  0.00000000000E+00  0.77583858235E+03  0.77583858235E+03  0.25500000920E-02 0.  1.
       -2   -1    0    0    0  501  0.00000000000E+00  0.00000000000E+00 -0.27240019894E+04  0.27240019894E+04  0.25500000920E-02 0. -1.
    10030    2    1    2    0    0  0.00000000000E+00  0.00000000000E+00 -0.19481634070E+04  0.34998405717E+04  0.29074977845E+04 0.  0.
        4    1    3    3  502    0  0.70858285571E+03 -0.11683661423E+04 -0.15713730616E+04  0.20823986212E+04  0.12699999809E+01 0. -1.
       -4    1    3    3    0  502 -0.70858285571E+03  0.11683661423E+04 -0.37679034544E+03  0.14174419506E+04  0.12699999809E+01 0.  1.
</event>
<event>
 5   0  0.2378690E-06  0.2887326E+04  0.7818609E-02  0.8276658E-01
       -2   -1    0    0    0  501  0.00000000000E+00  0.00000000000E+00  0.72625131794E+03  0.72625131794E+03  0.25500000920E-02 0. -1.
        2   -1    0    0  501    0  0.00000000000E+00  0.00000000000E+00 -0.28697552610E+04  0.28697552610E+04  0.25500000920E-02 0.  1.
    10030    2    1    2    0    0  0.00000000000E+00  0.00000000000E+00 -0.21435039430E+04  0.35960065789E+04  0.28873264730E+04 0.  0.
        3    1    3    3  502    0  0.33659660451E+03 -0.75601047296E+03  0.40151766984E+03  0.91981822052E+03  0.10100000352E+00 0. -1.
       -3    1    3    3    0  502 -0.33659660451E+03  0.75601047296E+03 -0.25450216129E+04  0.26761883584E+04  0.10100000352E+00 0.  1.
</event>
<event>
 5   0  0.8263673E-07  0.2891735E+04  0.7818609E-02  0.8275341E-01
        1   -1    0    0  501    0  0.00000000000E+00  0.00000000000E+00  0.14214128064E+04  0.14214128064E+04  0.50400001928E-02 0. -1.
       -1   -1    0    0    0  501  0.00000000000E+00  0.00000000000E+00 -0.14707429658E+04  0.14707429658E+04  0.50400001928E-02 0.  1.
    10030    2    1    2    0    0  0.00000000000E+00  0.00000000000E+00 -0.49330159402E+02  0.28921557722E+04  0.28917350408E+04 0.  0.
        5    1    3    3  502    0  0.34263389383E+03 -0.30209272785E+03 -0.13966710685E+04  0.14694795558E+04  0.46999998093E+01 0.  1.
       -5    1    3    3    0  502 -0.34263389383E+03  0.30209272785E+03  0.13473409091E+04  0.14226762164E+04  0.46999998093E+01 0. -1.
</event>
<event>
 5   0  0.2425845E-06  0.2910864E+04  0.7818609E-02  0.8269652E-01
        2   -1    0    0  501    0  0.00000000000E+00  0.00000000000E+00  0.18155538463E+04  0.18155538463E+04  0.25500000920E-02 0. -1.
       -2   -1    0    0    0  501  0.00000000000E+00  0.00000000000E+00 -0.11667415254E+04  0.11667415254E+04  0.25500000920E-02 0.  1.
    10030    2    1    2    0    0  0.00000000000E+00  0.00000000000E+00  0.64881232091E+03  0.29822953717E+04  0.29108638333E+04 0.  0.
        2    1    3    3  502    0  0.50625359404E+03 -0.96599379356E+03  0.13118228666E+04  0.17059648132E+04  0.25500000920E-02 0. -1.
       -2    1    3    3    0  502 -0.50625359404E+03  0.96599379356E+03 -0.66301054569E+03  0.12763305584E+04  0.25500000920E-02 0.  1.
</event>
<event>
 5   0  0.7621125E-07  0.2896173E+04  0.7818609E-02  0.8274017E-01
       -3   -1    0    0    0  501  0.00000000000E+00  0.00000000000E+00  0.15317378352E+04  0.15317378386E+04  0.10100000352E+00 0. -1.
        3   -1    0    0  501    0  0.00000000000E+00  0.00000000000E+00 -0.13690036978E+04  0.13690037015E+04  0.10100000352E+00 0.  1.
    10030    2    1    2    0    0  0.00000000000E+00  0.00000000000E+00  0.16273413745E+03  0.29007415401E+04  0.28961731790E+04 0.  0.
        1    1    3    3  502    0  0.24852334292E+03  0.10075196278E+04  0.10929578004E+04  0.15071218948E+04  0.50400001928E-02 0.  1.
       -1    1    3    3    0  502 -0.24852334292E+03 -0.10075196278E+04 -0.93022366292E+03  0.13936196452E+04  0.50400001928E-02 0. -1.
</event>
<event>
 5   0  0.2425845E-06  0.3032877E+04  0.7818609E-02  0.8234405E-01
        2   -1    0    0  501    0  0.00000000000E+00  0.00000000000E+00  0.14884596427E+04  0.14884596427E+04  0.25500000920E-02 0.  1.
       -2   -1    0    0    0  501  0.00000000000E+00  0.00000000000E+00 -0.15449428695E+04  0.15449428695E+04  0.25500000920E-02 0. -1.
    10030    2    1    2    0    0  0.00000000000E+00  0.00000000000E+00 -0.56483226811E+02  0.30334025122E+04  0.30328765959E+04 0.  0.
        2    1    3    3  502    0  0.13795695130E+04  0.62545474900E+03  0.43739103880E+02  0.15153609449E+04  0.25500000920E-02 0. -1.
       -2    1    3    3    0  502 -0.13795695130E+04 -0.62545474900E+03 -0.10022233069E+03  0.15180415672E+04  0.25500000920E-02 0.  1.
</event>
<event>
 5   0  0.8947674E-07  0.2900962E+04  0.7818609E-02  0.8272591E-01
        1   -1    0    0  501    0  0.00000000000E+00  0.00000000000E+00  0.19232850974E+04  0.19232850974E+04  0.50400001928E-02 0.  1.
       -1   -1    0    0    0  501  0.00000000000E+00  0.00000000000E+00 -0.10939071949E+04  0.10939071949E+04  0.50400001928E-02 0. -1.
    10030    2    1    2    0    0  0.00000000000E+00  0.00000000000E+00  0.82937790252E+03  0.30171922923E+04  0.29009621892E+04 0.  0.
        3    1    3    3  502    0 -0.79090349390E+03  0.56873816767E+03 -0.70303319420E+03  0.12013522058E+04  0.10100000352E+00 0. -1.
       -3    1    3    3    0  502  0.79090349390E+03 -0.56873816767E+03  0.15324110967E+04  0.18158400865E+04  0.10100000352E+00 0.  1.
</event>
<event>
 5   0  0.2378690E-06  0.2898816E+04  0.7818609E-02  0.8273230E-01
        2   -1    0    0  501    0  0.00000000000E+00  0.00000000000E+00  0.16331928645E+04  0.16331928645E+04  0.25500000920E-02 0.  1.
       -2   -1    0    0    0  501  0.00000000000E+00  0.00000000000E+00 -0.12863044077E+04  0.12863044077E+04  0.25500000920E-02 0. -1.
    10030    2    1    2    0    0  0.00000000000E+00  0.00000000000E+00  0.34688845687E+03  0.29194972722E+04  0.28988157446E+04 0.  0.
        3    1    3    3  502    0  0.40810321373E+03  0.11739123970E+04  0.92452932024E+03  0.15489909693E+04  0.10100000352E+00 0.  1.
       -3    1    3    3    0  502 -0.40810321373E+03 -0.11739123970E+04 -0.57764086337E+03  0.13705063029E+04  0.10100000352E+00 0. -1.
</event>
<event>
 5   0  0.8355946E-07  0.2906141E+04  0.7818609E-02  0.8271053E-01
       -1   -1    0    0    0  501  0.00000000000E+00  0.00000000000E+00  0.89770917888E+03  0.89770917889E+03  0.50400001928E-02 0. -1.
        1   -1    0    0  501    0  0.00000000000E+00  0.00000000000E+00 -0.23520019327E+04  0.23520019327E+04  0.50400001928E-02 0.  1.
    10030    2    1    2    0    0  0.00000000000E+00  0.00000000000E+00 -0.14542927538E+04  0.32497111116E+04  0.29061408939E+04 0.  0.
        4    1    3    3  502    0  0.58865969945E+03 -0.92226416202E+03  0.34209895306E+03  0.11463527960E+04  0.12699999809E+01 0. -1.
       -4    1    3    3    0  502 -0.58865969945E+03  0.92226416202E+03 -0.17963917069E+04  0.21033583156E+04  0.12699999809E+01 0.  1.
</event>
<event>
 5   0  0.8357118E-07  0.2902928E+04  0.7818609E-02  0.8272007E-01
       -1   -1    0    0    0  501  0.00000000000E+00  0.00000000000E+00  0.98785871067E+03  0.98785871068E+03  0.50400001928E-02 0.  1.
        1   -1    0    0  501    0  0.00000000000E+00  0.00000000000E+00 -0.21326401822E+04  0.21326401822E+04  0.50400001928E-02 0. -1.
    10030    2    1    2    0    0  0.00000000000E+00  0.00000000000E+00 -0.11447814715E+04  0.31204988929E+04  0.29029276124E+04 0.  0.
        1    1    3    3  502    0  0.91664262149E+03  0.88402119636E+03 -0.13210214730E+04  0.18348909786E+04  0.50400001928E-02 0. -1.
       -1    1    3    3    0  502 -0.91664262149E+03 -0.88402119636E+03  0.17624000149E+03  0.12856079143E+04  0.50400001928E-02 0.  1.
</event>
<event>
 5   0  0.2425845E-06  0.2895731E+04  0.7818609E-02  0.8274149E-01
        2   -1    0    0  501    0  0.00000000000E+00  0.00000000000E+00  0.23629413338E+04  0.23629413338E+04  0.25500000920E-02 0.  1.
       -2   -1    0    0    0  501  0.00000000000E+00  0.00000000000E+00 -0.88716309647E+03  0.88716309647E+03  0.25500000920E-02 0. -1.
    10030    2    1    2    0    0  0.00000000000E+00  0.00000000000E+00  0.14757782373E+04  0.32501044303E+04  0.28957308925E+04 0.  0.
        2    1    3    3  502    0  0.13145424220E+04  0.52430093916E+03  0.39487254591E+03  0.14692983297E+04  0.25500000920E-02 0. -1.
       -2    1    3    3    0  502 -0.13145424220E+04 -0.52430093916E+03  0.10809056914E+04  0.17808061006E+04  0.25500000920E-02 0.  1.
</event>
<event>
 5   0  0.8263673E-07  0.2902374E+04  0.7818609E-02  0.8272171E-01
       -1   -1    0    0    0  501  0.00000000000E+00  0.00000000000E+00  0.24368237081E+04  0.24368237081E+04  0.50400001928E-02 0. -1.
        1   -1    0    0  501    0  0.00000000000E+00  0.00000000000E+00 -0.86421667565E+03  0.86421667567E+03  0.50400001928E-02 0.  1.
    10030    2    1    2    0    0  0.00000000000E+00  0.00000000000E+00  0.15726070325E+04  0.33010403838E+04  0.29023739829E+04 0.  0.
        5    1    3    3  502    0  0.13325389447E+04 -0.36410631512E+03  0.12919974914E+04  0.18914314832E+04  0.46999998093E+01 0. -1.
       -5    1    3    3    0  502 -0.13325389447E+04  0.36410631512E+03  0.28060954102E+03  0.14096089005E+04  0.46999998093E+01 0.  1.
</event>
<event>
 5   0  0.2360103E-06  0.2905552E+04  0.7818609E-02  0.8271227E-01
        2   -1    0    0  501    0  0.00000000000E+00  0.00000000000E+00  0.20069933728E+04  0.20069933728E+04  0.25500000920E-02 0. -1.
       -2   -1    0    0    0  501  0.00000000000E+00  0.00000000000E+00 -0.10516021714E+04  0.10516021714E+04  0.25500000920E-02 0.  1.
    10030    2    1    2    0    0  0.00000000000E+00  0.00000000000E+00  0.95539120131E+03  0.30585955442E+04  0.29055523323E+04 0.  0.
        4    1    3    3  502    0  0.66204185710E+03  0.12892385669E+04  0.58360029438E+03  0.15623784495E+04  0.12699999809E+01 0. -1.
       -4    1    3    3    0  502 -0.66204185710E+03 -0.12892385669E+04  0.37179090693E+03  0.14962170947E+04  0.12699999809E+01 0.  1.
</event>
<event>
 5   0  0.2378690E-06  0.2950611E+04  0.7818609E-02  0.8257977E-01
        2   -1    0    0  501    0  0.00000000000E+00  0.00000000000E+00  0.18539586002E+04  0.18539586002E+04  0.25500000920E-02 0. -1.
       -2   -1    0    0    0  501  0.00000000000E+00  0.00000000000E+00 -0.11739883725E+04  0.11739883725E+04  0.25500000920E-02 0.  1.
    10030    2    1    2    0    0  0.00000000000E+00  0.00000000000E+00  0.67997022770E+03  0.30279469728E+04  0.29506106757E+04 0.  0.
        3    1    3    3  502    0  0.18868231812E+03  0.14362520511E+04  0.53187601245E+02  0.14495688678E+04  0.10100000352E+00 0.  1.
       -3    1    3    3    0  502 -0.18868231812E+03 -0.14362520511E+04  0.62678262646E+03  0.15783781050E+04  0.10100000352E+00 0. -1.
</event>
<event>
 5   0  0.7621125E-07  0.2900274E+04  0.7818609E-02  0.8272796E-01
       -4   -1    0    0    0  501  0.00000000000E+00  0.00000000000E+00  0.96934056511E+03  0.96934139706E+03  0.12699999809E+01 0.  1.
        4   -1    0    0  501    0  0.00000000000E+00  0.00000000000E+00 -0.21694076391E+04  0.21694080108E+04  0.12699999809E+01 0. -1.
    10030    2    1    2    0    0  0.00000000000E+00  0.00000000000E+00 -0.12000670740E+04  0.31387494079E+04  0.29002735842E+04 0.  0.
        3    1    3    3  502    0 -0.10671384630E+04 -0.50009138138E+03 -0.15145112244E+04  0.19190154111E+04  0.10100000352E+00 0. -1.
       -3    1    3    3    0  502  0.10671384630E+04  0.50009138138E+03  0.31444415046E+03  0.12197339968E+04  0.10100000352E+00 0.  1.
</event>
<event>
 5   0  0.8355946E-07  0.2906814E+04  0.7818609E-02  0.8270853E-01
       -1   -1    0    0    0  501  0.00000000000E+00  0.00000000000E+00  0.15601499504E+04  0.15601499504E+04  0.50400001928E-02 0. -1.
        1   -1    0    0  501    0  0.00000000000E+00  0.00000000000E+00 -0.13539675948E+04  0.13539675948E+04  0.50400001928E-02 0.  1.
    10030    2    1    2    0    0  0.00000000000E+00  0.00000000000E+00  0.20618235564E+03  0.29141175452E+04  0.29068143909E+04 0.  0.
        4    1    3    3  502    0 -0.96652020008E+03 -0.66274120460E+03  0.96490421404E+03  0.15180345703E+04  0.12699999809E+01 0. -1.
       -4    1    3    3    0  502  0.96652020008E+03  0.66274120460E+03 -0.75872185840E+03  0.13960829749E+04  0.12699999809E+01 0.  1.
</event>
<event>
 5   0  0.8947674E-07  0.2938013E+04  0.7818609E-02  0.8261657E-01
       -1   -1    0    0    0  501  0.00000000000E+00  0.00000000000E+00  0.12781219214E+04  0.12781219214E+04  0.50400001928E-02 0. -1.
        1   -1    0    0  501    0  0.00000000000E+00  0.00000000000E+00 -0.16883987554E+04  0.16883987554E+04  0.50400001928E-02 0.  1.
    10030    2    1    2    0    0  0.00000000000E+00  0.00000000000E+00 -0.41027683400E+03  0.29665206767E+04  0.29380125672E+04 0.  0.
        3    1    3    3  502    0  0.13983515924E+04 -0.44130969649E+03 -0.29453009754E+03  0.14956234195E+04  0.10100000352E+00 0.  1.
       -3    1    3    3    0  502 -0.13983515924E+04  0.44130969649E+03 -0.11574673646E+03  0.14708972573E+04  0.10100000352E+00 0. -1.
</event>
<event>
 5   0  0.8263673E-07  0.2797030E+04  0.7818609E-02  0.8304191E-01
       -1   -1    0    0    0  501  0.00000000000E+00  0.00000000000E+00  0.12588790131E+04  0.12588790131E+04  0.50400001928E-02 0.  1.
        1   -1    0    0  501    0  0.00000000000E+00  0.00000000000E+00 -0.15536400113E+04  0.15536400113E+04  0.50400001928E-02 0. -1.
    10030    2    1    2    0    0  0.00000000000E+00  0.00000000000E+00 -0.29476099821E+03  0.28125190244E+04  0.27970304282E+04 0.  0.
        5    1    3    3  502    0  0.77865241481E+03  0.11566164910E+04 -0.38329857043E+02  0.13948306558E+04  0.46999998093E+01 0.  1.
       -5    1    3    3    0  502 -0.77865241481E+03 -0.11566164910E+04 -0.25643114117E+03  0.14176883686E+04  0.46999998093E+01 0. -1.
</event>
<event>
 5   0  0.2360103E-06  0.2901978E+04  0.7818609E-02  0.8272289E-01
       -2   -1    0    0    0  501  0.00000000000E+00  0.00000000000E+00  0.12851052920E+04  0.12851052920E+04  0.25500000920E-02 0.  1.
        2   -1    0    0  501    0  0.00000000000E+00  0.00000000000E+00 -0.16382857560E+04  0.16382857560E+04  0.25500000920E-02 0. -1.
    10030    2    1    2    0    0  0.00000000000E+00  0.00000000000E+00 -0.35318046404E+03  0.29233910481E+04  0.29019784251E+04 0.  0.
        4    1    3    3  502    0 -0.95952010195E+03 -0.10377191416E+04  0.15420480877E+03  0.14217315424E+04  0.12699999809E+01 0. -1.
       -4    1    3    3    0  502  0.95952010195E+03  0.10377191416E+04 -0.50738527280E+03  0.15016595056E+04  0.12699999809E+01 0.  1.
</event>
<event>
 5   0  0.2304435E-06  0.2871654E+04  0.7818609E-02  0.8281361E-01
        2   -1    0    0  501    0  0.00000000000E+00  0.00000000000E+00  0.20138182332E+04  0.20138182332E+04  0.25500000920E-02 0.  1.
       -2   -1    0    0    0  501  0.00000000000E+00  0.00000000000E+00 -0.10237266733E+04  0.10237266733E+04  0.25500000920E-02 0. -1.
    10030    2    1    2    0    0  0.00000000000E+00  0.00000000000E+00  0.99009155998E+03  0.30375449065E+04  0.28716541856E+04 0.  0.
        1    1    3    3  502    0 -0.47108278470E+03 -0.32944561137E+03 -0.89669201355E+03  0.10651337794E+04  0.50400001928E-02 0. -1.
       -1    1    3    3    0  502  0.47108278470E+03  0.32944561137E+03  0.18867835735E+04  0.19724111271E+04  0.50400001928E-02 0.  1.
</event>
<event>
 5   0  0.2325590E-06  0.2901981E+04  0.7818609E-02  0.8272288E-01
       -2   -1    0    0    0  501  0.00000000000E+00  0.00000000000E+00  0.91359480279E+03  0.91359480279E+03  0.25500000920E-02 0.  1.
        2   -1    0    0  501    0  0.00000000000E+00  0.00000000000E+00 -0.23044937214E+04  0.23044937214E+04  0.25500000920E-02 0. -1.
    10030    2    1    2    0    0  0.00000000000E+00  0.00000000000E+00 -0.13908989186E+04  0.32180885242E+04  0.29019810385E+04 0.  0.
        5    1    3    3  502    0  0.12449539947E+04 -0.64544621731E+02  0.12790632605E+03  0.12531793868E+04  0.46999998093E+01 0.  1.
       -5    1    3    3    0  502 -0.12449539947E+04  0.64544621731E+02 -0.15188052447E+04  0.19649091375E+04  0.46999998093E+01 0. -1.
</event>
<event>
 5   0  0.2360103E-06  0.2890649E+04  0.7818609E-02  0.8275665E-01
       -2   -1    0    0    0  501  0.00000000000E+00  0.00000000000E+00  0.14534163476E+04  0.14534163476E+04  0.25500000920E-02 0.  1.
        2   -1    0    0  501    0  0.00000000000E+00  0.00000000000E+00 -0.14372779274E+04  0.14372779274E+04  0.25500000920E-02 0. -1.
    10030    2    1    2    0    0  0.00000000000E+00  0.00000000000E+00  0.16138420214E+02  0.28906942751E+04  0.28906492252E+04 0.  0.
        4    1    3    3  502    0  0.37440866611E+03 -0.13880683258E+04  0.15655080443E+03  0.14461760935E+04  0.12699999809E+01 0. -1.
       -4    1    3    3    0  502 -0.37440866611E+03  0.13880683258E+04 -0.14041238422E+03  0.14445181815E+04  0.12699999809E+01 0.  1.
</event>
<event>
 5   0  0.2425845E-06  0.2904378E+04  0.7818609E-02  0.8271576E-01
       -2   -1    0    0    0  501  0.00000000000E+00  0.00000000000E+00  0.12445897324E+04  0.12445897324E+04  0.25500000920E-02 0. -1.
        2   -1    0    0  501    0  0.00000000000E+00  0.00000000000E+00 -0.16944156606E+04  0.16944156606E+04  0.25500000920E-02 0.  1.
    10030    2    1    2    0    0  0.00000000000E+00  0.00000000000E+00 -0.44982592827E+03  0.29390053930E+04  0.29043776157E+04 0.  0.
        2    1    3    3  502    0 -0.10762075667E+04  0.59606923644E+03 -0.10056891836E+04  0.15890034598E+04  0.25500000920E-02 0.  1.
       -2    1    3    3    0  502  0.10762075667E+04 -0.59606923644E+03  0.55586325530E+03  0.13500019333E+04  0.25500000920E-02 0. -1.
</event>
<event>
 5   0  0.2325590E-06  0.2894084E+04  0.7818609E-02  0.8274640E-01
        2   -1    0    0  501    0  0.00000000000E+00  0.00000000000E+00  0.16338883662E+04  0.16338883662E+04  0.25500000920E-02 0. -1.
       -2   -1    0    0    0  501  0.00000000000E+00  0.00000000000E+00 -0.12815628567E+04  0.12815628567E+04  0.25500000920E-02 0.  1.
    10030    2    1    2    0    0  0.00000000000E+00  0.00000000000E+00  0.35232550956E+03  0.29154512229E+04  0.28940840638E+04 0.  0.
        5    1    3    3  502    0  0.92779972964E+03  0.75325763874E+03 -0.64576498332E+03  0.13583975531E+04  0.46999998093E+01 0.  1.
       -5    1    3    3    0  502 -0.92779972964E+03 -0.75325763874E+03  0.99809049288E+03  0.15570536698E+04  0.46999998093E+01 0. -1.
</event>
<event>
 5   0  0.2325590E-06  0.2904926E+04  0.7818609E-02  0.8271413E-01
        2   -1    0    0  501    0  0.00000000000E+00  0.00000000000E+00  0.26610521653E+04  0.26610521653E+04  0.25500000920E-02 0.  1.
       -2   -1    0    0    0  501  0.00000000000E+00  0.00000000000E+00 -0.79278741237E+03  0.79278741238E+03  0.25500000920E-02 0. -1.
    10030    2    1    2    0    0  0.00000000000E+00  0.00000000000E+00  0.18682647529E+04  0.34538395777E+04  0.29049259270E+04 0.  0.
        5    1    3    3  502    0  0.29471633099E+03 -0.10787915943E+02 -0.75680581892E+03  0.81225072018E+03  0.46999998093E+01 0. -1.
       -5    1    3    3    0  502 -0.29471633099E+03  0.10787915943E+02  0.26250705718E+04  0.26415888575E+04  0.46999998093E+01 0.  1.
</event>
<event>
 5   0  0.8483636E-07  0.2882216E+04  0.7818609E-02  0.8278189E-01
       -1   -1    0    0    0  501  0.00000000000E+00  0.00000000000E+00  0.18698017634E+04  0.18698017634E+04  0.50400001928E-02 0.  1.
        1   -1    0    0  501    0  0.00000000000E+00  0.00000000000E+00 -0.11107016125E+04  0.11107016125E+04  0.50400001928E-02 0. -1.
    10030    2    1    2    0    0  0.00000000000E+00  0.00000000000E+00  0.75910015092E+03  0.29805033759E+04  0.28822156988E+04 0.  0.
        2    1    3    3  502    0 -0.47211004990E+03 -0.64605450475E+03 -0.85987021290E+03  0.11745855036E+04  0.25500000920E-02 0. -1.
       -2    1    3    3    0  502  0.47211004990E+03  0.64605450475E+03  0.16189703638E+04  0.18059178722E+04  0.25500000920E-02 0.  1.
</event>
<event>
 5   0  0.8483636E-07  0.2901977E+04  0.7818609E-02  0.8272290E-01
       -1   -1    0    0    0  501  0.00000000000E+00  0.00000000000E+00  0.17777747810E+04  0.17777747810E+04  0.50400001928E-02 0.  1.
        1   -1    0    0  501    0  0.00000000000E+00  0.00000000000E+00 -0.11842712878E+04  0.11842712878E+04  0.50400001928E-02 0. -1.
    10030    2    1    2    0    0  0.00000000000E+00  0.00000000000E+00  0.59350349324E+03  0.29620460688E+04  0.29019770015E+04 0.  0.
        2    1    3    3  502    0  0.80647908694E+03 -0.10915581580E+04 -0.22715634174E+03  0.13760478675E+04  0.25500000920E-02 0. -1.
       -2    1    3    3    0  502 -0.80647908694E+03  0.10915581580E+04  0.82065983498E+03  0.15859982014E+04  0.25500000920E-02 0.  1.
</event>
<event>
 5   0  0.8483636E-07  0.2918640E+04  0.7818609E-02  0.8267353E-01
        1   -1    0    0  501    0  0.00000000000E+00  0.00000000000E+00  0.23339205529E+04  0.23339205530E+04  0.50400001928E-02 0.  1.
       -1   -1    0    0    0  501  0.00000000000E+00  0.00000000000E+00 -0.91246241987E+03  0.91246241989E+03  0.50400001928E-02 0. -1.
    10030    2    1    2    0    0  0.00000000000E+00  0.00000000000E+00  0.14214581331E+04  0.32463829728E+04  0.29186399542E+04 0.  0.
        2    1    3    3  502    0  0.26703094076E+02 -0.11951536175E+04 -0.22022073813E+03  0.12155666983E+04  0.25500000920E-02 0. -1.
       -2    1    3    3    0  502 -0.26703094076E+02  0.11951536175E+04  0.16416788712E+04  0.20308162745E+04  0.25500000920E-02 0.  1.
</event>
<event>
 5   0  0.8263673E-07  0.2918136E+04  0.7818609E-02  0.8267502E-01
       -1   -1    0    0    0  501  0.00000000000E+00  0.00000000000E+00  0.98623275188E+03  0.98623275190E+03  0.50400001928E-02 0.  1.
        1   -1    0    0  501    0  0.00000000000E+00  0.00000000000E+00 -0.21585971405E+04  0.21585971405E+04  0.50400001928E-02 0. -1.
    10030    2    1    2    0    0  0.00000000000E+00  0.00000000000E+00 -0.11723643886E+04  0.31448298924E+04  0.29181358420E+04 0.  0.
        5    1    3    3  502    0 -0.52909345381E+03 -0.30343501825E+03  0.84224564322E+03  0.10399098551E+04  0.46999998093E+01 0.  1.
       -5    1    3    3    0  502  0.52909345381E+03  0.30343501825E+03 -0.20146100318E+04  0.21049200373E+04  0.46999998093E+01 0. -1.
</event>
<event>
 5   0  0.2325590E-06  0.2902408E+04  0.7818609E-02  0.8272161E-01
        2   -1    0    0  501    0  0.00000000000E+00  0.00000000000E+00  0.13352998380E+04  0.13352998380E+04  0.25500000920E-02 0. -1.
       -2   -1    0    0    0  501  0.00000000000E+00  0.00000000000E+00 -0.15771691259E+04  0.15771691259E+04  0.25500000920E-02 0.  1.
    10030    2    1    2    0    0  0.00000000000E+00  0.00000000000E+00 -0.24186928791E+03  0.29124689638E+04  0.29024084332E+04 0.  0.
        5    1    3    3  502    0 -0.33676430034E+03  0.79938356104E+03 -0.12883878978E+04  0.15531869613E+04  0.46999998093E+01 0.  1.
       -5    1    3    3    0  502  0.33676430034E+03 -0.79938356104E+03  0.10465186099E+04  0.13592820025E+04  0.46999998093E+01 0. -1.
</event>
<event>
 5   0  0.8947674E-07  0.2789289E+04  0.7818609E-02  0.8306601E-01
        1   -1    0    0  501    0  0.00000000000E+00  0.00000000000E+00  0.17750620125E+04  0.17750620125E+04  0.50400001928E-02 0. -1.
       -1   -1    0    0    0  501  0.00000000000E+00  0.00000000000E+00 -0.10957553687E+04  0.10957553687E+04  0.50400001928E-02 0.  1.
    10030    2    1    2    0    0  0.00000000000E+00  0.00000000000E+00  0.67930664382E+03  0.28708173812E+04  0.27892893216E+04 0.  0.
        3    1    3    3  502    0 -0.66904395142E+03  0.12222832185E+04  0.39999848819E+03  0.14496878547E+04  0.10100000352E+00 0.  1.
       -3    1    3    3    0  502  0.66904395142E+03 -0.12222832185E+04  0.27930815563E+03  0.14211295265E+04  0.10100000352E+00 0. -1.
</event>
<event>
 5   0  0.8483636E-07  0.2908864E+04  0.7818609E-02  0.8270245E-01
       -1   -1    0    0    0  501  0.00000000000E+00  0.00000000000E+00  0.11609294069E+04  0.11609294069E+04  0.50400001928E-02 0.  1.
        1   -1    0    0  501    0  0.00000000000E+00  0.00000000000E+00 -0.18221366663E+04  0.18221366664E+04  0.50400001928E-02 0. -1.
    10030    2    1    2    0    0  0.00000000000E+00  0.00000000000E+00 -0.66120725947E+03  0.29830660732E+04  0.29088637227E+04 0.  0.
        2    1    3    3  502    0  0.12238879014E+04 -0.40096686763E+03 -0.10236353431E+04  0.16451459935E+04  0.25500000920E-02 0. -1.
       -2    1    3    3    0  502 -0.12238879014E+04  0.40096686763E+03  0.36242808368E+03  0.13379200798E+04  0.25500000920E-02 0.  1.
</event>
<event>
 5   0  0.8263673E-07  0.2900864E+04  0.7818609E-02  0.8272620E-01
        1   -1    0    0  501    0  0.00000000000E+00  0.00000000000E+00  0.12641299871E+04  0.12641299871E+04  0.50400001928E-02 0. -1.
       -1   -1    0    0    0  501  0.00000000000E+00  0.00000000000E+00 -0.16641903785E+04  0.16641903785E+04  0.50400001928E-02 0.  1.
    10030    2    1    2    0    0  0.00000000000E+00  0.00000000000E+00 -0.40006039140E+03  0.29283203656E+04  0.29008639828E+04 0.  0.
        5    1    3    3  502    0 -0.90683677608E+03 -0.82581046966E+03 -0.98157706173E+03  0.15709333176E+04  0.46999998093E+01 0.  1.
       -5    1    3    3    0  502  0.90683677608E+03  0.82581046966E+03  0.58151667034E+03  0.13573870480E+04  0.46999998093E+01 0. -1.
</event>
<event>
 5   0  0.2425845E-06  0.2894400E+04  0.7818609E-02  0.8274545E-01
       -2   -1    0    0    0  501  0.00000000000E+00  0.00000000000E+00  0.11238894530E+04  0.11238894530E+04  0.25500000920E-02 0. -1.
        2   -1    0    0  501    0  0.00000000000E+00  0.00000000000E+00 -0.18635180270E+04  0.18635180270E+04  0.25500000920E-02 0.  1.
    10030    2    1    2    0    0  0.00000000000E+00  0.00000000000E+00 -0.73962857399E+03  0.29874074799E+04  0.28944002874E+04 0.  0.
        2    1    3    3  502    0  0.56017676385E+03 -0.11240692998E+04  0.37235964290E+03  0.13099547706E+04  0.25500000920E-02 0. -1.
       -2    1    3    3    0  502 -0.56017676385E+03  0.11240692998E+04 -0.11119882169E+04  0.16774527093E+04  0.25500000920E-02 0.  1.
</event>
<event>
 5   0  0.2360103E-06  0.2886869E+04  0.7818609E-02  0.8276795E-01
        2   -1    0    0  501    0  0.00000000000E+00  0.00000000000E+00  0.72986144238E+03  0.72986144238E+03  0.25500000920E-02 0. -1.
       -2   -1    0    0    0  501  0.00000000000E+00  0.00000000000E+00 -0.28546563706E+04  0.28546563706E+04  0.25500000920E-02 0.  1.
    10030    2    1    2    0    0  0.00000000000E+00  0.00000000000E+00 -0.21247949283E+04  0.35845178130E+04  0.28868693190E+04 0.  0.
        4    1    3    3  502    0  0.50405024162E+03  0.11381987973E+04 -0.15510066049E+03  0.12544405032E+04  0.12699999809E+01 0.  1.
       -4    1    3    3    0  502 -0.50405024162E+03 -0.11381987973E+04 -0.19696942678E+04  0.23300773098E+04  0.12699999809E+01 0. -1.
</event>
<event>
 5   0  0.8947674E-07  0.2869575E+04  0.7818609E-02  0.8281988E-01
       -1   -1    0    0    0  501  0.00000000000E+00  0.00000000000E+00  0.12550213253E+04  0.12550213253E+04  0.50400001928E-02 0.  1.
        1   -1    0    0  501    0  0.00000000000E+00  0.00000000000E+00 -0.16403027309E+04  0.16403027309E+04  0.50400001928E-02 0. -1.
    10030    2    1    2    0    0  0.00000000000E+00  0.00000000000E+00 -0.38528140558E+03  0.28953240561E+04  0.28695748167E+04 0.  0.
        3    1    3    3  502    0  0.58837529657E+03 -0.13003246578E+04 -0.34087803135E+03  0.14673880018E+04  0.10100000352E+00 0.  1.
       -3    1    3    3    0  502 -0.58837529657E+03  0.13003246578E+04 -0.44403374231E+02  0.14279360543E+04  0.10100000352E+00 0. -1.
</event>
<event>
 5   0  0.2425845E-06  0.2901654E+04  0.7818609E-02  0.8272386E-01
        2   -1    0    0  501    0  0.00000000000E+00  0.00000000000E+00  0.12982652159E+04  0.12982652159E+04  0.25500000920E-02 0. -1.
       -2   -1    0    0    0  501  0.00000000000E+00  0.00000000000E+00 -0.16213162188E+04  0.16213162188E+04  0.25500000920E-02 0.  1.
    10030    2    1    2    0    0  0.00000000000E+00  0.00000000000E+00 -0.32305100296E+03  0.29195814347E+04  0.29016536326E+04 0.  0.
        2    1    3    3  502    0  0.11248986589E+04 -0.74540993361E+03  0.37455661747E+03  0.14004733563E+04  0.25500000920E-02 0.  1.
       -2    1    3    3    0  502 -0.11248986589E+04  0.74540993361E+03 -0.69760762043E+03  0.15191080784E+04  0.25500000920E-02 0. -1.
</event>
<event>
 5   0  0.8263673E-07  0.2900780E+04  0.7818609E-02  0.8272646E-01
        1   -1    0    0  501    0  0.00000000000E+00  0.00000000000E+00  0.18604511519E+04  0.18604511519E+04  0.50400001928E-02 0.  1.
       -1   -1    0    0    0  501  0.00000000000E+00  0.00000000000E+00 -0.11307099740E+04  0.11307099740E+04  0.50400001928E-02 0. -1.
    10030    2    1    2    0    0  0.00000000000E+00  0.00000000000E+00  0.72974117791E+03  0.29911611259E+04  0.29007796701E+04 0.  0.
        5    1    3    3  502    0 -0.49698490421E+03  0.11713881745E+04  0.10825921113E+04  0.16706801070E+04  0.46999998093E+01 0.  1.
       -5    1    3    3    0  502  0.49698490421E+03 -0.11713881745E+04 -0.35285093341E+03  0.13204810190E+04  0.46999998093E+01 0. -1.
</event>
<event>
 5   0  0.8357118E-07  0.2916863E+04  0.7818609E-02  0.8267878E-01
       -1   -1    0    0    0  501  0.00000000000E+00  0.00000000000E+00  0.12320434408E+04  0.12320434408E+04  0.50400001928E-02 0.  1.
        1   -1    0    0  501    0  0.00000000000E+00  0.00000000000E+00 -0.17264185467E+04  0.17264185467E+04  0.50400001928E-02 0. -1.
    10030    2    1    2    0    0  0.00000000000E+00  0.00000000000E+00 -0.49437510590E+03  0.29584619875E+04  0.29168631415E+04 0.  0.
        1    1    3    3  502    0 -0.81108171575E+03 -0.11252690841E+03 -0.14712573945E+04  0.16837797289E+04  0.50400001928E-02 0. -1.
       -1    1    3    3    0  502  0.81108171575E+03  0.11252690841E+03  0.97688228856E+03  0.12746822586E+04  0.50400001928E-02 0.  1.
</event>
<event>
 5   0  0.8355946E-07  0.2892900E+04  0.7818609E-02  0.8274993E-01
       -1   -1    0    0    0  501  0.00000000000E+00  0.00000000000E+00  0.10501404998E+04  0.10501404998E+04  0.50400001928E-02 0. -1.
        1   -1    0    0  501    0  0.00000000000E+00  0.00000000000E+00 -0.19923211777E+04  0.19923211777E+04  0.50400001928E-02 0.  1.
    10030    2    1    2    0    0  0.00000000000E+00  0.00000000000E+00 -0.94218067786E+03  0.30424616775E+04  0.28928996923E+04 0.  0.
        4    1    3    3  502    0  0.11751955733E+04 -0.58527622036E+03  0.16740714221E+03  0.13235027970E+04  0.12699999809E+01 0. -1.
       -4    1    3    3    0  502 -0.11751955733E+04  0.58527622036E+03 -0.11095878201E+04  0.17189588805E+04  0.12699999809E+01 0.  1.
</event>
<event>
 5   0  0.8263673E-07  0.2898014E+04  0.7818609E-02  0.8273469E-01
        1   -1    0    0  501    0  0.00000000000E+00  0.00000000000E+00  0.16210913605E+04  0.16210913605E+04  0.50400001928E-02 0.  1.
       -1   -1    0    0    0  501  0.00000000000E+00  0.00000000000E+00 -0.12951898769E+04  0.12951898769E+04  0.50400001928E-02 0. -1.
    10030    2    1    2    0    0  0.00000000000E+00  0.00000000000E+00  0.32590148359E+03  0.29162812374E+04  0.28980138852E+04 0.  0.
        5    1    3    3  502    0  0.10831654303E+04 -0.70840932781E+03 -0.49269890642E+03  0.13848701843E+04  0.46999998093E+01 0. -1.
       -5    1    3    3    0  502 -0.10831654303E+04  0.70840932781E+03  0.81860039001E+03  0.15314110531E+04  0.46999998093E+01 0.  1.
</event>
<event>
 5   0  0.8357118E-07  0.2899577E+04  0.7818609E-02  0.8273003E-01
        1   -1    0    0  501    0  0.00000000000E+00  0.00000000000E+00  0.16420009264E+04  0.16420009264E+04  0.50400001928E-02 0. -1.
       -1   -1    0    0    0  501  0.00000000000E+00  0.00000000000E+00 -0.12800765940E+04  0.12800765940E+04  0.50400001928E-02 0.  1.
    10030    2    1    2    0    0  0.00000000000E+00  0.00000000000E+00  0.36192433235E+03  0.29220775204E+04  0.28995771783E+04 0.  0.
        1    1    3    3  502    0 -0.64884636345E+03  0.12848019832E+04  0.59214596911E+01  0.14393584693E+04  0.50400001928E-02 0.  1.
       -1    1    3    3    0  502  0.64884636345E+03 -0.12848019832E+04  0.35600287266E+03  0.14827190512E+04  0.50400001928E-02 0. -1.
</event>
<event>
 5   0  0.2378690E-06  0.2903339E+04  0.7818609E-02  0.8271885E-01
        2   -1    0    0  501    0  0.00000000000E+00  0.00000000000E+00  0.26164151849E+04  0.26164151849E+04  0.25500000920E-02 0.  1.
       -2   -1    0    0    0  501  0.00000000000E+00  0.00000000000E+00 -0.80543214049E+03  0.80543214049E+03  0.25500000920E-02 0. -1.
    10030    2    1    2    0    0  0.00000000000E+00  0.00000000000E+00  0.18109830444E+04  0.34218473254E+04  0.29033393758E+04 0.  0.
        3    1    3    3  502    0  0.13274043257E+04 -0.14215656033E+03  0.15775299575E+04  0.20665941810E+04  0.10100000352E+00 0. -1.
       -3    1    3    3    0  502 -0.13274043257E+04  0.14215656033E+03  0.23345308689E+03  0.13552531445E+04  0.10100000352E+00 0.  1.
</event>
<event>
 5   0  0.2378690E-06  0.2912587E+04  0.7818609E-02  0.8269142E-01
        2   -1    0    0  501    0  0.00000000000E+00  0.00000000000E+00  0.13678975006E+04  0.13678975006E+04  0.25500000920E-02 0. -1.
       -2   -1    0    0    0  501  0.00000000000E+00  0.00000000000E+00 -0.15504022601E+04  0.15504022601E+04  0.25500000920E-02 0.  1.
    10030    2    1    2    0    0  0.00000000000E+00  0.00000000000E+00 -0.18250475945E+03  0.29182997607E+04  0.29125874246E+04 0.  0.
        3    1    3    3  502    0  0.65801417829E+03 -0.64538571089E+03 -0.12209769134E+04  0.15298006432E+04  0.10100000352E+00 0.  1.
       -3    1    3    3    0  502 -0.65801417829E+03  0.64538571089E+03  0.10384721539E+04  0.13884991175E+04  0.10100000352E+00 0. -1.
</event>
<event>
 5   0  0.8263673E-07  0.2900352E+04  0.7818609E-02  0.8272773E-01
        1   -1    0    0  501    0  0.00000000000E+00  0.00000000000E+00  0.24799870232E+04  0.24799870232E+04  0.50400001928E-02 0. -1.
       -1   -1    0    0    0  501  0.00000000000E+00  0.00000000000E+00 -0.84799279692E+03  0.84799279694E+03  0.50400001928E-02 0.  1.
    10030    2    1    2    0    0  0.00000000000E+00  0.00000000000E+00  0.16319942263E+04  0.33279798202E+04  0.29003524835E+04 0.  0.
        5    1    3    3  502    0 -0.96164109127E+03  0.78911286652E+03  0.16712334378E+04  0.20833857055E+04  0.46999998093E+01 0. -1.
       -5    1    3    3    0  502  0.96164109127E+03 -0.78911286652E+03 -0.39239211441E+02  0.12445941147E+04  0.46999998093E+01 0.  1.
</event>
<event>
 5   0  0.8947674E-07  0.2890869E+04  0.7818609E-02  0.8275599E-01
       -1   -1    0    0    0  501  0.00000000000E+00  0.00000000000E+00  0.18025141369E+04  0.18025141369E+04  0.50400001928E-02 0.  1.
        1   -1    0    0  501    0  0.00000000000E+00  0.00000000000E+00 -0.11590930488E+04  0.11590930488E+04  0.50400001928E-02 0. -1.
    10030    2    1    2    0    0  0.00000000000E+00  0.00000000000E+00  0.64342108809E+03  0.29616071857E+04  0.28908694930E+04 0.  0.
        3    1    3    3  502    0  0.64731688830E+03 -0.84733171003E+03  0.13214432582E+04  0.16979995511E+04  0.10100000352E+00 0.  1.
       -3    1    3    3    0  502 -0.64731688830E+03  0.84733171003E+03 -0.67802217013E+03  0.12636076346E+04  0.10100000352E+00 0. -1.
</event>
<event>
 5   0  0.8947674E-07  0.2928815E+04  0.7818609E-02  0.8264355E-01
        1   -1    0    0  501    0  0.00000000000E+00  0.00000000000E+00  0.12375261853E+04  0.12375261853E+04  0.50400001928E-02 0. -1.
       -1   -1    0    0    0  501  0.00000000000E+00  0.00000000000E+00 -0.17328844542E+04  0.17328844542E+04  0.50400001928E-02 0.  1.
    10030    2    1    2    0    0  0.00000000000E+00  0.00000000000E+00 -0.49535826886E+03  0.29704106395E+04  0.29288153838E+04 0.  0.
        3    1    3    3  502    0  0.55226277668E+03  0.65491593012E+03  0.95686712448E+03  0.12843300799E+04  0.10100000352E+00 0. -1.
       -3    1    3    3    0  502 -0.55226277668E+03 -0.65491593012E+03 -0.14522253933E+04  0.16860805596E+04  0.10100000352E+00 0.  1.
</event>
<event>
 5   0  0.2425845E-06  0.2911884E+04  0.7818609E-02  0.8269350E-01
       -2   -1    0    0    0  501  0.00000000000E+00  0.00000000000E+00  0.14702476056E+04  0.14702476056E+04  0.25500000920E-02 0. -1.
        2   -1    0    0  501    0  0.00000000000E+00  0.00000000000E+00 -0.14417755940E+04  0.14417755940E+04  0.25500000920E-02 0.  1.
    10030    2    1    2    0    0  0.00000000000E+00  0.00000000000E+00  0.28472011594E+02  0.29120231995E+04  0.29118840051E+04 0.  0.
        2    1    3    3  502    0  0.12599617775E+04  0.72379222657E+03  0.10582775607E+03  0.14569071288E+04  0.25500000920E-02 0. -1.
       -2    1    3    3    0  502 -0.12599617775E+04 -0.72379222657E+03 -0.77355744479E+02  0.14551160707E+04  0.25500000920E-02 0.  1.
</event>
<event>
 5   0  0.2425845E-06  0.2896605E+04  0.7818609E-02  0.8273888E-01
       -2   -1    0    0    0  501  0.00000000000E+00  0.00000000000E+00  0.99371915756E+03  0.99371915756E+03  0.25500000920E-02 0.  1.
        2   -1    0    0  501    0  0.00000000000E+00  0.00000000000E+00 -0.21108373245E+04  0.21108373245E+04  0.25500000920E-02 0. -1.
    10030    2    1    2    0    0  0.00000000000E+00  0.00000000000E+00 -0.11171181670E+04  0.31045564821E+04  0.28966045556E+04 0.  0.
        2    1    3    3  502    0  0.49213359104E+03 -0.13562688989E+04 -0.42333189361E+03  0.15036191970E+04  0.25500000920E-02 0. -1.
       -2    1    3    3    0  502 -0.49213359104E+03  0.13562688989E+04 -0.69378627337E+03  0.16009372851E+04  0.25500000920E-02 0.  1.
</event>
<event>
 5   0  0.8355946E-07  0.2910680E+04  0.7818609E-02  0.8269707E-01
        1   -1    0    0  501    0  0.00000000000E+00  0.00000000000E+00  0.77434130041E+03  0.77434130043E+03  0.50400001928E-02 0.  1.
       -1   -1    0    0    0  501  0.00000000000E+00  0.00000000000E+00 -0.27352463899E+04  0.27352463899E+04  0.50400001928E-02 0. -1.
    10030    2    1    2    0    0  0.00000000000E+00  0.00000000000E+00 -0.19609050895E+04  0.35095876903E+04  0.29106798151E+04 0.  0.
        4    1    3    3  502    0  0.13571722683E+04 -0.27662634287E+03 -0.44179397523E+03  0.14538301925E+04  0.12699999809E+01 0.  1.
       -4    1    3    3    0  502 -0.13571722683E+04  0.27662634287E+03 -0.15191111142E+04  0.20557574978E+04  0.12699999809E+01 0. -1.
</event>
<event>
 5   0  0.2304435E-06  0.2893832E+04  0.7818609E-02  0.8274715E-01
        2   -1    0    0  501    0  0.00000000000E+00  0.00000000000E+00  0.78976150971E+03  0.78976150972E+03  0.25500000920E-02 0.  1.
       -2   -1    0    0    0  501  0.00000000000E+00  0.00000000000E+00 -0.26508845381E+04  0.26508845381E+04  0.25500000920E-02 0. -1.
    10030    2    1    2    0    0  0.00000000000E+00  0.00000000000E+00 -0.18611230284E+04  0.34406460478E+04  0.28938324588E+04 0.  0.
        1    1    3    3  502    0  0.65762387502E+03  0.95112906898E+03 -0.19646482990E+04  0.22796838828E+04  0.50400001928E-02 0. -1.
       -1    1    3    3    0  502 -0.65762387502E+03 -0.95112906898E+03  0.10352527061E+03  0.11609621650E+04  0.50400001928E-02 0.  1.
</event>
<event>
 5   0  0.7621125E-07  0.2901032E+04  0.7818609E-02  0.8272570E-01
       -4   -1    0    0    0  501  0.00000000000E+00  0.00000000000E+00  0.17477123121E+04  0.17477127735E+04  0.12699999809E+01 0.  1.
        4   -1    0    0  501    0  0.00000000000E+00  0.00000000000E+00 -0.12038568419E+04  0.12038575118E+04  0.12699999809E+01 0. -1.
    10030    2    1    2    0    0  0.00000000000E+00  0.00000000000E+00  0.54385547022E+03  0.29515702853E+04  0.29010322950E+04 0.  0.
        3    1    3    3  502    0 -0.12642404356E+03 -0.32975541342E+03  0.17033035694E+04  0.17395300317E+04  0.10100000352E+00 0.  1.
       -3    1    3    3    0  502  0.12642404356E+03  0.32975541342E+03 -0.11594480992E+04  0.12120402536E+04  0.10100000352E+00 0. -1.
</event>
<event>
 5   0  0.7621125E-07  0.2923972E+04  0.7818609E-02  0.8265781E-01
       -4   -1    0    0    0  501  0.00000000000E+00  0.00000000000E+00  0.15889183295E+04  0.15889188370E+04  0.12699999809E+01 0. -1.
        4   -1    0    0  501    0  0.00000000000E+00  0.00000000000E+00 -0.13451926124E+04  0.13451932119E+04  0.12699999809E+01 0.  1.
    10030    2    1    2    0    0  0.00000000000E+00  0.00000000000E+00  0.24372571707E+03  0.29341120490E+04  0.29239718348E+04 0.  0.
        3    1    3    3  502    0  0.45879830934E+02 -0.14549131319E+04 -0.14718059807E+02  0.14557107583E+04  0.10100000352E+00 0. -1.
       -3    1    3    3    0  502 -0.45879830934E+02  0.14549131319E+04  0.25844377688E+03  0.14784012907E+04  0.10100000352E+00 0.  1.
</event>
<event>
 5   0  0.2425845E-06  0.2899419E+04  0.7818609E-02  0.8273050E-01
        2   -1    0    0  501    0  0.00000000000E+00  0.00000000000E+00  0.14918647713E+04  0.14918647713E+04  0.25500000920E-02 0. -1.
       -2   -1    0    0    0  501  0.00000000000E+00  0.00000000000E+00 -0.14087453071E+04  0.14087453071E+04  0.25500000920E-02 0.  1.
    10030    2    1    2    0    0  0.00000000000E+00  0.00000000000E+00  0.83119464146E+02  0.29006100784E+04  0.28994189041E+04 0.  0.
        2    1    3    3  502    0  0.12906653696E+04  0.36500883871E+03 -0.50876529992E+03  0.14345350044E+04  0.25500000920E-02 0.  1.
       -2    1    3    3    0  502 -0.12906653696E+04 -0.36500883871E+03  0.59188476407E+03  0.14660750740E+04  0.25500000920E-02 0. -1.
</event>
<event>
 5   0  0.7621125E-07  0.2904326E+04  0.7818609E-02  0.8271591E-01
       -3   -1    0    0    0  501  0.00000000000E+00  0.00000000000E+00  0.98438847657E+03  0.98438848175E+03  0.10100000352E+00 0.  1.
        3   -1    0    0  501    0  0.00000000000E+00  0.00000000000E+00 -0.21422213532E+04  0.21422213556E+04  0.10100000352E+00 0. -1.
    10030    2    1    2    0    0  0.00000000000E+00  0.00000000000E+00 -0.11578328767E+04  0.31266098374E+04  0.29043264460E+04 0.  0.
        2    1    3    3  502    0 -0.13507208572E+02  0.14171474323E+03 -0.21346914846E+04  0.21394329266E+04  0.25500000920E-02 0. -1.
       -2    1    3    3    0  502  0.13507208572E+02 -0.14171474323E+03  0.97685860795E+03  0.98717691072E+03  0.25500000920E-02 0.  1.
</event>
<event>
 5   0  0.2325590E-06  0.2945340E+04  0.7818609E-02  0.8259514E-01
       -2   -1    0    0    0  501  0.00000000000E+00  0.00000000000E+00  0.10757709280E+04  0.10757709280E+04  0.25500000920E-02 0.  1.
        2   -1    0    0  501    0  0.00000000000E+00  0.00000000000E+00 -0.20160021291E+04  0.20160021291E+04  0.25500000920E-02 0. -1.
    10030    2    1    2    0    0  0.00000000000E+00  0.00000000000E+00 -0.94023120103E+03  0.30917730571E+04  0.29453396961E+04 0.  0.
        5    1    3    3  502    0 -0.34681010618E+03 -0.14179357115E+04 -0.67451535971E+03  0.16080460168E+04  0.46999998093E+01 0. -1.
       -5    1    3    3    0  502  0.34681010618E+03  0.14179357115E+04 -0.26571584132E+03  0.14837270403E+04  0.46999998093E+01 0.  1.
</event>
<event>
 5   0  0.8947674E-07  0.2905512E+04  0.7818609E-02  0.8271239E-01
       -1   -1    0    0    0  501  0.00000000000E+00  0.00000000000E+00  0.97506482905E+03  0.97506482906E+03  0.50400001928E-02 0.  1.
        1   -1    0    0  501    0  0.00000000000E+00  0.00000000000E+00 -0.21644712821E+04  0.21644712821E+04  0.50400001928E-02 0. -1.
    10030    2    1    2    0    0  0.00000000000E+00  0.00000000000E+00 -0.11894064531E+04  0.31395361112E+04  0.29055118797E+04 0.  0.
        3    1    3    3  502    0 -0.56736469339E+03  0.94731007321E+03 -0.16147746859E+04  0.19562199177E+04  0.10100000352E+00 0. -1.
       -3    1    3    3    0  502  0.56736469339E+03 -0.94731007321E+03  0.42536823279E+03  0.11833161935E+04  0.10100000352E+00 0.  1.
</event>
<event>
 5   0  0.2360103E-06  0.2906093E+04  0.7818609E-02  0.8271067E-01
        2   -1    0    0  501    0  0.00000000000E+00  0.00000000000E+00  0.27196154514E+04  0.27196154514E+04  0.25500000920E-02 0.  1.
       -2   -1    0    0    0  501  0.00000000000E+00  0.00000000000E+00 -0.77633913784E+03  0.77633913785E+03  0.25500000920E-02 0. -1.
    10030    2    1    2    0    0  0.00000000000E+00  0.00000000000E+00  0.19432763135E+04  0.34959545892E+04  0.29060928511E+04 0.  0.
        4    1    3    3  502    0 -0.10687010392E+03  0.43005956455E+03 -0.69306677966E+03  0.82262726805E+03  0.12699999809E+01 0. -1.
       -4    1    3    3    0  502  0.10687010392E+03 -0.43005956455E+03  0.26363430932E+04  0.26733273212E+04  0.12699999809E+01 0.  1.
</event>
<event>
 5   0  0.8355946E-07  0.2892756E+04  0.7818609E-02  0.8275036E-01
       -1   -1    0    0    0  501  0.00000000000E+00  0.00000000000E+00  0.15632102652E+04  0.15632102653E+04  0.50400001928E-02 0.  1.
        1   -1    0    0  501    0  0.00000000000E+00  0.00000000000E+00 -0.13382775102E+04  0.13382775102E+04  0.50400001928E-02 0. -1.
    10030    2    1    2    0    0  0.00000000000E+00  0.00000000000E+00  0.22493275504E+03  0.29014877755E+04  0.28927558775E+04 0.  0.
        4    1    3    3  502    0  0.71809988915E+03 -0.45667485316E+03 -0.10605886359E+04  0.13598048536E+04  0.12699999809E+01 0. -1.
       -4    1    3    3    0  502 -0.71809988915E+03  0.45667485316E+03  0.12855213909E+04  0.15416829219E+04  0.12699999809E+01 0.  1.
</event>
<event>
 5   0  0.8357118E-07  0.2908847E+04  0.7818609E-02  0.8270250E-01
        1   -1    0    0  501    0  0.00000000000E+00  0.00000000000E+00  0.14767377456E+04  0.14767377456E+04  0.50400001928E-02 0. -1.
       -1   -1    0    0    0  501  0.00000000000E+00  0.00000000000E+00 -0.14324459603E+04  0.14324459603E+04  0.50400001928E-02 0.  1.
    10030    2    1    2    0    0  0.00000000000E+00  0.00000000000E+00  0.44291785326E+02  0.29091837059E+04  0.29088465193E+04 0.  0.
        1    1    3    3  502    0  0.25126984237E+03 -0.79995550889E+03  0.12106782246E+04  0.14726870385E+04  0.50400001928E-02 0. -1.
       -1    1    3    3    0  502 -0.25126984237E+03  0.79995550889E+03 -0.11663864392E+04  0.14364966674E+04  0.50400001928E-02 0.  1.
</event>
<event>
 5   0  0.2325590E-06  0.2889765E+04  0.7818609E-02  0.8275929E-01
       -2   -1    0    0    0  501  0.00000000000E+00  0.00000000000E+00  0.13598224660E+04  0.13598224660E+04  0.25500000920E-02 0. -1.
        2   -1    0    0  501    0  0.00000000000E+00  0.00000000000E+00 -0.15352630616E+04  0.15352630616E+04  0.25500000920E-02 0.  1.
    10030    2    1    2    0    0  0.00000000000E+00  0.00000000000E+00 -0.17544059561E+03  0.28950855275E+04  0.28897648363E+04 0.  0.
        5    1    3    3  502    0  0.71368940724E+03  0.66246241400E+03  0.98169726575E+03  0.13827366458E+04  0.46999998093E+01 0. -1.
       -5    1    3    3    0  502 -0.71368940724E+03 -0.66246241400E+03 -0.11571378614E+04  0.15123488818E+04  0.46999998093E+01 0.  1.
</event>
<event>
 5   0  0.8263673E-07  0.2889319E+04  0.7818609E-02  0.8276063E-01
        1   -1    0    0  501    0  0.00000000000E+00  0.00000000000E+00  0.20600409057E+04  0.20600409057E+04  0.50400001928E-02 0.  1.
       -1   -1    0    0    0  501  0.00000000000E+00  0.00000000000E+00 -0.10131064234E+04  0.10131064234E+04  0.50400001928E-02 0. -1.
    10030    2    1    2    0    0  0.00000000000E+00  0.00000000000E+00  0.10469344823E+04  0.30731473291E+04  0.28893187253E+04 0.  0.
        5    1    3    3  502    0  0.49644634198E+02 -0.87005245488E+03 -0.70203879063E+03  0.11190783786E+04  0.46999998093E+01 0. -1.
       -5    1    3    3    0  502 -0.49644634198E+02  0.87005245488E+03  0.17489732729E+04  0.19540689505E+04  0.46999998093E+01 0.  1.
</event>
<event>
 5   0  0.2378690E-06  0.2896609E+04  0.7818609E-02  0.8273887E-01
       -2   -1    0    0    0  501  0.00000000000E+00  0.00000000000E+00  0.12536569810E+04  0.12536569810E+04  0.25500000920E-02 0.  1.
        2   -1    0    0  501    0  0.00000000000E+00  0.00000000000E+00 -0.16731741652E+04  0.16731741652E+04  0.25500000920E-02 0. -1.
    10030    2    1    2    0    0  0.00000000000E+00  0.00000000000E+00 -0.41951718415E+03  0.29268311462E+04  0.28966093783E+04 0.  0.
        3    1    3    3  502    0 -0.12065074768E+04 -0.60444674479E+03 -0.74114508222E+03  0.15395818269E+04  0.10100000352E+00 0. -1.
       -3    1    3    3    0  502  0.12065074768E+04  0.60444674479E+03  0.32162789807E+03  0.13872493193E+04  0.10100000352E+00 0.  1.
</event>
<event>
 5   0  0.2304435E-06  0.2905380E+04  0.7818609E-02  0.8271279E-01
        2   -1    0    0  501    0  0.00000000000E+00  0.00000000000E+00  0.14162591992E+04  0.14162591992E+04  0.25500000920E-02 0.  1.
       -2   -1    0    0    0  501  0.00000000000E+00  0.00000000000E+00 -0.14900581530E+04  0.14900581530E+04  0.25500000920E-02 0. -1.
    10030    2    1    2    0    0  0.00000000000E+00  0.00000000000E+00 -0.73798953729E+02  0.29063173522E+04  0.29053802275E+04 0.  0.
        1    1    3    3  502    0 -0.19034515699E+03  0.98714020014E+03  0.10120719219E+04  0.14265225651E+04  0.50400001928E-02 0. -1.
       -1    1    3    3    0  502  0.19034515699E+03 -0.98714020014E+03 -0.10858708756E+04  0.14797947871E+04  0.50400001928E-02 0.  1.
</event>
<event>
 5   0  0.8483636E-07  0.2933274E+04  0.7818609E-02  0.8263046E-01
        1   -1    0    0  501    0  0.00000000000E+00  0.00000000000E+00  0.18592495736E+04  0.18592495736E+04  0.50400001928E-02 0. -1.
       -1   -1    0    0    0  501  0.00000000000E+00  0.00000000000E+00 -0.11569313321E+04  0.11569313321E+04  0.50400001928E-02 0.  1.
    10030    2    1    2    0    0  0.00000000000E+00  0.00000000000E+00  0.70231824148E+03  0.30161809057E+04  0.29332739974E+04 0.  0.
        2    1    3    3  502    0 -0.12230328114E+04  0.40678660110E+03 -0.36843451871E+03  0.13405329504E+04  0.25500000920E-02 0.  1.
       -2    1    3    3    0  502  0.12230328114E+04 -0.40678660110E+03  0.10707527602E+04  0.16756479553E+04  0.25500000920E-02 0. -1.
</event>
<event>
 5   0  0.8483636E-07  0.2904957E+04  0.7818609E-02  0.8271404E-01
       -1   -1    0    0    0  501  0.00000000000E+00  0.00000000000E+00  0.17226635967E+04  0.17226635967E+04  0.50400001928E-02 0.  1.
        1   -1    0    0  501    0  0.00000000000E+00  0.00000000000E+00 -0.12246698895E+04  0.12246698895E+04  0.50400001928E-02 0. -1.
    10030    2    1    2    0    0  0.00000000000E+00  0.00000000000E+00  0.49799370716E+03  0.29473334862E+04  0.29049573054E+04 0.  0.
        2    1    3    3  502    0 -0.12054399967E+04  0.72551411272E+03 -0.11715248654E+03  0.14118006298E+04  0.25500000920E-02 0. -1.
       -2    1    3    3    0  502  0.12054399967E+04 -0.72551411272E+03  0.61514619370E+03  0.15355328564E+04  0.25500000920E-02 0.  1.
</event>
<event>
 5   0  0.2378690E-06  0.2737563E+04  0.7818609E-02  0.8322919E-01
       -2   -1    0    0    0  501  0.00000000000E+00  0.00000000000E+00  0.11267077003E+04  0.11267077003E+04  0.25500000920E-02 0.  1.
        2   -1    0    0  501    0  0.00000000000E+00  0.00000000000E+00 -0.16628645410E+04  0.16628645410E+04  0.25500000920E-02 0. -1.
    10030    2    1    2    0    0  0.00000000000E+00  0.00000000000E+00 -0.53615684068E+03  0.27895722412E+04  0.27375626260E+04 0.  0.
        3    1    3    3  502    0 -0.10647797492E+04  0.18222792120E+03  0.58848626312E+03  0.12301540642E+04  0.10100000352E+00 0.  1.
       -3    1    3    3    0  502  0.10647797492E+04 -0.18222792120E+03 -0.11246431038E+04  0.15594181770E+04  0.10100000352E+00 0. -1.
</event>
<event>
 5   0  0.2325590E-06  0.2899739E+04  0.7818609E-02  0.8272955E-01
       -2   -1    0    0    0  501  0.00000000000E+00  0.00000000000E+00  0.12479468141E+04  0.12479468141E+04  0.25500000920E-02 0. -1.
        2   -1    0    0  501    0  0.00000000000E+00  0.00000000000E+00 -0.16844642521E+04  0.16844642521E+04  0.25500000920E-02 0.  1.
    10030    2    1    2    0    0  0.00000000000E+00  0.00000000000E+00 -0.43651743796E+03  0.29324110662E+04  0.28997391585E+04 0.  0.
        5    1    3    3  502    0 -0.13738659858E+04 -0.30760269378E+03  0.13201443110E+03  0.14140640241E+04  0.46999998093E+01 0.  1.
       -5    1    3    3    0  502  0.13738659858E+04  0.30760269378E+03 -0.56853186906E+03  0.15183470421E+04  0.46999998093E+01 0. -1.
</event>
<event>
 5   0  0.8355946E-07  0.2901349E+04  0.7818609E-02  0.8272476E-01
       -1   -1    0    0    0  501  0.00000000000E+00  0.00000000000E+00  0.18721231614E+04  0.18721231614E+04  0.50400001928E-02 0.  1.
        1   -1    0    0  501    0  0.00000000000E+00  0.00000000000E+00 -0.11241014497E+04  0.11241014497E+04  0.50400001928E-02 0. -1.
    10030    2    1    2    0    0  0.00000000000E+00  0.00000000000E+00  0.74802171173E+03  0.29962246111E+04  0.29013488999E+04 0.  0.
        4    1    3    3  502    0 -0.26683248854E+03  0.23339473037E+03 -0.10786806344E+04  0.11354409721E+04  0.12699999809E+01 0. -1.
       -4    1    3    3    0  502  0.26683248854E+03 -0.23339473037E+03  0.18267023461E+04  0.18607836391E+04  0.12699999809E+01 0.  1.
</event>
<event>
 5   0  0.8355946E-07  0.2927414E+04  0.7818609E-02  0.8264768E-01
       -1   -1    0    0    0  501  0.00000000000E+00  0.00000000000E+00  0.10622832278E+04  0.10622832278E+04  0.50400001928E-02 0.  1.
        1   -1    0    0  501    0  0.00000000000E+00  0.00000000000E+00 -0.20168233577E+04  0.20168233577E+04  0.50400001928E-02 0. -1.
    10030    2    1    2    0    0  0.00000000000E+00  0.00000000000E+00 -0.95454012987E+03  0.30791065855E+04  0.29274136205E+04 0.  0.
        4    1    3    3  502    0  0.13803952525E+04  0.14234965706E+03 -0.96688153755E+03  0.16913355665E+04  0.12699999809E+01 0. -1.
       -4    1    3    3    0  502 -0.13803952525E+04 -0.14234965706E+03  0.12341407677E+02  0.13877710190E+04  0.12699999809E+01 0.  1.
</event>
<event>
 5   0  0.8357118E-07  0.2896115E+04  0.7818609E-02  0.8274034E-01
        1   -1    0    0  501    0  0.00000000000E+00  0.00000000000E+00  0.20854956505E+04  0.20854956505E+04  0.50400001928E-02 0. -1.
       -1   -1    0    0    0  501  0.00000000000E+00  0.00000000000E+00 -0.10054539851E+04  0.10054539851E+04  0.50400001928E-02 0.  1.
    10030    2    1    2    0    0  0.00000000000E+00  0.00000000000E+00  0.10800416655E+04  0.30909496356E+04  0.28961145783E+04 0.  0.
        1    1    3    3  502    0 -0.83924016963E+03  0.15866223981E+03  0.17880351080E+04  0.19815567911E+04  0.50400001928E-02 0. -1.
       -1    1    3    3    0  502  0.83924016963E+03 -0.15866223981E+03 -0.70799344258E+03  0.11093928445E+04  0.50400001928E-02 0.  1.
</event>
<event>
 5   0  0.8357118E-07  0.2899843E+04  0.7818609E-02  0.8272924E-01
        1   -1    0    0  501    0  0.00000000000E+00  0.00000000000E+00  0.18737946208E+04  0.18737946208E+04  0.50400001928E-02 0. -1.
       -1   -1    0    0    0  501  0.00000000000E+00  0.00000000000E+00 -0.11219329921E+04  0.11219329921E+04  0.50400001928E-02 0.  1.
    10030    2    1    2    0    0  0.00000000000E+00  0.00000000000E+00  0.75186162869E+03  0.29957276129E+04  0.28998427582E+04 0.  0.
        1    1    3    3  502    0  0.26106701744E+03  0.13523905978E+04  0.84384871011E+03  0.16153008891E+04  0.50400001928E-02 0. -1.
       -1    1    3    3    0  502 -0.26106701744E+03 -0.13523905978E+04 -0.91987081413E+02  0.13804267238E+04  0.50400001928E-02 0.  1.
</event>
<event>
 5   0  0.8483636E-07  0.2899222E+04  0.7818609E-02  0.8273109E-01
        1   -1    0    0  501    0  0.00000000000E+00  0.00000000000E+00  0.14054244350E+04  0.14054244350E+04  0.50400001928E-02 0.  1.
       -1   -1    0    0    0  501  0.00000000000E+00  0.00000000000E+00 -0.14951869998E+04  0.14951869998E+04  0.50400001928E-02 0. -1.
    10030    2    1    2    0    0  0.00000000000E+00  0.00000000000E+00 -0.89762564721E+02  0.29006114348E+04  0.28992222022E+04 0.  0.
        2    1    3    3  502    0 -0.60078573965E+03  0.12190917346E+04  0.45958665033E+03  0.14346944105E+04  0.25500000920E-02 0.  1.
       -2    1    3    3    0  502  0.60078573965E+03 -0.12190917346E+04 -0.54934921505E+03  0.14659170244E+04  0.25500000920E-02 0. -1.
</event>
<event>
 5   0  0.8263673E-07  0.2899313E+04  0.7818609E-02  0.8273082E-01
        1   -1    0    0  501    0  0.00000000000E+00  0.00000000000E+00  0.18721084302E+04  0.18721084302E+04  0.50400001928E-02 0. -1.
       -1   -1    0    0    0  501  0.00000000000E+00  0.00000000000E+00 -0.11225335221E+04  0.11225335221E+04  0.50400001928E-02 0.  1.
    10030    2    1    2    0    0  0.00000000000E+00  0.00000000000E+00  0.74957490808E+03  0.29946419523E+04  0.28993133462E+04 0.  0.
        5    1    3    3  502    0  0.57467583257E+03  0.29449502589E+03 -0.96577055437E+03  0.11617721319E+04  0.46999998093E+01 0.  1.
       -5    1    3    3    0  502 -0.57467583257E+03 -0.29449502589E+03  0.17153454624E+04  0.18328698203E+04  0.46999998093E+01 0. -1.
</event>
<event>
 5   0  0.8483636E-07  0.2911203E+04  0.7818609E-02  0.8269552E-01
       -1   -1    0    0    0  501  0.00000000000E+00  0.00000000000E+00  0.12836042916E+04  0.12836042916E+04  0.50400001928E-02 0.  1.
        1   -1    0    0  501    0  0.00000000000E+00  0.00000000000E+00 -0.16506457585E+04  0.16506457586E+04  0.50400001928E-02 0. -1.
    10030    2    1    2    0    0  0.00000000000E+00  0.00000000000E+00 -0.36704146691E+03  0.29342500502E+04  0.29112031737E+04 0.  0.
        2    1    3    3  502    0  0.41074033839E+03 -0.10266179147E+04 -0.11376531732E+04  0.15864761930E+04  0.25500000920E-02 0. -1.
       -2    1    3    3    0  502 -0.41074033839E+03  0.10266179147E+04  0.77061170630E+03  0.13477738572E+04  0.25500000920E-02 0.  1.
</event>
<event>
 5   0  0.2304435E-06  0.2908082E+04  0.7818609E-02  0.8270477E-01
       -2   -1    0    0    0  501  0.00000000000E+00  0.00000000000E+00  0.10032412041E+04  0.10032412041E+04  0.25500000920E-02 0.  1.
        2   -1    0    0  501    0  0.00000000000E+00  0.00000000000E+00 -0.21074050042E+04  0.21074050042E+04  0.25500000920E-02 0. -1.
    10030    2    1    2    0    0  0.00000000000E+00  0.00000000000E+00 -0.11041638001E+04  0.31106462083E+04  0.29080822092E+04 0.  0.
        1    1    3    3  502    0 -0.41051061968E+03 -0.23608280850E+03  0.91844411826E+03  0.10333410181E+04  0.50400001928E-02 0.  1.
       -1    1    3    3    0  502  0.41051061968E+03  0.23608280850E+03 -0.20226079184E+04  0.20773051901E+04  0.50400001928E-02 0. -1.
</event>
<event>
 5   0  0.2304435E-06  0.2900290E+04  0.7818609E-02  0.8272791E-01
        2   -1    0    0  501    0  0.00000000000E+00  0.00000000000E+00  0.24244024007E+04  0.24244024007E+04  0.25500000920E-02 0.  1.
       -2   -1    0    0    0  501  0.00000000000E+00  0.00000000000E+00 -0.86739721102E+03  0.86739721102E+03  0.25500000920E-02 0. -1.
    10030    2    1    2    0    0  0.00000000000E+00  0.00000000000E+00  0.15570051897E+04  0.32917996117E+04  0.29002895585E+04 0.  0.
        1    1    3    3  502    0 -0.14116690695E+04 -0.24132512894E+03  0.10370026408E+04  0.17681690691E+04  0.50400001928E-02 0.  1.
       -1    1    3    3    0  502  0.14116690695E+04  0.24132512894E+03  0.52000254881E+03  0.15236305426E+04  0.50400001928E-02 0. -1.
</event>
<event>
 5   0  0.2425845E-06  0.2905739E+04  0.7818609E-02  0.8271172E-01
        2   -1    0    0  501    0  0.00000000000E+00  0.00000000000E+00  0.22022677371E+04  0.22022677371E+04  0.25500000920E-02 0. -1.
       -2   -1    0    0    0  501  0.00000000000E+00  0.00000000000E+00 -0.95848028433E+03  0.95848028433E+03  0.25500000920E-02 0.  1.
    10030    2    1    2    0    0  0.00000000000E+00  0.00000000000E+00  0.12437874528E+04  0.31607480214E+04  0.29057392910E+04 0.  0.
        2    1    3    3  502    0 -0.25358685273E+03  0.13442625039E+04  0.89577284492E+02  0.13709019152E+04  0.25500000920E-02 0.  1.
       -2    1    3    3    0  502  0.25358685273E+03 -0.13442625039E+04  0.11542101683E+04  0.17898461062E+04  0.25500000920E-02 0. -1.
</event>
<event>
 5   0  0.8355946E-07  0.2866691E+04  0.7818609E-02  0.8282857E-01
       -1   -1    0    0    0  501  0.00000000000E+00  0.00000000000E+00  0.14918264009E+04  0.14918264009E+04  0.50400001928E-02 0. -1.
        1   -1    0    0  501    0  0.00000000000E+00  0.00000000000E+00 -0.13771573838E+04  0.13771573838E+04  0.50400001928E-02 0.  1.
    10030    2    1    2    0    0  0.00000000000E+00  0.00000000000E+00  0.11466901706E+03  0.28689837847E+04  0.28666912937E+04 0.  0.
        4    1    3    3  502    0  0.12886443034E+04  0.74411452469E+01  0.68538605399E+03  0.14595941790E+04  0.12699999809E+01 0. -1.
       -4    1    3    3    0  502 -0.12886443034E+04 -0.74411452469E+01 -0.57071703693E+03  0.14093896057E+04  0.12699999809E+01 0.  1.
</event>
<event>
 5   0  0.8355946E-07  0.2892754E+04  0.7818609E-02  0.8275037E-01
        1   -1    0    0  501    0  0.00000000000E+00  0.00000000000E+00  0.17445097946E+04  0.17445097946E+04  0.50400001928E-02 0.  1.
       -1   -1    0    0    0  501  0.00000000000E+00  0.00000000000E+00 -0.11991946387E+04  0.11991946387E+04  0.50400001928E-02 0. -1.
    10030    2    1    2    0    0  0.00000000000E+00  0.00000000000E+00  0.54531515588E+03  0.29437044333E+04  0.28927542536E+04 0.  0.
        4    1    3    3  502    0  0.13341620568E+04 -0.52983473083E+03  0.45266853248E+03  0.15051988736E+04  0.12699999809E+01 0.  1.
       -4    1    3    3    0  502 -0.13341620568E+04  0.52983473083E+03  0.92646623392E+02  0.14385055598E+04  0.12699999809E+01 0. -1.
</event>
<event>
 5   0  0.8357118E-07  0.2888035E+04  0.7818609E-02  0.8276446E-01
       -1   -1    0    0    0  501  0.00000000000E+00  0.00000000000E+00  0.11345603024E+04  0.11345603024E+04  0.50400001928E-02 0.  1.
        1   -1    0    0  501    0  0.00000000000E+00  0.00000000000E+00 -0.18378810620E+04  0.18378810620E+04  0.50400001928E-02 0. -1.
    10030    2    1    2    0    0  0.00000000000E+00  0.00000000000E+00 -0.70332075958E+03  0.29724413644E+04  0.28880352446E+04 0.  0.
        1    1    3    3  502    0  0.51041287955E+03  0.52393370052E+03  0.92978157644E+03  0.11830137827E+04  0.50400001928E-02 0.  1.
       -1    1    3    3    0  502 -0.51041287955E+03 -0.52393370052E+03 -0.16331023360E+04  0.17894275817E+04  0.50400001928E-02 0. -1.
</event>
<event>
 5   0  0.8483636E-07  0.2899778E+04  0.7818609E-02  0.8272944E-01
       -1   -1    0    0    0  501  0.00000000000E+00  0.00000000000E+00  0.10660222551E+04  0.10660222551E+04  0.50400001928E-02 0. -1.
        1   -1    0    0  501    0  0.00000000000E+00  0.00000000000E+00 -0.19719831430E+04  0.19719831431E+04  0.50400001928E-02 0.  1.
    10030    2    1    2    0    0  0.00000000000E+00  0.00000000000E+00 -0.90596088799E+03  0.30380053981E+04  0.28997778654E+04 0.  0.
        2    1    3    3  502    0 -0.13305763770E+04 -0.57379302494E+03 -0.50542654283E+03  0.15346426036E+04  0.25500000920E-02 0. -1.
       -2    1    3    3    0  502  0.13305763770E+04  0.57379302494E+03 -0.40053434515E+03  0.15033627946E+04  0.25500000920E-02 0.  1.
</event>
<event>
 5   0  0.8483636E-07  0.2913388E+04  0.7818609E-02  0.8268905E-01
        1   -1    0    0  501    0  0.00000000000E+00  0.00000000000E+00  0.20188266068E+04  0.20188266068E+04  0.50400001928E-02 0.  1.
       -1   -1    0    0    0  501  0.00000000000E+00  0.00000000000E+00 -0.10510842370E+04  0.10510842370E+04  0.50400001928E-02 0. -1.
    10030    2    1    2    0    0  0.00000000000E+00  0.00000000000E+00  0.96774236977E+03  0.30699108438E+04  0.29133875978E+04 0.  0.
        2    1    3    3  502    0 -0.78920653480E+03 -0.79066495306E+03 -0.50121215896E+03  0.12244229869E+04  0.25500000920E-02 0. -1.
       -2    1    3    3    0  502  0.78920653480E+03  0.79066495306E+03  0.14689545287E+04  0.18454878569E+04  0.25500000920E-02 0.  1.
</event>
<event>
 5   0  0.2378690E-06  0.2883610E+04  0.7818609E-02  0.8277771E-01
       -2   -1    0    0    0  501  0.00000000000E+00  0.00000000000E+00  0.87425255431E+03  0.87425255431E+03  0.25500000920E-02 0.  1.
        2   -1    0    0  501    0  0.00000000000E+00  0.00000000000E+00 -0.23778047582E+04  0.23778047582E+04  0.25500000920E-02 0. -1.
    10030    2    1    2    0    0  0.00000000000E+00  0.00000000000E+00 -0.15035522039E+04  0.32520573125E+04  0.28836101564E+04 0.  0.
        3    1    3    3  502    0  0.47681628457E+03 -0.24372655645E+03  0.75794302311E+03  0.92802696084E+03  0.10100000352E+00 0.  1.
       -3    1    3    3    0  502 -0.47681628457E+03  0.24372655645E+03 -0.22614952270E+04  0.23240303517E+04  0.10100000352E+00 0. -1.
</event>
<event>
 5   0  0.2304435E-06  0.2918253E+04  0.7818609E-02  0.8267467E-01
        2   -1    0    0  501    0  0.00000000000E+00  0.00000000000E+00  0.15051535093E+04  0.15051535093E+04  0.25500000920E-02 0. -1.
       -2   -1    0    0    0  501  0.00000000000E+00  0.00000000000E+00 -0.14145067825E+04  0.14145067826E+04  0.25500000920E-02 0.  1.
    10030    2    1    2    0    0  0.00000000000E+00  0.00000000000E+00  0.90646726773E+02  0.29196602919E+04  0.29182527976E+04 0.  0.
        1    1    3    3  502    0  0.10194836880E+04  0.85203078476E+03 -0.55808144190E+03  0.14410962300E+04  0.50400001928E-02 0. -1.
       -1    1    3    3    0  502 -0.10194836880E+04 -0.85203078476E+03  0.64872816867E+03  0.14785640619E+04  0.50400001928E-02 0.  1.
</event>
<event>
 5   0  0.2378690E-06  0.2888275E+04  0.7818609E-02  0.8276375E-01
        2   -1    0    0  501    0  0.00000000000E+00  0.00000000000E+00  0.15862467930E+04  0.15862467930E+04  0.25500000920E-02 0.  1.
       -2   -1    0    0    0  501  0.00000000000E+00  0.00000000000E+00 -0.13147595470E+04  0.13147595470E+04  0.25500000920E-02 0. -1.
    10030    2    1    2    0    0  0.00000000000E+00  0.00000000000E+00  0.27148724602E+03  0.29010063400E+04  0.28882749973E+04 0.  0.
        3    1    3    3  502    0 -0.83688998692E+03 -0.58119839208E+03 -0.89217193986E+03  0.13543069082E+04  0.10100000352E+00 0. -1.
       -3    1    3    3    0  502  0.83688998692E+03  0.58119839208E+03  0.11636591859E+04  0.15466994318E+04  0.10100000352E+00 0.  1.
</event>
<event>
 5   0  0.8357118E-07  0.2913164E+04  0.7818609E-02  0.8268972E-01
        1   -1    0    0  501    0  0.00000000000E+00  0.00000000000E+00  0.16854524308E+04  0.16854524308E+04  0.50400001928E-02 0.  1.
       -1   -1    0    0    0  501  0.00000000000E+00  0.00000000000E+00 -0.12587902151E+04  0.12587902151E+04  0.50400001928E-02 0. -1.
    10030    2    1    2    0    0  0.00000000000E+00  0.00000000000E+00  0.42666221567E+03  0.29442426459E+04  0.29131639349E+04 0.  0.
        1    1    3    3  502    0 -0.10622276313E+04 -0.10745965884E+03  0.12147376772E+04  0.16172392351E+04  0.50400001928E-02 0.  1.
       -1    1    3    3    0  502  0.10622276313E+04  0.10745965884E+03 -0.78807546158E+03  0.13270034108E+04  0.50400001928E-02 0. -1.
</event>
<event>
 5   0  0.2425845E-06  0.2891391E+04  0.7818609E-02  0.8275444E-01
       -2   -1    0    0    0  501  0.00000000000E+00  0.00000000000E+00  0.98318547271E+03  0.98318547271E+03  0.25500000920E-02 0. -1.
        2   -1    0    0  501    0  0.00000000000E+00  0.00000000000E+00 -0.21257792581E+04  0.21257792581E+04  0.25500000920E-02 0.  1.
    10030    2    1    2    0    0  0.00000000000E+00  0.00000000000E+00 -0.11425937854E+04  0.31089647308E+04  0.28913908658E+04 0.  0.
        2    1    3    3  502    0  0.10491547516E+04  0.52840786264E+03  0.33478433570E+03  0.12214831614E+04  0.25500000920E-02 0. -1.
       -2    1    3    3    0  502 -0.10491547516E+04 -0.52840786264E+03 -0.14773781211E+04  0.18874815694E+04  0.25500000920E-02 0.  1.
</event>
<event>
 5   0  0.2425845E-06  0.2904012E+04  0.7818609E-02  0.8271685E-01
       -2   -1    0    0    0  501  0.00000000000E+00  0.00000000000E+00  0.12806464834E+04  0.12806464834E+04  0.25500000920E-02 0.  1.
        2   -1    0    0  501    0  0.00000000000E+00  0.00000000000E+00 -0.16462946887E+04  0.16462946887E+04  0.25500000920E-02 0. -1.
    10030    2    1    2    0    0  0.00000000000E+00  0.00000000000E+00 -0.36564820534E+03  0.29269411721E+04  0.29040120548E+04 0.  0.
        2    1    3    3  502    0 -0.89691088451E+03  0.51375202168E+03  0.84499784938E+03  0.13350699008E+04  0.25500000920E-02 0.  1.
       -2    1    3    3    0  502  0.89691088451E+03 -0.51375202168E+03 -0.12106460547E+04  0.15918712713E+04  0.25500000920E-02 0. -1.
</event>
<event>
 5   0  0.8357118E-07  0.2895332E+04  0.7818609E-02  0.8274268E-01
       -1   -1    0    0    0  501  0.00000000000E+00  0.00000000000E+00  0.15499415700E+04  0.15499415700E+04  0.50400001928E-02 0.  1.
        1   -1    0    0  501    0  0.00000000000E+00  0.00000000000E+00 -0.13521388573E+04  0.13521388574E+04  0.50400001928E-02 0. -1.
    10030    2    1    2    0    0  0.00000000000E+00  0.00000000000E+00  0.19780271263E+03  0.29020804273E+04  0.28953315688E+04 0.  0.
        1    1    3    3  502    0  0.26145393511E+03  0.19692338173E+03  0.15123654274E+04  0.15473804201E+04  0.50400001928E-02 0.  1.
       -1    1    3    3    0  502 -0.26145393511E+03 -0.19692338173E+03 -0.13145627148E+04  0.13547000072E+04  0.50400001928E-02 0. -1.
</event>
<event>
 5   0  0.8355946E-07  0.2879622E+04  0.7818609E-02  0.8278966E-01
        1   -1    0    0  501    0  0.00000000000E+00  0.00000000000E+00  0.14028984852E+04  0.14028984852E+04  0.50400001928E-02 0. -1.
       -1   -1    0    0    0  501  0.00000000000E+00  0.00000000000E+00 -0.14776946798E+04  0.14776946798E+04  0.50400001928E-02 0.  1.
    10030    2    1    2    0    0  0.00000000000E+00  0.00000000000E+00 -0.74796194618E+02  0.28805931650E+04  0.28796219390E+04 0.  0.
        4    1    3    3  502    0 -0.13097365845E+04 -0.36920707637E+02  0.55969597048E+03  0.14247927048E+04  0.12699999809E+01 0. -1.
       -4    1    3    3    0  502  0.13097365845E+04  0.36920707637E+02 -0.63449216510E+03  0.14558004602E+04  0.12699999809E+01 0.  1.
</event>
<event>
 5   0  0.8263673E-07  0.2924857E+04  0.7818609E-02  0.8265520E-01
       -1   -1    0    0    0  501  0.00000000000E+00  0.00000000000E+00  0.11608627991E+04  0.11608627991E+04  0.50400001928E-02 0.  1.
        1   -1    0    0  501    0  0.00000000000E+00  0.00000000000E+00 -0.18423339041E+04  0.18423339041E+04  0.50400001928E-02 0. -1.
    10030    2    1    2    0    0  0.00000000000E+00  0.00000000000E+00 -0.68147110501E+03  0.30031967032E+04  0.29248568463E+04 0.  0.
        5    1    3    3  502    0  0.44114961522E+03 -0.13930362295E+04 -0.27988714840E+03  0.14877909213E+04  0.46999998093E+01 0. -1.
       -5    1    3    3    0  502 -0.44114961522E+03  0.13930362295E+04 -0.40158395661E+03  0.15154057819E+04  0.46999998093E+01 0.  1.
</event>
<event>
 5   0  0.2360103E-06  0.2847151E+04  0.7818609E-02  0.8288777E-01
       -2   -1    0    0    0  501  0.00000000000E+00  0.00000000000E+00  0.12327511797E+04  0.12327511797E+04  0.25500000920E-02 0. -1.
        2   -1    0    0  501    0  0.00000000000E+00  0.00000000000E+00 -0.16439388032E+04  0.16439388032E+04  0.25500000920E-02 0.  1.
    10030    2    1    2    0    0  0.00000000000E+00  0.00000000000E+00 -0.41118762349E+03  0.28766899830E+04  0.28471512071E+04 0.  0.
        4    1    3    3  502    0  0.13063698226E+04  0.82127071537E+01  0.36586792081E+03  0.13566615313E+04  0.12699999809E+01 0. -1.
       -4    1    3    3    0  502 -0.13063698226E+04 -0.82127071537E+01 -0.77705554430E+03  0.15200284517E+04  0.12699999809E+01 0.  1.
</event>
<event>
 5   0  0.8263673E-07  0.2883629E+04  0.7818609E-02  0.8277765E-01
        1   -1    0    0  501    0  0.00000000000E+00  0.00000000000E+00  0.23528027725E+04  0.23528027725E+04  0.50400001928E-02 0.  1.
       -1   -1    0    0    0  501  0.00000000000E+00  0.00000000000E+00 -0.88355452827E+03  0.88355452829E+03  0.50400001928E-02 0. -1.
    10030    2    1    2    0    0  0.00000000000E+00  0.00000000000E+00  0.14692482443E+04  0.32363573008E+04  0.28836293408E+04 0.  0.
        5    1    3    3  502    0 -0.11150356388E+04  0.66259204238E+03  0.14413073779E+04  0.19390001903E+04  0.46999998093E+01 0.  1.
       -5    1    3    3    0  502  0.11150356388E+04 -0.66259204238E+03  0.27940866406E+02  0.12973571106E+04  0.46999998093E+01 0. -1.
</event>
<event>
 5   0  0.2378690E-06  0.2909457E+04  0.7818609E-02  0.8270069E-01
        2   -1    0    0  501    0  0.00000000000E+00  0.00000000000E+00  0.13517279815E+04  0.13517279815E+04  0.25500000920E-02 0. -1.
       -2   -1    0    0    0  501  0.00000000000E+00  0.00000000000E+00 -0.15655771126E+04  0.15655771126E+04  0.25500000920E-02 0.  1.
    10030    2    1    2    0    0  0.00000000000E+00  0.00000000000E+00 -0.21384913107E+03  0.29173050941E+04  0.29094565748E+04 0.  0.
        3    1    3    3  502    0 -0.94343978505E+03 -0.38939135140E+03 -0.11463163247E+04  0.15348437637E+04  0.10100000352E+00 0.  1.
       -3    1    3    3    0  502  0.94343978505E+03  0.38939135140E+03  0.93246719361E+03  0.13824613304E+04  0.10100000352E+00 0. -1.
</event>
<event>
 5   0  0.8263673E-07  0.2905330E+04  0.7818609E-02  0.8271293E-01
        1   -1    0    0  501    0  0.00000000000E+00  0.00000000000E+00  0.15106209915E+04  0.15106209915E+04  0.50400001928E-02 0. -1.
       -1   -1    0    0    0  501  0.00000000000E+00  0.00000000000E+00 -0.13969324949E+04  0.13969324950E+04  0.50400001928E-02 0.  1.
    10030    2    1    2    0    0  0.00000000000E+00  0.00000000000E+00  0.11368849655E+03  0.29075534865E+04  0.29053299645E+04 0.  0.
        5    1    3    3  502    0  0.65507104587E+03 -0.12965489908E+04  0.49348522891E+02  0.14534836522E+04  0.46999998093E+01 0.  1.
       -5    1    3    3    0  502 -0.65507104587E+03  0.12965489908E+04  0.64339973661E+02  0.14540698342E+04  0.46999998093E+01 0. -1.
</event>
<event>
 5   0  0.8947674E-07  0.2889339E+04  0.7818609E-02  0.8276056E-01
        1   -1    0    0  501    0  0.00000000000E+00  0.00000000000E+00  0.26480861319E+04  0.26480861319E+04  0.50400001928E-02 0.  1.
       -1   -1    0    0    0  501  0.00000000000E+00  0.00000000000E+00 -0.78814302516E+03  0.78814302517E+03  0.50400001928E-02 0. -1.
    10030    2    1    2    0    0  0.00000000000E+00  0.00000000000E+00  0.18599431068E+04  0.34362291571E+04  0.28893394504E+04 0.  0.
        3    1    3    3  502    0  0.52430023379E+03  0.25184661358E+03  0.25026785050E+04  0.25693806961E+04  0.10100000352E+00 0.  1.
       -3    1    3    3    0  502 -0.52430023379E+03 -0.25184661358E+03 -0.64273539825E+03  0.86684846098E+03  0.10100000352E+00 0. -1.
</event>
<event>
 5   0  0.8947674E-07  0.2901680E+04  0.7818609E-02  0.8272378E-01
        1   -1    0    0  501    0  0.00000000000E+00  0.00000000000E+00  0.18535288102E+04  0.18535288102E+04  0.50400001928E-02 0. -1.
       -1   -1    0    0    0  501  0.00000000000E+00  0.00000000000E+00 -0.11356370834E+04  0.11356370835E+04  0.50400001928E-02 0.  1.
    10030    2    1    2    0    0  0.00000000000E+00  0.00000000000E+00  0.71789172672E+03  0.29891658936E+04  0.29016795496E+04 0.  0.
        3    1    3    3  502    0  0.99054811548E+03 -0.79338610688E+03  0.10832000659E+04  0.16685231423E+04  0.10100000352E+00 0. -1.
       -3    1    3    3    0  502 -0.99054811548E+03  0.79338610688E+03 -0.36530833913E+03  0.13206427513E+04  0.10100000352E+00 0.  1.
</event>
<event>
 5   0  0.8263673E-07  0.2894038E+04  0.7818609E-02  0.8274654E-01
        1   -1    0    0  501    0  0.00000000000E+00  0.00000000000E+00  0.14628948977E+04  0.14628948977E+04  0.50400001928E-02 0. -1.
       -1   -1    0    0    0  501  0.00000000000E+00  0.00000000000E+00 -0.14313154003E+04  0.14313154003E+04  0.50400001928E-02 0.  1.
    10030    2    1    2    0    0  0.00000000000E+00  0.00000000000E+00  0.31579497352E+02  0.28942102980E+04  0.28940380067E+04 0.  0.
        5    1    3    3  502    0 -0.38939846362E+03 -0.36843839679E+01  0.14095000576E+04  0.14623122924E+04  0.46999998093E+01 0. -1.
       -5    1    3    3    0  502  0.38939846362E+03  0.36843839679E+01 -0.13779205602E+04  0.14318980056E+04  0.46999998093E+01 0.  1.
</event>
<event>
 5   0  0.2360103E-06  0.2908169E+04  0.7818609E-02  0.8270451E-01
        2   -1    0    0  501    0  0.00000000000E+00  0.00000000000E+00  0.20916438922E+04  0.20916438922E+04  0.25500000920E-02 0. -1.
       -2   -1    0    0    0  501  0.00000000000E+00  0.00000000000E+00 -0.10108612576E+04  0.10108612576E+04  0.25500000920E-02 0.  1.
    10030    2    1    2    0    0  0.00000000000E+00  0.00000000000E+00  0.10807826346E+04  0.31025051498E+04  0.29081690290E+04 0.  0.
        4    1    3    3  502    0 -0.72592361446E+03 -0.12598947184E+04  0.53210250783E+03  0.15483651014E+04  0.12699999809E+01 0. -1.
       -4    1    3    3    0  502  0.72592361446E+03  0.12598947184E+04  0.54868012676E+03  0.15541400484E+04  0.12699999809E+01 0.  1.
</event>
<event>
 5   0  0.2378690E-06  0.2922417E+04  0.7818609E-02  0.8266239E-01
        2   -1    0    0  501    0  0.00000000000E+00  0.00000000000E+00  0.18072477711E+04  0.18072477711E+04  0.25500000920E-02 0. -1.
       -2   -1    0    0    0  501  0.00000000000E+00  0.00000000000E+00 -0.11814265081E+04  0.11814265081E+04  0.25500000920E-02 0.  1.
    10030    2    1    2    0    0  0.00000000000E+00  0.00000000000E+00  0.62582126303E+03  0.29886742792E+04  0.29224170979E+04 0.  0.
        3    1    3    3  502    0  0.25638588001E+03 -0.13531569031E+04  0.81220410444E+03  0.15988880015E+04  0.10100000352E+00 0. -1.
       -3    1    3    3    0  502 -0.25638588001E+03  0.13531569031E+04 -0.18638284141E+03  0.13897862777E+04  0.10100000352E+00 0.  1.
</event>
<event>
 5   0  0.2425845E-06  0.2901414E+04  0.7818609E-02  0.8272457E-01
       -2   -1    0    0    0  501  0.00000000000E+00  0.00000000000E+00  0.10808461455E+04  0.10808461455E+04  0.25500000920E-02 0. -1.
        2   -1    0    0  501    0  0.00000000000E+00  0.00000000000E+00 -0.19471328228E+04  0.19471328228E+04  0.25500000920E-02 0.  1.
    10030    2    1    2    0    0  0.00000000000E+00  0.00000000000E+00 -0.86628667736E+03  0.30279789683E+04  0.29014141423E+04 0.  0.
        2    1    3    3  502    0  0.42385012091E+03  0.12243678002E+04 -0.11141619794E+04  0.17088248452E+04  0.25500000920E-02 0.  1.
       -2    1    3    3    0  502 -0.42385012091E+03 -0.12243678002E+04  0.24787530208E+03  0.13191541231E+04  0.25500000920E-02 0. -1.
</event>
<event>
 5   0  0.2304435E-06  0.2898608E+04  0.7818609E-02  0.8273292E-01
        2   -1    0    0  501    0  0.00000000000E+00  0.00000000000E+00  0.19182305421E+04  0.19182305421E+04  0.25500000920E-02 0.  1.
       -2   -1    0    0    0  501  0.00000000000E+00  0.00000000000E+00 -0.10950099817E+04  0.10950099817E+04  0.25500000920E-02 0. -1.
    10030    2    1    2    0    0  0.00000000000E+00  0.00000000000E+00  0.82322056045E+03  0.30132405238E+04  0.28986076594E+04 0.  0.
        1    1    3    3  502    0 -0.24513139416E+03 -0.10406649459E+04  0.14287791023E+04  0.17845118810E+04  0.50400001928E-02 0.  1.
       -1    1    3    3    0  502  0.24513139416E+03  0.10406649459E+04 -0.60555854185E+03  0.12287286428E+04  0.50400001928E-02 0. -1.
</event>
<event>
 5   0  0.2325590E-06  0.2895906E+04  0.7818609E-02  0.8274097E-01
       -2   -1    0    0    0  501  0.00000000000E+00  0.00000000000E+00  0.10978801370E+04  0.10978801370E+04  0.25500000920E-02 0.  1.
        2   -1    0    0  501    0  0.00000000000E+00  0.00000000000E+00 -0.19096509366E+04  0.19096509366E+04  0.25500000920E-02 0. -1.
    10030    2    1    2    0    0  0.00000000000E+00  0.00000000000E+00 -0.81177079964E+03  0.30075310736E+04  0.28959059597E+04 0.  0.
        5    1    3    3  502    0 -0.86339853365E+03 -0.27327766260E+03 -0.15792160965E+04  0.18204623804E+04  0.46999998093E+01 0. -1.
       -5    1    3    3    0  502  0.86339853365E+03  0.27327766260E+03  0.76744529688E+03  0.11870686932E+04  0.46999998093E+01 0.  1.
</event>
<event>
 5   0  0.2378690E-06  0.2847097E+04  0.7818609E-02  0.8288794E-01
       -2   -1    0    0    0  501  0.00000000000E+00  0.00000000000E+00  0.15564167677E+04  0.15564167677E+04  0.25500000920E-02 0.  1.
        2   -1    0    0  501    0  0.00000000000E+00  0.00000000000E+00 -0.13020230636E+04  0.13020230636E+04  0.25500000920E-02 0. -1.
    10030    2    1    2    0    0  0.00000000000E+00  0.00000000000E+00  0.25439370405E+03  0.28584398313E+04  0.28470971379E+04 0.  0.
        3    1    3    3  502    0  0.46485084343E+03 -0.12510365086E+04  0.62445973980E+03  0.14734750182E+04  0.10100000352E+00 0.  1.
       -3    1    3    3    0  502 -0.46485084343E+03  0.12510365086E+04 -0.37006603575E+03  0.13849648131E+04  0.10100000352E+00 0. -1.
</event>
<event>
 5   0  0.8947674E-07  0.2891431E+04  0.7818609E-02  0.8275431E-01
       -1   -1    0    0    0  501  0.00000000000E+00  0.00000000000E+00  0.17574184390E+04  0.17574184390E+04  0.50400001928E-02 0. -1.
        1   -1    0    0  501    0  0.00000000000E+00  0.00000000000E+00 -0.11892978708E+04  0.11892978708E+04  0.50400001928E-02 0.  1.
    10030    2    1    2    0    0  0.00000000000E+00  0.00000000000E+00  0.56812056827E+03  0.29467163098E+04  0.28914314846E+04 0.  0.
        3    1    3    3  502    0 -0.13297523397E+04 -0.41016106126E+03  0.68349901449E+03  0.15503690832E+04  0.10100000352E+00 0. -1.
       -3    1    3    3    0  502  0.13297523397E+04  0.41016106126E+03 -0.11537844622E+03  0.13963472266E+04  0.10100000352E+00 0.  1.
</event>
<event>
 5   0  0.8947674E-07  0.2881818E+04  0.7818609E-02  0.8278308E-01
       -1   -1    0    0    0  501  0.00000000000E+00  0.00000000000E+00  0.82390932131E+03  0.82390932132E+03  0.50400001928E-02 0. -1.
        1   -1    0    0  501    0  0.00000000000E+00  0.00000000000E+00 -0.25199606560E+04  0.25199606560E+04  0.50400001928E-02 0.  1.
    10030    2    1    2    0    0  0.00000000000E+00  0.00000000000E+00 -0.16960513347E+04  0.33438699773E+04  0.28818182273E+04 0.  0.
        3    1    3    3  502    0  0.29582849871E+03 -0.67313983452E+03  0.58984577300E+03  0.94262918669E+03  0.10100000352E+00 0. -1.
       -3    1    3    3    0  502 -0.29582849871E+03  0.67313983452E+03 -0.22858971077E+04  0.24012407906E+04  0.10100000352E+00 0.  1.
</event>
<event>
 5   0  0.8263673E-07  0.2895738E+04  0.7818609E-02  0.8274147E-01
       -1   -1    0    0    0  501  0.00000000000E+00  0.00000000000E+00  0.12509595140E+04  0.12509595140E+04  0.50400001928E-02 0.  1.
        1   -1    0    0  501    0  0.00000000000E+00  0.00000000000E+00 -0.16757728860E+04  0.16757728860E+04  0.50400001928E-02 0. -1.
    10030    2    1    2    0    0  0.00000000000E+00  0.00000000000E+00 -0.42481337194E+03  0.29267324000E+04  0.28957375814E+04 0.  0.
        5    1    3    3  502    0  0.87076352522E+03  0.11565765385E+04 -0.19210339283E+03  0.14604191897E+04  0.46999998093E+01 0. -1.
       -5    1    3    3    0  502 -0.87076352522E+03 -0.11565765385E+04 -0.23270997911E+03  0.14663132103E+04  0.46999998093E+01 0.  1.
</event>
<event>
 5   0  0.8947674E-07  0.2964118E+04  0.7818609E-02  0.8254052E-01
        1   -1    0    0  501    0  0.00000000000E+00  0.00000000000E+00  0.12908117545E+04  0.12908117545E+04  0.50400001928E-02 0. -1.
       -1   -1    0    0    0  501  0.00000000000E+00  0.00000000000E+00 -0.17016414054E+04  0.17016414054E+04  0.50400001928E-02 0.  1.
    10030    2    1    2    0    0  0.00000000000E+00  0.00000000000E+00 -0.41082965093E+03  0.29924531599E+04  0.29641178978E+04 0.  0.
        3    1    3    3  502    0 -0.36041245553E+03  0.11947559940E+04  0.60170232877E+03  0.13854186103E+04  0.10100000352E+00 0. -1.
       -3    1    3    3    0  502  0.36041245553E+03 -0.11947559940E+04 -0.10125319797E+04  0.16070345495E+04  0.10100000352E+00 0.  1.
</event>
<event>
 5   0  0.2425845E-06  0.2899612E+04  0.7818609E-02  0.8272993E-01
       -2   -1    0    0    0  501  0.00000000000E+00  0.00000000000E+00  0.17516590305E+04  0.17516590305E+04  0.25500000920E-02 0. -1.
        2   -1    0    0  501    0  0.00000000000E+00  0.00000000000E+00 -0.11999692754E+04  0.11999692754E+04  0.25500000920E-02 0.  1.
    10030    2    1    2    0    0  0.00000000000E+00  0.00000000000E+00  0.55168975502E+03  0.29516283059E+04  0.28996117103E+04 0.  0.
        2    1    3    3  502    0 -0.96001785807E+03 -0.59383053784E+03  0.12019278724E+04  0.16489086105E+04  0.25500000920E-02 0. -1.
       -2    1    3    3    0  502  0.96001785807E+03  0.59383053784E+03 -0.65023811735E+03  0.13027196954E+04  0.25500000920E-02 0.  1.
</event>
<event>
 5   0  0.2378690E-06  0.2891515E+04  0.7818609E-02  0.8275407E-01
       -2   -1    0    0    0  501  0.00000000000E+00  0.00000000000E+00  0.11634674898E+04  0.11634674898E+04  0.25500000920E-02 0. -1.
        2   -1    0    0  501    0  0.00000000000E+00  0.00000000000E+00 -0.17965384311E+04  0.17965384311E+04  0.25500000920E-02 0.  1.
    10030    2    1    2    0    0  0.00000000000E+00  0.00000000000E+00 -0.63307094127E+03  0.29600059209E+04  0.28915145227E+04 0.  0.
        3    1    3    3  502    0 -0.11023902804E+04 -0.89413032254E+03 -0.59778066906E+03  0.15401542464E+04  0.10100000352E+00 0. -1.
       -3    1    3    3    0  502  0.11023902804E+04  0.89413032254E+03 -0.35290272216E+02  0.14198516745E+04  0.10100000352E+00 0.  1.
</event>
<event>
 5   0  0.8947674E-07  0.2907545E+04  0.7818609E-02  0.8270636E-01
        1   -1    0    0  501    0  0.00000000000E+00  0.00000000000E+00  0.17487047083E+04  0.17487047083E+04  0.50400001928E-02 0. -1.
       -1   -1    0    0    0  501  0.00000000000E+00  0.00000000000E+00 -0.12085828012E+04  0.12085828012E+04  0.50400001928E-02 0.  1.
    10030    2    1    2    0    0  0.00000000000E+00  0.00000000000E+00  0.54012190708E+03  0.29572875095E+04  0.29075449677E+04 0.  0.
        3    1    3    3  502    0 -0.10476590915E+04 -0.95491800195E+03 -0.57940970686E+02  0.14187371598E+04  0.10100000352E+00 0.  1.
       -3    1    3    3    0  502  0.10476590915E+04  0.95491800195E+03  0.59806287776E+03  0.15385503496E+04  0.10100000352E+00 0. -1.
</event>
<event>
 5   0  0.8483636E-07  0.2897819E+04  0.7818609E-02  0.8273527E-01
       -1   -1    0    0    0  501  0.00000000000E+00  0.00000000000E+00  0.13598444097E+04  0.13598444097E+04  0.50400001928E-02 0.  1.
        1   -1    0    0  501    0  0.00000000000E+00  0.00000000000E+00 -0.15438082621E+04  0.15438082621E+04  0.50400001928E-02 0. -1.
    10030    2    1    2    0    0  0.00000000000E+00  0.00000000000E+00 -0.18396385238E+03  0.29036526718E+04  0.28978192041E+04 0.  0.
        2    1    3    3  502    0  0.58763047516E+03 -0.12679868725E+04 -0.47516349742E+03  0.14761031920E+04  0.25500000920E-02 0. -1.
       -2    1    3    3    0  502 -0.58763047516E+03  0.12679868725E+04  0.29119964504E+03  0.14275494798E+04  0.25500000920E-02 0.  1.
</event>
<event>
 5   0  0.2425845E-06  0.2894477E+04  0.7818609E-02  0.8274522E-01
        2   -1    0    0  501    0  0.00000000000E+00  0.00000000000E+00  0.12147955518E+04  0.12147955518E+04  0.25500000920E-02 0. -1.
       -2   -1    0    0    0  501  0.00000000000E+00  0.00000000000E+00 -0.17241584312E+04  0.17241584312E+04  0.25500000920E-02 0.  1.
    10030    2    1    2    0    0  0.00000000000E+00  0.00000000000E+00 -0.50936287939E+03  0.29389539830E+04  0.28944774954E+04 0.  0.
        2    1    3    3  502    0 -0.11715312978E+04  0.54461203938E+03 -0.91693994913E+03  0.15842558901E+04  0.25500000920E-02 0.  1.
       -2    1    3    3    0  502  0.11715312978E+04 -0.54461203938E+03  0.40757706974E+03  0.13546980929E+04  0.25500000920E-02 0. -1.
</event>
<event>
 5   0  0.8355946E-07  0.2897021E+04  0.7818609E-02  0.8273764E-01
       -1   -1    0    0    0  501  0.00000000000E+00  0.00000000000E+00  0.11865355173E+04  0.11865355173E+04  0.50400001928E-02 0. -1.
        1   -1    0    0  501    0  0.00000000000E+00  0.00000000000E+00 -0.17683270389E+04  0.17683270390E+04  0.50400001928E-02 0.  1.
    10030    2    1    2    0    0  0.00000000000E+00  0.00000000000E+00 -0.58179152164E+03  0.29548625563E+04  0.28970211169E+04 0.  0.
        4    1    3    3  502    0 -0.80981984613E+03  0.35896735084E+03 -0.14598653740E+04  0.17075931205E+04  0.12699999809E+01 0.  1.
       -4    1    3    3    0  502  0.80981984613E+03 -0.35896735084E+03  0.87807385239E+03  0.12472694357E+04  0.12699999809E+01 0. -1.
</event>
<event>
 5   0  0.2304435E-06  0.2901020E+04  0.7818609E-02  0.8272574E-01
        2   -1    0    0  501    0  0.00000000000E+00  0.00000000000E+00  0.15291494569E+04  0.15291494569E+04  0.25500000920E-02 0.  1.
       -2   -1    0    0    0  501  0.00000000000E+00  0.00000000000E+00 -0.13759151055E+04  0.13759151055E+04  0.25500000920E-02 0. -1.
    10030    2    1    2    0    0  0.00000000000E+00  0.00000000000E+00  0.15323435141E+03  0.29050645624E+04  0.29010203973E+04 0.  0.
        1    1    3    3  502    0 -0.11261294485E+03 -0.31966382966E+03  0.14889425298E+04  0.15270286495E+04  0.50400001928E-02 0.  1.
       -1    1    3    3    0  502  0.11261294485E+03  0.31966382966E+03 -0.13357081784E+04  0.13780359129E+04  0.50400001928E-02 0. -1.
</event>
<event>
 5   0  0.8355946E-07  0.2908351E+04  0.7818609E-02  0.8270397E-01
        1   -1    0    0  501    0  0.00000000000E+00  0.00000000000E+00  0.16731724464E+04  0.16731724464E+04  0.50400001928E-02 0. -1.
       -1   -1    0    0    0  501  0.00000000000E+00  0.00000000000E+00 -0.12638428193E+04  0.12638428193E+04  0.50400001928E-02 0.  1.
    10030    2    1    2    0    0  0.00000000000E+00  0.00000000000E+00  0.40932962704E+03  0.29370152657E+04  0.29083514106E+04 0.  0.
        4    1    3    3  502    0  0.32737100241E+02 -0.11528301661E+04 -0.68980529883E+03  0.13438460004E+04  0.12699999809E+01 0.  1.
       -4    1    3    3    0  502 -0.32737100241E+02  0.11528301661E+04  0.10991349259E+04  0.15931692653E+04  0.12699999809E+01 0. -1.
</event>
<event>
 5   0  0.8947674E-07  0.2850329E+04  0.7818609E-02  0.8287811E-01
       -1   -1    0    0    0  501  0.00000000000E+00  0.00000000000E+00  0.14369878700E+04  0.14369878700E+04  0.50400001928E-02 0. -1.
        1   -1    0    0  501    0  0.00000000000E+00  0.00000000000E+00 -0.14134382169E+04  0.14134382169E+04  0.50400001928E-02 0.  1.
    10030    2    1    2    0    0  0.00000000000E+00  0.00000000000E+00  0.23549653029E+02  0.28504260869E+04  0.28503288040E+04 0.  0.
        3    1    3    3  502    0  0.93895344461E+03  0.34999525041E+03  0.10252013994E+04  0.14335857721E+04  0.10100000352E+00 0. -1.
       -3    1    3    3    0  502 -0.93895344461E+03 -0.34999525041E+03 -0.10016517464E+04  0.14168403148E+04  0.10100000352E+00 0.  1.
</event>
<event>
 5   0  0.8483636E-07  0.2925482E+04  0.7818609E-02  0.8265336E-01
       -1   -1    0    0    0  501  0.00000000000E+00  0.00000000000E+00  0.14146684943E+04  0.14146684943E+04  0.50400001928E-02 0. -1.
        1   -1    0    0  501    0  0.00000000000E+00  0.00000000000E+00 -0.15124466689E+04  0.15124466689E+04  0.50400001928E-02 0.  1.
    10030    2    1    2    0    0  0.00000000000E+00  0.00000000000E+00 -0.97778174636E+02  0.29271151632E+04  0.29254816027E+04 0.  0.
        2    1    3    3  502    0 -0.19940164981E+03 -0.82949433390E+03  0.11399615688E+04  0.14238448814E+04  0.25500000920E-02 0. -1.
       -2    1    3    3    0  502  0.19940164981E+03  0.82949433390E+03 -0.12377397434E+04  0.15032702819E+04  0.25500000920E-02 0.  1.
</event>
<event>
 5   0  0.2304435E-06  0.2900762E+04  0.7818609E-02  0.8272651E-01
       -2   -1    0    0    0  501  0.00000000000E+00  0.00000000000E+00  0.13518072151E+04  0.13518072151E+04  0.25500000920E-02 0. -1.
        2   -1    0    0  501    0  0.00000000000E+00  0.00000000000E+00 -0.15561423332E+04  0.15561423332E+04  0.25500000920E-02 0.  1.
    10030    2    1    2    0    0  0.00000000000E+00  0.00000000000E+00 -0.20433511809E+03  0.29079495484E+04  0.29007615785E+04 0.  0.
        1    1    3    3  502    0 -0.10704179447E+04 -0.46960685024E+03 -0.96294493277E+03  0.15144596772E+04  0.50400001928E-02 0.  1.
       -1    1    3    3    0  502  0.10704179447E+04  0.46960685024E+03  0.75860981468E+03  0.13934898712E+04  0.50400001928E-02 0. -1.
</event>
<event>
 5   0  0.2325590E-06  0.2898836E+04  0.7818609E-02  0.8273224E-01
       -2   -1    0    0    0  501  0.00000000000E+00  0.00000000000E+00  0.11425456751E+04  0.11425456752E+04  0.25500000920E-02 0. -1.
        2   -1    0    0  501    0  0.00000000000E+00  0.00000000000E+00 -0.18387116361E+04  0.18387116361E+04  0.25500000920E-02 0.  1.
    10030    2    1    2    0    0  0.00000000000E+00  0.00000000000E+00 -0.69616596094E+03  0.29812573112E+04  0.28988356474E+04 0.  0.
        5    1    3    3  502    0 -0.35223070974E+03 -0.69518684904E+03 -0.16048928144E+04  0.17841116175E+04  0.46999998093E+01 0.  1.
       -5    1    3    3    0  502  0.35223070974E+03  0.69518684904E+03  0.90872685343E+03  0.11971456938E+04  0.46999998093E+01 0. -1.
</event>
<event>
 5   0  0.8263673E-07  0.2821089E+04  0.7818609E-02  0.8296751E-01
        1   -1    0    0  501    0  0.00000000000E+00  0.00000000000E+00  0.26976075448E+04  0.26976075448E+04  0.50400001928E-02 0.  1.
       -1   -1    0    0    0  501  0.00000000000E+00  0.00000000000E+00 -0.73755577338E+03  0.73755577340E+03  0.50400001928E-02 0. -1.
    10030    2    1    2    0    0  0.00000000000E+00  0.00000000000E+00  0.19600517715E+04  0.34351633182E+04  0.28210891649E+04 0.  0.
        5    1    3    3  502    0 -0.29398456649E+03  0.10128946062E+04  0.21205059306E+04  0.23683221699E+04  0.46999998093E+01 0.  1.
       -5    1    3    3    0  502  0.29398456649E+03 -0.10128946062E+04 -0.16045415915E+03  0.10668411484E+04  0.46999998093E+01 0. -1.
</event>
<event>
 5   0  0.2360103E-06  0.2904855E+04  0.7818609E-02  0.8271435E-01
        2   -1    0    0  501    0  0.00000000000E+00  0.00000000000E+00  0.14346064659E+04  0.14346064659E+04  0.25500000920E-02 0. -1.
       -2   -1    0    0    0  501  0.00000000000E+00  0.00000000000E+00 -0.14704695689E+04  0.14704695689E+04  0.25500000920E-02 0.  1.
    10030    2    1    2    0    0  0.00000000000E+00  0.00000000000E+00 -0.35863102985E+02  0.29050760348E+04  0.29048546617E+04 0.  0.
        4    1    3    3  502    0  0.43805234273E+03  0.13156171201E+04 -0.45017424954E+03  0.14578740445E+04  0.12699999809E+01 0. -1.
       -4    1    3    3    0  502 -0.43805234273E+03 -0.13156171201E+04  0.41431114656E+03  0.14472019903E+04  0.12699999809E+01 0.  1.
</event>
<event>
 5   0  0.8357118E-07  0.2899341E+04  0.7818609E-02  0.8273074E-01
       -1   -1    0    0    0  501  0.00000000000E+00  0.00000000000E+00  0.22714714003E+04  0.22714714003E+04  0.50400001928E-02 0.  1.
        1   -1    0    0  501    0  0.00000000000E+00  0.00000000000E+00 -0.92519080241E+03  0.92519080242E+03  0.50400001928E-02 0. -1.
    10030    2    1    2    0    0  0.00000000000E+00  0.00000000000E+00  0.13462805979E+04  0.31966622028E+04  0.28993409234E+04 0.  0.
        1    1    3    3  502    0 -0.18322213124E+03 -0.91215856522E+03  0.18988744990E+04  0.21145514797E+04  0.50400001928E-02 0.  1.
       -1    1    3    3    0  502  0.18322213124E+03  0.91215856522E+03 -0.55259390103E+03  0.10821107231E+04  0.50400001928E-02 0. -1.
</event>
<event>
 5   0  0.8263673E-07  0.2764864E+04  0.7818609E-02  0.8314260E-01
       -1   -1    0    0    0  501  0.00000000000E+00  0.00000000000E+00  0.15217962555E+04  0.15217962555E+04  0.50400001928E-02 0. -1.
        1   -1    0    0  501    0  0.00000000000E+00  0.00000000000E+00 -0.12558305207E+04  0.12558305207E+04  0.50400001928E-02 0.  1.
    10030    2    1    2    0    0  0.00000000000E+00  0.00000000000E+00  0.26596573478E+03  0.27776267762E+04  0.27648639633E+04 0.  0.
        5    1    3    3  502    0 -0.11022959681E+04 -0.44350073689E+03  0.84288953113E+03  0.14567889884E+04  0.46999998093E+01 0. -1.
       -5    1    3    3    0  502  0.11022959681E+04  0.44350073689E+03 -0.57692379635E+03  0.13208377878E+04  0.46999998093E+01 0.  1.
</event>
<event>
 5   0  0.8483636E-07  0.2902773E+04  0.7818609E-02  0.8272053E-01
       -1   -1    0    0    0  501  0.00000000000E+00  0.00000000000E+00  0.74210493543E+03  0.74210493544E+03  0.50400001928E-02 0. -1.
        1   -1    0    0  501    0  0.00000000000E+00  0.00000000000E+00 -0.28385775302E+04  0.28385775302E+04  0.50400001928E-02 0.  1.
    10030    2    1    2    0    0  0.00000000000E+00  0.00000000000E+00 -0.20964725948E+04  0.35806824657E+04  0.29027727399E+04 0.  0.
        2    1    3    3  502    0 -0.12389528030E+04  0.67473847403E+03 -0.62766230365E+03  0.15440971549E+04  0.25500000920E-02 0. -1.
       -2    1    3    3    0  502  0.12389528030E+04 -0.67473847403E+03 -0.14688102911E+04  0.20365853107E+04  0.25500000920E-02 0.  1.
</event>
<event>
 5   0  0.8483636E-07  0.2896105E+04  0.7818609E-02  0.8274037E-01
        1   -1    0    0  501    0  0.00000000000E+00  0.00000000000E+00  0.19024605126E+04  0.19024605126E+04  0.50400001928E-02 0.  1.
       -1   -1    0    0    0  501  0.00000000000E+00  0.00000000000E+00 -0.11021812034E+04  0.11021812034E+04  0.50400001928E-02 0. -1.
    10030    2    1    2    0    0  0.00000000000E+00  0.00000000000E+00  0.80027930918E+03  0.30046417160E+04  0.28961051205E+04 0.  0.
        2    1    3    3  502    0  0.10069372262E+04 -0.49233838195E+03 -0.55102712697E+03  0.12489798055E+04  0.25500000920E-02 0. -1.
       -2    1    3    3    0  502 -0.10069372262E+04  0.49233838195E+03  0.13513064362E+04  0.17556619106E+04  0.25500000920E-02 0.  1.
</event>
<event>
 5   0  0.8263673E-07  0.2897480E+04  0.7818609E-02  0.8273628E-01
       -1   -1    0    0    0  501  0.00000000000E+00  0.00000000000E+00  0.10227398846E+04  0.10227398846E+04  0.50400001928E-02 0.  1.
        1   -1    0    0  501    0  0.00000000000E+00  0.00000000000E+00 -0.20521813445E+04  0.20521813445E+04  0.50400001928E-02 0. -1.
    10030    2    1    2    0    0  0.00000000000E+00  0.00000000000E+00 -0.10294414598E+04  0.30749212291E+04  0.28974800855E+04 0.  0.
        5    1    3    3  502    0  0.51651783020E+03  0.12012856667E+04  0.14712860792E+03  0.13158825325E+04  0.46999998093E+01 0. -1.
       -5    1    3    3    0  502 -0.51651783020E+03 -0.12012856667E+04 -0.11765700678E+04  0.17590386967E+04  0.46999998093E+01 0.  1.
</event>
<event>
 5   0  0.8263673E-07  0.2901972E+04  0.7818609E-02  0.8272291E-01
        1   -1    0    0  501    0  0.00000000000E+00  0.00000000000E+00  0.18961997951E+04  0.18961997952E+04  0.50400001928E-02 0. -1.
       -1   -1    0    0    0  501  0.00000000000E+00  0.00000000000E+00 -0.11103054353E+04  0.11103054353E+04  0.50400001928E-02 0.  1.
    10030    2    1    2    0    0  0.00000000000E+00  0.00000000000E+00  0.78589435986E+03  0.30065052304E+04  0.29019723906E+04 0.  0.
        5    1    3    3  502    0  0.11566452693E+04 -0.26356279394E+03 -0.47263930607E+03  0.12769900661E+04  0.46999998093E+01 0.  1.
       -5    1    3    3    0  502 -0.11566452693E+04  0.26356279394E+03  0.12585336659E+04  0.17295151643E+04  0.46999998093E+01 0. -1.
</event>
<event>
 5   0  0.8483636E-07  0.2929177E+04  0.7818609E-02  0.8264249E-01
       -1   -1    0    0    0  501  0.00000000000E+00  0.00000000000E+00  0.18256256952E+04  0.18256256952E+04  0.50400001928E-02 0.  1.
        1   -1    0    0  501    0  0.00000000000E+00  0.00000000000E+00 -0.11749501741E+04  0.11749501741E+04  0.50400001928E-02 0. -1.
    10030    2    1    2    0    0  0.00000000000E+00  0.00000000000E+00  0.65067552114E+03  0.30005758693E+04  0.29291768321E+04 0.  0.
        2    1    3    3  502    0  0.64630549953E+03  0.68069437754E+03  0.14770031210E+04  0.17500268152E+04  0.25500000920E-02 0.  1.
       -2    1    3    3    0  502 -0.64630549953E+03 -0.68069437754E+03 -0.82632759991E+03  0.12505490541E+04  0.25500000920E-02 0. -1.
</event>
<event>
 5   0  0.8483636E-07  0.2913213E+04  0.7818609E-02  0.8268957E-01
        1   -1    0    0  501    0  0.00000000000E+00  0.00000000000E+00  0.16080390888E+04  0.16080390888E+04  0.50400001928E-02 0.  1.
       -1   -1    0    0    0  501  0.00000000000E+00  0.00000000000E+00 -0.13194348456E+04  0.13194348456E+04  0.50400001928E-02 0. -1.
    10030    2    1    2    0    0  0.00000000000E+00  0.00000000000E+00  0.28860424328E+03  0.29274739344E+04  0.29132132135E+04 0.  0.
        2    1    3    3  502    0 -0.14020606886E+04  0.26432172694E+03 -0.15049832735E+03  0.14346741429E+04  0.25500000920E-02 0. -1.
       -2    1    3    3    0  502  0.14020606886E+04 -0.26432172694E+03  0.43910257063E+03  0.14927997915E+04  0.25500000920E-02 0.  1.
</event>
<event>
 5   0  0.8483636E-07  0.2913599E+04  0.7818609E-02  0.8268843E-01
        1   -1    0    0  501    0  0.00000000000E+00  0.00000000000E+00  0.23027453145E+04  0.23027453145E+04  0.50400001928E-02 0. -1.
       -1   -1    0    0    0  501  0.00000000000E+00  0.00000000000E+00 -0.92162404017E+03  0.92162404019E+03  0.50400001928E-02 0.  1.
    10030    2    1    2    0    0  0.00000000000E+00  0.00000000000E+00  0.13811212743E+04  0.32243693547E+04  0.29135994510E+04 0.  0.
        2    1    3    3  502    0  0.10833119279E+03  0.13666645559E+04  0.12358179777E+04  0.18457393450E+04  0.25500000920E-02 0. -1.
       -2    1    3    3    0  502 -0.10833119279E+03 -0.13666645559E+04  0.14530329662E+03  0.13786300097E+04  0.25500000920E-02 0.  1.
</event>
<event>
 5   0  0.2304435E-06  0.2887052E+04  0.7818609E-02  0.8276740E-01
       -2   -1    0    0    0  501  0.00000000000E+00  0.00000000000E+00  0.11850698413E+04  0.11850698413E+04  0.25500000920E-02 0.  1.
        2   -1    0    0  501    0  0.00000000000E+00  0.00000000000E+00 -0.17583498937E+04  0.17583498937E+04  0.25500000920E-02 0. -1.
    10030    2    1    2    0    0  0.00000000000E+00  0.00000000000E+00 -0.57328005242E+03  0.29434197350E+04  0.28870520809E+04 0.  0.
        1    1    3    3  502    0  0.71408441263E+03  0.14509417041E+03 -0.15570828933E+04  0.17191497908E+04  0.50400001928E-02 0. -1.
       -1    1    3    3    0  502 -0.71408441263E+03 -0.14509417041E+03  0.98380284086E+03  0.12242699442E+04  0.50400001928E-02 0.  1.
</event>
<event>
 5   0  0.8263673E-07  0.2904679E+04  0.7818609E-02  0.8271487E-01
        1   -1    0    0  501    0  0.00000000000E+00  0.00000000000E+00  0.11967061077E+04  0.11967061077E+04  0.50400001928E-02 0.  1.
       -1   -1    0    0    0  501  0.00000000000E+00  0.00000000000E+00 -0.17625792361E+04  0.17625792361E+04  0.50400001928E-02 0. -1.
    10030    2    1    2    0    0  0.00000000000E+00  0.00000000000E+00 -0.56587312839E+03  0.29592853438E+04  0.29046785276E+04 0.  0.
        5    1    3    3  502    0 -0.44665866084E+03  0.13809645801E+04 -0.33587608624E+03  0.14897657420E+04  0.46999998093E+01 0.  1.
       -5    1    3    3    0  502  0.44665866084E+03 -0.13809645801E+04 -0.22999704215E+03  0.14695196018E+04  0.46999998093E+01 0. -1.
</event>
<event>
 5   0  0.8483636E-07  0.2902094E+04  0.7818609E-02  0.8272255E-01
       -1   -1    0    0    0  501  0.00000000000E+00  0.00000000000E+00  0.10862425511E+04  0.10862425512E+04  0.50400001928E-02 0.  1.
        1   -1    0    0  501    0  0.00000000000E+00  0.00000000000E+00 -0.19383674873E+04  0.19383674873E+04  0.50400001928E-02 0. -1.
    10030    2    1    2    0    0  0.00000000000E+00  0.00000000000E+00 -0.85212493619E+03  0.30246100385E+04  0.29020938955E+04 0.  0.
        2    1    3    3  502    0 -0.37348069249E+03  0.68562553239E+03  0.84866969271E+03  0.11531740743E+04  0.25500000920E-02 0.  1.
       -2    1    3    3    0  502  0.37348069249E+03 -0.68562553239E+03 -0.17007946289E+04  0.18714359642E+04  0.25500000920E-02 0. -1.
</event>
<event>
 5   0  0.8357118E-07  0.2906900E+04  0.7818609E-02  0.8270828E-01
       -1   -1    0    0    0  501  0.00000000000E+00  0.00000000000E+00  0.11081648057E+04  0.11081648057E+04  0.50400001928E-02 0.  1.
        1   -1    0    0  501    0  0.00000000000E+00  0.00000000000E+00 -0.19063198076E+04  0.19063198076E+04  0.50400001928E-02 0. -1.
    10030    2    1    2    0    0  0.00000000000E+00  0.00000000000E+00 -0.79815500197E+03  0.30144846133E+04  0.29068997363E+04 0.  0.
        1    1    3    3  502    0  0.29030211133E+03 -0.11132701577E+04 -0.13201333149E+04  0.17511132827E+04  0.50400001928E-02 0. -1.
       -1    1    3    3    0  502 -0.29030211133E+03  0.11132701577E+04  0.52197831290E+03  0.12633713306E+04  0.50400001928E-02 0.  1.
</event>
<event>
 5   0  0.2325590E-06  0.2900504E+04  0.7818609E-02  0.8272728E-01
        2   -1    0    0  501    0  0.00000000000E+00  0.00000000000E+00  0.20845911621E+04  0.20845911621E+04  0.25500000920E-02 0. -1.
       -2   -1    0    0    0  501  0.00000000000E+00  0.00000000000E+00 -0.10089413677E+04  0.10089413677E+04  0.25500000920E-02 0.  1.
    10030    2    1    2    0    0  0.00000000000E+00  0.00000000000E+00  0.10756497944E+04  0.30935325298E+04  0.29005035826E+04 0.  0.
        5    1    3    3  502    0 -0.71160243044E+03  0.12449218335E+04  0.76904691282E+03  0.16271642925E+04  0.46999998093E+01 0. -1.
       -5    1    3    3    0  502  0.71160243044E+03 -0.12449218335E+04  0.30660288155E+03  0.14663682374E+04  0.46999998093E+01 0.  1.
</event>
<event>
 5   0  0.2325590E-06  0.2906702E+04  0.7818609E-02  0.8270886E-01
        2   -1    0    0  501    0  0.00000000000E+00  0.00000000000E+00  0.13298078943E+04  0.13298078943E+04  0.25500000920E-02 0. -1.
       -2   -1    0    0    0  501  0.00000000000E+00  0.00000000000E+00 -0.15883717592E+04  0.15883717592E+04  0.25500000920E-02 0.  1.
    10030    2    1    2    0    0  0.00000000000E+00  0.00000000000E+00 -0.25856386493E+03  0.29181796536E+04  0.29067021207E+04 0.  0.
        5    1    3    3  502    0 -0.16921041447E+02 -0.13663419389E+04  0.36767832415E+03  0.14150569090E+04  0.46999998093E+01 0. -1.
       -5    1    3    3    0  502  0.16921041447E+02  0.13663419389E+04 -0.62624218907E+03  0.15031227445E+04  0.46999998093E+01 0.  1.
</event>
<event>
 5   0  0.2360103E-06  0.2923894E+04  0.7818609E-02  0.8265803E-01
        2   -1    0    0  501    0  0.00000000000E+00  0.00000000000E+00  0.22296344694E+04  0.22296344694E+04  0.25500000920E-02 0.  1.
       -2   -1    0    0    0  501  0.00000000000E+00  0.00000000000E+00 -0.95858298427E+03  0.95858298428E+03  0.25500000920E-02 0. -1.
    10030    2    1    2    0    0  0.00000000000E+00  0.00000000000E+00  0.12710514851E+04  0.31882174537E+04  0.29238944328E+04 0.  0.
        4    1    3    3  502    0  0.58371799567E+03  0.76137455253E+03  0.18383671339E+04  0.20736473276E+04  0.12699999809E+01 0.  1.
       -4    1    3    3    0  502 -0.58371799567E+03 -0.76137455253E+03 -0.56731564871E+03  0.11145701260E+04  0.12699999809E+01 0. -1.
</event>
<event>
 5   0  0.8263673E-07  0.2902671E+04  0.7818609E-02  0.8272083E-01
       -1   -1    0    0    0  501  0.00000000000E+00  0.00000000000E+00  0.87421592088E+03  0.87421592090E+03  0.50400001928E-02 0. -1.
        1   -1    0    0  501    0  0.00000000000E+00  0.00000000000E+00 -0.24094453158E+04  0.24094453158E+04  0.50400001928E-02 0.  1.
    10030    2    1    2    0    0  0.00000000000E+00  0.00000000000E+00 -0.15352293949E+04  0.32836612367E+04  0.29026714975E+04 0.  0.
        5    1    3    3  502    0 -0.13924313907E+03  0.17066741881E+03  0.85518896828E+03  0.88311170363E+03  0.46999998093E+01 0. -1.
       -5    1    3    3    0  502  0.13924313907E+03 -0.17066741881E+03 -0.23904183632E+04  0.24005495331E+04  0.46999998093E+01 0.  1.
</event>
<event>
 5   0  0.2425845E-06  0.2900754E+04  0.7818609E-02  0.8272653E-01
        2   -1    0    0  501    0  0.00000000000E+00  0.00000000000E+00  0.24344044327E+04  0.24344044327E+04  0.25500000920E-02 0. -1.
       -2   -1    0    0    0  501  0.00000000000E+00  0.00000000000E+00 -0.86411027572E+03  0.86411027573E+03  0.25500000920E-02 0.  1.
    10030    2    1    2    0    0  0.00000000000E+00  0.00000000000E+00  0.15702941570E+04  0.32985147084E+04  0.29007543057E+04 0.  0.
        2    1    3    3  502    0 -0.29641562114E+03  0.13207296291E+04  0.19274533090E+03  0.13672379955E+04  0.25500000920E-02 0.  1.
       -2    1    3    3    0  502  0.29641562114E+03 -0.13207296291E+04  0.13775488261E+04  0.19312767129E+04  0.25500000920E-02 0. -1.
</event>
<event>
 5   0  0.8483636E-07  0.2901748E+04  0.7818609E-02  0.8272358E-01
       -1   -1    0    0    0  501  0.00000000000E+00  0.00000000000E+00  0.10588073507E+04  0.10588073507E+04  0.50400001928E-02 0. -1.
        1   -1    0    0  501    0  0.00000000000E+00  0.00000000000E+00 -0.19881191545E+04  0.19881191545E+04  0.50400001928E-02 0.  1.
    10030    2    1    2    0    0  0.00000000000E+00  0.00000000000E+00 -0.92931180382E+03  0.30469265052E+04  0.29017478697E+04 0.  0.
        2    1    3    3  502    0  0.25905039694E+03 -0.12394589709E+04  0.27906701651E+03  0.12966279529E+04  0.25500000920E-02 0. -1.
       -2    1    3    3    0  502 -0.25905039694E+03  0.12394589709E+04 -0.12083788203E+04  0.17502985523E+04  0.25500000920E-02 0.  1.
</event>
<event>
 5   0  0.2425845E-06  0.2884477E+04  0.7818609E-02  0.8277511E-01
        2   -1    0    0  501    0  0.00000000000E+00  0.00000000000E+00  0.14322391168E+04  0.14322391168E+04  0.25500000920E-02 0. -1.
       -2   -1    0    0    0  501  0.00000000000E+00  0.00000000000E+00 -0.14523075108E+04  0.14523075108E+04  0.25500000920E-02 0.  1.
    10030    2    1    2    0    0  0.00000000000E+00  0.00000000000E+00 -0.20068394015E+02  0.28845466276E+04  0.28844768167E+04 0.  0.
        2    1    3    3  502    0  0.10022456948E+04 -0.98312382287E+03 -0.34022810967E+03  0.14445705419E+04  0.25500000920E-02 0.  1.
       -2    1    3    3    0  502 -0.10022456948E+04  0.98312382287E+03  0.32015971565E+03  0.14399760857E+04  0.25500000920E-02 0. -1.
</event>
<event>
 5   0  0.8263673E-07  0.2940167E+04  0.7818609E-02  0.8261026E-01
       -1   -1    0    0    0  501  0.00000000000E+00  0.00000000000E+00  0.10823687707E+04  0.10823687707E+04  0.50400001928E-02 0. -1.
        1   -1    0    0  501    0  0.00000000000E+00  0.00000000000E+00 -0.19966816143E+04  0.19966816143E+04  0.50400001928E-02 0.  1.
    10030    2    1    2    0    0  0.00000000000E+00  0.00000000000E+00 -0.91431284360E+03  0.30790503851E+04  0.29401672227E+04 0.  0.
        5    1    3    3  502    0 -0.10305255194E+04  0.42732437042E+03  0.54542403965E+03  0.12418125610E+04  0.46999998093E+01 0. -1.
       -5    1    3    3    0  502  0.10305255194E+04 -0.42732437042E+03 -0.14597368833E+04  0.18372378240E+04  0.46999998093E+01 0.  1.
</event>
<event>
 5   0  0.2360103E-06  0.2895078E+04  0.7818609E-02  0.8274343E-01
       -2   -1    0    0    0  501  0.00000000000E+00  0.00000000000E+00  0.81494364166E+03  0.81494364166E+03  0.25500000920E-02 0. -1.
        2   -1    0    0  501    0  0.00000000000E+00  0.00000000000E+00 -0.25711824615E+04  0.25711824615E+04  0.25500000920E-02 0.  1.
    10030    2    1    2    0    0  0.00000000000E+00  0.00000000000E+00 -0.17562388198E+04  0.33861261032E+04  0.28950777527E+04 0.  0.
        4    1    3    3  502    0  0.49837641793E+03 -0.59779805908E+03  0.54939815624E+03  0.95267073030E+03  0.12699999809E+01 0. -1.
       -4    1    3    3    0  502 -0.49837641793E+03  0.59779805908E+03 -0.23056369761E+04  0.24334553729E+04  0.12699999809E+01 0.  1.
</event>
<event>
 5   0  0.8357118E-07  0.2897614E+04  0.7818609E-02  0.8273588E-01
        1   -1    0    0  501    0  0.00000000000E+00  0.00000000000E+00  0.13913259899E+04  0.13913259899E+04  0.50400001928E-02 0.  1.
       -1   -1    0    0    0  501  0.00000000000E+00  0.00000000000E+00 -0.15086625585E+04  0.15086625585E+04  0.50400001928E-02 0. -1.
    10030    2    1    2    0    0  0.00000000000E+00  0.00000000000E+00 -0.11733656861E+03  0.28999885483E+04  0.28976137959E+04 0.  0.
        1    1    3    3  502    0 -0.14281116364E+04  0.21159337680E+03  0.62950130482E+02  0.14450734660E+04  0.50400001928E-02 0.  1.
       -1    1    3    3    0  502  0.14281116364E+04 -0.21159337680E+03 -0.18028669909E+03  0.14549150824E+04  0.50400001928E-02 0. -1.
</event>
<event>
 5   0  0.8263673E-07  0.2948734E+04  0.7818609E-02  0.8258524E-01
        1   -1    0    0  501    0  0.00000000000E+00  0.00000000000E+00  0.14972627972E+04  0.14972627972E+04  0.50400001928E-02 0. -1.
       -1   -1    0    0    0  501  0.00000000000E+00  0.00000000000E+00 -0.14518212047E+04  0.14518212047E+04  0.50400001928E-02 0.  1.
    10030    2    1    2    0    0  0.00000000000E+00  0.00000000000E+00  0.45441592554E+02  0.29490840019E+04  0.29487338829E+04 0.  0.
        5    1    3    3  502    0  0.88882289641E+03 -0.44967540692E+03  0.11098280903E+04  0.14912929266E+04  0.46999998093E+01 0. -1.
       -5    1    3    3    0  502 -0.88882289641E+03  0.44967540692E+03 -0.10643864978E+04  0.14577910754E+04  0.46999998093E+01 0.  1.
</event>
<event>
 5   0  0.8357118E-07  0.2892942E+04  0.7818609E-02  0.8274980E-01
       -1   -1    0    0    0  501  0.00000000000E+00  0.00000000000E+00  0.16442118899E+04  0.16442118899E+04  0.50400001928E-02 0.  1.
        1   -1    0    0  501    0  0.00000000000E+00  0.00000000000E+00 -0.12725118139E+04  0.12725118139E+04  0.50400001928E-02 0. -1.
    10030    2    1    2    0    0  0.00000000000E+00  0.00000000000E+00  0.37170007596E+03  0.29167237038E+04  0.28929424844E+04 0.  0.
        1    1    3    3  502    0 -0.44029259714E+02  0.63544600221E+03  0.14951976336E+04  0.16252218805E+04  0.50400001928E-02 0.  1.
       -1    1    3    3    0  502  0.44029259714E+02 -0.63544600221E+03 -0.11234975576E+04  0.12915018233E+04  0.50400001928E-02 0. -1.
</event>
<event>
 5   0  0.2425845E-06  0.2892794E+04  0.7818609E-02  0.8275025E-01
        2   -1    0    0  501    0  0.00000000000E+00  0.00000000000E+00  0.20656490138E+04  0.20656490138E+04  0.25500000920E-02 0.  1.
       -2   -1    0    0    0  501  0.00000000000E+00  0.00000000000E+00 -0.10127876726E+04  0.10127876726E+04  0.25500000920E-02 0. -1.
    10030    2    1    2    0    0  0.00000000000E+00  0.00000000000E+00  0.10528613413E+04  0.30784366864E+04  0.28927937065E+04 0.  0.
        2    1    3    3  502    0 -0.79351207063E+02  0.87717558506E+03 -0.69451177072E+03  0.11216417524E+04  0.25500000920E-02 0. -1.
       -2    1    3    3    0  502  0.79351207063E+02 -0.87717558506E+03  0.17473731120E+04  0.19567949340E+04  0.25500000920E-02 0.  1.
</event>
<event>
 5   0  0.2378690E-06  0.2910342E+04  0.7818609E-02  0.8269807E-01
       -2   -1    0    0    0  501  0.00000000000E+00  0.00000000000E+00  0.16829196282E+04  0.16829196282E+04  0.25500000920E-02 0.  1.
        2   -1    0    0  501    0  0.00000000000E+00  0.00000000000E+00 -0.12582435648E+04  0.12582435648E+04  0.25500000920E-02 0. -1.
    10030    2    1    2    0    0  0.00000000000E+00  0.00000000000E+00  0.42467606344E+03  0.29411631930E+04  0.29103421052E+04 0.  0.
        3    1    3    3  502    0  0.12503411800E+04  0.45211477525E+02 -0.53858260020E+03  0.13621557809E+04  0.10100000352E+00 0. -1.
       -3    1    3    3    0  502 -0.12503411800E+04 -0.45211477525E+02  0.96325866364E+03  0.15790074121E+04  0.10100000352E+00 0.  1.
</event>
<event>
 5   0  0.8263673E-07  0.2914573E+04  0.7818609E-02  0.8268555E-01
       -1   -1    0    0    0  501  0.00000000000E+00  0.00000000000E+00  0.62408845925E+03  0.62408845927E+03  0.50400001928E-02 0.  1.
        1   -1    0    0  501    0  0.00000000000E+00  0.00000000000E+00 -0.34028573593E+04  0.34028573593E+04  0.50400001928E-02 0. -1.
    10030    2    1    2    0    0  0.00000000000E+00  0.00000000000E+00 -0.27787689001E+04  0.40269458186E+04  0.29145730435E+04 0.  0.
        5    1    3    3  502    0 -0.98977964551E+03  0.83893845337E+03 -0.23060611935E+04  0.26460199911E+04  0.46999998093E+01 0. -1.
       -5    1    3    3    0  502  0.98977964551E+03 -0.83893845337E+03 -0.47270770660E+03  0.13809258275E+04  0.46999998093E+01 0.  1.
</event>
<event>
 5   0  0.7621125E-07  0.2904372E+04  0.7818609E-02  0.8271578E-01
       -4   -1    0    0    0  501  0.00000000000E+00  0.00000000000E+00  0.12124591758E+04  0.12124598409E+04  0.12699999809E+01 0. -1.
        4   -1    0    0  501    0  0.00000000000E+00  0.00000000000E+00 -0.17393100369E+04  0.17393105005E+04  0.12699999809E+01 0.  1.
    10030    2    1    2    0    0  0.00000000000E+00  0.00000000000E+00 -0.52685086108E+03  0.29517703414E+04  0.29043719319E+04 0.  0.
        4    1    3    3  502    0 -0.74578475744E+03  0.12392892188E+04 -0.13165695007E+03  0.14523662890E+04  0.12699999809E+01 0.  1.
       -4    1    3    3    0  502  0.74578475744E+03 -0.12392892188E+04 -0.39519391101E+03  0.14994040524E+04  0.12699999809E+01 0. -1.
</event>
<event>
 5   0  0.2325590E-06  0.2889654E+04  0.7818609E-02  0.8275962E-01
       -2   -1    0    0    0  501  0.00000000000E+00  0.00000000000E+00  0.97545051859E+03  0.97545051859E+03  0.25500000920E-02 0.  1.
        2   -1    0    0  501    0  0.00000000000E+00  0.00000000000E+00 -0.21400624209E+04  0.21400624209E+04  0.25500000920E-02 0. -1.
    10030    2    1    2    0    0  0.00000000000E+00  0.00000000000E+00 -0.11646119023E+04  0.31155129395E+04  0.28896539573E+04 0.  0.
        5    1    3    3  502    0 -0.37913185130E+03 -0.91189765800E+03  0.55473489557E+03  0.11327184971E+04  0.46999998093E+01 0.  1.
       -5    1    3    3    0  502  0.37913185130E+03  0.91189765800E+03 -0.17193467979E+04  0.19827944424E+04  0.46999998093E+01 0. -1.
</event>
<event>
 5   0  0.2325590E-06  0.2902710E+04  0.7818609E-02  0.8272072E-01
        2   -1    0    0  501    0  0.00000000000E+00  0.00000000000E+00  0.23079658950E+04  0.23079658950E+04  0.25500000920E-02 0.  1.
       -2   -1    0    0    0  501  0.00000000000E+00  0.00000000000E+00 -0.91267893177E+03  0.91267893177E+03  0.25500000920E-02 0. -1.
    10030    2    1    2    0    0  0.00000000000E+00  0.00000000000E+00  0.13952869632E+04  0.32206448268E+04  0.29027103525E+04 0.  0.
        5    1    3    3  502    0 -0.23170292067E+02  0.10803930232E+04 -0.37729822915E+03  0.11446230780E+04  0.46999998093E+01 0. -1.
       -5    1    3    3    0  502  0.23170292067E+02 -0.10803930232E+04  0.17725851924E+04  0.20760217487E+04  0.46999998093E+01 0.  1.
</event>
<event>
 5   0  0.8357118E-07  0.2893290E+04  0.7818609E-02  0.8274877E-01
       -1   -1    0    0    0  501  0.00000000000E+00  0.00000000000E+00  0.98975057749E+03  0.98975057750E+03  0.50400001928E-02 0.  1.
        1   -1    0    0  501    0  0.00000000000E+00  0.00000000000E+00 -0.21144540844E+04  0.21144540844E+04  0.50400001928E-02 0. -1.
    10030    2    1    2    0    0  0.00000000000E+00  0.00000000000E+00 -0.11247035069E+04  0.31042046619E+04  0.28932902731E+04 0.  0.
        1    1    3    3  502    0  0.25028916069E+02  0.59905890846E+03 -0.19748672462E+04  0.20638795174E+04  0.50400001928E-02 0. -1.
       -1    1    3    3    0  502 -0.25028916069E+02 -0.59905890846E+03  0.85016373932E+03  0.10403251444E+04  0.50400001928E-02 0.  1.
</event>
<event>
 5   0  0.2360103E-06  0.2895824E+04  0.7818609E-02  0.8274121E-01
       -2   -1    0    0    0  501  0.00000000000E+00  0.00000000000E+00  0.21534747604E+04  0.21534747604E+04  0.25500000920E-02 0. -1.
        2   -1    0    0  501    0  0.00000000000E+00  0.00000000000E+00 -0.97351893868E+03  0.97351893868E+03  0.25500000920E-02 0.  1.
    10030    2    1    2    0    0  0.00000000000E+00  0.00000000000E+00  0.11799558217E+04  0.31269936991E+04  0.28958235190E+04 0.  0.
        4    1    3    3  502    0 -0.96901292846E+03  0.55842280107E+03  0.15829653687E+04  0.19381958239E+04  0.12699999809E+01 0. -1.
       -4    1    3    3    0  502  0.96901292846E+03 -0.55842280107E+03 -0.40300954698E+03  0.11887978752E+04  0.12699999809E+01 0.  1.
</event>
<event>
 5   0  0.8357118E-07  0.2886820E+04  0.7818609E-02  0.8276810E-01
       -1   -1    0    0    0  501  0.00000000000E+00  0.00000000000E+00  0.74591753987E+03  0.74591753989E+03  0.50400001928E-02 0. -1.
        1   -1    0    0  501    0  0.00000000000E+00  0.00000000000E+00 -0.27931138819E+04  0.27931138819E+04  0.50400001928E-02 0.  1.
    10030    2    1    2    0    0  0.00000000000E+00  0.00000000000E+00 -0.20471963421E+04  0.35390314218E+04  0.28868201436E+04 0.  0.
        1    1    3    3  502    0 -0.13556433363E+04  0.28489405128E+03 -0.52638052484E+03  0.14818940356E+04  0.50400001928E-02 0. -1.
       -1    1    3    3    0  502  0.13556433363E+04 -0.28489405128E+03 -0.15208158172E+04  0.20571373862E+04  0.50400001928E-02 0.  1.
</event>
<event>
 5   0  0.8947674E-07  0.2910953E+04  0.7818609E-02  0.8269626E-01
       -1   -1    0    0    0  501  0.00000000000E+00  0.00000000000E+00  0.88731801424E+03  0.88731801425E+03  0.50400001928E-02 0. -1.
        1   -1    0    0  501    0  0.00000000000E+00  0.00000000000E+00 -0.23874328468E+04  0.23874328468E+04  0.50400001928E-02 0.  1.
    10030    2    1    2    0    0  0.00000000000E+00  0.00000000000E+00 -0.15001148326E+04  0.32747508611E+04  0.29109532272E+04 0.  0.
        3    1    3    3  502    0 -0.13034699348E+04 -0.26775797065E+03 -0.14133961631E+04  0.19412410787E+04  0.10100000352E+00 0.  1.
       -3    1    3    3    0  502  0.13034699348E+04  0.26775797065E+03 -0.86718669478E+02  0.13335097823E+04  0.10100000352E+00 0. -1.
</event>
<event>
 5   0  0.8355946E-07  0.2896851E+04  0.7818609E-02  0.8273815E-01
       -1   -1    0    0    0  501  0.00000000000E+00  0.00000000000E+00  0.13463450826E+04  0.13463450826E+04  0.50400001928E-02 0. -1.
        1   -1    0    0  501    0  0.00000000000E+00  0.00000000000E+00 -0.15582453739E+04  0.15582453739E+04  0.50400001928E-02 0.  1.
    10030    2    1    2    0    0  0.00000000000E+00  0.00000000000E+00 -0.21190029129E+03  0.29045904565E+04  0.28968507015E+04 0.  0.
        4    1    3    3  502    0  0.26138232482E+03 -0.12102043485E+04 -0.85963598781E+03  0.15072793136E+04  0.12699999809E+01 0.  1.
       -4    1    3    3    0  502 -0.26138232482E+03  0.12102043485E+04  0.64773569652E+03  0.13973111429E+04  0.12699999809E+01 0. -1.
</event>
<event>
 5   0  0.2360103E-06  0.2902835E+04  0.7818609E-02  0.8272034E-01
       -2   -1    0    0    0  501  0.00000000000E+00  0.00000000000E+00  0.12093579725E+04  0.12093579725E+04  0.25500000920E-02 0. -1.
        2   -1    0    0  501    0  0.00000000000E+00  0.00000000000E+00 -0.17419266016E+04  0.17419266016E+04  0.25500000920E-02 0.  1.
    10030    2    1    2    0    0  0.00000000000E+00  0.00000000000E+00 -0.53256862906E+03  0.29512845741E+04  0.29028350440E+04 0.  0.
        4    1    3    3  502    0 -0.20970084711E+03  0.94493136250E+03  0.83331301570E+03  0.12772164735E+04  0.12699999809E+01 0. -1.
       -4    1    3    3    0  502  0.20970084711E+03 -0.94493136250E+03 -0.13658816448E+04  0.16740681006E+04  0.12699999809E+01 0.  1.
</event>
<event>
 5   0  0.8355946E-07  0.2887825E+04  0.7818609E-02  0.8276509E-01
       -1   -1    0    0    0  501  0.00000000000E+00  0.00000000000E+00  0.70379493625E+03  0.70379493627E+03  0.50400001928E-02 0. -1.
        1   -1    0    0  501    0  0.00000000000E+00  0.00000000000E+00 -0.29623446599E+04  0.29623446599E+04  0.50400001928E-02 0.  1.
    10030    2    1    2    0    0  0.00000000000E+00  0.00000000000E+00 -0.22585497237E+04  0.36661395962E+04  0.28878249054E+04 0.  0.
        4    1    3    3  502    0 -0.47728606062E+03  0.13610950607E+04 -0.10441149427E+04  0.17806064625E+04  0.12699999809E+01 0. -1.
       -4    1    3    3    0  502  0.47728606062E+03 -0.13610950607E+04 -0.12144347810E+04  0.18855331337E+04  0.12699999809E+01 0.  1.
</event>
<event>
 5   0  0.8947674E-07  0.2902123E+04  0.7818609E-02  0.8272246E-01
       -1   -1    0    0    0  501  0.00000000000E+00  0.00000000000E+00  0.12488645079E+04  0.12488645079E+04  0.50400001928E-02 0. -1.
        1   -1    0    0  501    0  0.00000000000E+00  0.00000000000E+00 -0.16859947792E+04  0.16859947792E+04  0.50400001928E-02 0.  1.
    10030    2    1    2    0    0  0.00000000000E+00  0.00000000000E+00 -0.43713027122E+03  0.29348592871E+04  0.29021226992E+04 0.  0.
        3    1    3    3  502    0  0.17367582957E+03  0.19852671515E+03  0.12244161796E+04  0.12525059447E+04  0.10100000352E+00 0. -1.
       -3    1    3    3    0  502 -0.17367582957E+03 -0.19852671515E+03 -0.16615464508E+04  0.16823533424E+04  0.10100000352E+00 0.  1.
</event>
<event>
 5   0  0.2304435E-06  0.2900864E+04  0.7818609E-02  0.8272620E-01
       -2   -1    0    0    0  501  0.00000000000E+00  0.00000000000E+00  0.11857131046E+04  0.11857131046E+04  0.25500000920E-02 0.  1.
        2   -1    0    0  501    0  0.00000000000E+00  0.00000000000E+00 -0.17742518172E+04  0.17742518172E+04  0.25500000920E-02 0. -1.
    10030    2    1    2    0    0  0.00000000000E+00  0.00000000000E+00 -0.58853871260E+03  0.29599649219E+04  0.29008644440E+04 0.  0.
        1    1    3    3  502    0 -0.58693329972E+03  0.13213190571E+04 -0.41229300388E+03  0.15034494571E+04  0.50400001928E-02 0.  1.
       -1    1    3    3    0  502  0.58693329972E+03 -0.13213190571E+04 -0.17624570872E+03  0.14565154647E+04  0.50400001928E-02 0. -1.
</event>
<event>
 5   0  0.2325590E-06  0.2936947E+04  0.7818609E-02  0.8261969E-01
        2   -1    0    0  501    0  0.00000000000E+00  0.00000000000E+00  0.20975648128E+04  0.20975648128E+04  0.25500000920E-02 0. -1.
       -2   -1    0    0    0  501  0.00000000000E+00  0.00000000000E+00 -0.10280558326E+04  0.10280558326E+04  0.25500000920E-02 0.  1.
    10030    2    1    2    0    0  0.00000000000E+00  0.00000000000E+00  0.10695089802E+04  0.31256206454E+04  0.29369465368E+04 0.  0.
        5    1    3    3  502    0  0.14429824220E+04 -0.94259366234E+02  0.26278182789E+03  0.14697481000E+04  0.46999998093E+01 0.  1.
       -5    1    3    3    0  502 -0.14429824220E+04  0.94259366234E+02  0.80672715235E+03  0.16558725454E+04  0.46999998093E+01 0. -1.
</event>
<event>
 5   0  0.8355946E-07  0.2903043E+04  0.7818609E-02  0.8271973E-01
       -1   -1    0    0    0  501  0.00000000000E+00  0.00000000000E+00  0.16567262718E+04  0.16567262718E+04  0.50400001928E-02 0.  1.
        1   -1    0    0  501    0  0.00000000000E+00  0.00000000000E+00 -0.12717341485E+04  0.12717341485E+04  0.50400001928E-02 0. -1.
    10030    2    1    2    0    0  0.00000000000E+00  0.00000000000E+00  0.38499212333E+03  0.29284604204E+04  0.29030434889E+04 0.  0.
        4    1    3    3  502    0  0.11766744964E+04 -0.84863186581E+03  0.14545249702E+03  0.14580455946E+04  0.12699999809E+01 0.  1.
       -4    1    3    3    0  502 -0.11766744964E+04  0.84863186581E+03  0.23953962632E+03  0.14704148257E+04  0.12699999809E+01 0. -1.
</event>
<event>
 5   0  0.2304435E-06  0.2829451E+04  0.7818609E-02  0.8294183E-01
        2   -1    0    0  501    0  0.00000000000E+00  0.00000000000E+00  0.26868778446E+04  0.26868778446E+04  0.25500000920E-02 0. -1.
       -2   -1    0    0    0  501  0.00000000000E+00  0.00000000000E+00 -0.74489720622E+03  0.74489720623E+03  0.25500000920E-02 0.  1.
    10030    2    1    2    0    0  0.00000000000E+00  0.00000000000E+00  0.19419806383E+04  0.34317750508E+04  0.28294506887E+04 0.  0.
        1    1    3    3  502    0 -0.48704451557E+03 -0.59127653740E+03  0.24135630907E+04  0.25322138726E+04  0.50400001928E-02 0. -1.
       -1    1    3    3    0  502  0.48704451557E+03  0.59127653740E+03 -0.47158245239E+03  0.89956117815E+03  0.50400001928E-02 0.  1.
</event>
<event>
 5   0  0.2425845E-06  0.2903736E+04  0.7818609E-02  0.8271767E-01
       -2   -1    0    0    0  501  0.00000000000E+00  0.00000000000E+00  0.16186792129E+04  0.16186792129E+04  0.25500000920E-02 0.  1.
        2   -1    0    0  501    0  0.00000000000E+00  0.00000000000E+00 -0.13022474285E+04  0.13022474285E+04  0.25500000920E-02 0. -1.
    10030    2    1    2    0    0  0.00000000000E+00  0.00000000000E+00  0.31643178434E+03  0.29209266414E+04  0.29037361055E+04 0.  0.
        2    1    3    3  502    0 -0.55614765234E+03 -0.10796065899E+04  0.95858341045E+03  0.15471692716E+04  0.25500000920E-02 0.  1.
       -2    1    3    3    0  502  0.55614765234E+03  0.10796065899E+04 -0.64215162611E+03  0.13737573698E+04  0.25500000920E-02 0. -1.
</event>
<event>
 5   0  0.8357118E-07  0.2904359E+04  0.7818609E-02  0.8271582E-01
        1   -1    0    0  501    0  0.00000000000E+00  0.00000000000E+00  0.13845022404E+04  0.13845022404E+04  0.50400001928E-02 0.  1.
       -1   -1    0    0    0  501  0.00000000000E+00  0.00000000000E+00 -0.15231653046E+04  0.15231653047E+04  0.50400001928E-02 0. -1.
    10030    2    1    2    0    0  0.00000000000E+00  0.00000000000E+00 -0.13866306426E+03  0.29076675450E+04  0.29043593282E+04 0.  0.
        1    1    3    3  502    0 -0.13196411987E+04  0.31475793958E+03 -0.58789868021E+03  0.14785635976E+04  0.50400001928E-02 0. -1.
       -1    1    3    3    0  502  0.13196411987E+04 -0.31475793958E+03  0.44923561595E+03  0.14291039474E+04  0.50400001928E-02 0.  1.
</event>
<event>
 5   0  0.2425845E-06  0.2896071E+04  0.7818609E-02  0.8274047E-01
       -2   -1    0    0    0  501  0.00000000000E+00  0.00000000000E+00  0.81694110898E+03  0.81694110898E+03  0.25500000920E-02 0.  1.
        2   -1    0    0  501    0  0.00000000000E+00  0.00000000000E+00 -0.25666557187E+04  0.25666557187E+04  0.25500000920E-02 0. -1.
    10030    2    1    2    0    0  0.00000000000E+00  0.00000000000E+00 -0.17497146097E+04  0.33835968276E+04  0.28960708342E+04 0.  0.
        2    1    3    3  502    0  0.11202952891E+04  0.64526428613E+03 -0.11285292044E+03  0.12977531797E+04  0.25500000920E-02 0.  1.
       -2    1    3    3    0  502 -0.11202952891E+04 -0.64526428613E+03 -0.16368616892E+04  0.20858436479E+04  0.25500000920E-02 0. -1.
</event>
<event>
 5   0  0.8355946E-07  0.2898648E+04  0.7818609E-02  0.8273280E-01
       -1   -1    0    0    0  501  0.00000000000E+00  0.00000000000E+00  0.13057113772E+04  0.13057113772E+04  0.50400001928E-02 0.  1.
        1   -1    0    0  501    0  0.00000000000E+00  0.00000000000E+00 -0.16087317439E+04  0.16087317439E+04  0.50400001928E-02 0. -1.
    10030    2    1    2    0    0  0.00000000000E+00  0.00000000000E+00 -0.30302036663E+03  0.29144431211E+04  0.28986475059E+04 0.  0.
        4    1    3    3  502    0 -0.46709581174E+03  0.67001235335E+03 -0.13552991085E+04  0.15823818558E+04  0.12699999809E+01 0. -1.
       -4    1    3    3    0  502  0.46709581174E+03 -0.67001235335E+03  0.10522787419E+04  0.13320612653E+04  0.12699999809E+01 0.  1.
</event>
<event>
 5   0  0.8357118E-07  0.2908115E+04  0.7818609E-02  0.8270467E-01
        1   -1    0    0  501    0  0.00000000000E+00  0.00000000000E+00  0.26785252614E+04  0.26785252614E+04  0.50400001928E-02 0. -1.
       -1   -1    0    0    0  501  0.00000000000E+00  0.00000000000E+00 -0.78934615515E+03  0.78934615517E+03  0.50400001928E-02 0.  1.
    10030    2    1    2    0    0  0.00000000000E+00  0.00000000000E+00  0.18891791063E+04  0.34678714166E+04  0.29081152774E+04 0.  0.
        1    1    3    3  502    0 -0.94553893018E+03 -0.50516434921E+03 -0.22686646985E+03  0.10957660715E+04  0.50400001928E-02 0.  1.
       -1    1    3    3    0  502  0.94553893018E+03  0.50516434921E+03  0.21160455761E+04  0.23721053451E+04  0.50400001928E-02 0. -1.
</event>
<event>
 5   0  0.2304435E-06  0.2899484E+04  0.7818609E-02  0.8273031E-01
       -2   -1    0    0    0  501  0.00000000000E+00  0.00000000000E+00  0.16642459662E+04  0.16642459662E+04  0.25500000920E-02 0. -1.
        2   -1    0    0  501    0  0.00000000000E+00  0.00000000000E+00 -0.12628849606E+04  0.12628849606E+04  0.25500000920E-02 0.  1.
    10030    2    1    2    0    0  0.00000000000E+00  0.00000000000E+00  0.40136100557E+03  0.29271309269E+04  0.28994835413E+04 0.  0.
        1    1    3    3  502    0  0.33597474528E+03 -0.51367255684E+02  0.16234569268E+04  0.16586530733E+04  0.50400001928E-02 0. -1.
       -1    1    3    3    0  502 -0.33597474528E+03  0.51367255684E+02 -0.12220959212E+04  0.12684778536E+04  0.50400001928E-02 0.  1.
</event>
<event>
 5   0  0.2425845E-06  0.2898075E+04  0.7818609E-02  0.8273450E-01
        2   -1    0    0  501    0  0.00000000000E+00  0.00000000000E+00  0.24500162714E+04  0.24500162714E+04  0.25500000920E-02 0. -1.
       -2   -1    0    0    0  501  0.00000000000E+00  0.00000000000E+00 -0.85701872776E+03  0.85701872776E+03  0.25500000920E-02 0.  1.
    10030    2    1    2    0    0  0.00000000000E+00  0.00000000000E+00  0.15929975436E+04  0.33070349992E+04  0.28980751045E+04 0.  0.
        2    1    3    3  502    0  0.57972433171E+03  0.12985416936E+04  0.47899204906E+03  0.15005746279E+04  0.25500000920E-02 0.  1.
       -2    1    3    3    0  502 -0.57972433171E+03 -0.12985416936E+04  0.11140054946E+04  0.18064603712E+04  0.25500000920E-02 0. -1.
</event>
<event>
 5   0  0.8357118E-07  0.2894992E+04  0.7818609E-02  0.8274369E-01
        1   -1    0    0  501    0  0.00000000000E+00  0.00000000000E+00  0.21404561200E+04  0.21404561200E+04  0.50400001928E-02 0.  1.
       -1   -1    0    0    0  501  0.00000000000E+00  0.00000000000E+00 -0.97887776385E+03  0.97887776386E+03  0.50400001928E-02 0. -1.
    10030    2    1    2    0    0  0.00000000000E+00  0.00000000000E+00  0.11615783561E+04  0.31193338839E+04  0.28949921592E+04 0.  0.
        1    1    3    3  502    0  0.96651882671E+02 -0.69139723903E+03 -0.78549288046E+03  0.10508904766E+04  0.50400001928E-02 0. -1.
       -1    1    3    3    0  502 -0.96651882671E+02  0.69139723903E+03  0.19470712366E+04  0.20684434072E+04  0.50400001928E-02 0.  1.
</event>
<event>
 5   0  0.8483636E-07  0.2961533E+04  0.7818609E-02  0.8254801E-01
        1   -1    0    0  501    0  0.00000000000E+00  0.00000000000E+00  0.19954346792E+04  0.19954346792E+04  0.50400001928E-02 0.  1.
       -1   -1    0    0    0  501  0.00000000000E+00  0.00000000000E+00 -0.10988430461E+04  0.10988430462E+04  0.50400001928E-02 0. -1.
    10030    2    1    2    0    0  0.00000000000E+00  0.00000000000E+00  0.89659163303E+03  0.30942777253E+04  0.29615330633E+04 0.  0.
        2    1    3    3  502    0  0.11327844094E+04 -0.94759690312E+03  0.33610930576E+03  0.15146319270E+04  0.25500000920E-02 0.  1.
       -2    1    3    3    0  502 -0.11327844094E+04  0.94759690312E+03  0.56048232727E+03  0.15796457983E+04  0.25500000920E-02 0. -1.
</event>
<event>
 5   0  0.2304435E-06  0.2899909E+04  0.7818609E-02  0.8272905E-01
       -2   -1    0    0    0  501  0.00000000000E+00  0.00000000000E+00  0.33523030034E+04  0.33523030034E+04  0.25500000920E-02 0.  1.
        2   -1    0    0  501    0  0.00000000000E+00  0.00000000000E+00 -0.62714120264E+03  0.62714120264E+03  0.25500000920E-02 0. -1.
    10030    2    1    2    0    0  0.00000000000E+00  0.00000000000E+00  0.27251618008E+04  0.39794442060E+04  0.28999085069E+04 0.  0.
        1    1    3    3  502    0 -0.12850111225E+04 -0.46831803086E+03  0.20232550604E+04  0.24421581444E+04  0.50400001928E-02 0. -1.
       -1    1    3    3    0  502  0.12850111225E+04  0.46831803086E+03  0.70190674037E+03  0.15372860616E+04  0.50400001928E-02 0.  1.
</event>
<event>
 5   0  0.8483636E-07  0.2858477E+04  0.7818609E-02  0.8285340E-01
        1   -1    0    0  501    0  0.00000000000E+00  0.00000000000E+00  0.18752914080E+04  0.18752914080E+04  0.50400001928E-02 0.  1.
       -1   -1    0    0    0  501  0.00000000000E+00  0.00000000000E+00 -0.10892827537E+04  0.10892827537E+04  0.50400001928E-02 0. -1.
    10030    2    1    2    0    0  0.00000000000E+00  0.00000000000E+00  0.78600865435E+03  0.29645741617E+04  0.28584769294E+04 0.  0.
        2    1    3    3  502    0 -0.54821105092E+03  0.12108182294E+04  0.93796592818E+03  0.16267747919E+04  0.25500000920E-02 0.  1.
       -2    1    3    3    0  502  0.54821105092E+03 -0.12108182294E+04 -0.15195727383E+03  0.13377993699E+04  0.25500000920E-02 0. -1.
</event>
<event>
 5   0  0.8947674E-07  0.2900384E+04  0.7818609E-02  0.8272763E-01
        1   -1    0    0  501    0  0.00000000000E+00  0.00000000000E+00  0.11870249002E+04  0.11870249002E+04  0.50400001928E-02 0. -1.
       -1   -1    0    0    0  501  0.00000000000E+00  0.00000000000E+00 -0.17717043568E+04  0.17717043568E+04  0.50400001928E-02 0.  1.
    10030    2    1    2    0    0  0.00000000000E+00  0.00000000000E+00 -0.58467945658E+03  0.29587292570E+04  0.29003842417E+04 0.  0.
        3    1    3    3  502    0 -0.62987446213E+02 -0.13497801862E+04 -0.82941251512E+03  0.15854964837E+04  0.10100000352E+00 0.  1.
       -3    1    3    3    0  502  0.62987446213E+02  0.13497801862E+04  0.24473305855E+03  0.13732327733E+04  0.10100000352E+00 0. -1.
</event>
<event>
 5   0  0.2304435E-06  0.2905589E+04  0.7818609E-02  0.8271216E-01
       -2   -1    0    0    0  501  0.00000000000E+00  0.00000000000E+00  0.93025852520E+03  0.93025852520E+03  0.25500000920E-02 0. -1.
        2   -1    0    0  501    0  0.00000000000E+00  0.00000000000E+00 -0.22688446672E+04  0.22688446672E+04  0.25500000920E-02 0.  1.
    10030    2    1    2    0    0  0.00000000000E+00  0.00000000000E+00 -0.13385861420E+04  0.31991031924E+04  0.29055891616E+04 0.  0.
        1    1    3    3  502    0 -0.22598413633E+03 -0.23888559329E+03  0.88874406120E+03  0.94762923282E+03  0.50400001928E-02 0. -1.
       -1    1    3    3    0  502  0.22598413633E+03  0.23888559329E+03 -0.22273302032E+04  0.22514739596E+04  0.50400001928E-02 0.  1.
</event>
<event>
 5   0  0.2360103E-06  0.2967011E+04  0.7818609E-02  0.8253214E-01
        2   -1    0    0  501    0  0.00000000000E+00  0.00000000000E+00  0.15754253006E+04  0.15754253006E+04  0.25500000920E-02 0. -1.
       -2   -1    0    0    0  501  0.00000000000E+00  0.00000000000E+00 -0.13969489657E+04  0.13969489657E+04  0.25500000920E-02 0.  1.
    10030    2    1    2    0    0  0.00000000000E+00  0.00000000000E+00  0.17847633489E+03  0.29723742662E+04  0.29670111184E+04 0.  0.
        4    1    3    3  502    0 -0.43396546580E+03  0.11013768174E+04  0.98496296467E+03  0.15399709654E+04  0.12699999809E+01 0. -1.
       -4    1    3    3    0  502  0.43396546580E+03 -0.11013768174E+04 -0.80648662979E+03  0.14324033009E+04  0.12699999809E+01 0.  1.
</event>
<event>
 5   0  0.2360103E-06  0.2889695E+04  0.7818609E-02  0.8275950E-01
        2   -1    0    0  501    0  0.00000000000E+00  0.00000000000E+00  0.17831263640E+04  0.17831263640E+04  0.25500000920E-02 0.  1.
       -2   -1    0    0    0  501  0.00000000000E+00  0.00000000000E+00 -0.11707435207E+04  0.11707435207E+04  0.25500000920E-02 0. -1.
    10030    2    1    2    0    0  0.00000000000E+00  0.00000000000E+00  0.61238284332E+03  0.29538698847E+04  0.28896945425E+04 0.  0.
        4    1    3    3  502    0  0.52655193428E+03 -0.26188354770E+03  0.16552516751E+04  0.17566159662E+04  0.12699999809E+01 0.  1.
       -4    1    3    3    0  502 -0.52655193428E+03  0.26188354770E+03 -0.10428688318E+04  0.11972539184E+04  0.12699999809E+01 0. -1.
</event>
<event>
 5   0  0.2378690E-06  0.2902388E+04  0.7818609E-02  0.8272167E-01
        2   -1    0    0  501    0  0.00000000000E+00  0.00000000000E+00  0.21767320955E+04  0.21767320955E+04  0.25500000920E-02 0. -1.
       -2   -1    0    0    0  501  0.00000000000E+00  0.00000000000E+00 -0.96748898958E+03  0.96748898959E+03  0.25500000920E-02 0.  1.
    10030    2    1    2    0    0  0.00000000000E+00  0.00000000000E+00  0.12092431059E+04  0.31442210851E+04  0.29023882137E+04 0.  0.
        3    1    3    3  502    0 -0.13186663924E+04 -0.44475740517E+03  0.10503320459E+04  0.17435273502E+04  0.10100000352E+00 0. -1.
       -3    1    3    3    0  502  0.13186663924E+04  0.44475740517E+03  0.15891106005E+03  0.14006937349E+04  0.10100000352E+00 0.  1.
</event>
<event>
 5   0  0.8357118E-07  0.2899271E+04  0.7818609E-02  0.8273095E-01
       -1   -1    0    0    0  501  0.00000000000E+00  0.00000000000E+00  0.89373786515E+03  0.89373786516E+03  0.50400001928E-02 0.  1.
        1   -1    0    0  501    0  0.00000000000E+00  0.00000000000E+00 -0.23512963501E+04  0.23512963501E+04  0.50400001928E-02 0. -1.
    10030    2    1    2    0    0  0.00000000000E+00  0.00000000000E+00 -0.14575584849E+04  0.32450342152E+04  0.28992706533E+04 0.  0.
        1    1    3    3  502    0 -0.13896921190E+04  0.77129858723E+02 -0.27516948328E+03  0.14187711039E+04  0.50400001928E-02 0.  1.
       -1    1    3    3    0  502  0.13896921190E+04 -0.77129858723E+02 -0.11823890016E+04  0.18262631114E+04  0.50400001928E-02 0. -1.
</event>
<event>
 5   0  0.2425845E-06  0.2890044E+04  0.7818609E-02  0.8275846E-01
        2   -1    0    0  501    0  0.00000000000E+00  0.00000000000E+00  0.21043072360E+04  0.21043072360E+04  0.25500000920E-02 0.  1.
       -2   -1    0    0    0  501  0.00000000000E+00  0.00000000000E+00 -0.99229268584E+03  0.99229268584E+03  0.25500000920E-02 0. -1.
    10030    2    1    2    0    0  0.00000000000E+00  0.00000000000E+00  0.11120145501E+04  0.30965999218E+04  0.28900440682E+04 0.  0.
        2    1    3    3  502    0  0.89642019281E+03 -0.10625254564E+04  0.97860625453E+03  0.17000587369E+04  0.25500000920E-02 0.  1.
       -2    1    3    3    0  502 -0.89642019281E+03  0.10625254564E+04  0.13340829559E+03  0.13965411849E+04  0.25500000920E-02 0. -1.
</event>
<event>
 5   0  0.2304435E-06  0.2911368E+04  0.7818609E-02  0.8269503E-01
       -2   -1    0    0    0  501  0.00000000000E+00  0.00000000000E+00  0.11804298838E+04  0.11804298838E+04  0.25500000920E-02 0.  1.
        2   -1    0    0  501    0  0.00000000000E+00  0.00000000000E+00 -0.17951216322E+04  0.17951216322E+04  0.25500000920E-02 0. -1.
    10030    2    1    2    0    0  0.00000000000E+00  0.00000000000E+00 -0.61469174842E+03  0.29755515160E+04  0.29113675273E+04 0.  0.
        1    1    3    3  502    0 -0.12269655541E+04 -0.53818746507E+03  0.27434556788E+03  0.13676094871E+04  0.50400001928E-02 0.  1.
       -1    1    3    3    0  502  0.12269655541E+04  0.53818746507E+03 -0.88903731629E+03  0.16079420289E+04  0.50400001928E-02 0. -1.
</event>
<event>
 5   0  0.8483636E-07  0.2895594E+04  0.7818609E-02  0.8274190E-01
        1   -1    0    0  501    0  0.00000000000E+00  0.00000000000E+00  0.18123664240E+04  0.18123664240E+04  0.50400001928E-02 0. -1.
       -1   -1    0    0    0  501  0.00000000000E+00  0.00000000000E+00 -0.11565632310E+04  0.11565632310E+04  0.50400001928E-02 0.  1.
    10030    2    1    2    0    0  0.00000000000E+00  0.00000000000E+00  0.65580319292E+03  0.29689296550E+04  0.28955941478E+04 0.  0.
        2    1    3    3  502    0 -0.65736581557E+03  0.39685338460E+03 -0.93057722797E+03  0.12064809993E+04  0.25500000920E-02 0.  1.
       -2    1    3    3    0  502  0.65736581557E+03 -0.39685338460E+03  0.15863804209E+04  0.17624486558E+04  0.25500000920E-02 0. -1.
</event>
<event>
 5   0  0.8483636E-07  0.2898113E+04  0.7818609E-02  0.8273439E-01
        1   -1    0    0  501    0  0.00000000000E+00  0.00000000000E+00  0.77364535583E+03  0.77364535584E+03  0.50400001928E-02 0.  1.
       -1   -1    0    0    0  501  0.00000000000E+00  0.00000000000E+00 -0.27141179087E+04  0.27141179087E+04  0.50400001928E-02 0. -1.
    10030    2    1    2    0    0  0.00000000000E+00  0.00000000000E+00 -0.19404725529E+04  0.34877632645E+04  0.28981129828E+04 0.  0.
        2    1    3    3  502    0 -0.44443118701E+03 -0.37353203344E+02  0.68899013782E+03  0.82074463252E+03  0.25500000920E-02 0.  1.
       -2    1    3    3    0  502  0.44443118701E+03  0.37353203344E+02 -0.26294626907E+04  0.26670186320E+04  0.25500000920E-02 0. -1.
</event>
<event>
 5   0  0.2304435E-06  0.2868292E+04  0.7818609E-02  0.8282375E-01
        2   -1    0    0  501    0  0.00000000000E+00  0.00000000000E+00  0.16532478866E+04  0.16532478866E+04  0.25500000920E-02 0. -1.
       -2   -1    0    0    0  501  0.00000000000E+00  0.00000000000E+00 -0.12440809247E+04  0.12440809247E+04  0.25500000920E-02 0.  1.
    10030    2    1    2    0    0  0.00000000000E+00  0.00000000000E+00  0.40916696192E+03  0.28973288113E+04  0.28682915888E+04 0.  0.
        1    1    3    3  502    0  0.39279248112E+03  0.65251741378E+02 -0.11871271736E+04  0.12521240551E+04  0.50400001928E-02 0.  1.
       -1    1    3    3    0  502 -0.39279248112E+03 -0.65251741378E+02  0.15962941355E+04  0.16452047563E+04  0.50400001928E-02 0. -1.
</event>
<event>
 5   0  0.2360103E-06  0.2900963E+04  0.7818609E-02  0.8272591E-01
       -2   -1    0    0    0  501  0.00000000000E+00  0.00000000000E+00  0.16386769568E+04  0.16386769568E+04  0.25500000920E-02 0.  1.
        2   -1    0    0  501    0  0.00000000000E+00  0.00000000000E+00 -0.12838994881E+04  0.12838994881E+04  0.25500000920E-02 0. -1.
    10030    2    1    2    0    0  0.00000000000E+00  0.00000000000E+00  0.35477746876E+03  0.29225764449E+04  0.29009629477E+04 0.  0.
        4    1    3    3  502    0  0.19478536320E+03 -0.58956236372E+03  0.14980213242E+04  0.16216024850E+04  0.12699999809E+01 0.  1.
       -4    1    3    3    0  502 -0.19478536320E+03  0.58956236372E+03 -0.11432438555E+04  0.13009739599E+04  0.12699999809E+01 0. -1.
</event>
<event>
 5   0  0.2360103E-06  0.2861155E+04  0.7818609E-02  0.8284530E-01
        2   -1    0    0  501    0  0.00000000000E+00  0.00000000000E+00  0.26631355854E+04  0.26631355854E+04  0.25500000920E-02 0.  1.
       -2   -1    0    0    0  501  0.00000000000E+00  0.00000000000E+00 -0.76847463873E+03  0.76847463873E+03  0.25500000920E-02 0. -1.
    10030    2    1    2    0    0  0.00000000000E+00  0.00000000000E+00  0.18946609467E+04  0.34316102241E+04  0.28611551212E+04 0.  0.
        4    1    3    3  502    0 -0.70931350863E+03 -0.88093366818E+03 -0.10332905320E+03  0.11357148794E+04  0.12699999809E+01 0. -1.
       -4    1    3    3    0  502  0.70931350863E+03  0.88093366818E+03  0.19979899999E+04  0.22958953447E+04  0.12699999809E+01 0.  1.
</event>
<event>
 5   0  0.8947674E-07  0.2899942E+04  0.7818609E-02  0.8272895E-01
       -1   -1    0    0    0  501  0.00000000000E+00  0.00000000000E+00  0.94981386264E+03  0.94981386266E+03  0.50400001928E-02 0.  1.
        1   -1    0    0  501    0  0.00000000000E+00  0.00000000000E+00 -0.22135035600E+04  0.22135035600E+04  0.50400001928E-02 0. -1.
    10030    2    1    2    0    0  0.00000000000E+00  0.00000000000E+00 -0.12636896973E+04  0.31633174226E+04  0.28999423210E+04 0.  0.
        3    1    3    3  502    0  0.77104589479E+03  0.10494056319E+04 -0.13274536771E+04  0.18595422091E+04  0.10100000352E+00 0.  1.
       -3    1    3    3    0  502 -0.77104589479E+03 -0.10494056319E+04  0.63763979785E+02  0.13037752136E+04  0.10100000352E+00 0. -1.
</event>
<event>
 5   0  0.8263673E-07  0.3008127E+04  0.7818609E-02  0.8241414E-01
        1   -1    0    0  501    0  0.00000000000E+00  0.00000000000E+00  0.89159455196E+03  0.89159455198E+03  0.50400001928E-02 0.  1.
       -1   -1    0    0    0  501  0.00000000000E+00  0.00000000000E+00 -0.25372605092E+04  0.25372605092E+04  0.50400001928E-02 0. -1.
    10030    2    1    2    0    0  0.00000000000E+00  0.00000000000E+00 -0.16456659573E+04  0.34288550612E+04  0.30081274222E+04 0.  0.
        5    1    3    3  502    0  0.12129106969E+04  0.78877688412E+03 -0.35442775990E+03  0.14896182258E+04  0.46999998093E+01 0. -1.
       -5    1    3    3    0  502 -0.12129106969E+04 -0.78877688412E+03 -0.12912381974E+04  0.19392368354E+04  0.46999998093E+01 0.  1.
</event>
<event>
 5   0  0.2425845E-06  0.2766934E+04  0.7818609E-02  0.8313608E-01
        2   -1    0    0  501    0  0.00000000000E+00  0.00000000000E+00  0.13870280022E+04  0.13870280022E+04  0.25500000920E-02 0.  1.
       -2   -1    0    0    0  501  0.00000000000E+00  0.00000000000E+00 -0.13799149981E+04  0.13799149981E+04  0.25500000920E-02 0. -1.
    10030    2    1    2    0    0  0.00000000000E+00  0.00000000000E+00  0.71130041572E+01  0.27669430003E+04  0.27669338576E+04 0.  0.
        2    1    3    3  502    0  0.38136272179E+03  0.85160077654E+03  0.10249899212E+04  0.13860973078E+04  0.25500000920E-02 0.  1.
       -2    1    3    3    0  502 -0.38136272179E+03 -0.85160077654E+03 -0.10178769171E+04  0.13808456925E+04  0.25500000920E-02 0. -1.
</event>
<event>
 5   0  0.8483636E-07  0.2704475E+04  0.7818609E-02  0.8333555E-01
        1   -1    0    0  501    0  0.00000000000E+00  0.00000000000E+00  0.12390367308E+04  0.12390367308E+04  0.50400001928E-02 0. -1.
       -1   -1    0    0    0  501  0.00000000000E+00  0.00000000000E+00 -0.14757802459E+04  0.14757802460E+04  0.50400001928E-02 0.  1.
    10030    2    1    2    0    0  0.00000000000E+00  0.00000000000E+00 -0.23674351517E+03  0.27148169767E+04  0.27044747596E+04 0.  0.
        2    1    3    3  502    0 -0.82522541496E+03 -0.19124944388E+03 -0.11764293233E+04  0.14496755802E+04  0.25500000920E-02 0.  1.
       -2    1    3    3    0  502  0.82522541496E+03  0.19124944388E+03  0.93968580808E+03  0.12651413965E+04  0.25500000920E-02 0. -1.
</event>
<event>
 5   0  0.8483636E-07  0.2900388E+04  0.7818609E-02  0.8272762E-01
        1   -1    0    0  501    0  0.00000000000E+00  0.00000000000E+00  0.25776149606E+04  0.25776149606E+04  0.50400001928E-02 0.  1.
       -1   -1    0    0    0  501  0.00000000000E+00  0.00000000000E+00 -0.81589506842E+03  0.81589506843E+03  0.50400001928E-02 0. -1.
    10030    2    1    2    0    0  0.00000000000E+00  0.00000000000E+00  0.17617198922E+04  0.33935100290E+04  0.29003884806E+04 0.  0.
        2    1    3    3  502    0 -0.25874299056E+03 -0.13326527287E+04  0.14776294709E+04  0.20065642486E+04  0.25500000920E-02 0.  1.
       -2    1    3    3    0  502  0.25874299056E+03  0.13326527287E+04  0.28409042124E+03  0.13869457804E+04  0.25500000920E-02 0. -1.
</event>
<event>
 5   0  0.8357118E-07  0.2904120E+04  0.7818609E-02  0.8271653E-01
        1   -1    0    0  501    0  0.00000000000E+00  0.00000000000E+00  0.19210435831E+04  0.19210435831E+04  0.50400001928E-02 0. -1.
       -1   -1    0    0    0  501  0.00000000000E+00  0.00000000000E+00 -0.10975694762E+04  0.10975694762E+04  0.50400001928E-02 0.  1.
    10030    2    1    2    0    0  0.00000000000E+00  0.00000000000E+00  0.82347410695E+03  0.30186130594E+04  0.29041203827E+04 0.  0.
        1    1    3    3  502    0  0.25427560156E+03  0.12031130986E+04 -0.39093913731E+03  0.12903374050E+04  0.50400001928E-02 0.  1.
       -1    1    3    3    0  502 -0.25427560156E+03 -0.12031130986E+04  0.12144132443E+04  0.17282756544E+04  0.50400001928E-02 0. -1.
</event>
<event>
 5   0  0.2425845E-06  0.2893641E+04  0.7818609E-02  0.8274772E-01
       -2   -1    0    0    0  501  0.00000000000E+00  0.00000000000E+00  0.12376036010E+04  0.12376036010E+04  0.25500000920E-02 0.  1.
        2   -1    0    0  501    0  0.00000000000E+00  0.00000000000E+00 -0.16914050371E+04  0.16914050371E+04  0.25500000920E-02 0. -1.
    10030    2    1    2    0    0  0.00000000000E+00  0.00000000000E+00 -0.45380143609E+03  0.29290086381E+04  0.28936405890E+04 0.  0.
        2    1    3    3  502    0  0.28975803609E+03  0.13726516039E+04  0.13119845961E+03  0.14090227752E+04  0.25500000920E-02 0.  1.
       -2    1    3    3    0  502 -0.28975803609E+03 -0.13726516039E+04 -0.58499989570E+03  0.15199858628E+04  0.25500000920E-02 0. -1.
</event>
<event>
 5   0  0.2360103E-06  0.2905421E+04  0.7818609E-02  0.8271266E-01
        2   -1    0    0  501    0  0.00000000000E+00  0.00000000000E+00  0.16144020334E+04  0.16144020334E+04  0.25500000920E-02 0. -1.
       -2   -1    0    0    0  501  0.00000000000E+00  0.00000000000E+00 -0.13072136304E+04  0.13072136304E+04  0.25500000920E-02 0.  1.
    10030    2    1    2    0    0  0.00000000000E+00  0.00000000000E+00  0.30718840296E+03  0.29216156638E+04  0.29054213760E+04 0.  0.
        4    1    3    3  502    0 -0.26347532506E+03 -0.15731663626E+03 -0.12742494337E+04  0.13106795959E+04  0.12699999809E+01 0.  1.
       -4    1    3    3    0  502  0.26347532506E+03  0.15731663626E+03  0.15814378366E+04  0.16109360679E+04  0.12699999809E+01 0. -1.
</event>
<event>
 5   0  0.8947674E-07  0.2930291E+04  0.7818609E-02  0.8263922E-01
        1   -1    0    0  501    0  0.00000000000E+00  0.00000000000E+00  0.13602948499E+04  0.13602948499E+04  0.50400001928E-02 0.  1.
       -1   -1    0    0    0  501  0.00000000000E+00  0.00000000000E+00 -0.15780777356E+04  0.15780777356E+04  0.50400001928E-02 0. -1.
    10030    2    1    2    0    0  0.00000000000E+00  0.00000000000E+00 -0.21778288573E+03  0.29383725855E+04  0.29302907818E+04 0.  0.
        3    1    3    3  502    0 -0.10660215614E+04  0.18973996994E+03  0.88087074241E+03  0.13958282489E+04  0.10100000352E+00 0.  1.
       -3    1    3    3    0  502  0.10660215614E+04 -0.18973996994E+03 -0.10986536281E+04  0.15425443366E+04  0.10100000352E+00 0. -1.
</event>
<event>
 5   0  0.2304435E-06  0.2908968E+04  0.7818609E-02  0.8270214E-01
        2   -1    0    0  501    0  0.00000000000E+00  0.00000000000E+00  0.21271382432E+04  0.21271382432E+04  0.25500000920E-02 0.  1.
       -2   -1    0    0    0  501  0.00000000000E+00  0.00000000000E+00 -0.99453951708E+03  0.99453951708E+03  0.25500000920E-02 0. -1.
    10030    2    1    2    0    0  0.00000000000E+00  0.00000000000E+00  0.11325987261E+04  0.31216777602E+04  0.29089675427E+04 0.  0.
        1    1    3    3  502    0  0.18822721307E+03 -0.69733899841E+03  0.19210760804E+04  0.20523753237E+04  0.50400001928E-02 0.  1.
       -1    1    3    3    0  502 -0.18822721307E+03  0.69733899841E+03 -0.78847735436E+03  0.10693024365E+04  0.50400001928E-02 0. -1.
</event>
<event>
 5   0  0.8483636E-07  0.2897579E+04  0.7818609E-02  0.8273598E-01
        1   -1    0    0  501    0  0.00000000000E+00  0.00000000000E+00  0.19654784162E+04  0.19654784162E+04  0.50400001928E-02 0. -1.
       -1   -1    0    0    0  501  0.00000000000E+00  0.00000000000E+00 -0.10679289824E+04  0.10679289825E+04  0.50400001928E-02 0.  1.
    10030    2    1    2    0    0  0.00000000000E+00  0.00000000000E+00  0.89754943380E+03  0.30334073987E+04  0.28975792414E+04 0.  0.
        2    1    3    3  502    0 -0.55789033682E+03  0.87711825764E+02  0.18455041921E+04  0.19299794599E+04  0.25500000920E-02 0. -1.
       -2    1    3    3    0  502  0.55789033682E+03 -0.87711825764E+02 -0.94795475835E+03  0.11034279388E+04  0.25500000920E-02 0.  1.
</event>
<event>
 5   0  0.8357118E-07  0.2910220E+04  0.7818609E-02  0.8269843E-01
       -1   -1    0    0    0  501  0.00000000000E+00  0.00000000000E+00  0.87038031086E+03  0.87038031087E+03  0.50400001928E-02 0.  1.
        1   -1    0    0  501    0  0.00000000000E+00  0.00000000000E+00 -0.24326659708E+04  0.24326659708E+04  0.50400001928E-02 0. -1.
    10030    2    1    2    0    0  0.00000000000E+00  0.00000000000E+00 -0.15622856600E+04  0.33030462817E+04  0.29102196233E+04 0.  0.
        1    1    3    3  502    0 -0.79804054156E+03  0.86327104722E+03  0.19205952088E+03  0.11912147021E+04  0.50400001928E-02 0.  1.
       -1    1    3    3    0  502  0.79804054156E+03 -0.86327104722E+03 -0.17543451808E+04  0.21118315796E+04  0.50400001928E-02 0. -1.
</event>
<event>
 5   0  0.8947674E-07  0.2893645E+04  0.7818609E-02  0.8274771E-01
       -1   -1    0    0    0  501  0.00000000000E+00  0.00000000000E+00  0.11123066201E+04  0.11123066201E+04  0.50400001928E-02 0. -1.
        1   -1    0    0  501    0  0.00000000000E+00  0.00000000000E+00 -0.18819408812E+04  0.18819408812E+04  0.50400001928E-02 0.  1.
    10030    2    1    2    0    0  0.00000000000E+00  0.00000000000E+00 -0.76963426108E+03  0.29942475012E+04  0.28936449683E+04 0.  0.
        3    1    3    3  502    0 -0.14713876588E+03 -0.14346287591E+04 -0.50498289903E+03  0.15280108741E+04  0.10100000352E+00 0. -1.
       -3    1    3    3    0  502  0.14713876588E+03  0.14346287591E+04 -0.26465136206E+03  0.14662366271E+04  0.10100000352E+00 0.  1.
</event>
<event>
 5   0  0.8357118E-07  0.2896789E+04  0.7818609E-02  0.8273833E-01
       -1   -1    0    0    0  501  0.00000000000E+00  0.00000000000E+00  0.19903113084E+04  0.19903113084E+04  0.50400001928E-02 0.  1.
        1   -1    0    0  501    0  0.00000000000E+00  0.00000000000E+00 -0.10540295257E+04  0.10540295258E+04  0.50400001928E-02 0. -1.
    10030    2    1    2    0    0  0.00000000000E+00  0.00000000000E+00  0.93628178266E+03  0.30443408342E+04  0.28967891773E+04 0.  0.
        1    1    3    3  502    0  0.21583265637E+03  0.19626063910E+02 -0.10368930471E+04  0.10592998202E+04  0.50400001928E-02 0. -1.
       -1    1    3    3    0  502 -0.21583265637E+03 -0.19626063910E+02  0.19731748298E+04  0.19850410139E+04  0.50400001928E-02 0.  1.
</event>
<event>
 5   0  0.8357118E-07  0.2889376E+04  0.7818609E-02  0.8276045E-01
        1   -1    0    0  501    0  0.00000000000E+00  0.00000000000E+00  0.12836319629E+04  0.12836319629E+04  0.50400001928E-02 0. -1.
       -1   -1    0    0    0  501  0.00000000000E+00  0.00000000000E+00 -0.16259519294E+04  0.16259519295E+04  0.50400001928E-02 0.  1.
    10030    2    1    2    0    0  0.00000000000E+00  0.00000000000E+00 -0.34231996653E+03  0.29095838924E+04  0.28893763111E+04 0.  0.
        1    1    3    3  502    0  0.14152388654E+04 -0.45304637184E+02 -0.45981840992E+03  0.14887533464E+04  0.50400001928E-02 0.  1.
       -1    1    3    3    0  502 -0.14152388654E+04  0.45304637184E+02  0.11749844339E+03  0.14208305460E+04  0.50400001928E-02 0. -1.
</event>
<event>
 5   0  0.8483636E-07  0.2887819E+04  0.7818609E-02  0.8276511E-01
        1   -1    0    0  501    0  0.00000000000E+00  0.00000000000E+00  0.16678032445E+04  0.16678032445E+04  0.50400001928E-02 0.  1.
       -1   -1    0    0    0  501  0.00000000000E+00  0.00000000000E+00 -0.12500722257E+04  0.12500722257E+04  0.50400001928E-02 0. -1.
    10030    2    1    2    0    0  0.00000000000E+00  0.00000000000E+00  0.41773101877E+03  0.29178754702E+04  0.28878189097E+04 0.  0.
        2    1    3    3  502    0 -0.10183913835E+04 -0.96042384496E+03  0.56658355456E+03  0.15101496271E+04  0.25500000920E-02 0.  1.
       -2    1    3    3    0  502  0.10183913835E+04  0.96042384496E+03 -0.14885253579E+03  0.14077258431E+04  0.25500000920E-02 0. -1.
</event>
<event>
 5   0  0.8357118E-07  0.2908805E+04  0.7818609E-02  0.8270262E-01
       -1   -1    0    0    0  501  0.00000000000E+00  0.00000000000E+00  0.17485777567E+04  0.17485777567E+04  0.50400001928E-02 0. -1.
        1   -1    0    0  501    0  0.00000000000E+00  0.00000000000E+00 -0.12097186962E+04  0.12097186962E+04  0.50400001928E-02 0.  1.
    10030    2    1    2    0    0  0.00000000000E+00  0.00000000000E+00  0.53885906051E+03  0.29582964529E+04  0.29088053933E+04 0.  0.
        1    1    3    3  502    0  0.77798848613E+03 -0.70233850136E+03 -0.75606265305E+03  0.12923529666E+04  0.50400001928E-02 0.  1.
       -1    1    3    3    0  502 -0.77798848613E+03  0.70233850136E+03  0.12949217136E+04  0.16659434862E+04  0.50400001928E-02 0. -1.
</event>
<event>
 5   0  0.2425845E-06  0.2897429E+04  0.7818609E-02  0.8273643E-01
       -2   -1    0    0    0  501  0.00000000000E+00  0.00000000000E+00  0.16425781958E+04  0.16425781958E+04  0.25500000920E-02 0. -1.
        2   -1    0    0  501    0  0.00000000000E+00  0.00000000000E+00 -0.12777314913E+04  0.12777314913E+04  0.25500000920E-02 0.  1.
    10030    2    1    2    0    0  0.00000000000E+00  0.00000000000E+00  0.36484670446E+03  0.29203096871E+04  0.28974291278E+04 0.  0.
        2    1    3    3  502    0 -0.23295671459E+01  0.52769791685E+03 -0.11774171547E+04  0.12902641879E+04  0.25500000920E-02 0.  1.
       -2    1    3    3    0  502  0.23295671459E+01 -0.52769791685E+03  0.15422638591E+04  0.16300454992E+04  0.25500000920E-02 0. -1.
</event>
<event>
 5   0  0.8483636E-07  0.2911255E+04  0.7818609E-02  0.8269537E-01
        1   -1    0    0  501    0  0.00000000000E+00  0.00000000000E+00  0.19414341962E+04  0.19414341962E+04  0.50400001928E-02 0.  1.
       -1   -1    0    0    0  501  0.00000000000E+00  0.00000000000E+00 -0.10913847223E+04  0.10913847223E+04  0.50400001928E-02 0. -1.
    10030    2    1    2    0    0  0.00000000000E+00  0.00000000000E+00  0.85004947387E+03  0.30328189185E+04  0.29112551390E+04 0.  0.
        2    1    3    3  502    0  0.24697326352E+03 -0.24838605740E+03  0.18968759425E+04  0.19289452474E+04  0.25500000920E-02 0.  1.
       -2    1    3    3    0  502 -0.24697326352E+03  0.24838605740E+03 -0.10468264686E+04  0.11038736711E+04  0.25500000920E-02 0. -1.
</event>
<event>
 5   0  0.8263673E-07  0.2830808E+04  0.7818609E-02  0.8293767E-01
        1   -1    0    0  501    0  0.00000000000E+00  0.00000000000E+00  0.29266065025E+04  0.29266065025E+04  0.50400001928E-02 0.  1.
       -1   -1    0    0    0  501  0.00000000000E+00  0.00000000000E+00 -0.68453618661E+03  0.68453618662E+03  0.50400001928E-02 0. -1.
    10030    2    1    2    0    0  0.00000000000E+00  0.00000000000E+00  0.22420703159E+04  0.36111426892E+04  0.28308076974E+04 0.  0.
        5    1    3    3  502    0 -0.34200095441E+03  0.46915418602E+03  0.27677094560E+04  0.28279512064E+04  0.46999998093E+01 0.  1.
       -5    1    3    3    0  502  0.34200095441E+03 -0.46915418602E+03 -0.52563914006E+03  0.78319148275E+03  0.46999998093E+01 0. -1.
</event>
<event>
 5   0  0.2304435E-06  0.2936303E+04  0.7818609E-02  0.8262158E-01
       -2   -1    0    0    0  501  0.00000000000E+00  0.00000000000E+00  0.15512835968E+04  0.15512835968E+04  0.25500000920E-02 0. -1.
        2   -1    0    0  501    0  0.00000000000E+00  0.00000000000E+00 -0.13894742392E+04  0.13894742392E+04  0.25500000920E-02 0.  1.
    10030    2    1    2    0    0  0.00000000000E+00  0.00000000000E+00  0.16180935765E+03  0.29407578360E+04  0.29363028423E+04 0.  0.
        1    1    3    3  502    0 -0.95518004012E+03  0.93157375931E+03 -0.53261761864E+03  0.14366210724E+04  0.50400001928E-02 0.  1.
       -1    1    3    3    0  502  0.95518004012E+03 -0.93157375931E+03  0.69442697629E+03  0.15041367636E+04  0.50400001928E-02 0. -1.
</event>
<event>
 5   0  0.2304435E-06  0.2922423E+04  0.7818609E-02  0.8266237E-01
       -2   -1    0    0    0  501  0.00000000000E+00  0.00000000000E+00  0.89074219863E+03  0.89074219863E+03  0.25500000920E-02 0.  1.
        2   -1    0    0  501    0  0.00000000000E+00  0.00000000000E+00 -0.23970341619E+04  0.23970341619E+04  0.25500000920E-02 0. -1.
    10030    2    1    2    0    0  0.00000000000E+00  0.00000000000E+00 -0.15062919633E+04  0.32877763606E+04  0.29224232956E+04 0.  0.
        1    1    3    3  502    0  0.14228829994E+04  0.30529278593E+01 -0.37911520021E+03  0.14725262936E+04  0.50400001928E-02 0.  1.
       -1    1    3    3    0  502 -0.14228829994E+04 -0.30529278593E+01 -0.11271767631E+04  0.18152500670E+04  0.50400001928E-02 0. -1.
</event>
<event>
 5   0  0.2425845E-06  0.2895545E+04  0.7818609E-02  0.8274204E-01
       -2   -1    0    0    0  501  0.00000000000E+00  0.00000000000E+00  0.15114558903E+04  0.15114558903E+04  0.25500000920E-02 0. -1.
        2   -1    0    0  501    0  0.00000000000E+00  0.00000000000E+00 -0.13867727739E+04  0.13867727739E+04  0.25500000920E-02 0.  1.
    10030    2    1    2    0    0  0.00000000000E+00  0.00000000000E+00  0.12468311633E+03  0.28982286642E+04  0.28955454600E+04 0.  0.
        2    1    3    3  502    0 -0.74960857367E+03  0.71042770653E+03 -0.95320464421E+03  0.14054250722E+04  0.25500000920E-02 0.  1.
       -2    1    3    3    0  502  0.74960857367E+03 -0.71042770653E+03  0.10778877605E+04  0.14928035920E+04  0.25500000920E-02 0. -1.
</event>
<event>
 5   0  0.2325590E-06  0.2963313E+04  0.7818609E-02  0.8254285E-01
       -2   -1    0    0    0  501  0.00000000000E+00  0.00000000000E+00  0.71961352160E+03  0.71961352161E+03  0.25500000920E-02 0.  1.
        2   -1    0    0  501    0  0.00000000000E+00  0.00000000000E+00 -0.30506732735E+04  0.30506732735E+04  0.25500000920E-02 0. -1.
    10030    2    1    2    0    0  0.00000000000E+00  0.00000000000E+00 -0.23310597519E+04  0.37702867951E+04  0.29633128337E+04 0.  0.
        5    1    3    3  502    0  0.85474347161E+02 -0.12720982361E+04 -0.21258957347E+04  0.24789099522E+04  0.46999998093E+01 0. -1.
       -5    1    3    3    0  502 -0.85474347161E+02  0.12720982361E+04 -0.20516401719E+03  0.12913768429E+04  0.46999998093E+01 0.  1.
</event>
<event>
 5   0  0.8355946E-07  0.2903789E+04  0.7818609E-02  0.8271751E-01
       -1   -1    0    0    0  501  0.00000000000E+00  0.00000000000E+00  0.93142144539E+03  0.93142144540E+03  0.50400001928E-02 0.  1.
        1   -1    0    0  501    0  0.00000000000E+00  0.00000000000E+00 -0.22632052670E+04  0.22632052670E+04  0.50400001928E-02 0. -1.
    10030    2    1    2    0    0  0.00000000000E+00  0.00000000000E+00 -0.13317838216E+04  0.31946267124E+04  0.29037891942E+04 0.  0.
        4    1    3    3  502    0  0.26910165082E+03 -0.54060249570E+03 -0.21184876970E+04  0.22028750514E+04  0.12699999809E+01 0. -1.
       -4    1    3    3    0  502 -0.26910165082E+03  0.54060249570E+03  0.78670387534E+03  0.99175166106E+03  0.12699999809E+01 0.  1.
</event>
<event>
 5   0  0.2304435E-06  0.2881522E+04  0.7818609E-02  0.8278397E-01
       -2   -1    0    0    0  501  0.00000000000E+00  0.00000000000E+00  0.33299531026E+04  0.33299531026E+04  0.25500000920E-02 0.  1.
        2   -1    0    0  501    0  0.00000000000E+00  0.00000000000E+00 -0.62336962856E+03  0.62336962856E+03  0.25500000920E-02 0. -1.
    10030    2    1    2    0    0  0.00000000000E+00  0.00000000000E+00  0.27065834740E+04  0.39533227311E+04  0.28815215624E+04 0.  0.
        1    1    3    3  502    0 -0.13826472537E+04  0.38879260880E+02  0.19064584802E+04  0.23553787300E+04  0.50400001928E-02 0.  1.
       -1    1    3    3    0  502  0.13826472537E+04 -0.38879260880E+02  0.80012499377E+03  0.15979440011E+04  0.50400001928E-02 0. -1.
</event>
<event>
 5   0  0.8357118E-07  0.2890340E+04  0.7818609E-02  0.8275757E-01
       -1   -1    0    0    0  501  0.00000000000E+00  0.00000000000E+00  0.12044425688E+04  0.12044425688E+04  0.50400001928E-02 0. -1.
        1   -1    0    0  501    0  0.00000000000E+00  0.00000000000E+00 -0.17340106907E+04  0.17340106907E+04  0.50400001928E-02 0.  1.
    10030    2    1    2    0    0  0.00000000000E+00  0.00000000000E+00 -0.52956812184E+03  0.29384532595E+04  0.28903399735E+04 0.  0.
        1    1    3    3  502    0 -0.98044050084E+03  0.56349158871E+03 -0.11796131337E+04  0.16340971487E+04  0.50400001928E-02 0.  1.
       -1    1    3    3    0  502  0.98044050084E+03 -0.56349158871E+03  0.65004501187E+03  0.13043561108E+04  0.50400001928E-02 0. -1.
</event>
<event>
 5   0  0.8483636E-07  0.2875297E+04  0.7818609E-02  0.8280265E-01
       -1   -1    0    0    0  501  0.00000000000E+00  0.00000000000E+00  0.15424814945E+04  0.15424814945E+04  0.50400001928E-02 0.  1.
        1   -1    0    0  501    0  0.00000000000E+00  0.00000000000E+00 -0.13399403574E+04  0.13399403574E+04  0.50400001928E-02 0. -1.
    10030    2    1    2    0    0  0.00000000000E+00  0.00000000000E+00  0.20254113705E+03  0.28824218519E+04  0.28752969968E+04 0.  0.
        2    1    3    3  502    0 -0.10121097051E+04 -0.51877812272E+02  0.11234913183E+04  0.15130400209E+04  0.25500000920E-02 0.  1.
       -2    1    3    3    0  502  0.10121097051E+04  0.51877812272E+02 -0.92095018125E+03  0.13693818310E+04  0.25500000920E-02 0. -1.
</event>
<event>
 5   0  0.8947674E-07  0.2909847E+04  0.7818609E-02  0.8269954E-01
        1   -1    0    0  501    0  0.00000000000E+00  0.00000000000E+00  0.15324977943E+04  0.15324977943E+04  0.50400001928E-02 0.  1.
       -1   -1    0    0    0  501  0.00000000000E+00  0.00000000000E+00 -0.13812759267E+04  0.13812759267E+04  0.50400001928E-02 0. -1.
    10030    2    1    2    0    0  0.00000000000E+00  0.00000000000E+00  0.15122186761E+03  0.29137737210E+04  0.29098469451E+04 0.  0.
        3    1    3    3  502    0  0.33540502220E+03  0.19394483561E+03 -0.13286692267E+04  0.13840061605E+04  0.10100000352E+00 0. -1.
       -3    1    3    3    0  502 -0.33540502220E+03 -0.19394483561E+03  0.14798910943E+04  0.15297675605E+04  0.10100000352E+00 0.  1.
</event>
<event>
 5   0  0.8263673E-07  0.2898364E+04  0.7818609E-02  0.8273364E-01
        1   -1    0    0  501    0  0.00000000000E+00  0.00000000000E+00  0.16004908074E+04  0.16004908074E+04  0.50400001928E-02 0. -1.
       -1   -1    0    0    0  501  0.00000000000E+00  0.00000000000E+00 -0.13121780798E+04  0.13121780798E+04  0.50400001928E-02 0.  1.
    10030    2    1    2    0    0  0.00000000000E+00  0.00000000000E+00  0.28831272755E+03  0.29126688872E+04  0.28983643349E+04 0.  0.
        5    1    3    3  502    0  0.95663183136E+03 -0.30020611176E+03 -0.90735315573E+03  0.13522499804E+04  0.46999998093E+01 0.  1.
       -5    1    3    3    0  502 -0.95663183136E+03  0.30020611176E+03  0.11956658833E+04  0.15604189068E+04  0.46999998093E+01 0. -1.
</event>
<event>
 5   0  0.8483636E-07  0.2903726E+04  0.7818609E-02  0.8271770E-01
        1   -1    0    0  501    0  0.00000000000E+00  0.00000000000E+00  0.33510515931E+04  0.33510515931E+04  0.50400001928E-02 0. -1.
       -1   -1    0    0    0  501  0.00000000000E+00  0.00000000000E+00 -0.62902843697E+03  0.62902843699E+03  0.50400001928E-02 0.  1.
    10030    2    1    2    0    0  0.00000000000E+00  0.00000000000E+00  0.27220231561E+04  0.39800800301E+04  0.29037263961E+04 0.  0.
        2    1    3    3  502    0  0.54083053905E+03 -0.10222463599E+04  0.25641076151E+04  0.28128514277E+04  0.25500000920E-02 0. -1.
       -2    1    3    3    0  502 -0.54083053905E+03  0.10222463599E+04  0.15791554099E+03  0.11672286024E+04  0.25500000920E-02 0.  1.
</event>
<event>
 5   0  0.2304435E-06  0.2892401E+04  0.7818609E-02  0.8275142E-01
       -2   -1    0    0    0  501  0.00000000000E+00  0.00000000000E+00  0.18365988691E+04  0.18365988691E+04  0.25500000920E-02 0.  1.
        2   -1    0    0  501    0  0.00000000000E+00  0.00000000000E+00 -0.11387874248E+04  0.11387874248E+04  0.25500000920E-02 0. -1.
    10030    2    1    2    0    0  0.00000000000E+00  0.00000000000E+00  0.69781144430E+03  0.29753862939E+04  0.28924008688E+04 0.  0.
        1    1    3    3  502    0  0.12417779360E+03  0.93489103924E+03 -0.77893279179E+03  0.12231834179E+04  0.50400001928E-02 0. -1.
       -1    1    3    3    0  502 -0.12417779360E+03 -0.93489103924E+03  0.14767442361E+04  0.17522028760E+04  0.50400001928E-02 0.  1.
</event>
<event>
 5   0  0.2378690E-06  0.2915542E+04  0.7818609E-02  0.8268268E-01
       -2   -1    0    0    0  501  0.00000000000E+00  0.00000000000E+00  0.82854712668E+03  0.82854712668E+03  0.25500000920E-02 0. -1.
        2   -1    0    0  501    0  0.00000000000E+00  0.00000000000E+00 -0.25648461589E+04  0.25648461589E+04  0.25500000920E-02 0.  1.
    10030    2    1    2    0    0  0.00000000000E+00  0.00000000000E+00 -0.17362990322E+04  0.33933932855E+04  0.29155417440E+04 0.  0.
        3    1    3    3  502    0 -0.10637498555E+04  0.59879277308E+03 -0.17956085554E+04  0.21712500166E+04  0.10100000352E+00 0.  1.
       -3    1    3    3    0  502  0.10637498555E+04 -0.59879277308E+03  0.59309523184E+02  0.12221432690E+04  0.10100000352E+00 0. -1.
</event>
<event>
 5   0  0.8357118E-07  0.2931518E+04  0.7818609E-02  0.8263561E-01
       -1   -1    0    0    0  501  0.00000000000E+00  0.00000000000E+00  0.97874156662E+03  0.97874156664E+03  0.50400001928E-02 0. -1.
        1   -1    0    0  501    0  0.00000000000E+00  0.00000000000E+00 -0.21951146043E+04  0.21951146043E+04  0.50400001928E-02 0.  1.
    10030    2    1    2    0    0  0.00000000000E+00  0.00000000000E+00 -0.12163730377E+04  0.31738561710E+04  0.29315183143E+04 0.  0.
        1    1    3    3  502    0 -0.24320267439E+03  0.64657219910E+03 -0.20078219216E+04  0.21233351168E+04  0.50400001928E-02 0.  1.
       -1    1    3    3    0  502  0.24320267439E+03 -0.64657219910E+03  0.79144888386E+03  0.10505210542E+04  0.50400001928E-02 0. -1.
</event>
<event>
 5   0  0.8483636E-07  0.2918596E+04  0.7818609E-02  0.8267366E-01
       -1   -1    0    0    0  501  0.00000000000E+00  0.00000000000E+00  0.16249002565E+04  0.16249002565E+04  0.50400001928E-02 0.  1.
        1   -1    0    0  501    0  0.00000000000E+00  0.00000000000E+00 -0.13105733207E+04  0.13105733207E+04  0.50400001928E-02 0. -1.
    10030    2    1    2    0    0  0.00000000000E+00  0.00000000000E+00  0.31432693582E+03  0.29354735772E+04  0.29185961865E+04 0.  0.
        2    1    3    3  502    0  0.13839445995E+04  0.16745074038E+03  0.59117766795E+03  0.15142105006E+04  0.25500000920E-02 0. -1.
       -2    1    3    3    0  502 -0.13839445995E+04 -0.16745074038E+03 -0.27685073213E+03  0.14212630766E+04  0.25500000920E-02 0.  1.
</event>
<event>
 5   0  0.8357118E-07  0.2898683E+04  0.7818609E-02  0.8273269E-01
        1   -1    0    0  501    0  0.00000000000E+00  0.00000000000E+00  0.21629664264E+04  0.21629664264E+04  0.50400001928E-02 0. -1.
       -1   -1    0    0    0  501  0.00000000000E+00  0.00000000000E+00 -0.97116212294E+03  0.97116212295E+03  0.50400001928E-02 0.  1.
    10030    2    1    2    0    0  0.00000000000E+00  0.00000000000E+00  0.11918043035E+04  0.31341285494E+04  0.28986831952E+04 0.  0.
        1    1    3    3  502    0  0.44592652208E+03  0.10954301453E+04  0.15016650020E+04  0.19114956041E+04  0.50400001928E-02 0. -1.
       -1    1    3    3    0  502 -0.44592652208E+03 -0.10954301453E+04 -0.30986069853E+03  0.12226329453E+04  0.50400001928E-02 0.  1.
</event>
<event>
 5   0  0.8355946E-07  0.2885937E+04  0.7818609E-02  0.8277074E-01
        1   -1    0    0  501    0  0.00000000000E+00  0.00000000000E+00  0.12534439267E+04  0.12534439267E+04  0.50400001928E-02 0.  1.
       -1   -1    0    0    0  501  0.00000000000E+00  0.00000000000E+00 -0.16611496454E+04  0.16611496454E+04  0.50400001928E-02 0. -1.
    10030    2    1    2    0    0  0.00000000000E+00  0.00000000000E+00 -0.40770571865E+03  0.29145935721E+04  0.28859368907E+04 0.  0.
        4    1    3    3  502    0 -0.79564790055E+03  0.38941743737E+03  0.94651646256E+03  0.12963782430E+04  0.12699999809E+01 0.  1.
       -4    1    3    3    0  502  0.79564790055E+03 -0.38941743737E+03 -0.13542221812E+04  0.16182153291E+04  0.12699999809E+01 0. -1.
</event>
<event>
 5   0  0.8947674E-07  0.2906620E+04  0.7818609E-02  0.8270911E-01
       -1   -1    0    0    0  501  0.00000000000E+00  0.00000000000E+00  0.93051045995E+03  0.93051045996E+03  0.50400001928E-02 0. -1.
        1   -1    0    0  501    0  0.00000000000E+00  0.00000000000E+00 -0.22698401025E+04  0.22698401025E+04  0.50400001928E-02 0.  1.
    10030    2    1    2    0    0  0.00000000000E+00  0.00000000000E+00 -0.13393296425E+04  0.32003505624E+04  0.29066200011E+04 0.  0.
        3    1    3    3  502    0  0.26138062975E+03 -0.14295955361E+04 -0.67719053240E+03  0.16033247512E+04  0.10100000352E+00 0. -1.
       -3    1    3    3    0  502 -0.26138062975E+03  0.14295955361E+04 -0.66213911010E+03  0.15970258112E+04  0.10100000352E+00 0.  1.
</event>
<event>
 5   0  0.2304435E-06  0.2887147E+04  0.7818609E-02  0.8276712E-01
       -2   -1    0    0    0  501  0.00000000000E+00  0.00000000000E+00  0.12160335039E+04  0.12160335039E+04  0.25500000920E-02 0. -1.
        2   -1    0    0  501    0  0.00000000000E+00  0.00000000000E+00 -0.17136894516E+04  0.17136894516E+04  0.25500000920E-02 0.  1.
    10030    2    1    2    0    0  0.00000000000E+00  0.00000000000E+00 -0.49765594769E+03  0.29297229556E+04  0.28871465418E+04 0.  0.
        1    1    3    3  502    0 -0.58939868929E+03  0.12320821229E+04 -0.72314656259E+03  0.15454313714E+04  0.50400001928E-02 0.  1.
       -1    1    3    3    0  502  0.58939868929E+03 -0.12320821229E+04  0.22549061490E+03  0.13842915842E+04  0.50400001928E-02 0. -1.
</event>
<event>
 5   0  0.8263673E-07  0.2911257E+04  0.7818609E-02  0.8269536E-01
        1   -1    0    0  501    0  0.00000000000E+00  0.00000000000E+00  0.21384776539E+04  0.21384776539E+04  0.50400001928E-02 0.  1.
       -1   -1    0    0    0  501  0.00000000000E+00  0.00000000000E+00 -0.99082396814E+03  0.99082396816E+03  0.50400001928E-02 0. -1.
    10030    2    1    2    0    0  0.00000000000E+00  0.00000000000E+00  0.11476536858E+04  0.31293016221E+04  0.29112574018E+04 0.  0.
        5    1    3    3  502    0  0.16599946757E+03  0.29894325372E+03  0.20946863141E+04  0.21224174275E+04  0.46999998093E+01 0.  1.
       -5    1    3    3    0  502 -0.16599946757E+03 -0.29894325372E+03 -0.94703262832E+03  0.10068841946E+04  0.46999998093E+01 0. -1.
</event>
<event>
 5   0  0.2425845E-06  0.2901182E+04  0.7818609E-02  0.8272526E-01
       -2   -1    0    0    0  501  0.00000000000E+00  0.00000000000E+00  0.85366184936E+03  0.85366184936E+03  0.25500000920E-02 0. -1.
        2   -1    0    0  501    0  0.00000000000E+00  0.00000000000E+00 -0.24649268722E+04  0.24649268722E+04  0.25500000920E-02 0.  1.
    10030    2    1    2    0    0  0.00000000000E+00  0.00000000000E+00 -0.16112650229E+04  0.33185887216E+04  0.29011818504E+04 0.  0.
        2    1    3    3  502    0  0.32894560101E+03  0.14105880667E+04 -0.89606469182E+03  0.17032016423E+04  0.25500000920E-02 0.  1.
       -2    1    3    3    0  502 -0.32894560101E+03 -0.14105880667E+04 -0.71520033105E+03  0.16153870793E+04  0.25500000920E-02 0. -1.
</event>
<event>
 5   0  0.8355946E-07  0.2893441E+04  0.7818609E-02  0.8274832E-01
        1   -1    0    0  501    0  0.00000000000E+00  0.00000000000E+00  0.25883018701E+04  0.25883018701E+04  0.50400001928E-02 0.  1.
       -1   -1    0    0    0  501  0.00000000000E+00  0.00000000000E+00 -0.80863850510E+03  0.80863850511E+03  0.50400001928E-02 0. -1.
    10030    2    1    2    0    0  0.00000000000E+00  0.00000000000E+00  0.17796633650E+04  0.33969403753E+04  0.28934412419E+04 0.  0.
        4    1    3    3  502    0  0.46345741641E+03 -0.11254723016E+04 -0.28242918726E+02  0.12174892007E+04  0.12699999809E+01 0. -1.
       -4    1    3    3    0  502 -0.46345741641E+03  0.11254723016E+04  0.18079062838E+04  0.21794511746E+04  0.12699999809E+01 0.  1.
</event>
<event>
 5   0  0.2378690E-06  0.2896747E+04  0.7818609E-02  0.8273846E-01
        2   -1    0    0  501    0  0.00000000000E+00  0.00000000000E+00  0.11925824777E+04  0.11925824777E+04  0.25500000920E-02 0. -1.
       -2   -1    0    0    0  501  0.00000000000E+00  0.00000000000E+00 -0.17590278137E+04  0.17590278137E+04  0.25500000920E-02 0.  1.
    10030    2    1    2    0    0  0.00000000000E+00  0.00000000000E+00 -0.56644533596E+03  0.29516102914E+04  0.28967469675E+04 0.  0.
        3    1    3    3  502    0  0.50404065659E+03 -0.28616312943E+03 -0.16357050487E+04  0.17353608664E+04  0.10100000352E+00 0.  1.
       -3    1    3    3    0  502 -0.50404065659E+03  0.28616312943E+03  0.10692597128E+04  0.12162494249E+04  0.10100000352E+00 0. -1.
</event>
<event>
 5   0  0.8357118E-07  0.2899156E+04  0.7818609E-02  0.8273129E-01
        1   -1    0    0  501    0  0.00000000000E+00  0.00000000000E+00  0.95738714366E+03  0.95738714367E+03  0.50400001928E-02 0. -1.
       -1   -1    0    0    0  501  0.00000000000E+00  0.00000000000E+00 -0.21948034449E+04  0.21948034449E+04  0.50400001928E-02 0.  1.
    10030    2    1    2    0    0  0.00000000000E+00  0.00000000000E+00 -0.12374163012E+04  0.31521905886E+04  0.28991561538E+04 0.  0.
        1    1    3    3  502    0 -0.10256180647E+04  0.61155873660E+03 -0.15122501891E+04  0.19268619923E+04  0.50400001928E-02 0.  1.
       -1    1    3    3    0  502  0.10256180647E+04 -0.61155873660E+03  0.27483388785E+03  0.12253285963E+04  0.50400001928E-02 0. -1.
</event>
<event>
 5   0  0.2378690E-06  0.2918276E+04  0.7818609E-02  0.8267460E-01
       -2   -1    0    0    0  501  0.00000000000E+00  0.00000000000E+00  0.86154077571E+03  0.86154077571E+03  0.25500000920E-02 0. -1.
        2   -1    0    0  501    0  0.00000000000E+00  0.00000000000E+00 -0.24712516812E+04  0.24712516812E+04  0.25500000920E-02 0.  1.
    10030    2    1    2    0    0  0.00000000000E+00  0.00000000000E+00 -0.16097109055E+04  0.33327924569E+04  0.29182762655E+04 0.  0.
        3    1    3    3  502    0  0.94003748902E+03 -0.26470808730E+03 -0.20429796786E+04  0.22643998829E+04  0.10100000352E+00 0.  1.
       -3    1    3    3    0  502 -0.94003748902E+03  0.26470808730E+03  0.43326877313E+03  0.10683925740E+04  0.10100000352E+00 0. -1.
</event>
<event>
 5   0  0.8263673E-07  0.2905559E+04  0.7818609E-02  0.8271225E-01
       -1   -1    0    0    0  501  0.00000000000E+00  0.00000000000E+00  0.91683638022E+03  0.91683638023E+03  0.50400001928E-02 0. -1.
        1   -1    0    0  501    0  0.00000000000E+00  0.00000000000E+00 -0.23020123466E+04  0.23020123466E+04  0.50400001928E-02 0.  1.
    10030    2    1    2    0    0  0.00000000000E+00  0.00000000000E+00 -0.13851759664E+04  0.32188487268E+04  0.29055592695E+04 0.  0.
        5    1    3    3  502    0  0.12245528139E+04  0.45078234319E+03 -0.14000464820E+04  0.19138669119E+04  0.46999998093E+01 0.  1.
       -5    1    3    3    0  502 -0.12245528139E+04 -0.45078234319E+03  0.14870515636E+02  0.13049818149E+04  0.46999998093E+01 0. -1.
</event>
<event>
 5   0  0.8263673E-07  0.2894680E+04  0.7818609E-02  0.8274462E-01
       -1   -1    0    0    0  501  0.00000000000E+00  0.00000000000E+00  0.11549617184E+04  0.11549617184E+04  0.50400001928E-02 0.  1.
        1   -1    0    0  501    0  0.00000000000E+00  0.00000000000E+00 -0.18137340638E+04  0.18137340638E+04  0.50400001928E-02 0. -1.
    10030    2    1    2    0    0  0.00000000000E+00  0.00000000000E+00 -0.65877234533E+03  0.29686957822E+04  0.28946802318E+04 0.  0.
        5    1    3    3  502    0 -0.45116907122E+03  0.27212755365E+03  0.10531044951E+04  0.11775644797E+04  0.46999998093E+01 0.  1.
       -5    1    3    3    0  502  0.45116907122E+03 -0.27212755365E+03 -0.17118768404E+04  0.17911313025E+04  0.46999998093E+01 0. -1.
</event>
<event>
 5   0  0.8947674E-07  0.2912316E+04  0.7818609E-02  0.8269223E-01
       -1   -1    0    0    0  501  0.00000000000E+00  0.00000000000E+00  0.77101735276E+03  0.77101735278E+03  0.50400001928E-02 0.  1.
        1   -1    0    0  501    0  0.00000000000E+00  0.00000000000E+00 -0.27501274545E+04  0.27501274545E+04  0.50400001928E-02 0. -1.
    10030    2    1    2    0    0  0.00000000000E+00  0.00000000000E+00 -0.19791101017E+04  0.35211448073E+04  0.29123159099E+04 0.  0.
        3    1    3    3  502    0 -0.80083935389E+03  0.44278847982E+03  0.37992954718E+03  0.99083388094E+03  0.10100000352E+00 0.  1.
       -3    1    3    3    0  502  0.80083935389E+03 -0.44278847982E+03 -0.23590396489E+04  0.25303109263E+04  0.10100000352E+00 0. -1.
</event>
<event>
 5   0  0.2325590E-06  0.2915592E+04  0.7818609E-02  0.8268254E-01
       -2   -1    0    0    0  501  0.00000000000E+00  0.00000000000E+00  0.78208127740E+03  0.78208127741E+03  0.25500000920E-02 0. -1.
        2   -1    0    0  501    0  0.00000000000E+00  0.00000000000E+00 -0.27173249365E+04  0.27173249365E+04  0.25500000920E-02 0.  1.
    10030    2    1    2    0    0  0.00000000000E+00  0.00000000000E+00 -0.19352436591E+04  0.34994062139E+04  0.29155918490E+04 0.  0.
        5    1    3    3  502    0 -0.11329722025E+04 -0.16936145037E+03  0.11448343928E+03  0.11512766220E+04  0.46999998093E+01 0. -1.
       -5    1    3    3    0  502  0.11329722025E+04  0.16936145037E+03 -0.20497270983E+04  0.23481295919E+04  0.46999998093E+01 0.  1.
</event>
<event>
 5   0  0.2304435E-06  0.2898820E+04  0.7818609E-02  0.8273229E-01
       -2   -1    0    0    0  501  0.00000000000E+00  0.00000000000E+00  0.18051403972E+04  0.18051403972E+04  0.25500000920E-02 0.  1.
        2   -1    0    0  501    0  0.00000000000E+00  0.00000000000E+00 -0.11637820046E+04  0.11637820046E+04  0.25500000920E-02 0. -1.
    10030    2    1    2    0    0  0.00000000000E+00  0.00000000000E+00  0.64135839261E+03  0.29689224018E+04  0.28988203877E+04 0.  0.
        1    1    3    3  502    0 -0.96884183882E+03 -0.10254745889E+04  0.66119079085E+03  0.15580198661E+04  0.50400001928E-02 0. -1.
       -1    1    3    3    0  502  0.96884183882E+03  0.10254745889E+04 -0.19832398246E+02  0.14109025357E+04  0.50400001928E-02 0.  1.
</event>
<event>
 5   0  0.2304435E-06  0.2878677E+04  0.7818609E-02  0.8279250E-01
       -2   -1    0    0    0  501  0.00000000000E+00  0.00000000000E+00  0.10474438366E+04  0.10474438366E+04  0.25500000920E-02 0. -1.
        2   -1    0    0  501    0  0.00000000000E+00  0.00000000000E+00 -0.19778583249E+04  0.19778583249E+04  0.25500000920E-02 0.  1.
    10030    2    1    2    0    0  0.00000000000E+00  0.00000000000E+00 -0.93041448839E+03  0.30253021615E+04  0.28786771351E+04 0.  0.
        1    1    3    3  502    0  0.10741408371E+04  0.79971088465E+03  0.89283632961E+02  0.13421205624E+04  0.50400001928E-02 0. -1.
       -1    1    3    3    0  502 -0.10741408371E+04 -0.79971088465E+03 -0.10196981214E+04  0.16831815991E+04  0.50400001928E-02 0.  1.
</event>
<event>
 5   0  0.8483636E-07  0.2910052E+04  0.7818609E-02  0.8269893E-01
       -1   -1    0    0    0  501  0.00000000000E+00  0.00000000000E+00  0.10022710774E+04  0.10022710774E+04  0.50400001928E-02 0.  1.
        1   -1    0    0  501    0  0.00000000000E+00  0.00000000000E+00 -0.21123034916E+04  0.21123034916E+04  0.50400001928E-02 0. -1.
    10030    2    1    2    0    0  0.00000000000E+00  0.00000000000E+00 -0.11100324142E+04  0.31145745690E+04  0.29100520245E+04 0.  0.
        2    1    3    3  502    0 -0.64834897231E+03  0.11725926771E+03 -0.19434952769E+04  0.20521403503E+04  0.25500000920E-02 0. -1.
       -2    1    3    3    0  502  0.64834897231E+03 -0.11725926771E+03  0.83346286270E+03  0.10624342188E+04  0.25500000920E-02 0.  1.
</event>
<event>
 5   0  0.8483636E-07  0.2910179E+04  0.7818609E-02  0.8269855E-01
       -1   -1    0    0    0  501  0.00000000000E+00  0.00000000000E+00  0.93926581370E+03  0.93926581371E+03  0.50400001928E-02 0. -1.
        1   -1    0    0  501    0  0.00000000000E+00  0.00000000000E+00 -0.22541922921E+04  0.22541922921E+04  0.50400001928E-02 0.  1.
    10030    2    1    2    0    0  0.00000000000E+00  0.00000000000E+00 -0.13149264784E+04  0.31934581058E+04  0.29101792093E+04 0.  0.
        2    1    3    3  502    0  0.10640997548E+04  0.91832690499E+03 -0.24445888471E+03  0.14266719100E+04  0.25500000920E-02 0. -1.
       -2    1    3    3    0  502 -0.10640997548E+04 -0.91832690499E+03 -0.10704675937E+04  0.17667861958E+04  0.25500000920E-02 0.  1.
</event>
<event>
 5   0  0.2425845E-06  0.2899513E+04  0.7818609E-02  0.8273022E-01
       -2   -1    0    0    0  501  0.00000000000E+00  0.00000000000E+00  0.15059311013E+04  0.15059311013E+04  0.25500000920E-02 0.  1.
        2   -1    0    0  501    0  0.00000000000E+00  0.00000000000E+00 -0.13956775081E+04  0.13956775081E+04  0.25500000920E-02 0. -1.
    10030    2    1    2    0    0  0.00000000000E+00  0.00000000000E+00  0.11025359321E+03  0.29016086093E+04  0.28995131776E+04 0.  0.
        2    1    3    3  502    0 -0.59289731736E+03 -0.32203391492E+03 -0.12289845078E+04  0.14020114093E+04  0.25500000920E-02 0. -1.
       -2    1    3    3    0  502  0.59289731736E+03  0.32203391492E+03  0.13392381010E+04  0.14995972001E+04  0.25500000920E-02 0.  1.
</event>
<event>
 5   0  0.8263673E-07  0.2890086E+04  0.7818609E-02  0.8275833E-01
        1   -1    0    0  501    0  0.00000000000E+00  0.00000000000E+00  0.13992976836E+04  0.13992976836E+04  0.50400001928E-02 0. -1.
       -1   -1    0    0    0  501  0.00000000000E+00  0.00000000000E+00 -0.14922835359E+04  0.14922835359E+04  0.50400001928E-02 0.  1.
    10030    2    1    2    0    0  0.00000000000E+00  0.00000000000E+00 -0.92985852263E+02  0.28915812195E+04  0.28900857393E+04 0.  0.
        5    1    3    3  502    0  0.73336848759E+03 -0.20843563790E+03  0.11816812886E+04  0.14062956700E+04  0.46999998093E+01 0. -1.
       -5    1    3    3    0  502 -0.73336848759E+03  0.20843563790E+03 -0.12746671408E+04  0.14852855495E+04  0.46999998093E+01 0.  1.
</event>
<event>
 5   0  0.8355946E-07  0.2912078E+04  0.7818609E-02  0.8269293E-01
        1   -1    0    0  501    0  0.00000000000E+00  0.00000000000E+00  0.18005079250E+04  0.18005079250E+04  0.50400001928E-02 0. -1.
       -1   -1    0    0    0  501  0.00000000000E+00  0.00000000000E+00 -0.11774729421E+04  0.11774729421E+04  0.50400001928E-02 0.  1.
    10030    2    1    2    0    0  0.00000000000E+00  0.00000000000E+00  0.62303498291E+03  0.29779808671E+04  0.29120778586E+04 0.  0.
        4    1    3    3  502    0  0.81530038004E+03 -0.11217148461E+04  0.76551131369E+03  0.15839722504E+04  0.12699999809E+01 0. -1.
       -4    1    3    3    0  502 -0.81530038004E+03  0.11217148461E+04 -0.14247633077E+03  0.13940086167E+04  0.12699999809E+01 0.  1.
</event>
<event>
 5   0  0.8947674E-07  0.2905255E+04  0.7818609E-02  0.8271316E-01
        1   -1    0    0  501    0  0.00000000000E+00  0.00000000000E+00  0.25122100085E+04  0.25122100085E+04  0.50400001928E-02 0. -1.
       -1   -1    0    0    0  501  0.00000000000E+00  0.00000000000E+00 -0.83994855191E+03  0.83994855192E+03  0.50400001928E-02 0.  1.
    10030    2    1    2    0    0  0.00000000000E+00  0.00000000000E+00  0.16722614566E+04  0.33521585604E+04  0.29052553476E+04 0.  0.
        3    1    3    3  502    0 -0.77410604111E+03 -0.25255593488E+03 -0.55187062152E+03  0.98365942085E+03  0.10100000352E+00 0.  1.
       -3    1    3    3    0  502  0.77410604111E+03  0.25255593488E+03  0.22241320781E+04  0.23684991396E+04  0.10100000352E+00 0. -1.
</event>
<event>
 5   0  0.8263673E-07  0.2883593E+04  0.7818609E-02  0.8277776E-01
        1   -1    0    0  501    0  0.00000000000E+00  0.00000000000E+00  0.26061555978E+04  0.26061555978E+04  0.50400001928E-02 0.  1.
       -1   -1    0    0    0  501  0.00000000000E+00  0.00000000000E+00 -0.79764147967E+03  0.79764147968E+03  0.50400001928E-02 0. -1.
    10030    2    1    2    0    0  0.00000000000E+00  0.00000000000E+00  0.18085141182E+04  0.34037970775E+04  0.28835934577E+04 0.  0.
        5    1    3    3  502    0  0.32250945565E+03  0.11680451128E+04 -0.17978505840E+02  0.12118939934E+04  0.46999998093E+01 0. -1.
       -5    1    3    3    0  502 -0.32250945565E+03 -0.11680451128E+04  0.18264926240E+04  0.21919030841E+04  0.46999998093E+01 0.  1.
</event>
<event>
 5   0  0.2425845E-06  0.2896741E+04  0.7818609E-02  0.8273848E-01
        2   -1    0    0  501    0  0.00000000000E+00  0.00000000000E+00  0.30298273575E+04  0.30298273575E+04  0.25500000920E-02 0.  1.
       -2   -1    0    0    0  501  0.00000000000E+00  0.00000000000E+00 -0.69237510560E+03  0.69237510560E+03  0.25500000920E-02 0. -1.
    10030    2    1    2    0    0  0.00000000000E+00  0.00000000000E+00  0.23374522519E+04  0.37222024631E+04  0.28967409526E+04 0.  0.
        2    1    3    3  502    0 -0.13965708528E+04  0.76764120296E+02  0.16520395904E+04  0.21646102848E+04  0.25500000920E-02 0.  1.
       -2    1    3    3    0  502  0.13965708528E+04 -0.76764120296E+02  0.68541266150E+03  0.15575921782E+04  0.25500000920E-02 0. -1.
</event>
<event>
 5   0  0.2425845E-06  0.2829508E+04  0.7818609E-02  0.8294165E-01
       -2   -1    0    0    0  501  0.00000000000E+00  0.00000000000E+00  0.14090224410E+04  0.14090224410E+04  0.25500000920E-02 0. -1.
        2   -1    0    0  501    0  0.00000000000E+00  0.00000000000E+00 -0.14205089581E+04  0.14205089581E+04  0.25500000920E-02 0.  1.
    10030    2    1    2    0    0  0.00000000000E+00  0.00000000000E+00 -0.11486517117E+02  0.28295313991E+04  0.28295080842E+04 0.  0.
        2    1    3    3  502    0  0.13535448335E+04  0.29728503225E+03  0.27898174731E+03  0.14136098549E+04  0.25500000920E-02 0.  1.
       -2    1    3    3    0  502 -0.13535448335E+04 -0.29728503225E+03 -0.29046826443E+03  0.14159215442E+04  0.25500000920E-02 0. -1.
</event>
<event>
 5   0  0.8355946E-07  0.2897638E+04  0.7818609E-02  0.8273581E-01
        1   -1    0    0  501    0  0.00000000000E+00  0.00000000000E+00  0.14696928126E+04  0.14696928126E+04  0.50400001928E-02 0.  1.
       -1   -1    0    0    0  501  0.00000000000E+00  0.00000000000E+00 -0.14282415019E+04  0.14282415019E+04  0.50400001928E-02 0. -1.
    10030    2    1    2    0    0  0.00000000000E+00  0.00000000000E+00  0.41451310714E+02  0.28979343146E+04  0.28976378449E+04 0.  0.
        4    1    3    3  502    0  0.36826854978E+03  0.13776276107E+04 -0.23541594975E+03  0.14453033733E+04  0.12699999809E+01 0.  1.
       -4    1    3    3    0  502 -0.36826854978E+03 -0.13776276107E+04  0.27686726046E+03  0.14526309412E+04  0.12699999809E+01 0. -1.
</event>
<event>
 5   0  0.8357118E-07  0.2894174E+04  0.7818609E-02  0.8274613E-01
       -1   -1    0    0    0  501  0.00000000000E+00  0.00000000000E+00  0.13144923488E+04  0.13144923488E+04  0.50400001928E-02 0. -1.
        1   -1    0    0  501    0  0.00000000000E+00  0.00000000000E+00 -0.15930564673E+04  0.15930564673E+04  0.50400001928E-02 0.  1.
    10030    2    1    2    0    0  0.00000000000E+00  0.00000000000E+00 -0.27856411852E+03  0.29075488161E+04  0.28941738286E+04 0.  0.
        1    1    3    3  502    0 -0.40630454023E+03  0.13005456263E+04  0.35036984221E+03  0.14068622291E+04  0.50400001928E-02 0. -1.
       -1    1    3    3    0  502  0.40630454023E+03 -0.13005456263E+04 -0.62893396073E+03  0.15006865870E+04  0.50400001928E-02 0.  1.
</event>
<event>
 5   0  0.8357118E-07  0.2964282E+04  0.7818609E-02  0.8254005E-01
       -1   -1    0    0    0  501  0.00000000000E+00  0.00000000000E+00  0.87738941037E+03  0.87738941038E+03  0.50400001928E-02 0. -1.
        1   -1    0    0  501    0  0.00000000000E+00  0.00000000000E+00 -0.25037249330E+04  0.25037249330E+04  0.50400001928E-02 0.  1.
    10030    2    1    2    0    0  0.00000000000E+00  0.00000000000E+00 -0.16263355226E+04  0.33811143434E+04  0.29642818643E+04 0.  0.
        1    1    3    3  502    0 -0.23963141995E+03  0.54849326469E+03 -0.23597359310E+04  0.24344653916E+04  0.50400001928E-02 0.  1.
       -1    1    3    3    0  502  0.23963141995E+03 -0.54849326469E+03  0.73340040839E+03  0.94664895177E+03  0.50400001928E-02 0. -1.
</event>
<event>
 5   0  0.8263673E-07  0.2896449E+04  0.7818609E-02  0.8273935E-01
        1   -1    0    0  501    0  0.00000000000E+00  0.00000000000E+00  0.26271373098E+04  0.26271373098E+04  0.50400001928E-02 0.  1.
       -1   -1    0    0    0  501  0.00000000000E+00  0.00000000000E+00 -0.79834194778E+03  0.79834194780E+03  0.50400001928E-02 0. -1.
    10030    2    1    2    0    0  0.00000000000E+00  0.00000000000E+00  0.18287953620E+04  0.34254792576E+04  0.28964488030E+04 0.  0.
        5    1    3    3  502    0  0.26909259999E+03  0.78195341934E+02 -0.76596424089E+03  0.81562776264E+03  0.46999998093E+01 0. -1.
       -5    1    3    3    0  502 -0.26909259999E+03 -0.78195341934E+02  0.25947596029E+04  0.26098514950E+04  0.46999998093E+01 0.  1.
</event>
<event>
 5   0  0.2304435E-06  0.2890244E+04  0.7818609E-02  0.8275786E-01
       -2   -1    0    0    0  501  0.00000000000E+00  0.00000000000E+00  0.72639855536E+03  0.72639855536E+03  0.25500000920E-02 0. -1.
        2   -1    0    0  501    0  0.00000000000E+00  0.00000000000E+00 -0.28749740067E+04  0.28749740067E+04  0.25500000920E-02 0.  1.
    10030    2    1    2    0    0  0.00000000000E+00  0.00000000000E+00 -0.21485754514E+04  0.36013725621E+04  0.28902435643E+04 0.  0.
        1    1    3    3  502    0  0.78966319165E+03  0.85537196976E+03 -0.73738160428E+01  0.11641664555E+04  0.50400001928E-02 0. -1.
       -1    1    3    3    0  502 -0.78966319165E+03 -0.85537196976E+03 -0.21412016353E+04  0.24372061066E+04  0.50400001928E-02 0.  1.
</event>
<event>
 5   0  0.2378690E-06  0.2899994E+04  0.7818609E-02  0.8272879E-01
       -2   -1    0    0    0  501  0.00000000000E+00  0.00000000000E+00  0.10405443814E+04  0.10405443814E+04  0.25500000920E-02 0.  1.
        2   -1    0    0  501    0  0.00000000000E+00  0.00000000000E+00 -0.20205690758E+04  0.20205690758E+04  0.25500000920E-02 0. -1.
    10030    2    1    2    0    0  0.00000000000E+00  0.00000000000E+00 -0.98002469441E+03  0.30611134573E+04  0.28999943442E+04 0.  0.
        3    1    3    3  502    0  0.10078195558E+03 -0.13379599641E+04  0.90254838380E+02  0.13447824412E+04  0.10100000352E+00 0.  1.
       -3    1    3    3    0  502 -0.10078195558E+03  0.13379599641E+04 -0.10702795328E+04  0.17163310160E+04  0.10100000352E+00 0. -1.
</event>
<event>
 5   0  0.2304435E-06  0.2909151E+04  0.7818609E-02  0.8270160E-01
       -2   -1    0    0    0  501  0.00000000000E+00  0.00000000000E+00  0.14661004494E+04  0.14661004494E+04  0.25500000920E-02 0.  1.
        2   -1    0    0  501    0  0.00000000000E+00  0.00000000000E+00 -0.14431416411E+04  0.14431416411E+04  0.25500000920E-02 0. -1.
    10030    2    1    2    0    0  0.00000000000E+00  0.00000000000E+00  0.22958808310E+02  0.29092420904E+04  0.29091514972E+04 0.  0.
        1    1    3    3  502    0  0.14052458284E+03  0.39752221444E+03 -0.13806916499E+04  0.14436344764E+04  0.50400001928E-02 0. -1.
       -1    1    3    3    0  502 -0.14052458284E+03 -0.39752221444E+03  0.14036504582E+04  0.14656076140E+04  0.50400001928E-02 0.  1.
</event>
<event>
 5   0  0.2378690E-06  0.2897834E+04  0.7818609E-02  0.8273522E-01
        2   -1    0    0  501    0  0.00000000000E+00  0.00000000000E+00  0.99407054375E+03  0.99407054375E+03  0.25500000920E-02 0. -1.
       -2   -1    0    0    0  501  0.00000000000E+00  0.00000000000E+00 -0.21118821526E+04  0.21118821526E+04  0.25500000920E-02 0.  1.
    10030    2    1    2    0    0  0.00000000000E+00  0.00000000000E+00 -0.11178116088E+04  0.31059526963E+04  0.28978335630E+04 0.  0.
        3    1    3    3  502    0 -0.43446299006E+03 -0.68010049309E+03  0.73087359546E+03  0.10887933657E+04  0.10100000352E+00 0. -1.
       -3    1    3    3    0  502  0.43446299006E+03  0.68010049309E+03 -0.18486852043E+04  0.20171593307E+04  0.10100000352E+00 0.  1.
</event>
<event>
 5   0  0.2325590E-06  0.2893734E+04  0.7818609E-02  0.8274744E-01
       -2   -1    0    0    0  501  0.00000000000E+00  0.00000000000E+00  0.97070632337E+03  0.97070632337E+03  0.25500000920E-02 0.  1.
        2   -1    0    0  501    0  0.00000000000E+00  0.00000000000E+00 -0.21565987256E+04  0.21565987256E+04  0.25500000920E-02 0. -1.
    10030    2    1    2    0    0  0.00000000000E+00  0.00000000000E+00 -0.11858924022E+04  0.31273050490E+04  0.28937339338E+04 0.  0.
        5    1    3    3  502    0 -0.31828865512E+03  0.14109170368E+04 -0.63348929517E+03  0.15790267033E+04  0.46999998093E+01 0.  1.
       -5    1    3    3    0  502  0.31828865512E+03 -0.14109170368E+04 -0.55240310704E+03  0.15482783456E+04  0.46999998093E+01 0. -1.
</event>
<event>
 5   0  0.8483636E-07  0.2888281E+04  0.7818609E-02  0.8276373E-01
        1   -1    0    0  501    0  0.00000000000E+00  0.00000000000E+00  0.21823190708E+04  0.21823190708E+04  0.50400001928E-02 0.  1.
       -1   -1    0    0    0  501  0.00000000000E+00  0.00000000000E+00 -0.95565413570E+03  0.95565413571E+03  0.50400001928E-02 0. -1.
    10030    2    1    2    0    0  0.00000000000E+00  0.00000000000E+00  0.12266649351E+04  0.31379732065E+04  0.28882813197E+04 0.  0.
        2    1    3    3  502    0 -0.80468661045E+03 -0.36140064587E+03  0.18556020546E+04  0.20546021398E+04  0.25500000920E-02 0.  1.
       -2    1    3    3    0  502  0.80468661045E+03  0.36140064587E+03 -0.62893711951E+03  0.10833710667E+04  0.25500000920E-02 0. -1.
</event>
<event>
 5   0  0.8947674E-07  0.2901966E+04  0.7818609E-02  0.8272293E-01
       -1   -1    0    0    0  501  0.00000000000E+00  0.00000000000E+00  0.96097504878E+03  0.96097504880E+03  0.50400001928E-02 0. -1.
        1   -1    0    0  501    0  0.00000000000E+00  0.00000000000E+00 -0.21908497175E+04  0.21908497175E+04  0.50400001928E-02 0.  1.
    10030    2    1    2    0    0  0.00000000000E+00  0.00000000000E+00 -0.12298746687E+04  0.31518247663E+04  0.29019661708E+04 0.  0.
        3    1    3    3  502    0  0.12109103624E+04  0.77478483486E+03 -0.40112056800E+03  0.14924788663E+04  0.10100000352E+00 0. -1.
       -3    1    3    3    0  502 -0.12109103624E+04 -0.77478483486E+03 -0.82875410069E+03  0.16593459000E+04  0.10100000352E+00 0.  1.
</event>
<event>
 5   0  0.2304435E-06  0.2896641E+04  0.7818609E-02  0.8273877E-01
        2   -1    0    0  501    0  0.00000000000E+00  0.00000000000E+00  0.10232147561E+04  0.10232147561E+04  0.25500000920E-02 0. -1.
       -2   -1    0    0    0  501  0.00000000000E+00  0.00000000000E+00 -0.20500414701E+04  0.20500414701E+04  0.25500000920E-02 0.  1.
    10030    2    1    2    0    0  0.00000000000E+00  0.00000000000E+00 -0.10268267140E+04  0.30732562262E+04  0.28966412845E+04 0.  0.
        1    1    3    3  502    0 -0.52687587004E+03  0.13364332703E+04 -0.31783550678E+03  0.14712822563E+04  0.50400001928E-02 0. -1.
       -1    1    3    3    0  502  0.52687587004E+03 -0.13364332703E+04 -0.70899120717E+03  0.16019739699E+04  0.50400001928E-02 0.  1.
</event>
<event>
 5   0  0.8947674E-07  0.2902699E+04  0.7818609E-02  0.8272075E-01
       -1   -1    0    0    0  501  0.00000000000E+00  0.00000000000E+00  0.13221649273E+04  0.13221649273E+04  0.50400001928E-02 0. -1.
        1   -1    0    0  501    0  0.00000000000E+00  0.00000000000E+00 -0.15931564616E+04  0.15931564616E+04  0.50400001928E-02 0.  1.
    10030    2    1    2    0    0  0.00000000000E+00  0.00000000000E+00 -0.27099153432E+03  0.29153213889E+04  0.29026991558E+04 0.  0.
        3    1    3    3  502    0 -0.95414127433E+03 -0.37899071602E+03 -0.11658202449E+04  0.15534337410E+04  0.10100000352E+00 0.  1.
       -3    1    3    3    0  502  0.95414127433E+03  0.37899071602E+03  0.89482871053E+03  0.13618876479E+04  0.10100000352E+00 0. -1.
</event>
<event>
 5   0  0.8483636E-07  0.2836092E+04  0.7818609E-02  0.8292150E-01
       -1   -1    0    0    0  501  0.00000000000E+00  0.00000000000E+00  0.98854300398E+03  0.98854300399E+03  0.50400001928E-02 0.  1.
        1   -1    0    0  501    0  0.00000000000E+00  0.00000000000E+00 -0.20341591028E+04  0.20341591028E+04  0.50400001928E-02 0. -1.
    10030    2    1    2    0    0  0.00000000000E+00  0.00000000000E+00 -0.10456160988E+04  0.30227021068E+04  0.28360915007E+04 0.  0.
        2    1    3    3  502    0 -0.35619037557E+03  0.13677529127E+04 -0.64541720710E+03  0.15537641344E+04  0.25500000920E-02 0. -1.
       -2    1    3    3    0  502  0.35619037557E+03 -0.13677529127E+04 -0.40019889171E+03  0.14689379724E+04  0.25500000920E-02 0.  1.
</event>
<event>
 5   0  0.8355946E-07  0.2880476E+04  0.7818609E-02  0.8278710E-01
       -1   -1    0    0    0  501  0.00000000000E+00  0.00000000000E+00  0.29207493660E+04  0.29207493660E+04  0.50400001928E-02 0.  1.
        1   -1    0    0  501    0  0.00000000000E+00  0.00000000000E+00 -0.71018971655E+03  0.71018971657E+03  0.50400001928E-02 0. -1.
    10030    2    1    2    0    0  0.00000000000E+00  0.00000000000E+00  0.22105596494E+04  0.36309390826E+04  0.28804764636E+04 0.  0.
        4    1    3    3  502    0 -0.21757899917E+03 -0.11513399245E+04  0.21609426398E+04  0.24581698371E+04  0.12699999809E+01 0.  1.
       -4    1    3    3    0  502  0.21757899917E+03  0.11513399245E+04  0.49617009674E+02  0.11727692455E+04  0.12699999809E+01 0. -1.
</event>
<event>
 5   0  0.2360103E-06  0.2902846E+04  0.7818609E-02  0.8272031E-01
        2   -1    0    0  501    0  0.00000000000E+00  0.00000000000E+00  0.12676523246E+04  0.12676523246E+04  0.25500000920E-02 0.  1.
       -2   -1    0    0    0  501  0.00000000000E+00  0.00000000000E+00 -0.16618349093E+04  0.16618349093E+04  0.25500000920E-02 0. -1.
    10030    2    1    2    0    0  0.00000000000E+00  0.00000000000E+00 -0.39418258476E+03  0.29294872339E+04  0.29028461109E+04 0.  0.
        4    1    3    3  502    0  0.82830515208E+03  0.91196048517E+03 -0.97150994990E+03  0.15689469549E+04  0.12699999809E+01 0. -1.
       -4    1    3    3    0  502 -0.82830515208E+03 -0.91196048517E+03  0.57732736514E+03  0.13605402791E+04  0.12699999809E+01 0.  1.
</event>
<event>
 5   0  0.7621125E-07  0.2894374E+04  0.7818609E-02  0.8274553E-01
       -3   -1    0    0    0  501  0.00000000000E+00  0.00000000000E+00  0.23164076753E+04  0.23164076775E+04  0.10100000352E+00 0. -1.
        3   -1    0    0  501    0  0.00000000000E+00  0.00000000000E+00 -0.90413693347E+03  0.90413693911E+03  0.10100000352E+00 0.  1.
    10030    2    1    2    0    0  0.00000000000E+00  0.00000000000E+00  0.14122707419E+04  0.32205446166E+04  0.28943736765E+04 0.  0.
        2    1    3    3  502    0  0.10792870938E+04 -0.89329727039E+03  0.11096438122E+04  0.17872185188E+04  0.25500000920E-02 0. -1.
       -2    1    3    3    0  502 -0.10792870938E+04  0.89329727039E+03  0.30262692967E+03  0.14333260978E+04  0.25500000920E-02 0.  1.
</event>
<event>
 5   0  0.8263673E-07  0.2923525E+04  0.7818609E-02  0.8265912E-01
        1   -1    0    0  501    0  0.00000000000E+00  0.00000000000E+00  0.11196657709E+04  0.11196657710E+04  0.50400001928E-02 0.  1.
       -1   -1    0    0    0  501  0.00000000000E+00  0.00000000000E+00 -0.19083815305E+04  0.19083815306E+04  0.50400001928E-02 0. -1.
    10030    2    1    2    0    0  0.00000000000E+00  0.00000000000E+00 -0.78871575960E+03  0.30280473015E+04  0.29235249119E+04 0.  0.
        5    1    3    3  502    0 -0.49671208455E+03  0.24746068928E+03 -0.17950256239E+04  0.18788557071E+04  0.46999998093E+01 0. -1.
       -5    1    3    3    0  502  0.49671208455E+03 -0.24746068928E+03  0.10063098643E+04  0.11491915944E+04  0.46999998093E+01 0.  1.
</event>
<event>
 5   0  0.8263673E-07  0.2759127E+04  0.7818609E-02  0.8316071E-01
       -1   -1    0    0    0  501  0.00000000000E+00  0.00000000000E+00  0.99527524010E+03  0.99527524011E+03  0.50400001928E-02 0.  1.
        1   -1    0    0  501    0  0.00000000000E+00  0.00000000000E+00 -0.19122305054E+04  0.19122305055E+04  0.50400001928E-02 0. -1.
    10030    2    1    2    0    0  0.00000000000E+00  0.00000000000E+00 -0.91695526535E+03  0.29075057456E+04  0.27591271630E+04 0.  0.
        5    1    3    3  502    0 -0.54186198044E+03  0.11187689896E+04 -0.10889105659E+04  0.16525757980E+04  0.46999998093E+01 0. -1.
       -5    1    3    3    0  502  0.54186198044E+03 -0.11187689896E+04  0.17195530051E+03  0.12549299475E+04  0.46999998093E+01 0.  1.
</event>
<event>
 5   0  0.2325590E-06  0.2905984E+04  0.7818609E-02  0.8271099E-01
        2   -1    0    0  501    0  0.00000000000E+00  0.00000000000E+00  0.17780213376E+04  0.17780213376E+04  0.25500000920E-02 0. -1.
       -2   -1    0    0    0  501  0.00000000000E+00  0.00000000000E+00 -0.11873795546E+04  0.11873795546E+04  0.25500000920E-02 0.  1.
    10030    2    1    2    0    0  0.00000000000E+00  0.00000000000E+00  0.59064178296E+03  0.29654008921E+04  0.29059842972E+04 0.  0.
        5    1    3    3  502    0  0.13443850215E+04  0.22456627865E+03  0.80896432706E+03  0.15850067735E+04  0.46999998093E+01 0. -1.
       -5    1    3    3    0  502 -0.13443850215E+04 -0.22456627865E+03 -0.21832254410E+03  0.13803941187E+04  0.46999998093E+01 0.  1.
</event>
<event>
 5   0  0.2304435E-06  0.2892898E+04  0.7818609E-02  0.8274994E-01
       -2   -1    0    0    0  501  0.00000000000E+00  0.00000000000E+00  0.16517354334E+04  0.16517354334E+04  0.25500000920E-02 0. -1.
        2   -1    0    0  501    0  0.00000000000E+00  0.00000000000E+00 -0.12666765701E+04  0.12666765701E+04  0.25500000920E-02 0.  1.
    10030    2    1    2    0    0  0.00000000000E+00  0.00000000000E+00  0.38505886325E+03  0.29184120035E+04  0.28928979059E+04 0.  0.
        1    1    3    3  502    0  0.26679506819E+03 -0.74924100219E+03  0.14113541861E+04  0.16200192364E+04  0.50400001928E-02 0. -1.
       -1    1    3    3    0  502 -0.26679506819E+03  0.74924100219E+03 -0.10262953228E+04  0.12983927670E+04  0.50400001928E-02 0.  1.
</event>
<event>
 5   0  0.8483636E-07  0.2896392E+04  0.7818609E-02  0.8273952E-01
       -1   -1    0    0    0  501  0.00000000000E+00  0.00000000000E+00  0.11090667641E+04  0.11090667641E+04  0.50400001928E-02 0. -1.
        1   -1    0    0  501    0  0.00000000000E+00  0.00000000000E+00 -0.18910239959E+04  0.18910239960E+04  0.50400001928E-02 0.  1.
    10030    2    1    2    0    0  0.00000000000E+00  0.00000000000E+00 -0.78195723183E+03  0.30000907601E+04  0.28963921448E+04 0.  0.
        2    1    3    3  502    0  0.23436809149E+03 -0.11185206094E+04  0.53039399011E+03  0.12598946546E+04  0.25500000920E-02 0.  1.
       -2    1    3    3    0  502 -0.23436809149E+03  0.11185206094E+04 -0.13123512219E+04  0.17401961055E+04  0.25500000920E-02 0. -1.
</event>
<event>
 5   0  0.8483636E-07  0.2921878E+04  0.7818609E-02  0.8266398E-01
       -1   -1    0    0    0  501  0.00000000000E+00  0.00000000000E+00  0.15717562191E+04  0.15717562191E+04  0.50400001928E-02 0. -1.
        1   -1    0    0  501    0  0.00000000000E+00  0.00000000000E+00 -0.13579346338E+04  0.13579346338E+04  0.50400001928E-02 0.  1.
    10030    2    1    2    0    0  0.00000000000E+00  0.00000000000E+00  0.21382158529E+03  0.29296908529E+04  0.29218776195E+04 0.  0.
        2    1    3    3  502    0  0.10443023481E+04  0.26595874844E+03 -0.88215524347E+03  0.13926590838E+04  0.25500000920E-02 0.  1.
       -2    1    3    3    0  502 -0.10443023481E+04 -0.26595874844E+03  0.10959768288E+04  0.15370317691E+04  0.25500000920E-02 0. -1.
</event>
<event>
 5   0  0.2304435E-06  0.2902313E+04  0.7818609E-02  0.8272189E-01
       -2   -1    0    0    0  501  0.00000000000E+00  0.00000000000E+00  0.10361907812E+04  0.10361907812E+04  0.25500000920E-02 0. -1.
        2   -1    0    0  501    0  0.00000000000E+00  0.00000000000E+00 -0.20323050864E+04  0.20323050864E+04  0.25500000920E-02 0.  1.
    10030    2    1    2    0    0  0.00000000000E+00  0.00000000000E+00 -0.99611430518E+03  0.30684958676E+04  0.29023134187E+04 0.  0.
        1    1    3    3  502    0  0.33691177325E+02 -0.88645532005E+03 -0.17122567248E+04  0.19284089871E+04  0.50400001928E-02 0.  1.
       -1    1    3    3    0  502 -0.33691177325E+02  0.88645532005E+03  0.71614241962E+03  0.11400868805E+04  0.50400001928E-02 0. -1.
</event>
<event>
 5   0  0.2304435E-06  0.2944545E+04  0.7818609E-02  0.8259746E-01
       -2   -1    0    0    0  501  0.00000000000E+00  0.00000000000E+00  0.13111167265E+04  0.13111167265E+04  0.25500000920E-02 0. -1.
        2   -1    0    0  501    0  0.00000000000E+00  0.00000000000E+00 -0.16532364045E+04  0.16532364045E+04  0.25500000920E-02 0.  1.
    10030    2    1    2    0    0  0.00000000000E+00  0.00000000000E+00 -0.34211967802E+03  0.29643531311E+04  0.29445447206E+04 0.  0.
        1    1    3    3  502    0  0.63590240045E+03 -0.13278259201E+04 -0.18073520863E+03  0.14832932120E+04  0.50400001928E-02 0. -1.
       -1    1    3    3    0  502 -0.63590240045E+03  0.13278259201E+04 -0.16138446939E+03  0.14810599191E+04  0.50400001928E-02 0.  1.
</event>
<event>
 5   0  0.2378690E-06  0.2796972E+04  0.7818609E-02  0.8304209E-01
       -2   -1    0    0    0  501  0.00000000000E+00  0.00000000000E+00  0.17797551576E+04  0.17797551576E+04  0.25500000920E-02 0. -1.
        2   -1    0    0  501    0  0.00000000000E+00  0.00000000000E+00 -0.10988942903E+04  0.10988942903E+04  0.25500000920E-02 0.  1.
    10030    2    1    2    0    0  0.00000000000E+00  0.00000000000E+00  0.68086086727E+03  0.28786494479E+04  0.27969717774E+04 0.  0.
        3    1    3    3  502    0 -0.14215027304E+03 -0.11472501241E+03 -0.10865628384E+04  0.11018109369E+04  0.10100000352E+00 0.  1.
       -3    1    3    3    0  502  0.14215027304E+03  0.11472501241E+03  0.17674237057E+04  0.17768385110E+04  0.10100000352E+00 0. -1.
</event>
<event>
 5   0  0.8355946E-07  0.2909222E+04  0.7818609E-02  0.8270139E-01
        1   -1    0    0  501    0  0.00000000000E+00  0.00000000000E+00  0.14399906668E+04  0.14399906668E+04  0.50400001928E-02 0.  1.
       -1   -1    0    0    0  501  0.00000000000E+00  0.00000000000E+00 -0.14693798515E+04  0.14693798515E+04  0.50400001928E-02 0. -1.
    10030    2    1    2    0    0  0.00000000000E+00  0.00000000000E+00 -0.29389184658E+02  0.29093705183E+04  0.29092220762E+04 0.  0.
        4    1    3    3  502    0  0.72491662465E+03 -0.89386328453E+03 -0.90434437658E+03  0.14636721110E+04  0.12699999809E+01 0. -1.
       -4    1    3    3    0  502 -0.72491662465E+03  0.89386328453E+03  0.87495519192E+03  0.14456984073E+04  0.12699999809E+01 0.  1.
</event>
<event>
 5   0  0.8355946E-07  0.2900346E+04  0.7818609E-02  0.8272774E-01
       -1   -1    0    0    0  501  0.00000000000E+00  0.00000000000E+00  0.16458873155E+04  0.16458873155E+04  0.50400001928E-02 0.  1.
        1   -1    0    0  501    0  0.00000000000E+00  0.00000000000E+00 -0.12777315511E+04  0.12777315511E+04  0.50400001928E-02 0. -1.
    10030    2    1    2    0    0  0.00000000000E+00  0.00000000000E+00  0.36815576441E+03  0.29236188665E+04  0.29003462914E+04 0.  0.
        4    1    3    3  502    0  0.11163825374E+04  0.86525709156E+03  0.51538019375E+03  0.15035285702E+04  0.12699999809E+01 0. -1.
       -4    1    3    3    0  502 -0.11163825374E+04 -0.86525709156E+03 -0.14722442934E+03  0.14200902964E+04  0.12699999809E+01 0.  1.
</event>
<event>
 5   0  0.8357118E-07  0.2898540E+04  0.7818609E-02  0.8273312E-01
       -1   -1    0    0    0  501  0.00000000000E+00  0.00000000000E+00  0.11022984929E+04  0.11022984929E+04  0.50400001928E-02 0.  1.
        1   -1    0    0  501    0  0.00000000000E+00  0.00000000000E+00 -0.19054581132E+04  0.19054581132E+04  0.50400001928E-02 0. -1.
    10030    2    1    2    0    0  0.00000000000E+00  0.00000000000E+00 -0.80315962035E+03  0.30077566061E+04  0.28985400508E+04 0.  0.
        1    1    3    3  502    0 -0.10011011090E+04 -0.87829627286E+03  0.19160271573E+03  0.13454810939E+04  0.50400001928E-02 0. -1.
       -1    1    3    3    0  502  0.10011011090E+04  0.87829627286E+03 -0.99476233608E+03  0.16622755122E+04  0.50400001928E-02 0.  1.
</event>
<event>
 5   0  0.2325590E-06  0.2890285E+04  0.7818609E-02  0.8275774E-01
       -2   -1    0    0    0  501  0.00000000000E+00  0.00000000000E+00  0.11617851965E+04  0.11617851965E+04  0.25500000920E-02 0.  1.
        2   -1    0    0  501    0  0.00000000000E+00  0.00000000000E+00 -0.17976103210E+04  0.17976103210E+04  0.25500000920E-02 0. -1.
    10030    2    1    2    0    0  0.00000000000E+00  0.00000000000E+00 -0.63582512450E+03  0.29593955176E+04  0.28902851487E+04 0.  0.
        5    1    3    3  502    0  0.12468513952E+04 -0.59667683645E+03  0.11377663655E+03  0.13869494807E+04  0.46999998093E+01 0.  1.
       -5    1    3    3    0  502 -0.12468513952E+04  0.59667683645E+03 -0.74960176106E+03  0.15724460369E+04  0.46999998093E+01 0. -1.
</event>
<event>
 5   0  0.8947674E-07  0.2902371E+04  0.7818609E-02  0.8272172E-01
       -1   -1    0    0    0  501  0.00000000000E+00  0.00000000000E+00  0.15494903305E+04  0.15494903305E+04  0.50400001928E-02 0. -1.
        1   -1    0    0  501    0  0.00000000000E+00  0.00000000000E+00 -0.13591172081E+04  0.13591172081E+04  0.50400001928E-02 0.  1.
    10030    2    1    2    0    0  0.00000000000E+00  0.00000000000E+00  0.19037312242E+03  0.29086075386E+04  0.29023707358E+04 0.  0.
        3    1    3    3  502    0  0.72557326778E+03 -0.11540555058E+04 -0.40351546444E+03  0.14216629058E+04  0.10100000352E+00 0.  1.
       -3    1    3    3    0  502 -0.72557326778E+03  0.11540555058E+04  0.59388858685E+03  0.14869446329E+04  0.10100000352E+00 0. -1.
</event>
<event>
 5   0  0.7621125E-07  0.2902819E+04  0.7818609E-02  0.8272039E-01
        4   -1    0    0  501    0  0.00000000000E+00  0.00000000000E+00  0.20188385751E+04  0.20188389745E+04  0.12699999809E+01 0.  1.
       -4   -1    0    0    0  501  0.00000000000E+00  0.00000000000E+00 -0.10434650873E+04  0.10434658602E+04  0.12699999809E+01 0. -1.
    10030    2    1    2    0    0  0.00000000000E+00  0.00000000000E+00  0.97537348773E+03  0.30623048347E+04  0.29028188817E+04 0.  0.
        1    1    3    3  502    0 -0.61618356102E+01 -0.14434713072E+04  0.32789882210E+03  0.14802584303E+04  0.50400001928E-02 0.  1.
       -1    1    3    3    0  502  0.61618356102E+01  0.14434713072E+04  0.64747466563E+03  0.15820464044E+04  0.50400001928E-02 0. -1.
</event>
<event>
 5   0  0.2304435E-06  0.2899987E+04  0.7818609E-02  0.8272881E-01
       -2   -1    0    0    0  501  0.00000000000E+00  0.00000000000E+00  0.14060262891E+04  0.14060262891E+04  0.25500000920E-02 0.  1.
        2   -1    0    0  501    0  0.00000000000E+00  0.00000000000E+00 -0.14953352492E+04  0.14953352492E+04  0.25500000920E-02 0. -1.
    10030    2    1    2    0    0  0.00000000000E+00  0.00000000000E+00 -0.89308960099E+02  0.29013615383E+04  0.28999866699E+04 0.  0.
        1    1    3    3  502    0 -0.12972741508E+04 -0.73333404247E+01 -0.69265489458E+03  0.14706273502E+04  0.50400001928E-02 0. -1.
       -1    1    3    3    0  502  0.12972741508E+04  0.73333404247E+01  0.60334593448E+03  0.14307341881E+04  0.50400001928E-02 0.  1.
</event>
<event>
 5   0  0.2304435E-06  0.2899710E+04  0.7818609E-02  0.8272964E-01
        2   -1    0    0  501    0  0.00000000000E+00  0.00000000000E+00  0.24888456791E+04  0.24888456791E+04  0.25500000920E-02 0.  1.
       -2   -1    0    0    0  501  0.00000000000E+00  0.00000000000E+00 -0.84460018663E+03  0.84460018663E+03  0.25500000920E-02 0. -1.
    10030    2    1    2    0    0  0.00000000000E+00  0.00000000000E+00  0.16442454924E+04  0.33334458657E+04  0.28997100028E+04 0.  0.
        1    1    3    3  502    0 -0.23388893510E+03 -0.10230587669E+04  0.19721191601E+04  0.22339667088E+04  0.50400001928E-02 0.  1.
       -1    1    3    3    0  502  0.23388893510E+03  0.10230587669E+04 -0.32787366769E+03  0.10994791569E+04  0.50400001928E-02 0. -1.
</event>
<event>
 5   0  0.2325590E-06  0.2917835E+04  0.7818609E-02  0.8267591E-01
        2   -1    0    0  501    0  0.00000000000E+00  0.00000000000E+00  0.23483031980E+04  0.23483031980E+04  0.25500000920E-02 0.  1.
       -2   -1    0    0    0  501  0.00000000000E+00  0.00000000000E+00 -0.90637380754E+03  0.90637380755E+03  0.25500000920E-02 0. -1.
    10030    2    1    2    0    0  0.00000000000E+00  0.00000000000E+00  0.14419293905E+04  0.32546770055E+04  0.29178351638E+04 0.  0.
        5    1    3    3  502    0  0.11292610502E+04  0.91733173175E+03  0.60036068700E+03  0.15739069445E+04  0.46999998093E+01 0. -1.
       -5    1    3    3    0  502 -0.11292610502E+04 -0.91733173175E+03  0.84156870346E+03  0.16807700610E+04  0.46999998093E+01 0.  1.
</event>
<event>
 5   0  0.8355946E-07  0.2991643E+04  0.7818609E-02  0.8246121E-01
        1   -1    0    0  501    0  0.00000000000E+00  0.00000000000E+00  0.10119191895E+04  0.10119191895E+04  0.50400001928E-02 0.  1.
       -1   -1    0    0    0  501  0.00000000000E+00  0.00000000000E+00 -0.22111270098E+04  0.22111270098E+04  0.50400001928E-02 0. -1.
    10030    2    1    2    0    0  0.00000000000E+00  0.00000000000E+00 -0.11992078203E+04  0.32230461994E+04  0.29916429277E+04 0.  0.
        4    1    3    3  502    0  0.14220232762E+04  0.94384781507E+02 -0.11012464911E+03  0.14294011810E+04  0.12699999809E+01 0.  1.
       -4    1    3    3    0  502 -0.14220232762E+04 -0.94384781507E+02 -0.10890831712E+04  0.17936450183E+04  0.12699999809E+01 0. -1.
</event>
<event>
 5   0  0.2304435E-06  0.2907596E+04  0.7818609E-02  0.8270621E-01
       -2   -1    0    0    0  501  0.00000000000E+00  0.00000000000E+00  0.16664703093E+04  0.16664703093E+04  0.25500000920E-02 0. -1.
        2   -1    0    0  501    0  0.00000000000E+00  0.00000000000E+00 -0.12682663385E+04  0.12682663385E+04  0.25500000920E-02 0.  1.
    10030    2    1    2    0    0  0.00000000000E+00  0.00000000000E+00  0.39820397082E+03  0.29347366478E+04  0.29075957060E+04 0.  0.
        1    1    3    3  502    0  0.52833339146E+03 -0.12050546654E+04  0.82312484645E+03  0.15520397650E+04  0.50400001928E-02 0.  1.
       -1    1    3    3    0  502 -0.52833339146E+03  0.12050546654E+04 -0.42492087563E+03  0.13826968828E+04  0.50400001928E-02 0. -1.
</event>
<event>
 5   0  0.8357118E-07  0.2885627E+04  0.7818609E-02  0.8277167E-01
        1   -1    0    0  501    0  0.00000000000E+00  0.00000000000E+00  0.19253812444E+04  0.19253812444E+04  0.50400001928E-02 0. -1.
       -1   -1    0    0    0  501  0.00000000000E+00  0.00000000000E+00 -0.10811941280E+04  0.10811941280E+04  0.50400001928E-02 0.  1.
    10030    2    1    2    0    0  0.00000000000E+00  0.00000000000E+00  0.84418711634E+03  0.30065753724E+04  0.28856270692E+04 0.  0.
        1    1    3    3  502    0  0.50602582065E+03  0.13091491636E+04  0.73749371127E+02  0.14054795030E+04  0.50400001928E-02 0.  1.
       -1    1    3    3    0  502 -0.50602582065E+03 -0.13091491636E+04  0.77043774522E+03  0.16010958694E+04  0.50400001928E-02 0. -1.
</event>
<event>
 5   0  0.8483636E-07  0.2879839E+04  0.7818609E-02  0.8278901E-01
       -1   -1    0    0    0  501  0.00000000000E+00  0.00000000000E+00  0.20026818987E+04  0.20026818987E+04  0.50400001928E-02 0.  1.
        1   -1    0    0  501    0  0.00000000000E+00  0.00000000000E+00 -0.10352955003E+04  0.10352955003E+04  0.50400001928E-02 0. -1.
    10030    2    1    2    0    0  0.00000000000E+00  0.00000000000E+00  0.96738639843E+03  0.30379773990E+04  0.28798385776E+04 0.  0.
        2    1    3    3  502    0  0.89766087472E+02 -0.14310031349E+04  0.34398346082E+03  0.14745007778E+04  0.25500000920E-02 0. -1.
       -2    1    3    3    0  502 -0.89766087472E+02  0.14310031349E+04  0.62340293761E+03  0.15634766212E+04  0.25500000920E-02 0.  1.
</event>
<event>
 5   0  0.8483636E-07  0.2897932E+04  0.7818609E-02  0.8273493E-01
       -1   -1    0    0    0  501  0.00000000000E+00  0.00000000000E+00  0.80172329742E+03  0.80172329744E+03  0.50400001928E-02 0.  1.
        1   -1    0    0  501    0  0.00000000000E+00  0.00000000000E+00 -0.26187362835E+04  0.26187362836E+04  0.50400001928E-02 0. -1.
    10030    2    1    2    0    0  0.00000000000E+00  0.00000000000E+00 -0.18170129861E+04  0.34204595810E+04  0.28979315992E+04 0.  0.
        2    1    3    3  502    0  0.83146755895E+02 -0.59153335729E+02  0.79747707540E+03  0.80397897108E+03  0.25500000920E-02 0.  1.
       -2    1    3    3    0  502 -0.83146755895E+02  0.59153335729E+02 -0.26144900615E+04  0.26164806099E+04  0.25500000920E-02 0. -1.
</event>
<event>
 5   0  0.8357118E-07  0.2912711E+04  0.7818609E-02  0.8269106E-01
        1   -1    0    0  501    0  0.00000000000E+00  0.00000000000E+00  0.15592123285E+04  0.15592123285E+04  0.50400001928E-02 0. -1.
       -1   -1    0    0    0  501  0.00000000000E+00  0.00000000000E+00 -0.13602836780E+04  0.13602836780E+04  0.50400001928E-02 0.  1.
    10030    2    1    2    0    0  0.00000000000E+00  0.00000000000E+00  0.19892865050E+03  0.29194960066E+04  0.29127108206E+04 0.  0.
        1    1    3    3  502    0 -0.11530269903E+04  0.88717676490E+03  0.16608138354E+03  0.14642871571E+04  0.50400001928E-02 0. -1.
       -1    1    3    3    0  502  0.11530269903E+04 -0.88717676490E+03  0.32847266966E+02  0.14552088494E+04  0.50400001928E-02 0.  1.
</event>
<event>
 5   0  0.8355946E-07  0.2909989E+04  0.7818609E-02  0.8269912E-01
       -1   -1    0    0    0  501  0.00000000000E+00  0.00000000000E+00  0.13405120794E+04  0.13405120794E+04  0.50400001928E-02 0.  1.
        1   -1    0    0  501    0  0.00000000000E+00  0.00000000000E+00 -0.15792538259E+04  0.15792538259E+04  0.50400001928E-02 0. -1.
    10030    2    1    2    0    0  0.00000000000E+00  0.00000000000E+00 -0.23874174645E+03  0.29197659053E+04  0.29099888866E+04 0.  0.
        4    1    3    3  502    0 -0.74131189513E+03 -0.79167332232E+03  0.85379361920E+03  0.13803097957E+04  0.12699999809E+01 0.  1.
       -4    1    3    3    0  502  0.74131189513E+03  0.79167332232E+03 -0.10925353657E+04  0.15394561096E+04  0.12699999809E+01 0. -1.
</event>
<event>
 5   0  0.2360103E-06  0.2901636E+04  0.7818609E-02  0.8272391E-01
        2   -1    0    0  501    0  0.00000000000E+00  0.00000000000E+00  0.13585870337E+04  0.13585870337E+04  0.25500000920E-02 0. -1.
       -2   -1    0    0    0  501  0.00000000000E+00  0.00000000000E+00 -0.15493098095E+04  0.15493098095E+04  0.25500000920E-02 0.  1.
    10030    2    1    2    0    0  0.00000000000E+00  0.00000000000E+00 -0.19072277575E+03  0.29078968432E+04  0.29016355515E+04 0.  0.
        4    1    3    3  502    0  0.11333070341E+04  0.17871100475E+03  0.79455712320E+03  0.13955805572E+04  0.12699999809E+01 0. -1.
       -4    1    3    3    0  502 -0.11333070341E+04 -0.17871100475E+03 -0.98527989895E+03  0.15123162860E+04  0.12699999809E+01 0.  1.
</event>
<event>
 5   0  0.2360103E-06  0.2902964E+04  0.7818609E-02  0.8271996E-01
        2   -1    0    0  501    0  0.00000000000E+00  0.00000000000E+00  0.12235243117E+04  0.12235243117E+04  0.25500000920E-02 0. -1.
       -2   -1    0    0    0  501  0.00000000000E+00  0.00000000000E+00 -0.17219110083E+04  0.17219110083E+04  0.25500000920E-02 0.  1.
    10030    2    1    2    0    0  0.00000000000E+00  0.00000000000E+00 -0.49838669658E+03  0.29454353200E+04  0.29029639896E+04 0.  0.
        4    1    3    3  502    0  0.41341061557E+03 -0.12511798564E+04 -0.86673491077E+03  0.15772096844E+04  0.12699999809E+01 0.  1.
       -4    1    3    3    0  502 -0.41341061557E+03  0.12511798564E+04  0.36834821420E+03  0.13682256356E+04  0.12699999809E+01 0. -1.
</event>
<event>
 5   0  0.8263673E-07  0.2997277E+04  0.7818609E-02  0.8244509E-01
       -1   -1    0    0    0  501  0.00000000000E+00  0.00000000000E+00  0.10484160741E+04  0.10484160741E+04  0.50400001928E-02 0.  1.
        1   -1    0    0  501    0  0.00000000000E+00  0.00000000000E+00 -0.21422007540E+04  0.21422007540E+04  0.50400001928E-02 0. -1.
    10030    2    1    2    0    0  0.00000000000E+00  0.00000000000E+00 -0.10937846799E+04  0.31906168282E+04  0.29972772341E+04 0.  0.
        5    1    3    3  502    0  0.68036260298E+03  0.11104922883E+04  0.24242882085E+03  0.13247189200E+04  0.46999998093E+01 0.  1.
       -5    1    3    3    0  502 -0.68036260298E+03 -0.11104922883E+04 -0.13362135008E+04  0.18658979081E+04  0.46999998093E+01 0. -1.
</event>
<event>
 5   0  0.2425845E-06  0.2890638E+04  0.7818609E-02  0.8275668E-01
       -2   -1    0    0    0  501  0.00000000000E+00  0.00000000000E+00  0.84206845734E+03  0.84206845734E+03  0.25500000920E-02 0.  1.
        2   -1    0    0  501    0  0.00000000000E+00  0.00000000000E+00 -0.24807333130E+04  0.24807333130E+04  0.25500000920E-02 0. -1.
    10030    2    1    2    0    0  0.00000000000E+00  0.00000000000E+00 -0.16386648557E+04  0.33228017704E+04  0.28906381814E+04 0.  0.
        2    1    3    3  502    0  0.12915620220E+04 -0.22259232287E+03 -0.11891950459E+03  0.13159869481E+04  0.25500000920E-02 0.  1.
       -2    1    3    3    0  502 -0.12915620220E+04  0.22259232287E+03 -0.15197453511E+04  0.20068148223E+04  0.25500000920E-02 0. -1.
</event>
<event>
 5   0  0.8263673E-07  0.2902326E+04  0.7818609E-02  0.8272186E-01
       -1   -1    0    0    0  501  0.00000000000E+00  0.00000000000E+00  0.10295619621E+04  0.10295619621E+04  0.50400001928E-02 0. -1.
        1   -1    0    0  501    0  0.00000000000E+00  0.00000000000E+00 -0.20454084191E+04  0.20454084191E+04  0.50400001928E-02 0.  1.
    10030    2    1    2    0    0  0.00000000000E+00  0.00000000000E+00 -0.10158464570E+04  0.30749703812E+04  0.29023264498E+04 0.  0.
        5    1    3    3  502    0 -0.20893614195E+03 -0.13964587567E+04 -0.15319161468E+03  0.14202961421E+04  0.46999998093E+01 0. -1.
       -5    1    3    3    0  502  0.20893614195E+03  0.13964587567E+04 -0.86265484236E+03  0.16546742391E+04  0.46999998093E+01 0.  1.
</event>
<event>
 5   0  0.2304435E-06  0.2909182E+04  0.7818609E-02  0.8270151E-01
        2   -1    0    0  501    0  0.00000000000E+00  0.00000000000E+00  0.18794800431E+04  0.18794800431E+04  0.25500000920E-02 0.  1.
       -2   -1    0    0    0  501  0.00000000000E+00  0.00000000000E+00 -0.11257555192E+04  0.11257555192E+04  0.25500000920E-02 0. -1.
    10030    2    1    2    0    0  0.00000000000E+00  0.00000000000E+00  0.75372452388E+03  0.30052355623E+04  0.29091820374E+04 0.  0.
        1    1    3    3  502    0  0.70981795059E+03 -0.11329042016E+04 -0.21523025525E+03  0.13541187230E+04  0.50400001928E-02 0. -1.
       -1    1    3    3    0  502 -0.70981795059E+03  0.11329042016E+04  0.96895477913E+03  0.16511168393E+04  0.50400001928E-02 0.  1.
</event>
<event>
 5   0  0.2360103E-06  0.2904719E+04  0.7818609E-02  0.8271475E-01
       -2   -1    0    0    0  501  0.00000000000E+00  0.00000000000E+00  0.89003352895E+03  0.89003352896E+03  0.25500000920E-02 0. -1.
        2   -1    0    0  501    0  0.00000000000E+00  0.00000000000E+00 -0.23699650525E+04  0.23699650525E+04  0.25500000920E-02 0.  1.
    10030    2    1    2    0    0  0.00000000000E+00  0.00000000000E+00 -0.14799315236E+04  0.32599985815E+04  0.29047191666E+04 0.  0.
        4    1    3    3  502    0 -0.12848383102E+04 -0.47039575901E+03 -0.19328953923E+03  0.13818263684E+04  0.12699999809E+01 0. -1.
       -4    1    3    3    0  502  0.12848383102E+04  0.47039575901E+03 -0.12866419844E+04  0.18781722131E+04  0.12699999809E+01 0.  1.
</event>
<event>
 5   0  0.8263673E-07  0.2903982E+04  0.7818609E-02  0.8271694E-01
       -1   -1    0    0    0  501  0.00000000000E+00  0.00000000000E+00  0.90218705738E+03  0.90218705739E+03  0.50400001928E-02 0.  1.
        1   -1    0    0  501    0  0.00000000000E+00  0.00000000000E+00 -0.23368522122E+04  0.23368522122E+04  0.50400001928E-02 0. -1.
    10030    2    1    2    0    0  0.00000000000E+00  0.00000000000E+00 -0.14346651548E+04  0.32390392696E+04  0.29039819703E+04 0.  0.
        5    1    3    3  502    0  0.34132175763E+03  0.12896184661E+04 -0.77918619243E+02  0.13363045056E+04  0.46999998093E+01 0.  1.
       -5    1    3    3    0  502 -0.34132175763E+03 -0.12896184661E+04 -0.13567465356E+04  0.19027347640E+04  0.46999998093E+01 0. -1.
</event>
<event>
 5   0  0.2360103E-06  0.2888339E+04  0.7818609E-02  0.8276355E-01
       -2   -1    0    0    0  501  0.00000000000E+00  0.00000000000E+00  0.11598314756E+04  0.11598314756E+04  0.25500000920E-02 0.  1.
        2   -1    0    0  501    0  0.00000000000E+00  0.00000000000E+00 -0.17982140484E+04  0.17982140484E+04  0.25500000920E-02 0. -1.
    10030    2    1    2    0    0  0.00000000000E+00  0.00000000000E+00 -0.63838257284E+03  0.29580455240E+04  0.28883387981E+04 0.  0.
        4    1    3    3  502    0  0.19481879744E+03 -0.14247500770E+04 -0.18272186918E+03  0.14495709848E+04  0.12699999809E+01 0.  1.
       -4    1    3    3    0  502 -0.19481879744E+03  0.14247500770E+04 -0.45566070366E+03  0.15084745392E+04  0.12699999809E+01 0. -1.
</event>
<event>
 5   0  0.2325590E-06  0.2910667E+04  0.7818609E-02  0.8269711E-01
       -2   -1    0    0    0  501  0.00000000000E+00  0.00000000000E+00  0.98516193215E+03  0.98516193215E+03  0.25500000920E-02 0.  1.
        2   -1    0    0  501    0  0.00000000000E+00  0.00000000000E+00 -0.21498960243E+04  0.21498960243E+04  0.25500000920E-02 0. -1.
    10030    2    1    2    0    0  0.00000000000E+00  0.00000000000E+00 -0.11647340921E+04  0.31350579564E+04  0.29106670859E+04 0.  0.
        5    1    3    3  502    0 -0.13516604577E+04  0.44228770602E+03 -0.24974030379E+03  0.14439517710E+04  0.46999998093E+01 0.  1.
       -5    1    3    3    0  502  0.13516604577E+04 -0.44228770602E+03 -0.91499378832E+03  0.16911061854E+04  0.46999998093E+01 0. -1.
</event>
<event>
 5   0  0.2304435E-06  0.2893142E+04  0.7818609E-02  0.8274921E-01
       -2   -1    0    0    0  501  0.00000000000E+00  0.00000000000E+00  0.83112221967E+03  0.83112221967E+03  0.25500000920E-02 0. -1.
        2   -1    0    0  501    0  0.00000000000E+00  0.00000000000E+00 -0.25177625183E+04  0.25177625183E+04  0.25500000920E-02 0.  1.
    10030    2    1    2    0    0  0.00000000000E+00  0.00000000000E+00 -0.16866402986E+04  0.33488847379E+04  0.28931424941E+04 0.  0.
        1    1    3    3  502    0 -0.36857017412E+03 -0.62832759368E+03  0.60332160930E+03  0.94585226252E+03  0.50400001928E-02 0. -1.
       -1    1    3    3    0  502  0.36857017412E+03  0.62832759368E+03 -0.22899619079E+04  0.24030324754E+04  0.50400001928E-02 0.  1.
</event>
<event>
 5   0  0.8355946E-07  0.2930170E+04  0.7818609E-02  0.8263957E-01
        1   -1    0    0  501    0  0.00000000000E+00  0.00000000000E+00  0.17460853519E+04  0.17460853519E+04  0.50400001928E-02 0. -1.
       -1   -1    0    0    0  501  0.00000000000E+00  0.00000000000E+00 -0.12293063584E+04  0.12293063584E+04  0.50400001928E-02 0.  1.
    10030    2    1    2    0    0  0.00000000000E+00  0.00000000000E+00  0.51677899348E+03  0.29753917103E+04  0.29301698417E+04 0.  0.
        4    1    3    3  502    0  0.54272684520E+03 -0.33467258646E+03 -0.10810257903E+04  0.12550603734E+04  0.12699999809E+01 0.  1.
       -4    1    3    3    0  502 -0.54272684520E+03  0.33467258646E+03  0.15978047838E+04  0.17203313369E+04  0.12699999809E+01 0. -1.
</event>
<event>
 5   0  0.2304435E-06  0.2913762E+04  0.7818609E-02  0.8268795E-01
        2   -1    0    0  501    0  0.00000000000E+00  0.00000000000E+00  0.23820282695E+04  0.23820282695E+04  0.25500000920E-02 0.  1.
       -2   -1    0    0    0  501  0.00000000000E+00  0.00000000000E+00 -0.89104826662E+03  0.89104826663E+03  0.25500000920E-02 0. -1.
    10030    2    1    2    0    0  0.00000000000E+00  0.00000000000E+00  0.14909800029E+04  0.32730765362E+04  0.29137619399E+04 0.  0.
        1    1    3    3  502    0  0.11848003225E+04 -0.11835337898E+03 -0.19752245385E+03  0.12069691157E+04  0.50400001928E-02 0. -1.
       -1    1    3    3    0  502 -0.11848003225E+04  0.11835337898E+03  0.16885024568E+04  0.20661074205E+04  0.50400001928E-02 0.  1.
</event>
<event>
 5   0  0.8355946E-07  0.2898384E+04  0.7818609E-02  0.8273358E-01
        1   -1    0    0  501    0  0.00000000000E+00  0.00000000000E+00  0.26360762080E+04  0.26360762080E+04  0.50400001928E-02 0.  1.
       -1   -1    0    0    0  501  0.00000000000E+00  0.00000000000E+00 -0.79669841491E+03  0.79669841492E+03  0.50400001928E-02 0. -1.
    10030    2    1    2    0    0  0.00000000000E+00  0.00000000000E+00  0.18393777931E+04  0.34327746229E+04  0.28983841957E+04 0.  0.
        4    1    3    3  502    0  0.45584897316E+03 -0.72435061052E+03 -0.46540953767E+03  0.97421237107E+03  0.12699999809E+01 0. -1.
       -4    1    3    3    0  502 -0.45584897316E+03  0.72435061052E+03  0.23047873307E+04  0.24585622518E+04  0.12699999809E+01 0.  1.
</event>
<event>
 5   0  0.2378690E-06  0.2904077E+04  0.7818609E-02  0.8271666E-01
       -2   -1    0    0    0  501  0.00000000000E+00  0.00000000000E+00  0.86139846430E+03  0.86139846430E+03  0.25500000920E-02 0.  1.
        2   -1    0    0  501    0  0.00000000000E+00  0.00000000000E+00 -0.24476659606E+04  0.24476659606E+04  0.25500000920E-02 0. -1.
    10030    2    1    2    0    0  0.00000000000E+00  0.00000000000E+00 -0.15862674963E+04  0.33090644249E+04  0.29040769270E+04 0.  0.
        3    1    3    3  502    0  0.93102656050E+03  0.70584386087E+03  0.18930474268E+03  0.11835802922E+04  0.10100000352E+00 0.  1.
       -3    1    3    3    0  502 -0.93102656050E+03 -0.70584386087E+03 -0.17755722389E+04  0.21254841327E+04  0.10100000352E+00 0. -1.
</event>
<event>
 5   0  0.8355946E-07  0.2894624E+04  0.7818609E-02  0.8274479E-01
       -1   -1    0    0    0  501  0.00000000000E+00  0.00000000000E+00  0.15979162991E+04  0.15979162991E+04  0.50400001928E-02 0.  1.
        1   -1    0    0  501    0  0.00000000000E+00  0.00000000000E+00 -0.13109026522E+04  0.13109026522E+04  0.50400001928E-02 0. -1.
    10030    2    1    2    0    0  0.00000000000E+00  0.00000000000E+00  0.28701364693E+03  0.29088189513E+04  0.28946244762E+04 0.  0.
        4    1    3    3  502    0 -0.10520963973E+04  0.82395701467E+03  0.70201918484E+03  0.15095179827E+04  0.12699999809E+01 0.  1.
       -4    1    3    3    0  502  0.10520963973E+04 -0.82395701467E+03 -0.41500553791E+03  0.13993009686E+04  0.12699999809E+01 0. -1.
</event>
<event>
 5   0  0.8357118E-07  0.2894999E+04  0.7818609E-02  0.8274367E-01
        1   -1    0    0  501    0  0.00000000000E+00  0.00000000000E+00  0.11067089488E+04  0.11067089488E+04  0.50400001928E-02 0. -1.
       -1   -1    0    0    0  501  0.00000000000E+00  0.00000000000E+00 -0.18932299073E+04  0.18932299073E+04  0.50400001928E-02 0.  1.
    10030    2    1    2    0    0  0.00000000000E+00  0.00000000000E+00 -0.78652095852E+03  0.29999388561E+04  0.28949987775E+04 0.  0.
        1    1    3    3  502    0  0.61231026651E+03  0.10390140154E+04 -0.12227648140E+04  0.17174480420E+04  0.50400001928E-02 0.  1.
       -1    1    3    3    0  502 -0.61231026651E+03 -0.10390140154E+04  0.43624385549E+03  0.12824908140E+04  0.50400001928E-02 0. -1.
</event>
<event>
 5   0  0.2378690E-06  0.2908345E+04  0.7818609E-02  0.8270399E-01
       -2   -1    0    0    0  501  0.00000000000E+00  0.00000000000E+00  0.92735910127E+03  0.92735910128E+03  0.25500000920E-02 0. -1.
        2   -1    0    0  501    0  0.00000000000E+00  0.00000000000E+00 -0.22802580389E+04  0.22802580389E+04  0.25500000920E-02 0.  1.
    10030    2    1    2    0    0  0.00000000000E+00  0.00000000000E+00 -0.13528989376E+04  0.32076171402E+04  0.29083452654E+04 0.  0.
        3    1    3    3  502    0  0.59391447867E+03 -0.31098765441E+03  0.74675038913E+03  0.10035356910E+04  0.10100000352E+00 0. -1.
       -3    1    3    3    0  502 -0.59391447867E+03  0.31098765441E+03 -0.20996493268E+04  0.22040814492E+04  0.10100000352E+00 0.  1.
</event>
<event>
 5   0  0.2360103E-06  0.2908130E+04  0.7818609E-02  0.8270463E-01
        2   -1    0    0  501    0  0.00000000000E+00  0.00000000000E+00  0.20672901194E+04  0.20672901194E+04  0.25500000920E-02 0. -1.
       -2   -1    0    0    0  501  0.00000000000E+00  0.00000000000E+00 -0.10227419852E+04  0.10227419852E+04  0.25500000920E-02 0.  1.
    10030    2    1    2    0    0  0.00000000000E+00  0.00000000000E+00  0.10445481342E+04  0.30900321046E+04  0.29081295712E+04 0.  0.
        4    1    3    3  502    0  0.81916432035E+03 -0.11463424492E+04  0.14038893770E+03  0.14159243840E+04  0.12699999809E+01 0.  1.
       -4    1    3    3    0  502 -0.81916432035E+03  0.11463424492E+04  0.90415919645E+03  0.16741077206E+04  0.12699999809E+01 0. -1.
</event>
<event>
 5   0  0.8263673E-07  0.2920493E+04  0.7818609E-02  0.8266806E-01
        1   -1    0    0  501    0  0.00000000000E+00  0.00000000000E+00  0.18517878570E+04  0.18517878570E+04  0.50400001928E-02 0. -1.
       -1   -1    0    0    0  501  0.00000000000E+00  0.00000000000E+00 -0.11514921411E+04  0.11514921411E+04  0.50400001928E-02 0.  1.
    10030    2    1    2    0    0  0.00000000000E+00  0.00000000000E+00  0.70029571592E+03  0.30032799982E+04  0.29204925368E+04 0.  0.
        5    1    3    3  502    0  0.75773565862E+03 -0.12334504925E+04  0.54724105698E+03  0.15475975931E+04  0.46999998093E+01 0. -1.
       -5    1    3    3    0  502 -0.75773565862E+03  0.12334504925E+04  0.15305465893E+03  0.14556824051E+04  0.46999998093E+01 0.  1.
</event>
<event>
 5   0  0.2304435E-06  0.2892061E+04  0.7818609E-02  0.8275243E-01
        2   -1    0    0  501    0  0.00000000000E+00  0.00000000000E+00  0.13884238681E+04  0.13884238681E+04  0.25500000920E-02 0.  1.
       -2   -1    0    0    0  501  0.00000000000E+00  0.00000000000E+00 -0.15060273538E+04  0.15060273538E+04  0.25500000920E-02 0. -1.
    10030    2    1    2    0    0  0.00000000000E+00  0.00000000000E+00 -0.11760348566E+03  0.28944512219E+04  0.28920610810E+04 0.  0.
        1    1    3    3  502    0  0.11646107652E+04 -0.85265582307E+03 -0.14641915182E+03  0.14507855648E+04  0.50400001928E-02 0.  1.
       -1    1    3    3    0  502 -0.11646107652E+04  0.85265582307E+03  0.28815666163E+02  0.14436656571E+04  0.50400001928E-02 0. -1.
</event>
<event>
 5   0  0.2378690E-06  0.2910281E+04  0.7818609E-02  0.8269825E-01
        2   -1    0    0  501    0  0.00000000000E+00  0.00000000000E+00  0.15391243700E+04  0.15391243700E+04  0.25500000920E-02 0. -1.
       -2   -1    0    0    0  501  0.00000000000E+00  0.00000000000E+00 -0.13757396763E+04  0.13757396763E+04  0.25500000920E-02 0.  1.
    10030    2    1    2    0    0  0.00000000000E+00  0.00000000000E+00  0.16338469377E+03  0.29148640463E+04  0.29102814040E+04 0.  0.
        3    1    3    3  502    0  0.13076402507E+04 -0.29968316762E+03  0.64622998433E+03  0.14890756290E+04  0.10100000352E+00 0. -1.
       -3    1    3    3    0  502 -0.13076402507E+04  0.29968316762E+03 -0.48284529056E+03  0.14257884173E+04  0.10100000352E+00 0.  1.
</event>
<event>
 5   0  0.8357118E-07  0.2916375E+04  0.7818609E-02  0.8268022E-01
       -1   -1    0    0    0  501  0.00000000000E+00  0.00000000000E+00  0.14453364379E+04  0.14453364379E+04  0.50400001928E-02 0. -1.
        1   -1    0    0  501    0  0.00000000000E+00  0.00000000000E+00 -0.14711526476E+04  0.14711526476E+04  0.50400001928E-02 0.  1.
    10030    2    1    2    0    0  0.00000000000E+00  0.00000000000E+00 -0.25816209700E+02  0.29164890854E+04  0.29163748231E+04 0.  0.
        1    1    3    3  502    0 -0.42934552568E+03 -0.15270697071E+03  0.13723008595E+04  0.14459829350E+04  0.50400001928E-02 0. -1.
       -1    1    3    3    0  502  0.42934552568E+03  0.15270697071E+03 -0.13981170692E+04  0.14705061504E+04  0.50400001928E-02 0.  1.
</event>
<event>
 5   0  0.8357118E-07  0.2913696E+04  0.7818609E-02  0.8268814E-01
        1   -1    0    0  501    0  0.00000000000E+00  0.00000000000E+00  0.17210851681E+04  0.17210851681E+04  0.50400001928E-02 0. -1.
       -1   -1    0    0    0  501  0.00000000000E+00  0.00000000000E+00 -0.12331788666E+04  0.12331788666E+04  0.50400001928E-02 0.  1.
    10030    2    1    2    0    0  0.00000000000E+00  0.00000000000E+00  0.48790630147E+03  0.29542640347E+04  0.29136958365E+04 0.  0.
        1    1    3    3  502    0 -0.12319075548E+04  0.22281680002E+03 -0.51151312120E+03  0.13523643086E+04  0.50400001928E-02 0.  1.
       -1    1    3    3    0  502  0.12319075548E+04 -0.22281680002E+03  0.99941942266E+03  0.16018997261E+04  0.50400001928E-02 0. -1.
</event>
<event>
 5   0  0.8947674E-07  0.2899655E+04  0.7818609E-02  0.8272980E-01
        1   -1    0    0  501    0  0.00000000000E+00  0.00000000000E+00  0.12750507779E+04  0.12750507779E+04  0.50400001928E-02 0.  1.
       -1   -1    0    0    0  501  0.00000000000E+00  0.00000000000E+00 -0.16485620775E+04  0.16485620775E+04  0.50400001928E-02 0. -1.
    10030    2    1    2    0    0  0.00000000000E+00  0.00000000000E+00 -0.37351129965E+03  0.29236128554E+04  0.28996553998E+04 0.  0.
        3    1    3    3  502    0 -0.11778598121E+04  0.84189424680E+03 -0.10956799754E+03  0.14519451835E+04  0.10100000352E+00 0.  1.
       -3    1    3    3    0  502  0.11778598121E+04 -0.84189424680E+03 -0.26394330212E+03  0.14716676719E+04  0.10100000352E+00 0. -1.
</event>
<event>
 5   0  0.8263673E-07  0.2893758E+04  0.7818609E-02  0.8274737E-01
       -1   -1    0    0    0  501  0.00000000000E+00  0.00000000000E+00  0.92245891458E+03  0.92245891460E+03  0.50400001928E-02 0.  1.
        1   -1    0    0  501    0  0.00000000000E+00  0.00000000000E+00 -0.22694329221E+04  0.22694329221E+04  0.50400001928E-02 0. -1.
    10030    2    1    2    0    0  0.00000000000E+00  0.00000000000E+00 -0.13469740075E+04  0.31918918367E+04  0.28937578544E+04 0.  0.
        5    1    3    3  502    0 -0.11818155359E+04  0.52637592270E+03  0.41080967670E+02  0.12943992077E+04  0.46999998093E+01 0.  1.
       -5    1    3    3    0  502  0.11818155359E+04 -0.52637592270E+03 -0.13880549751E+04  0.18974926290E+04  0.46999998093E+01 0. -1.
</event>
<event>
 5   0  0.8263673E-07  0.2913345E+04  0.7818609E-02  0.8268918E-01
       -1   -1    0    0    0  501  0.00000000000E+00  0.00000000000E+00  0.13111135634E+04  0.13111135634E+04  0.50400001928E-02 0.  1.
        1   -1    0    0  501    0  0.00000000000E+00  0.00000000000E+00 -0.16183908359E+04  0.16183908359E+04  0.50400001928E-02 0. -1.
    10030    2    1    2    0    0  0.00000000000E+00  0.00000000000E+00 -0.30727727246E+03  0.29295043993E+04  0.29133445906E+04 0.  0.
        5    1    3    3  502    0 -0.11666293345E+03  0.14163205021E+04  0.16797617587E+03  0.14310178512E+04  0.46999998093E+01 0. -1.
       -5    1    3    3    0  502  0.11666293345E+03 -0.14163205021E+04 -0.47525344833E+03  0.14984865481E+04  0.46999998093E+01 0.  1.
</event>
<event>
 5   0  0.2360103E-06  0.2897590E+04  0.7818609E-02  0.8273595E-01
       -2   -1    0    0    0  501  0.00000000000E+00  0.00000000000E+00  0.69458608425E+03  0.69458608425E+03  0.25500000920E-02 0. -1.
        2   -1    0    0  501    0  0.00000000000E+00  0.00000000000E+00 -0.30219528789E+04  0.30219528789E+04  0.25500000920E-02 0.  1.
    10030    2    1    2    0    0  0.00000000000E+00  0.00000000000E+00 -0.23273667946E+04  0.37165389631E+04  0.28975896307E+04 0.  0.
        4    1    3    3  502    0  0.89037814722E+02  0.82457642581E+03  0.35997820453E+03  0.90412384941E+03  0.12699999809E+01 0. -1.
       -4    1    3    3    0  502 -0.89037814722E+02 -0.82457642581E+03 -0.26873449992E+04  0.28124151137E+04  0.12699999809E+01 0.  1.
</event>
<event>
 5   0  0.2304435E-06  0.2891772E+04  0.7818609E-02  0.8275330E-01
       -2   -1    0    0    0  501  0.00000000000E+00  0.00000000000E+00  0.11992983513E+04  0.11992983513E+04  0.25500000920E-02 0.  1.
        2   -1    0    0  501    0  0.00000000000E+00  0.00000000000E+00 -0.17431748729E+04  0.17431748729E+04  0.25500000920E-02 0. -1.
    10030    2    1    2    0    0  0.00000000000E+00  0.00000000000E+00 -0.54387652160E+03  0.29424732243E+04  0.28917722948E+04 0.  0.
        1    1    3    3  502    0  0.53155081255E+03 -0.11392235810E+04  0.45487519704E+03  0.13368949393E+04  0.50400001928E-02 0.  1.
       -1    1    3    3    0  502 -0.53155081255E+03  0.11392235810E+04 -0.99875171864E+03  0.16055782850E+04  0.50400001928E-02 0. -1.
</event>
<event>
 5   0  0.8355946E-07  0.2897132E+04  0.7818609E-02  0.8273731E-01
       -1   -1    0    0    0  501  0.00000000000E+00  0.00000000000E+00  0.14737616535E+04  0.14737616536E+04  0.50400001928E-02 0.  1.
        1   -1    0    0  501    0  0.00000000000E+00  0.00000000000E+00 -0.14238010669E+04  0.14238010669E+04  0.50400001928E-02 0. -1.
    10030    2    1    2    0    0  0.00000000000E+00  0.00000000000E+00  0.49960586659E+02  0.28975627205E+04  0.28971319712E+04 0.  0.
        4    1    3    3  502    0  0.56479512056E+03 -0.45967675221E+03 -0.12274221459E+04  0.14271870872E+04  0.12699999809E+01 0. -1.
       -4    1    3    3    0  502 -0.56479512056E+03  0.45967675221E+03  0.12773827325E+04  0.14703756333E+04  0.12699999809E+01 0.  1.
</event>
<event>
 5   0  0.2325590E-06  0.2896725E+04  0.7818609E-02  0.8273853E-01
       -2   -1    0    0    0  501  0.00000000000E+00  0.00000000000E+00  0.11479316421E+04  0.11479316421E+04  0.25500000920E-02 0.  1.
        2   -1    0    0  501    0  0.00000000000E+00  0.00000000000E+00 -0.18274205464E+04  0.18274205464E+04  0.25500000920E-02 0. -1.
    10030    2    1    2    0    0  0.00000000000E+00  0.00000000000E+00 -0.67948890423E+03  0.29753521885E+04  0.28967249567E+04 0.  0.
        5    1    3    3  502    0 -0.12967411856E+04 -0.53151086266E+03  0.35817020972E+02  0.14019081456E+04  0.46999998093E+01 0.  1.
       -5    1    3    3    0  502  0.12967411856E+04  0.53151086266E+03 -0.71530592521E+03  0.15734440429E+04  0.46999998093E+01 0. -1.
</event>
<event>
 5   0  0.8483636E-07  0.2900889E+04  0.7818609E-02  0.8272613E-01
        1   -1    0    0  501    0  0.00000000000E+00  0.00000000000E+00  0.25021579653E+04  0.25021579653E+04  0.50400001928E-02 0. -1.
       -1   -1    0    0    0  501  0.00000000000E+00  0.00000000000E+00 -0.84078977726E+03  0.84078977727E+03  0.50400001928E-02 0.  1.
    10030    2    1    2    0    0  0.00000000000E+00  0.00000000000E+00  0.16613681880E+04  0.33429477426E+04  0.29008887179E+04 0.  0.
        2    1    3    3  502    0  0.11285199522E+04 -0.42214623909E+03 -0.99845834300E+02  0.12090218858E+04  0.25500000920E-02 0.  1.
       -2    1    3    3    0  502 -0.11285199522E+04  0.42214623909E+03  0.17612140223E+04  0.21339258568E+04  0.25500000920E-02 0. -1.
</event>
<event>
 5   0  0.2425845E-06  0.2899772E+04  0.7818609E-02  0.8272945E-01
        2   -1    0    0  501    0  0.00000000000E+00  0.00000000000E+00  0.14182794883E+04  0.14182794883E+04  0.25500000920E-02 0. -1.
       -2   -1    0    0    0  501  0.00000000000E+00  0.00000000000E+00 -0.14821968503E+04  0.14821968503E+04  0.25500000920E-02 0.  1.
    10030    2    1    2    0    0  0.00000000000E+00  0.00000000000E+00 -0.63917361994E+02  0.29004763387E+04  0.28997719845E+04 0.  0.
        2    1    3    3  502    0  0.37440988678E+03  0.71801816458E+02 -0.14311662674E+04  0.14810722970E+04  0.25500000920E-02 0.  1.
       -2    1    3    3    0  502 -0.37440988678E+03 -0.71801816458E+02  0.13672489054E+04  0.14194040416E+04  0.25500000920E-02 0. -1.
</event>
<event>
 5   0  0.2378690E-06  0.2899678E+04  0.7818609E-02  0.8272973E-01
       -2   -1    0    0    0  501  0.00000000000E+00  0.00000000000E+00  0.11409963598E+04  0.11409963598E+04  0.25500000920E-02 0.  1.
        2   -1    0    0  501    0  0.00000000000E+00  0.00000000000E+00 -0.18422781134E+04  0.18422781134E+04  0.25500000920E-02 0. -1.
    10030    2    1    2    0    0  0.00000000000E+00  0.00000000000E+00 -0.70128175362E+03  0.29832744732E+04  0.28996776518E+04 0.  0.
        3    1    3    3  502    0 -0.11591417561E+04  0.84645231374E+03 -0.56134128185E+03  0.15411668226E+04  0.10100000352E+00 0. -1.
       -3    1    3    3    0  502  0.11591417561E+04 -0.84645231374E+03 -0.13994047177E+03  0.14421076506E+04  0.10100000352E+00 0.  1.
</event>
<event>
 5   0  0.2304435E-06  0.2897580E+04  0.7818609E-02  0.8273598E-01
       -2   -1    0    0    0  501  0.00000000000E+00  0.00000000000E+00  0.11517830035E+04  0.11517830035E+04  0.25500000920E-02 0. -1.
        2   -1    0    0  501    0  0.00000000000E+00  0.00000000000E+00 -0.18223853328E+04  0.18223853328E+04  0.25500000920E-02 0.  1.
    10030    2    1    2    0    0  0.00000000000E+00  0.00000000000E+00 -0.67060232934E+03  0.29741683362E+04  0.28975799917E+04 0.  0.
        1    1    3    3  502    0 -0.36066512041E+03 -0.11054022983E+04  0.55183459871E+03  0.12870567177E+04  0.50400001928E-02 0. -1.
       -1    1    3    3    0  502  0.36066512041E+03  0.11054022983E+04 -0.12224369280E+04  0.16871116185E+04  0.50400001928E-02 0.  1.
</event>
<event>
 5   0  0.2360103E-06  0.2902954E+04  0.7818609E-02  0.8271999E-01
       -2   -1    0    0    0  501  0.00000000000E+00  0.00000000000E+00  0.10068456761E+04  0.10068456761E+04  0.25500000920E-02 0. -1.
        2   -1    0    0  501    0  0.00000000000E+00  0.00000000000E+00 -0.20924618288E+04  0.20924618288E+04  0.25500000920E-02 0.  1.
    10030    2    1    2    0    0  0.00000000000E+00  0.00000000000E+00 -0.10856161527E+04  0.30993075049E+04  0.29029544569E+04 0.  0.
        4    1    3    3  502    0 -0.41998612670E+03 -0.83656760628E+03  0.64152599518E+03  0.11348087600E+04  0.12699999809E+01 0. -1.
       -4    1    3    3    0  502  0.41998612670E+03  0.83656760628E+03 -0.17271421479E+04  0.19644987448E+04  0.12699999809E+01 0.  1.
</event>
<event>
 5   0  0.8263673E-07  0.2898697E+04  0.7818609E-02  0.8273265E-01
       -1   -1    0    0    0  501  0.00000000000E+00  0.00000000000E+00  0.18815508660E+04  0.18815508660E+04  0.50400001928E-02 0.  1.
        1   -1    0    0  501    0  0.00000000000E+00  0.00000000000E+00 -0.11164257141E+04  0.11164257141E+04  0.50400001928E-02 0. -1.
    10030    2    1    2    0    0  0.00000000000E+00  0.00000000000E+00  0.76512515196E+03  0.29979765801E+04  0.28986974793E+04 0.  0.
        5    1    3    3  502    0  0.63726288236E+03  0.12470775067E+04 -0.34264947124E+01  0.14004785324E+04  0.46999998093E+01 0. -1.
       -5    1    3    3    0  502 -0.63726288236E+03 -0.12470775067E+04  0.76855164668E+03  0.15974980477E+04  0.46999998093E+01 0.  1.
</event>
<event>
 5   0  0.8355946E-07  0.2904199E+04  0.7818609E-02  0.8271629E-01
       -1   -1    0    0    0  501  0.00000000000E+00  0.00000000000E+00  0.22867351080E+04  0.22867351080E+04  0.50400001928E-02 0. -1.
        1   -1    0    0  501    0  0.00000000000E+00  0.00000000000E+00 -0.92209754174E+03  0.92209754175E+03  0.50400001928E-02 0.  1.
    10030    2    1    2    0    0  0.00000000000E+00  0.00000000000E+00  0.13646375663E+04  0.32088326498E+04  0.29041989062E+04 0.  0.
        4    1    3    3  502    0  0.43251220198E+03  0.21918988724E+03 -0.83000667797E+03  0.96126152004E+03  0.12699999809E+01 0.  1.
       -4    1    3    3    0  502 -0.43251220198E+03 -0.21918988724E+03  0.21946442443E+04  0.22475711297E+04  0.12699999809E+01 0. -1.
</event>
<event>
 5   0  0.7621125E-07  0.2897730E+04  0.7818609E-02  0.8273553E-01
       -3   -1    0    0    0  501  0.00000000000E+00  0.00000000000E+00  0.20523594520E+04  0.20523594545E+04  0.10100000352E+00 0.  1.
        3   -1    0    0  501    0  0.00000000000E+00  0.00000000000E+00 -0.10228278937E+04  0.10228278987E+04  0.10100000352E+00 0. -1.
    10030    2    1    2    0    0  0.00000000000E+00  0.00000000000E+00  0.10295315582E+04  0.30751873532E+04  0.28977304960E+04 0.  0.
        4    1    3    3  502    0 -0.10074815993E+04  0.10324366458E+04  0.65818753211E+03  0.15856093595E+04  0.12699999809E+01 0. -1.
       -4    1    3    3    0  502  0.10074815993E+04 -0.10324366458E+04  0.37134402614E+03  0.14895779937E+04  0.12699999809E+01 0.  1.
</event>
<event>
 5   0  0.2378690E-06  0.2869459E+04  0.7818609E-02  0.8282023E-01
       -2   -1    0    0    0  501  0.00000000000E+00  0.00000000000E+00  0.12809452217E+04  0.12809452217E+04  0.25500000920E-02 0. -1.
        2   -1    0    0  501    0  0.00000000000E+00  0.00000000000E+00 -0.16069766746E+04  0.16069766746E+04  0.25500000920E-02 0.  1.
    10030    2    1    2    0    0  0.00000000000E+00  0.00000000000E+00 -0.32603145284E+03  0.28879218963E+04  0.28694592471E+04 0.  0.
        3    1    3    3  502    0  0.39112410682E+03 -0.34801749821E+03 -0.15074079559E+04  0.15957358809E+04  0.10100000352E+00 0.  1.
       -3    1    3    3    0  502 -0.39112410682E+03  0.34801749821E+03  0.11813765031E+04  0.12921860153E+04  0.10100000352E+00 0. -1.
</event>
<event>
 5   0  0.2425845E-06  0.2907998E+04  0.7818609E-02  0.8270502E-01
        2   -1    0    0  501    0  0.00000000000E+00  0.00000000000E+00  0.17226497599E+04  0.17226497599E+04  0.25500000920E-02 0.  1.
       -2   -1    0    0    0  501  0.00000000000E+00  0.00000000000E+00 -0.12272444880E+04  0.12272444880E+04  0.25500000920E-02 0. -1.
    10030    2    1    2    0    0  0.00000000000E+00  0.00000000000E+00  0.49540527186E+03  0.29498942479E+04  0.29079975396E+04 0.  0.
        2    1    3    3  502    0  0.12418399900E+04 -0.35771070340E+03 -0.42822231108E+03  0.13614322810E+04  0.25500000920E-02 0. -1.
       -2    1    3    3    0  502 -0.12418399900E+04  0.35771070340E+03  0.92362758294E+03  0.15884619668E+04  0.25500000920E-02 0.  1.
</event>
<event>
 5   0  0.2325590E-06  0.2901028E+04  0.7818609E-02  0.8272572E-01
       -2   -1    0    0    0  501  0.00000000000E+00  0.00000000000E+00  0.96599970298E+03  0.96599970298E+03  0.25500000920E-02 0.  1.
        2   -1    0    0  501    0  0.00000000000E+00  0.00000000000E+00 -0.21780446668E+04  0.21780446668E+04  0.25500000920E-02 0. -1.
    10030    2    1    2    0    0  0.00000000000E+00  0.00000000000E+00 -0.12120449638E+04  0.31440443697E+04  0.29010277497E+04 0.  0.
        5    1    3    3  502    0  0.11169774867E+04  0.21309453559E+03 -0.15819687388E+04  0.19482543898E+04  0.46999998093E+01 0. -1.
       -5    1    3    3    0  502 -0.11169774867E+04 -0.21309453559E+03  0.36992377500E+03  0.11957899800E+04  0.46999998093E+01 0.  1.
</event>
<event>
 5   0  0.8355946E-07  0.2888040E+04  0.7818609E-02  0.8276445E-01
       -1   -1    0    0    0  501  0.00000000000E+00  0.00000000000E+00  0.11978848021E+04  0.11978848021E+04  0.50400001928E-02 0.  1.
        1   -1    0    0  501    0  0.00000000000E+00  0.00000000000E+00 -0.17407296661E+04  0.17407296661E+04  0.50400001928E-02 0. -1.
    10030    2    1    2    0    0  0.00000000000E+00  0.00000000000E+00 -0.54284486398E+03  0.29386144682E+04  0.28880398969E+04 0.  0.
        4    1    3    3  502    0 -0.91409789690E+03  0.80534169481E+03 -0.10602675787E+04  0.16150291520E+04  0.12699999809E+01 0. -1.
       -4    1    3    3    0  502  0.91409789690E+03 -0.80534169481E+03  0.51742271472E+03  0.13235853161E+04  0.12699999809E+01 0.  1.
</event>
<event>
 5   0  0.8357118E-07  0.2904933E+04  0.7818609E-02  0.8271411E-01
       -1   -1    0    0    0  501  0.00000000000E+00  0.00000000000E+00  0.85937796986E+03  0.85937796987E+03  0.50400001928E-02 0.  1.
        1   -1    0    0  501    0  0.00000000000E+00  0.00000000000E+00 -0.24548678018E+04  0.24548678018E+04  0.50400001928E-02 0. -1.
    10030    2    1    2    0    0  0.00000000000E+00  0.00000000000E+00 -0.15954898319E+04  0.33142457717E+04  0.29049332576E+04 0.  0.
        1    1    3    3  502    0  0.29692861938E+03  0.24019939221E+03  0.80106503744E+03  0.88745002522E+03  0.50400001928E-02 0.  1.
       -1    1    3    3    0  502 -0.29692861938E+03 -0.24019939221E+03 -0.23965548694E+04  0.24267957465E+04  0.50400001928E-02 0. -1.
</event>
<event>
 5   0  0.2425845E-06  0.2903061E+04  0.7818609E-02  0.8271967E-01
        2   -1    0    0  501    0  0.00000000000E+00  0.00000000000E+00  0.13674502671E+04  0.13674502671E+04  0.25500000920E-02 0. -1.
       -2   -1    0    0    0  501  0.00000000000E+00  0.00000000000E+00 -0.15407803858E+04  0.15407803858E+04  0.25500000920E-02 0.  1.
    10030    2    1    2    0    0  0.00000000000E+00  0.00000000000E+00 -0.17333011865E+03  0.29082306529E+04  0.29030608331E+04 0.  0.
        2    1    3    3  502    0  0.12332506021E+04 -0.75960312612E+03 -0.18189534310E+03  0.14597910374E+04  0.25500000920E-02 0.  1.
       -2    1    3    3    0  502 -0.12332506021E+04  0.75960312612E+03  0.85652244484E+01  0.14484396156E+04  0.25500000920E-02 0. -1.
</event>
<event>
 5   0  0.8355946E-07  0.2874227E+04  0.7818609E-02  0.8280587E-01
       -1   -1    0    0    0  501  0.00000000000E+00  0.00000000000E+00  0.10255128579E+04  0.10255128579E+04  0.50400001928E-02 0. -1.
        1   -1    0    0  501    0  0.00000000000E+00  0.00000000000E+00 -0.20139143613E+04  0.20139143613E+04  0.50400001928E-02 0.  1.
    10030    2    1    2    0    0  0.00000000000E+00  0.00000000000E+00 -0.98840150335E+03  0.30394272192E+04  0.28742269028E+04 0.  0.
        4    1    3    3  502    0  0.11541301748E+04 -0.29922835292E+03 -0.13426497495E+04  0.17956235770E+04  0.12699999809E+01 0.  1.
       -4    1    3    3    0  502 -0.11541301748E+04  0.29922835292E+03  0.35424824615E+03  0.12438036422E+04  0.12699999809E+01 0. -1.
</event>
<event>
 5   0  0.2360103E-06  0.2880825E+04  0.7818609E-02  0.8278605E-01
       -2   -1    0    0    0  501  0.00000000000E+00  0.00000000000E+00  0.11127424549E+04  0.11127424549E+04  0.25500000920E-02 0.  1.
        2   -1    0    0  501    0  0.00000000000E+00  0.00000000000E+00 -0.18645723873E+04  0.18645723873E+04  0.25500000920E-02 0. -1.
    10030    2    1    2    0    0  0.00000000000E+00  0.00000000000E+00 -0.75182993240E+03  0.29773148423E+04  0.28808254759E+04 0.  0.
        4    1    3    3  502    0 -0.29006057069E+03 -0.12555749769E+04  0.28921153967E+03  0.13207000359E+04  0.12699999809E+01 0.  1.
       -4    1    3    3    0  502  0.29006057069E+03  0.12555749769E+04 -0.10410414721E+04  0.16566148064E+04  0.12699999809E+01 0. -1.
</event>
<event>
 5   0  0.8263673E-07  0.2900655E+04  0.7818609E-02  0.8272683E-01
       -1   -1    0    0    0  501  0.00000000000E+00  0.00000000000E+00  0.75877888918E+03  0.75877888920E+03  0.50400001928E-02 0. -1.
        1   -1    0    0  501    0  0.00000000000E+00  0.00000000000E+00 -0.27721511896E+04  0.27721511896E+04  0.50400001928E-02 0.  1.
    10030    2    1    2    0    0  0.00000000000E+00  0.00000000000E+00 -0.20133723004E+04  0.35309300788E+04  0.29006549607E+04 0.  0.
        5    1    3    3  502    0  0.15603783393E+03 -0.12525664253E+04 -0.13723521386E+03  0.12696952584E+04  0.46999998093E+01 0. -1.
       -5    1    3    3    0  502 -0.15603783393E+03  0.12525664253E+04 -0.18761370865E+04  0.22612348204E+04  0.46999998093E+01 0.  1.
</event>
<event>
 5   0  0.2325590E-06  0.2898628E+04  0.7818609E-02  0.8273286E-01
        2   -1    0    0  501    0  0.00000000000E+00  0.00000000000E+00  0.19297831820E+04  0.19297831820E+04  0.25500000920E-02 0.  1.
       -2   -1    0    0    0  501  0.00000000000E+00  0.00000000000E+00 -0.10884702405E+04  0.10884702405E+04  0.25500000920E-02 0. -1.
    10030    2    1    2    0    0  0.00000000000E+00  0.00000000000E+00  0.84131294147E+03  0.30182534225E+04  0.28986283406E+04 0.  0.
        5    1    3    3  502    0 -0.20118917390E+03  0.16084841543E+03  0.19057493189E+04  0.19230839433E+04  0.46999998093E+01 0.  1.
       -5    1    3    3    0  502  0.20118917390E+03 -0.16084841543E+03 -0.10644363775E+04  0.10951694792E+04  0.46999998093E+01 0. -1.
</event>
<event>
 5   0  0.2304435E-06  0.2878348E+04  0.7818609E-02  0.8279349E-01
       -2   -1    0    0    0  501  0.00000000000E+00  0.00000000000E+00  0.11795124596E+04  0.11795124596E+04  0.25500000920E-02 0.  1.
        2   -1    0    0  501    0  0.00000000000E+00  0.00000000000E+00 -0.17559987787E+04  0.17559987787E+04  0.25500000920E-02 0. -1.
    10030    2    1    2    0    0  0.00000000000E+00  0.00000000000E+00 -0.57648631911E+03  0.29355112382E+04  0.28783484420E+04 0.  0.
        1    1    3    3  502    0 -0.14046666930E+03 -0.76355668324E+03  0.94762836442E+03  0.12250506972E+04  0.50400001928E-02 0.  1.
       -1    1    3    3    0  502  0.14046666930E+03  0.76355668324E+03 -0.15241146835E+04  0.17104605410E+04  0.50400001928E-02 0. -1.
</event>
<event>
 5   0  0.8947674E-07  0.2897285E+04  0.7818609E-02  0.8273686E-01
        1   -1    0    0  501    0  0.00000000000E+00  0.00000000000E+00  0.18761667351E+04  0.18761667351E+04  0.50400001928E-02 0. -1.
       -1   -1    0    0    0  501  0.00000000000E+00  0.00000000000E+00 -0.11185383098E+04  0.11185383098E+04  0.50400001928E-02 0.  1.
    10030    2    1    2    0    0  0.00000000000E+00  0.00000000000E+00  0.75762842526E+03  0.29947050449E+04  0.28972845003E+04 0.  0.
        3    1    3    3  502    0 -0.96656720794E+03 -0.86143936115E+02  0.14905695165E+04  0.17786147528E+04  0.10100000352E+00 0. -1.
       -3    1    3    3    0  502  0.96656720794E+03  0.86143936115E+02 -0.73294109124E+03  0.12160902921E+04  0.10100000352E+00 0.  1.
</event>
<event>
 5   0  0.8355946E-07  0.2896042E+04  0.7818609E-02  0.8274056E-01
       -1   -1    0    0    0  501  0.00000000000E+00  0.00000000000E+00  0.16096058975E+04  0.16096058975E+04  0.50400001928E-02 0.  1.
        1   -1    0    0  501    0  0.00000000000E+00  0.00000000000E+00 -0.13026576333E+04  0.13026576333E+04  0.50400001928E-02 0. -1.
    10030    2    1    2    0    0  0.00000000000E+00  0.00000000000E+00  0.30694826417E+03  0.29122635308E+04  0.28960424092E+04 0.  0.
        4    1    3    3  502    0  0.11024834314E+04  0.60874822331E+03 -0.56517524108E+03  0.13803871855E+04  0.12699999809E+01 0. -1.
       -4    1    3    3    0  502 -0.11024834314E+04 -0.60874822331E+03  0.87212350525E+03  0.15318763453E+04  0.12699999809E+01 0.  1.
</event>
<event>
 5   0  0.8355946E-07  0.2904093E+04  0.7818609E-02  0.8271661E-01
        1   -1    0    0  501    0  0.00000000000E+00  0.00000000000E+00  0.17559928567E+04  0.17559928567E+04  0.50400001928E-02 0.  1.
       -1   -1    0    0    0  501  0.00000000000E+00  0.00000000000E+00 -0.12007104881E+04  0.12007104881E+04  0.50400001928E-02 0. -1.
    10030    2    1    2    0    0  0.00000000000E+00  0.00000000000E+00  0.55528236862E+03  0.29567033448E+04  0.29040930013E+04 0.  0.
        4    1    3    3  502    0  0.13699263237E+04  0.44751935196E+03  0.45824049934E+03  0.15122690472E+04  0.12699999809E+01 0.  1.
       -4    1    3    3    0  502 -0.13699263237E+04 -0.44751935196E+03  0.97041869284E+02  0.14444342976E+04  0.12699999809E+01 0. -1.
</event>
<event>
 5   0  0.8355946E-07  0.2905874E+04  0.7818609E-02  0.8271132E-01
        1   -1    0    0  501    0  0.00000000000E+00  0.00000000000E+00  0.25047664196E+04  0.25047664196E+04  0.50400001928E-02 0. -1.
       -1   -1    0    0    0  501  0.00000000000E+00  0.00000000000E+00 -0.84280367884E+03  0.84280367885E+03  0.50400001928E-02 0.  1.
    10030    2    1    2    0    0  0.00000000000E+00  0.00000000000E+00  0.16619627408E+04  0.33475700985E+04  0.29058742940E+04 0.  0.
        4    1    3    3  502    0 -0.87461316227E+03  0.61083431880E+03  0.19672994107E+04  0.22379310385E+04  0.12699999809E+01 0. -1.
       -4    1    3    3    0  502  0.87461316227E+03 -0.61083431880E+03 -0.30533666992E+03  0.11096390600E+04  0.12699999809E+01 0.  1.
</event>
<event>
 5   0  0.8947674E-07  0.2899289E+04  0.7818609E-02  0.8273089E-01
        1   -1    0    0  501    0  0.00000000000E+00  0.00000000000E+00  0.17553036847E+04  0.17553036847E+04  0.50400001928E-02 0. -1.
       -1   -1    0    0    0  501  0.00000000000E+00  0.00000000000E+00 -0.11972112603E+04  0.11972112603E+04  0.50400001928E-02 0.  1.
    10030    2    1    2    0    0  0.00000000000E+00  0.00000000000E+00  0.55809242439E+03  0.29525149451E+04  0.28992891106E+04 0.  0.
        3    1    3    3  502    0 -0.10150787829E+04  0.99252302180E+03 -0.19564558425E+02  0.14198132506E+04  0.10100000352E+00 0. -1.
       -3    1    3    3    0  502  0.10150787829E+04 -0.99252302180E+03  0.57765698281E+03  0.15327016945E+04  0.10100000352E+00 0.  1.
</event>
<event>
 5   0  0.2325590E-06  0.2911552E+04  0.7818609E-02  0.8269449E-01
        2   -1    0    0  501    0  0.00000000000E+00  0.00000000000E+00  0.16721565392E+04  0.16721565392E+04  0.25500000920E-02 0. -1.
       -2   -1    0    0    0  501  0.00000000000E+00  0.00000000000E+00 -0.12673955884E+04  0.12673955884E+04  0.25500000920E-02 0.  1.
    10030    2    1    2    0    0  0.00000000000E+00  0.00000000000E+00  0.40476095076E+03  0.29395521277E+04  0.29115520404E+04 0.  0.
        5    1    3    3  502    0  0.56358811266E+02  0.65004680475E+02 -0.12648189607E+04  0.12677503766E+04  0.46999998093E+01 0.  1.
       -5    1    3    3    0  502 -0.56358811266E+02 -0.65004680475E+02  0.16695799114E+04  0.16718017510E+04  0.46999998093E+01 0. -1.
</event>
<event>
 5   0  0.2425845E-06  0.2877101E+04  0.7818609E-02  0.8279723E-01
       -2   -1    0    0    0  501  0.00000000000E+00  0.00000000000E+00  0.10335490291E+04  0.10335490291E+04  0.25500000920E-02 0.  1.
        2   -1    0    0  501    0  0.00000000000E+00  0.00000000000E+00 -0.20022541061E+04  0.20022541061E+04  0.25500000920E-02 0. -1.
    10030    2    1    2    0    0  0.00000000000E+00  0.00000000000E+00 -0.96870507702E+03  0.30358031352E+04  0.28771011713E+04 0.  0.
        2    1    3    3  502    0 -0.58830119309E+03  0.52158052153E+03  0.78679090941E+03  0.11122879436E+04  0.25500000920E-02 0.  1.
       -2    1    3    3    0  502  0.58830119309E+03 -0.52158052153E+03 -0.17554959864E+04  0.19235151917E+04  0.25500000920E-02 0. -1.
</event>
<event>
 5   0  0.8483636E-07  0.2873799E+04  0.7818609E-02  0.8280716E-01
        1   -1    0    0  501    0  0.00000000000E+00  0.00000000000E+00  0.16493996628E+04  0.16493996628E+04  0.50400001928E-02 0. -1.
       -1   -1    0    0    0  501  0.00000000000E+00  0.00000000000E+00 -0.12517771661E+04  0.12517771661E+04  0.50400001928E-02 0.  1.
    10030    2    1    2    0    0  0.00000000000E+00  0.00000000000E+00  0.39762249677E+03  0.29011768289E+04  0.28737994611E+04 0.  0.
        2    1    3    3  502    0  0.95919987323E+02 -0.13548078440E+04 -0.27467273239E+03  0.13856947890E+04  0.25500000920E-02 0.  1.
       -2    1    3    3    0  502 -0.95919987323E+02  0.13548078440E+04  0.67229522916E+03  0.15154820399E+04  0.25500000920E-02 0. -1.
</event>
<event>
 5   0  0.8357118E-07  0.2892330E+04  0.7818609E-02  0.8275163E-01
        1   -1    0    0  501    0  0.00000000000E+00  0.00000000000E+00  0.11328382620E+04  0.11328382620E+04  0.50400001928E-02 0. -1.
       -1   -1    0    0    0  501  0.00000000000E+00  0.00000000000E+00 -0.18461539575E+04  0.18461539575E+04  0.50400001928E-02 0.  1.
    10030    2    1    2    0    0  0.00000000000E+00  0.00000000000E+00 -0.71331569549E+03  0.29789922195E+04  0.28923304380E+04 0.  0.
        1    1    3    3  502    0 -0.81050659731E+03 -0.90992615513E+03  0.44546238856E+03  0.12974294939E+04  0.50400001928E-02 0.  1.
       -1    1    3    3    0  502  0.81050659731E+03  0.90992615513E+03 -0.11587780840E+04  0.16815627256E+04  0.50400001928E-02 0. -1.
</event>
<event>
 5   0  0.8947674E-07  0.2902768E+04  0.7818609E-02  0.8272054E-01
       -1   -1    0    0    0  501  0.00000000000E+00  0.00000000000E+00  0.91648185186E+03  0.91648185188E+03  0.50400001928E-02 0.  1.
        1   -1    0    0  501    0  0.00000000000E+00  0.00000000000E+00 -0.22984802685E+04  0.22984802685E+04  0.50400001928E-02 0. -1.
    10030    2    1    2    0    0  0.00000000000E+00  0.00000000000E+00 -0.13819984166E+04  0.32149621203E+04  0.29027679569E+04 0.  0.
        3    1    3    3  502    0 -0.61619798277E+03 -0.98416715998E+03  0.27341624818E+03  0.11929129925E+04  0.10100000352E+00 0.  1.
       -3    1    3    3    0  502  0.61619798277E+03  0.98416715998E+03 -0.16554146648E+04  0.20220491278E+04  0.10100000352E+00 0. -1.
</event>
<event>
 5   0  0.8357118E-07  0.2898860E+04  0.7818609E-02  0.8273217E-01
       -1   -1    0    0    0  501  0.00000000000E+00  0.00000000000E+00  0.15573354383E+04  0.15573354383E+04  0.50400001928E-02 0.  1.
        1   -1    0    0  501    0  0.00000000000E+00  0.00000000000E+00 -0.13490010914E+04  0.13490010914E+04  0.50400001928E-02 0. -1.
    10030    2    1    2    0    0  0.00000000000E+00  0.00000000000E+00  0.20833434692E+03  0.29063365298E+04  0.28988599180E+04 0.  0.
        1    1    3    3  502    0 -0.12838816386E+04  0.29566987876E+03 -0.50160511332E+03  0.14097448098E+04  0.50400001928E-02 0. -1.
       -1    1    3    3    0  502  0.12838816386E+04 -0.29566987876E+03  0.70993946024E+03  0.14965917200E+04  0.50400001928E-02 0.  1.
</event>
<event>
 5   0  0.8355946E-07  0.2896533E+04  0.7818609E-02  0.8273910E-01
       -1   -1    0    0    0  501  0.00000000000E+00  0.00000000000E+00  0.19780752943E+04  0.19780752943E+04  0.50400001928E-02 0. -1.
        1   -1    0    0  501    0  0.00000000000E+00  0.00000000000E+00 -0.10603616343E+04  0.10603616343E+04  0.50400001928E-02 0.  1.
    10030    2    1    2    0    0  0.00000000000E+00  0.00000000000E+00  0.91771366000E+03  0.30384369286E+04  0.28965325145E+04 0.  0.
        4    1    3    3  502    0 -0.70133789062E+03  0.64396945042E+03 -0.68589102668E+03  0.11734647857E+04  0.12699999809E+01 0.  1.
       -4    1    3    3    0  502  0.70133789062E+03 -0.64396945042E+03  0.16036046867E+04  0.18649721429E+04  0.12699999809E+01 0. -1.
</event>
<event>
 5   0  0.8355946E-07  0.2897270E+04  0.7818609E-02  0.8273690E-01
        1   -1    0    0  501    0  0.00000000000E+00  0.00000000000E+00  0.12978273506E+04  0.12978273506E+04  0.50400001928E-02 0. -1.
       -1   -1    0    0    0  501  0.00000000000E+00  0.00000000000E+00 -0.16169667815E+04  0.16169667815E+04  0.50400001928E-02 0.  1.
    10030    2    1    2    0    0  0.00000000000E+00  0.00000000000E+00 -0.31913943087E+03  0.29147941321E+04  0.28972702422E+04 0.  0.
        4    1    3    3  502    0 -0.74474531226E+03  0.12049169487E+04  0.14569870951E+03  0.14239733706E+04  0.12699999809E+01 0.  1.
       -4    1    3    3    0  502  0.74474531226E+03 -0.12049169487E+04 -0.46483814037E+03  0.14908207615E+04  0.12699999809E+01 0. -1.
</event>
<event>
 5   0  0.8947674E-07  0.2896124E+04  0.7818609E-02  0.8274032E-01
        1   -1    0    0  501    0  0.00000000000E+00  0.00000000000E+00  0.21481239928E+04  0.21481239928E+04  0.50400001928E-02 0. -1.
       -1   -1    0    0    0  501  0.00000000000E+00  0.00000000000E+00 -0.97614615751E+03  0.97614615753E+03  0.50400001928E-02 0.  1.
    10030    2    1    2    0    0  0.00000000000E+00  0.00000000000E+00  0.11719778353E+04  0.31242701503E+04  0.28961236033E+04 0.  0.
        3    1    3    3  502    0  0.42714071488E+03  0.82393564997E+03  0.17851128720E+04  0.20119510733E+04  0.10100000352E+00 0. -1.
       -3    1    3    3    0  502 -0.42714071488E+03 -0.82393564997E+03 -0.61313503670E+03  0.11123190770E+04  0.10100000352E+00 0.  1.
</event>
<event>
 5   0  0.2425845E-06  0.2875872E+04  0.7818609E-02  0.8280093E-01
       -2   -1    0    0    0  501  0.00000000000E+00  0.00000000000E+00  0.91132343136E+03  0.91132343136E+03  0.25500000920E-02 0. -1.
        2   -1    0    0  501    0  0.00000000000E+00  0.00000000000E+00 -0.22688534991E+04  0.22688534991E+04  0.25500000920E-02 0.  1.
    10030    2    1    2    0    0  0.00000000000E+00  0.00000000000E+00 -0.13575300677E+04  0.31801769304E+04  0.28758715938E+04 0.  0.
        2    1    3    3  502    0 -0.25120764861E+03  0.87860294825E+03  0.54894215644E+03  0.10660140311E+04  0.25500000920E-02 0. -1.
       -2    1    3    3    0  502  0.25120764861E+03 -0.87860294825E+03 -0.19064722241E+04  0.21141628993E+04  0.25500000920E-02 0.  1.
</event>
<event>
 5   0  0.7621125E-07  0.2884101E+04  0.7818609E-02  0.8277624E-01
       -3   -1    0    0    0  501  0.00000000000E+00  0.00000000000E+00  0.15736720083E+04  0.15736720115E+04  0.10100000352E+00 0.  1.
        3   -1    0    0  501    0  0.00000000000E+00  0.00000000000E+00 -0.13214375840E+04  0.13214375879E+04  0.10100000352E+00 0. -1.
    10030    2    1    2    0    0  0.00000000000E+00  0.00000000000E+00  0.25223442427E+03  0.28951095994E+04  0.28841007936E+04 0.  0.
        2    1    3    3  502    0 -0.13245131660E+04  0.17045132359E+03  0.67236395564E+03  0.14951461699E+04  0.25500000920E-02 0.  1.
       -2    1    3    3    0  502  0.13245131660E+04 -0.17045132359E+03 -0.42012953137E+03  0.13999634294E+04  0.25500000920E-02 0. -1.
</event>
<event>
 5   0  0.2304435E-06  0.2922475E+04  0.7818609E-02  0.8266222E-01
       -2   -1    0    0    0  501  0.00000000000E+00  0.00000000000E+00  0.96113731157E+03  0.96113731157E+03  0.25500000920E-02 0.  1.
        2   -1    0    0  501    0  0.00000000000E+00  0.00000000000E+00 -0.22215505786E+04  0.22215505786E+04  0.25500000920E-02 0. -1.
    10030    2    1    2    0    0  0.00000000000E+00  0.00000000000E+00 -0.12604132670E+04  0.31826878902E+04  0.29224750816E+04 0.  0.
        1    1    3    3  502    0  0.10599224510E+04  0.74570162114E+03  0.10496182602E+03  0.13002013286E+04  0.50400001928E-02 0.  1.
       -1    1    3    3    0  502 -0.10599224510E+04 -0.74570162114E+03 -0.13653750930E+04  0.18824865616E+04  0.50400001928E-02 0. -1.
</event>
<event>
 5   0  0.8947674E-07  0.2911343E+04  0.7818609E-02  0.8269510E-01
       -1   -1    0    0    0  501  0.00000000000E+00  0.00000000000E+00  0.11217048911E+04  0.11217048911E+04  0.50400001928E-02 0.  1.
        1   -1    0    0  501    0  0.00000000000E+00  0.00000000000E+00 -0.18890709219E+04  0.18890709219E+04  0.50400001928E-02 0. -1.
    10030    2    1    2    0    0  0.00000000000E+00  0.00000000000E+00 -0.76736603086E+03  0.30107758130E+04  0.29113433962E+04 0.  0.
        3    1    3    3  502    0  0.34591579089E+03 -0.12517018773E+04 -0.10638421758E+04  0.16787422403E+04  0.10100000352E+00 0. -1.
       -3    1    3    3    0  502 -0.34591579089E+03  0.12517018773E+04  0.29647614497E+03  0.13320335727E+04  0.10100000352E+00 0.  1.
</event>
<event>
 5   0  0.2304435E-06  0.2895390E+04  0.7818609E-02  0.8274250E-01
        2   -1    0    0  501    0  0.00000000000E+00  0.00000000000E+00  0.16554593192E+04  0.16554593192E+04  0.25500000920E-02 0.  1.
       -2   -1    0    0    0  501  0.00000000000E+00  0.00000000000E+00 -0.12660059485E+04  0.12660059485E+04  0.25500000920E-02 0. -1.
    10030    2    1    2    0    0  0.00000000000E+00  0.00000000000E+00  0.38945337068E+03  0.29214652678E+04  0.28953903679E+04 0.  0.
        1    1    3    3  502    0 -0.14296383306E+04  0.19816195116E+03  0.30837956449E+03  0.14758834205E+04  0.50400001928E-02 0.  1.
       -1    1    3    3    0  502  0.14296383306E+04 -0.19816195116E+03  0.81073806191E+02  0.14455818473E+04  0.50400001928E-02 0. -1.
</event>
<event>
 5   0  0.8357118E-07  0.2895981E+04  0.7818609E-02  0.8274074E-01
       -1   -1    0    0    0  501  0.00000000000E+00  0.00000000000E+00  0.10175893055E+04  0.10175893055E+04  0.50400001928E-02 0. -1.
        1   -1    0    0  501    0  0.00000000000E+00  0.00000000000E+00 -0.20604343528E+04  0.20604343528E+04  0.50400001928E-02 0.  1.
    10030    2    1    2    0    0  0.00000000000E+00  0.00000000000E+00 -0.10428450473E+04  0.30780236583E+04  0.28959806367E+04 0.  0.
        1    1    3    3  502    0  0.76042815292E+01 -0.69548666589E+03 -0.18712623368E+04  0.19963422204E+04  0.50400001928E-02 0.  1.
       -1    1    3    3    0  502 -0.76042815292E+01  0.69548666589E+03  0.82841728954E+03  0.10816814379E+04  0.50400001928E-02 0. -1.
</event>
<event>
 5   0  0.2325590E-06  0.2881337E+04  0.7818609E-02  0.8278452E-01
       -2   -1    0    0    0  501  0.00000000000E+00  0.00000000000E+00  0.11085670245E+04  0.11085670245E+04  0.25500000920E-02 0. -1.
        2   -1    0    0  501    0  0.00000000000E+00  0.00000000000E+00 -0.18722599788E+04  0.18722599788E+04  0.25500000920E-02 0.  1.
    10030    2    1    2    0    0  0.00000000000E+00  0.00000000000E+00 -0.76369295428E+03  0.29808270033E+04  0.28813369631E+04 0.  0.
        5    1    3    3  502    0  0.78168900543E+03 -0.12068481769E+04 -0.47428129489E+03  0.15140954594E+04  0.46999998093E+01 0. -1.
       -5    1    3    3    0  502 -0.78168900543E+03  0.12068481769E+04 -0.28941165939E+03  0.14667315439E+04  0.46999998093E+01 0.  1.
</event>
<event>
 5   0  0.8483636E-07  0.2901077E+04  0.7818609E-02  0.8272557E-01
       -1   -1    0    0    0  501  0.00000000000E+00  0.00000000000E+00  0.76179619084E+03  0.76179619085E+03  0.50400001928E-02 0. -1.
        1   -1    0    0  501    0  0.00000000000E+00  0.00000000000E+00 -0.27619753837E+04  0.27619753837E+04  0.50400001928E-02 0.  1.
    10030    2    1    2    0    0  0.00000000000E+00  0.00000000000E+00 -0.20001791929E+04  0.35237715746E+04  0.29010772665E+04 0.  0.
        2    1    3    3  502    0  0.80546892960E+03  0.75493367766E+03 -0.21429882775E+04  0.24106231169E+04  0.25500000920E-02 0.  1.
       -2    1    3    3    0  502 -0.80546892960E+03 -0.75493367766E+03  0.14280908460E+03  0.11131484577E+04  0.25500000920E-02 0. -1.
</event>
<event>
 5   0  0.2378690E-06  0.2904999E+04  0.7818609E-02  0.8271392E-01
        2   -1    0    0  501    0  0.00000000000E+00  0.00000000000E+00  0.17999023995E+04  0.17999023995E+04  0.25500000920E-02 0. -1.
       -2   -1    0    0    0  501  0.00000000000E+00  0.00000000000E+00 -0.11721492055E+04  0.11721492055E+04  0.25500000920E-02 0.  1.
    10030    2    1    2    0    0  0.00000000000E+00  0.00000000000E+00  0.62775319395E+03  0.29720516050E+04  0.29049985663E+04 0.  0.
        3    1    3    3  502    0  0.10558561604E+04  0.56716346653E+03 -0.52557915132E+03  0.13087169609E+04  0.10100000352E+00 0.  1.
       -3    1    3    3    0  502 -0.10558561604E+04 -0.56716346653E+03  0.11533323453E+04  0.16633346441E+04  0.10100000352E+00 0. -1.
</event>
<event>
 5   0  0.2425845E-06  0.2901210E+04  0.7818609E-02  0.8272518E-01
        2   -1    0    0  501    0  0.00000000000E+00  0.00000000000E+00  0.19718382438E+04  0.19718382438E+04  0.25500000920E-02 0.  1.
       -2   -1    0    0    0  501  0.00000000000E+00  0.00000000000E+00 -0.10671538126E+04  0.10671538126E+04  0.25500000920E-02 0. -1.
    10030    2    1    2    0    0  0.00000000000E+00  0.00000000000E+00  0.90468443118E+03  0.30389920564E+04  0.29012098854E+04 0.  0.
        2    1    3    3  502    0  0.11016959138E+04 -0.88958088493E+03  0.78220495749E+03  0.16176936153E+04  0.25500000920E-02 0. -1.
       -2    1    3    3    0  502 -0.11016959138E+04  0.88958088493E+03  0.12247947370E+03  0.14212984412E+04  0.25500000920E-02 0.  1.
</event>
<event>
 5   0  0.8483636E-07  0.2897639E+04  0.7818609E-02  0.8273580E-01
        1   -1    0    0  501    0  0.00000000000E+00  0.00000000000E+00  0.13847248641E+04  0.13847248641E+04  0.50400001928E-02 0.  1.
       -1   -1    0    0    0  501  0.00000000000E+00  0.00000000000E+00 -0.15158811789E+04  0.15158811789E+04  0.50400001928E-02 0. -1.
    10030    2    1    2    0    0  0.00000000000E+00  0.00000000000E+00 -0.13115631475E+03  0.29006060430E+04  0.28976392870E+04 0.  0.
        2    1    3    3  502    0  0.28902460216E+03 -0.35173513162E+02 -0.14862937446E+04  0.15145433278E+04  0.25500000920E-02 0. -1.
       -2    1    3    3    0  502 -0.28902460216E+03  0.35173513162E+02  0.13551374298E+04  0.13860627152E+04  0.25500000920E-02 0.  1.
</event>
<event>
 5   0  0.7621125E-07  0.2897209E+04  0.7818609E-02  0.8273708E-01
       -4   -1    0    0    0  501  0.00000000000E+00  0.00000000000E+00  0.13400802537E+04  0.13400808555E+04  0.12699999809E+01 0. -1.
        4   -1    0    0  501    0  0.00000000000E+00  0.00000000000E+00 -0.15659160241E+04  0.15659165391E+04  0.12699999809E+01 0.  1.
    10030    2    1    2    0    0  0.00000000000E+00  0.00000000000E+00 -0.22583577041E+03  0.29059973946E+04  0.28972088399E+04 0.  0.
        3    1    3    3  502    0 -0.52749843308E+03 -0.10014053350E+04 -0.10197552756E+04  0.15234723739E+04  0.10100000352E+00 0.  1.
       -3    1    3    3    0  502  0.52749843308E+03  0.10014053350E+04  0.79391950521E+03  0.13825250207E+04  0.10100000352E+00 0. -1.
</event>
<event>
 5   0  0.2325590E-06  0.2875702E+04  0.7818609E-02  0.8280144E-01
        2   -1    0    0  501    0  0.00000000000E+00  0.00000000000E+00  0.14863497589E+04  0.14863497589E+04  0.25500000920E-02 0.  1.
       -2   -1    0    0    0  501  0.00000000000E+00  0.00000000000E+00 -0.13909347320E+04  0.13909347320E+04  0.25500000920E-02 0. -1.
    10030    2    1    2    0    0  0.00000000000E+00  0.00000000000E+00  0.95415026885E+02  0.28772844909E+04  0.28757020037E+04 0.  0.
        5    1    3    3  502    0 -0.23988181454E+03 -0.35261149570E+02  0.14657406741E+04  0.14856663310E+04  0.46999998093E+01 0.  1.
       -5    1    3    3    0  502  0.23988181454E+03  0.35261149570E+02 -0.13703256472E+04  0.13916181599E+04  0.46999998093E+01 0. -1.
</event>
<event>
 5   0  0.2378690E-06  0.2913178E+04  0.7818609E-02  0.8268967E-01
       -2   -1    0    0    0  501  0.00000000000E+00  0.00000000000E+00  0.10325366726E+04  0.10325366726E+04  0.25500000920E-02 0.  1.
        2   -1    0    0  501    0  0.00000000000E+00  0.00000000000E+00 -0.20547953627E+04  0.20547953627E+04  0.25500000920E-02 0. -1.
    10030    2    1    2    0    0  0.00000000000E+00  0.00000000000E+00 -0.10222586901E+04  0.30873320353E+04  0.29131780355E+04 0.  0.
        3    1    3    3  502    0 -0.11242811166E+04  0.72188716815E+03 -0.11259144395E+04  0.17472299357E+04  0.10100000352E+00 0. -1.
       -3    1    3    3    0  502  0.11242811166E+04 -0.72188716815E+03  0.10365574945E+03  0.13401020996E+04  0.10100000352E+00 0.  1.
</event>
<event>
 5   0  0.2304435E-06  0.2874220E+04  0.7818609E-02  0.8280589E-01
       -2   -1    0    0    0  501  0.00000000000E+00  0.00000000000E+00  0.98981010903E+03  0.98981010904E+03  0.25500000920E-02 0. -1.
        2   -1    0    0  501    0  0.00000000000E+00  0.00000000000E+00 -0.20865473785E+04  0.20865473785E+04  0.25500000920E-02 0.  1.
    10030    2    1    2    0    0  0.00000000000E+00  0.00000000000E+00 -0.10967372695E+04  0.30763574875E+04  0.28742203731E+04 0.  0.
        1    1    3    3  502    0  0.36986515213E+03  0.13045253042E+04 -0.10579830686E+04  0.17198589110E+04  0.50400001928E-02 0.  1.
       -1    1    3    3    0  502 -0.36986515213E+03 -0.13045253042E+04 -0.38754200823E+02  0.13564985766E+04  0.50400001928E-02 0. -1.
</event>
<event>
 5   0  0.8263673E-07  0.2946165E+04  0.7818609E-02  0.8259273E-01
       -1   -1    0    0    0  501  0.00000000000E+00  0.00000000000E+00  0.11162285404E+04  0.11162285404E+04  0.50400001928E-02 0. -1.
        1   -1    0    0  501    0  0.00000000000E+00  0.00000000000E+00 -0.19440214456E+04  0.19440214456E+04  0.50400001928E-02 0.  1.
    10030    2    1    2    0    0  0.00000000000E+00  0.00000000000E+00 -0.82779290514E+03  0.30602499860E+04  0.29461651147E+04 0.  0.
        5    1    3    3  502    0  0.33542847088E+03 -0.52678777217E+03 -0.17996997493E+04  0.19049826491E+04  0.46999998093E+01 0.  1.
       -5    1    3    3    0  502 -0.33542847088E+03  0.52678777217E+03  0.97190684412E+03  0.11552673369E+04  0.46999998093E+01 0. -1.
</event>
<event>
 5   0  0.8357118E-07  0.2907903E+04  0.7818609E-02  0.8270530E-01
       -1   -1    0    0    0  501  0.00000000000E+00  0.00000000000E+00  0.17481808921E+04  0.17481808921E+04  0.50400001928E-02 0. -1.
        1   -1    0    0  501    0  0.00000000000E+00  0.00000000000E+00 -0.12092429295E+04  0.12092429295E+04  0.50400001928E-02 0.  1.
    10030    2    1    2    0    0  0.00000000000E+00  0.00000000000E+00  0.53893796261E+03  0.29574238216E+04  0.29079032881E+04 0.  0.
        1    1    3    3  502    0 -0.40340858947E+03 -0.40583331623E+03 -0.10899067743E+04  0.12309898242E+04  0.50400001928E-02 0.  1.
       -1    1    3    3    0  502  0.40340858947E+03  0.40583331623E+03  0.16288447369E+04  0.17264339974E+04  0.50400001928E-02 0. -1.
</event>
<event>
 5   0  0.2425845E-06  0.2924052E+04  0.7818609E-02  0.8265757E-01
        2   -1    0    0  501    0  0.00000000000E+00  0.00000000000E+00  0.18959578501E+04  0.18959578501E+04  0.25500000920E-02 0. -1.
       -2   -1    0    0    0  501  0.00000000000E+00  0.00000000000E+00 -0.11274088251E+04  0.11274088251E+04  0.25500000920E-02 0.  1.
    10030    2    1    2    0    0  0.00000000000E+00  0.00000000000E+00  0.76854902494E+03  0.30233666752E+04  0.29240517179E+04 0.  0.
        2    1    3    3  502    0  0.11232372719E+04 -0.85300850618E+03 -0.13814214065E+02  0.14104879698E+04  0.25500000920E-02 0.  1.
       -2    1    3    3    0  502 -0.11232372719E+04  0.85300850618E+03  0.78236323900E+03  0.16128787054E+04  0.25500000920E-02 0. -1.
</event>
<event>
 5   0  0.8483636E-07  0.2895441E+04  0.7818609E-02  0.8274235E-01
        1   -1    0    0  501    0  0.00000000000E+00  0.00000000000E+00  0.13623500360E+04  0.13623500360E+04  0.50400001928E-02 0. -1.
       -1   -1    0    0    0  501  0.00000000000E+00  0.00000000000E+00 -0.15384402075E+04  0.15384402075E+04  0.50400001928E-02 0.  1.
    10030    2    1    2    0    0  0.00000000000E+00  0.00000000000E+00 -0.17609017156E+03  0.29007902435E+04  0.28954406035E+04 0.  0.
        2    1    3    3  502    0 -0.82783154688E+03  0.11827061071E+04  0.20761589430E+02  0.14437900988E+04  0.25500000920E-02 0. -1.
       -2    1    3    3    0  502  0.82783154688E+03 -0.11827061071E+04 -0.19685176099E+03  0.14570001447E+04  0.25500000920E-02 0.  1.
</event>
<event>
 5   0  0.2378690E-06  0.2909531E+04  0.7818609E-02  0.8270047E-01
       -2   -1    0    0    0  501  0.00000000000E+00  0.00000000000E+00  0.10188685004E+04  0.10188685004E+04  0.25500000920E-02 0. -1.
        2   -1    0    0  501    0  0.00000000000E+00  0.00000000000E+00 -0.20771498796E+04  0.20771498796E+04  0.25500000920E-02 0.  1.
    10030    2    1    2    0    0  0.00000000000E+00  0.00000000000E+00 -0.10582813791E+04  0.30960183800E+04  0.29095309470E+04 0.  0.
        3    1    3    3  502    0 -0.71499144118E+03 -0.89613132085E+03 -0.14821320822E+04  0.18737608237E+04  0.10100000352E+00 0.  1.
       -3    1    3    3    0  502  0.71499144118E+03  0.89613132085E+03  0.42385070305E+03  0.12222575563E+04  0.10100000352E+00 0. -1.
</event>
<event>
 5   0  0.2325590E-06  0.2901450E+04  0.7818609E-02  0.8272446E-01
       -2   -1    0    0    0  501  0.00000000000E+00  0.00000000000E+00  0.93267669454E+03  0.93267669454E+03  0.25500000920E-02 0. -1.
        2   -1    0    0  501    0  0.00000000000E+00  0.00000000000E+00 -0.22565197425E+04  0.22565197425E+04  0.25500000920E-02 0.  1.
    10030    2    1    2    0    0  0.00000000000E+00  0.00000000000E+00 -0.13238430480E+04  0.31891964371E+04  0.29014502406E+04 0.  0.
        5    1    3    3  502    0  0.18331015310E+03 -0.11734825334E+04 -0.15775515738E+04  0.19746784362E+04  0.46999998093E+01 0.  1.
       -5    1    3    3    0  502 -0.18331015310E+03  0.11734825334E+04  0.25370852575E+03  0.12145180009E+04  0.46999998093E+01 0. -1.
</event>
<event>
 5   0  0.8263673E-07  0.2919231E+04  0.7818609E-02  0.8267179E-01
       -1   -1    0    0    0  501  0.00000000000E+00  0.00000000000E+00  0.95537883505E+03  0.95537883506E+03  0.50400001928E-02 0. -1.
        1   -1    0    0  501    0  0.00000000000E+00  0.00000000000E+00 -0.22299818530E+04  0.22299818530E+04  0.50400001928E-02 0.  1.
    10030    2    1    2    0    0  0.00000000000E+00  0.00000000000E+00 -0.12746030179E+04  0.31853606880E+04  0.29192310391E+04 0.  0.
        5    1    3    3  502    0  0.28758564752E+03 -0.12306205174E+04 -0.14341675319E+04  0.19115415146E+04  0.46999998093E+01 0.  1.
       -5    1    3    3    0  502 -0.28758564752E+03  0.12306205174E+04  0.15956451393E+03  0.12738191735E+04  0.46999998093E+01 0. -1.
</event>
<event>
 5   0  0.8263673E-07  0.2933669E+04  0.7818609E-02  0.8262930E-01
        1   -1    0    0  501    0  0.00000000000E+00  0.00000000000E+00  0.94009233319E+03  0.94009233320E+03  0.50400001928E-02 0.  1.
       -1   -1    0    0    0  501  0.00000000000E+00  0.00000000000E+00 -0.22887154230E+04  0.22887154230E+04  0.50400001928E-02 0. -1.
    10030    2    1    2    0    0  0.00000000000E+00  0.00000000000E+00 -0.13486230898E+04  0.32288077562E+04  0.29336692534E+04 0.  0.
        5    1    3    3  502    0 -0.45265845331E+03  0.10114208644E+04 -0.17321000318E+04  0.20562257781E+04  0.46999998093E+01 0. -1.
       -5    1    3    3    0  502  0.45265845331E+03 -0.10114208644E+04  0.38347694205E+03  0.11725819781E+04  0.46999998093E+01 0.  1.
</event>
<event>
 5   0  0.2304435E-06  0.2902328E+04  0.7818609E-02  0.8272185E-01
        2   -1    0    0  501    0  0.00000000000E+00  0.00000000000E+00  0.21919823630E+04  0.21919823630E+04  0.25500000920E-02 0. -1.
       -2   -1    0    0    0  501  0.00000000000E+00  0.00000000000E+00 -0.96071777209E+03  0.96071777209E+03  0.25500000920E-02 0.  1.
    10030    2    1    2    0    0  0.00000000000E+00  0.00000000000E+00  0.12312645909E+04  0.31527001351E+04  0.29023276261E+04 0.  0.
        1    1    3    3  502    0  0.54153798297E+03  0.50978676753E+02  0.20770596115E+04  0.21471001006E+04  0.50400001928E-02 0. -1.
       -1    1    3    3    0  502 -0.54153798297E+03 -0.50978676753E+02 -0.84579502056E+03  0.10056000345E+04  0.50400001928E-02 0.  1.
</event>
<event>
 5   0  0.2360103E-06  0.2895872E+04  0.7818609E-02  0.8274107E-01
       -2   -1    0    0    0  501  0.00000000000E+00  0.00000000000E+00  0.96474336569E+03  0.96474336570E+03  0.25500000920E-02 0. -1.
        2   -1    0    0  501    0  0.00000000000E+00  0.00000000000E+00 -0.21731367359E+04  0.21731367359E+04  0.25500000920E-02 0.  1.
    10030    2    1    2    0    0  0.00000000000E+00  0.00000000000E+00 -0.12083933702E+04  0.31378801016E+04  0.28958724065E+04 0.  0.
        4    1    3    3  502    0 -0.19314825552E+02  0.78134294742E+03 -0.19249291410E+04  0.20775523278E+04  0.12699999809E+01 0.  1.
       -4    1    3    3    0  502  0.19314825552E+02 -0.78134294742E+03  0.71653577085E+03  0.10603277737E+04  0.12699999809E+01 0. -1.
</event>
<event>
 5   0  0.8483636E-07  0.2901884E+04  0.7818609E-02  0.8272317E-01
        1   -1    0    0  501    0  0.00000000000E+00  0.00000000000E+00  0.25620421871E+04  0.25620421872E+04  0.50400001928E-02 0. -1.
       -1   -1    0    0    0  501  0.00000000000E+00  0.00000000000E+00 -0.82170105956E+03  0.82170105957E+03  0.50400001928E-02 0.  1.
    10030    2    1    2    0    0  0.00000000000E+00  0.00000000000E+00  0.17403411276E+04  0.33837432467E+04  0.29018840637E+04 0.  0.
        2    1    3    3  502    0 -0.12961584548E+02 -0.14474219760E+04  0.98697600138E+03  0.17519474897E+04  0.25500000920E-02 0.  1.
       -2    1    3    3    0  502  0.12961584548E+02  0.14474219760E+04  0.75336512621E+03  0.16317957570E+04  0.25500000920E-02 0. -1.
</event>
<event>
 5   0  0.8355946E-07  0.2898763E+04  0.7818609E-02  0.8273246E-01
       -1   -1    0    0    0  501  0.00000000000E+00  0.00000000000E+00  0.12698104348E+04  0.12698104348E+04  0.50400001928E-02 0.  1.
        1   -1    0    0  501    0  0.00000000000E+00  0.00000000000E+00 -0.16543468868E+04  0.16543468868E+04  0.50400001928E-02 0. -1.
    10030    2    1    2    0    0  0.00000000000E+00  0.00000000000E+00 -0.38453645197E+03  0.29241573216E+04  0.28987631428E+04 0.  0.
        4    1    3    3  502    0 -0.15896866458E+03 -0.11468863642E+04 -0.10717348412E+04  0.15777314573E+04  0.12699999809E+01 0. -1.
       -4    1    3    3    0  502  0.15896866458E+03  0.11468863642E+04  0.68719838920E+03  0.13464258642E+04  0.12699999809E+01 0.  1.
</event>
<event>
 5   0  0.2325590E-06  0.2899885E+04  0.7818609E-02  0.8272912E-01
       -2   -1    0    0    0  501  0.00000000000E+00  0.00000000000E+00  0.16133134735E+04  0.16133134735E+04  0.25500000920E-02 0.  1.
        2   -1    0    0  501    0  0.00000000000E+00  0.00000000000E+00 -0.13031149230E+04  0.13031149230E+04  0.25500000920E-02 0. -1.
    10030    2    1    2    0    0  0.00000000000E+00  0.00000000000E+00  0.31019855053E+03  0.29164283965E+04  0.28998847307E+04 0.  0.
        5    1    3    3  502    0  0.11731175815E+03  0.10808080842E+03 -0.12942563264E+04  0.13040571453E+04  0.46999998093E+01 0. -1.
       -5    1    3    3    0  502 -0.11731175815E+03 -0.10808080842E+03  0.16044548769E+04  0.16123712512E+04  0.46999998093E+01 0.  1.
</event>
<event>
 5   0  0.8357118E-07  0.2903220E+04  0.7818609E-02  0.8271920E-01
        1   -1    0    0  501    0  0.00000000000E+00  0.00000000000E+00  0.13626417193E+04  0.13626417193E+04  0.50400001928E-02 0. -1.
       -1   -1    0    0    0  501  0.00000000000E+00  0.00000000000E+00 -0.15463866883E+04  0.15463866883E+04  0.50400001928E-02 0.  1.
    10030    2    1    2    0    0  0.00000000000E+00  0.00000000000E+00 -0.18374496896E+03  0.29090284076E+04  0.29032196029E+04 0.  0.
        1    1    3    3  502    0  0.61961860052E+03 -0.12119682966E+02 -0.14071667528E+04  0.15375930434E+04  0.50400001928E-02 0.  1.
       -1    1    3    3    0  502 -0.61961860052E+03  0.12119682966E+02  0.12234217839E+04  0.13714353642E+04  0.50400001928E-02 0. -1.
</event>
<event>
 5   0  0.2325590E-06  0.2938630E+04  0.7818609E-02  0.8261476E-01
       -2   -1    0    0    0  501  0.00000000000E+00  0.00000000000E+00  0.15452319271E+04  0.15452319271E+04  0.25500000920E-02 0.  1.
        2   -1    0    0  501    0  0.00000000000E+00  0.00000000000E+00 -0.13971275353E+04  0.13971275353E+04  0.25500000920E-02 0. -1.
    10030    2    1    2    0    0  0.00000000000E+00  0.00000000000E+00  0.14810439177E+03  0.29423594624E+04  0.29386296628E+04 0.  0.
        5    1    3    3  502    0  0.87140413847E+03  0.45050912335E+03  0.11693145806E+04  0.15263100344E+04  0.46999998093E+01 0.  1.
       -5    1    3    3    0  502 -0.87140413847E+03 -0.45050912335E+03 -0.10212101888E+04  0.14160494280E+04  0.46999998093E+01 0. -1.
</event>
<event>
 5   0  0.8483636E-07  0.2898890E+04  0.7818609E-02  0.8273208E-01
       -1   -1    0    0    0  501  0.00000000000E+00  0.00000000000E+00  0.89721242423E+03  0.89721242425E+03  0.50400001928E-02 0. -1.
        1   -1    0    0  501    0  0.00000000000E+00  0.00000000000E+00 -0.23415762796E+04  0.23415762796E+04  0.50400001928E-02 0.  1.
    10030    2    1    2    0    0  0.00000000000E+00  0.00000000000E+00 -0.14443638553E+04  0.32387887038E+04  0.28988903604E+04 0.  0.
        2    1    3    3  502    0 -0.12358342639E+04 -0.57907144252E+02  0.12151048775E+03  0.12431429378E+04  0.25500000920E-02 0. -1.
       -2    1    3    3    0  502  0.12358342639E+04  0.57907144252E+02 -0.15658743431E+04  0.19956457660E+04  0.25500000920E-02 0.  1.
</event>
<event>
 5   0  0.2304435E-06  0.2899564E+04  0.7818609E-02  0.8273007E-01
        2   -1    0    0  501    0  0.00000000000E+00  0.00000000000E+00  0.17948392322E+04  0.17948392322E+04  0.25500000920E-02 0. -1.
       -2   -1    0    0    0  501  0.00000000000E+00  0.00000000000E+00 -0.11710621014E+04  0.11710621014E+04  0.25500000920E-02 0.  1.
    10030    2    1    2    0    0  0.00000000000E+00  0.00000000000E+00  0.62377713081E+03  0.29659013336E+04  0.28995642452E+04 0.  0.
        1    1    3    3  502    0  0.96366030285E+03  0.10325790432E+04 -0.22715458966E+02  0.14125780162E+04  0.50400001928E-02 0. -1.
       -1    1    3    3    0  502 -0.96366030285E+03 -0.10325790432E+04  0.64649258978E+03  0.15533233174E+04  0.50400001928E-02 0.  1.
</event>
<event>
 5   0  0.2425845E-06  0.2849796E+04  0.7818609E-02  0.8287973E-01
       -2   -1    0    0    0  501  0.00000000000E+00  0.00000000000E+00  0.13636944381E+04  0.13636944381E+04  0.25500000920E-02 0.  1.
        2   -1    0    0  501    0  0.00000000000E+00  0.00000000000E+00 -0.14888478986E+04  0.14888478986E+04  0.25500000920E-02 0. -1.
    10030    2    1    2    0    0  0.00000000000E+00  0.00000000000E+00 -0.12515346052E+03  0.28525423366E+04  0.28497955003E+04 0.  0.
        2    1    3    3  502    0 -0.88942311341E+03 -0.90763801469E+03 -0.70775471440E+03  0.14545779375E+04  0.25500000920E-02 0. -1.
       -2    1    3    3    0  502  0.88942311341E+03  0.90763801469E+03  0.58260125388E+03  0.13979643992E+04  0.25500000920E-02 0.  1.
</event>
<event>
 5   0  0.7621125E-07  0.2898914E+04  0.7818609E-02  0.8273201E-01
        3   -1    0    0  501    0  0.00000000000E+00  0.00000000000E+00  0.21098731092E+04  0.21098731116E+04  0.10100000352E+00 0.  1.
       -3   -1    0    0    0  501  0.00000000000E+00  0.00000000000E+00 -0.99575940194E+03  0.99575940706E+03  0.10100000352E+00 0. -1.
    10030    2    1    2    0    0  0.00000000000E+00  0.00000000000E+00  0.11141137072E+04  0.31056325187E+04  0.28989142775E+04 0.  0.
        5    1    3    3  502    0  0.74294529753E+03  0.54930050807E+03  0.17534767838E+04  0.19820195974E+04  0.46999998093E+01 0.  1.
       -5    1    3    3    0  502 -0.74294529753E+03 -0.54930050807E+03 -0.63936307650E+03  0.11236129213E+04  0.46999998093E+01 0. -1.
</event>
<event>
 5   0  0.8355946E-07  0.2896193E+04  0.7818609E-02  0.8274011E-01
       -1   -1    0    0    0  501  0.00000000000E+00  0.00000000000E+00  0.11212953460E+04  0.11212953460E+04  0.50400001928E-02 0.  1.
        1   -1    0    0  501    0  0.00000000000E+00  0.00000000000E+00 -0.18701432711E+04  0.18701432711E+04  0.50400001928E-02 0. -1.
    10030    2    1    2    0    0  0.00000000000E+00  0.00000000000E+00 -0.74884792507E+03  0.29914386171E+04  0.28961926361E+04 0.  0.
        4    1    3    3  502    0 -0.13513115167E+04  0.12344151059E+03  0.14787434581E+03  0.13649721817E+04  0.12699999809E+01 0.  1.
       -4    1    3    3    0  502  0.13513115167E+04 -0.12344151059E+03 -0.89672227088E+03  0.16264664355E+04  0.12699999809E+01 0. -1.
</event>
<event>
 5   0  0.2360103E-06  0.2857414E+04  0.7818609E-02  0.8285662E-01
       -2   -1    0    0    0  501  0.00000000000E+00  0.00000000000E+00  0.10354488596E+04  0.10354488596E+04  0.25500000920E-02 0. -1.
        2   -1    0    0  501    0  0.00000000000E+00  0.00000000000E+00 -0.19713229320E+04  0.19713229320E+04  0.25500000920E-02 0.  1.
    10030    2    1    2    0    0  0.00000000000E+00  0.00000000000E+00 -0.93587407243E+03  0.30067717916E+04  0.28574142730E+04 0.  0.
        4    1    3    3  502    0 -0.56123974397E+02  0.96568141025E+03 -0.15743289284E+04  0.18477563894E+04  0.12699999809E+01 0.  1.
       -4    1    3    3    0  502  0.56123974397E+02 -0.96568141025E+03  0.63845485602E+03  0.11590154023E+04  0.12699999809E+01 0. -1.
</event>
<event>
 5   0  0.2325590E-06  0.2910064E+04  0.7818609E-02  0.8269889E-01
       -2   -1    0    0    0  501  0.00000000000E+00  0.00000000000E+00  0.16231251680E+04  0.16231251680E+04  0.25500000920E-02 0.  1.
        2   -1    0    0  501    0  0.00000000000E+00  0.00000000000E+00 -0.13043471690E+04  0.13043471690E+04  0.25500000920E-02 0. -1.
    10030    2    1    2    0    0  0.00000000000E+00  0.00000000000E+00  0.31877799900E+03  0.29274723369E+04  0.29100644101E+04 0.  0.
        5    1    3    3  502    0  0.36494475441E+03 -0.13866288895E+04  0.40819882145E+03  0.14908295405E+04  0.46999998093E+01 0.  1.
       -5    1    3    3    0  502 -0.36494475441E+03  0.13866288895E+04 -0.89420822455E+02  0.14366427964E+04  0.46999998093E+01 0. -1.
</event>
<event>
 5   0  0.8357118E-07  0.2894751E+04  0.7818609E-02  0.8274441E-01
       -1   -1    0    0    0  501  0.00000000000E+00  0.00000000000E+00  0.10700540784E+04  0.10700540784E+04  0.50400001928E-02 0. -1.
        1   -1    0    0  501    0  0.00000000000E+00  0.00000000000E+00 -0.19577478073E+04  0.19577478073E+04  0.50400001928E-02 0.  1.
    10030    2    1    2    0    0  0.00000000000E+00  0.00000000000E+00 -0.88769372892E+03  0.30278018856E+04  0.28947511296E+04 0.  0.
        1    1    3    3  502    0 -0.10742428299E+04  0.91566958046E+03 -0.10906101704E+03  0.14157481216E+04  0.50400001928E-02 0. -1.
       -1    1    3    3    0  502  0.10742428299E+04 -0.91566958046E+03 -0.77863271188E+03  0.16120537641E+04  0.50400001928E-02 0.  1.
</event>
<event>
 5   0  0.2360103E-06  0.2900911E+04  0.7818609E-02  0.8272607E-01
        2   -1    0    0  501    0  0.00000000000E+00  0.00000000000E+00  0.19236571105E+04  0.19236571105E+04  0.25500000920E-02 0. -1.
       -2   -1    0    0    0  501  0.00000000000E+00  0.00000000000E+00 -0.10936567457E+04  0.10936567457E+04  0.25500000920E-02 0.  1.
    10030    2    1    2    0    0  0.00000000000E+00  0.00000000000E+00  0.83000036482E+03  0.30173138562E+04  0.29009105986E+04 0.  0.
        4    1    3    3  502    0 -0.13266065392E+03 -0.91186135304E+03 -0.75009419890E+03  0.11881636657E+04  0.12699999809E+01 0.  1.
       -4    1    3    3    0  502  0.13266065392E+03  0.91186135304E+03  0.15800945637E+04  0.18291501905E+04  0.12699999809E+01 0. -1.
</event>
<event>
 5   0  0.8947674E-07  0.2870346E+04  0.7818609E-02  0.8281755E-01
       -1   -1    0    0    0  501  0.00000000000E+00  0.00000000000E+00  0.22336566017E+04  0.22336566017E+04  0.50400001928E-02 0. -1.
        1   -1    0    0  501    0  0.00000000000E+00  0.00000000000E+00 -0.92212987007E+03  0.92212987008E+03  0.50400001928E-02 0.  1.
    10030    2    1    2    0    0  0.00000000000E+00  0.00000000000E+00  0.13115267317E+04  0.31557864718E+04  0.28703459526E+04 0.  0.
        3    1    3    3  502    0 -0.38770962500E+03 -0.58283540937E+03  0.20332343812E+04  0.21503622781E+04  0.10100000352E+00 0. -1.
       -3    1    3    3    0  502  0.38770962500E+03  0.58283540937E+03 -0.72170764957E+03  0.10054241937E+04  0.10100000352E+00 0.  1.
</event>
<event>
 5   0  0.8483636E-07  0.2886435E+04  0.7818609E-02  0.8276925E-01
       -1   -1    0    0    0  501  0.00000000000E+00  0.00000000000E+00  0.10976762706E+04  0.10976762706E+04  0.50400001928E-02 0.  1.
        1   -1    0    0  501    0  0.00000000000E+00  0.00000000000E+00 -0.18975327270E+04  0.18975327270E+04  0.50400001928E-02 0. -1.
    10030    2    1    2    0    0  0.00000000000E+00  0.00000000000E+00 -0.79985645641E+03  0.29952089976E+04  0.28864349271E+04 0.  0.
        2    1    3    3  502    0 -0.14516115225E+03 -0.10358424264E+04  0.63194739641E+03  0.12220469730E+04  0.25500000920E-02 0. -1.
       -2    1    3    3    0  502  0.14516115225E+03  0.10358424264E+04 -0.14318038528E+04  0.17731620246E+04  0.25500000920E-02 0.  1.
</event>
<event>
 5   0  0.8483636E-07  0.2913223E+04  0.7818609E-02  0.8268954E-01
        1   -1    0    0  501    0  0.00000000000E+00  0.00000000000E+00  0.23466077433E+04  0.23466077433E+04  0.50400001928E-02 0. -1.
       -1   -1    0    0    0  501  0.00000000000E+00  0.00000000000E+00 -0.90416338772E+03  0.90416338773E+03  0.50400001928E-02 0.  1.
    10030    2    1    2    0    0  0.00000000000E+00  0.00000000000E+00  0.14424443555E+04  0.32507711310E+04  0.29132228249E+04 0.  0.
        2    1    3    3  502    0  0.50425851038E+03 -0.62894765148E+03  0.20749977750E+04  0.22260879497E+04  0.25500000920E-02 0. -1.
       -2    1    3    3    0  502 -0.50425851038E+03  0.62894765148E+03 -0.63255341944E+03  0.10246831813E+04  0.25500000920E-02 0.  1.
</event>
<event>
 5   0  0.8357118E-07  0.2902416E+04  0.7818609E-02  0.8272159E-01
        1   -1    0    0  501    0  0.00000000000E+00  0.00000000000E+00  0.13892132446E+04  0.13892132446E+04  0.50400001928E-02 0. -1.
       -1   -1    0    0    0  501  0.00000000000E+00  0.00000000000E+00 -0.15159688243E+04  0.15159688243E+04  0.50400001928E-02 0.  1.
    10030    2    1    2    0    0  0.00000000000E+00  0.00000000000E+00 -0.12675557970E+03  0.29051820689E+04  0.29024155244E+04 0.  0.
        1    1    3    3  502    0 -0.10009806730E+04  0.10216172772E+04 -0.30925354152E+03  0.14633188039E+04  0.50400001928E-02 0.  1.
       -1    1    3    3    0  502  0.10009806730E+04 -0.10216172772E+04  0.18249796182E+03  0.14418632650E+04  0.50400001928E-02 0. -1.
</event>
<event>
 5   0  0.8263673E-07  0.2902463E+04  0.7818609E-02  0.8272145E-01
       -1   -1    0    0    0  501  0.00000000000E+00  0.00000000000E+00  0.11956202732E+04  0.11956202733E+04  0.50400001928E-02 0. -1.
        1   -1    0    0  501    0  0.00000000000E+00  0.00000000000E+00 -0.17614893250E+04  0.17614893250E+04  0.50400001928E-02 0.  1.
    10030    2    1    2    0    0  0.00000000000E+00  0.00000000000E+00 -0.56586905176E+03  0.29571095983E+04  0.29024626427E+04 0.  0.
        5    1    3    3  502    0 -0.24183172710E+03  0.12698042717E+04 -0.95502486739E+03  0.16071652248E+04  0.46999998093E+01 0.  1.
       -5    1    3    3    0  502  0.24183172710E+03 -0.12698042717E+04  0.38915581563E+03  0.13499443734E+04  0.46999998093E+01 0. -1.
</event>
<event>
 5   0  0.8483636E-07  0.2895886E+04  0.7818609E-02  0.8274103E-01
        1   -1    0    0  501    0  0.00000000000E+00  0.00000000000E+00  0.17817568115E+04  0.17817568116E+04  0.50400001928E-02 0.  1.
       -1   -1    0    0    0  501  0.00000000000E+00  0.00000000000E+00 -0.11766693281E+04  0.11766693281E+04  0.50400001928E-02 0. -1.
    10030    2    1    2    0    0  0.00000000000E+00  0.00000000000E+00  0.60508748346E+03  0.29584261397E+04  0.28958857645E+04 0.  0.
        2    1    3    3  502    0 -0.35223152536E+03 -0.13867744648E+04  0.75647858385E+02  0.14328060099E+04  0.25500000920E-02 0. -1.
       -2    1    3    3    0  502  0.35223152536E+03  0.13867744648E+04  0.52943962507E+03  0.15256201297E+04  0.25500000920E-02 0.  1.
</event>
<event>
 5   0  0.2360103E-06  0.2911589E+04  0.7818609E-02  0.8269438E-01
       -2   -1    0    0    0  501  0.00000000000E+00  0.00000000000E+00  0.16267100369E+04  0.16267100369E+04  0.25500000920E-02 0.  1.
        2   -1    0    0  501    0  0.00000000000E+00  0.00000000000E+00 -0.13028368799E+04  0.13028368799E+04  0.25500000920E-02 0. -1.
    10030    2    1    2    0    0  0.00000000000E+00  0.00000000000E+00  0.32387315699E+03  0.29295469167E+04  0.29115891392E+04 0.  0.
        4    1    3    3  502    0  0.73089301014E+03  0.86738418051E+03  0.10801307832E+04  0.15662835090E+04  0.12699999809E+01 0.  1.
       -4    1    3    3    0  502 -0.73089301014E+03 -0.86738418051E+03 -0.75625762618E+03  0.13632634078E+04  0.12699999809E+01 0. -1.
</event>
<event>
 5   0  0.2360103E-06  0.2900253E+04  0.7818609E-02  0.8272802E-01
        2   -1    0    0  501    0  0.00000000000E+00  0.00000000000E+00  0.20621820253E+04  0.20621820253E+04  0.25500000920E-02 0.  1.
       -2   -1    0    0    0  501  0.00000000000E+00  0.00000000000E+00 -0.10197289577E+04  0.10197289577E+04  0.25500000920E-02 0. -1.
    10030    2    1    2    0    0  0.00000000000E+00  0.00000000000E+00  0.10424530676E+04  0.30819109831E+04  0.29002529044E+04 0.  0.
        4    1    3    3  502    0 -0.47292583149E+03 -0.10671831955E+04 -0.39308839097E+03  0.12316894539E+04  0.12699999809E+01 0. -1.
       -4    1    3    3    0  502  0.47292583149E+03  0.10671831955E+04  0.14355414586E+04  0.18502215292E+04  0.12699999809E+01 0.  1.
</event>
<event>
 5   0  0.2304435E-06  0.2898460E+04  0.7818609E-02  0.8273336E-01
        2   -1    0    0  501    0  0.00000000000E+00  0.00000000000E+00  0.22702541324E+04  0.22702541324E+04  0.25500000920E-02 0. -1.
       -2   -1    0    0    0  501  0.00000000000E+00  0.00000000000E+00 -0.92512423752E+03  0.92512423752E+03  0.25500000920E-02 0.  1.
    10030    2    1    2    0    0  0.00000000000E+00  0.00000000000E+00  0.13451298949E+04  0.31953783700E+04  0.28984596759E+04 0.  0.
        1    1    3    3  502    0 -0.59328398696E+03 -0.17162859045E+03 -0.77277778033E+03  0.98925616502E+03  0.50400001928E-02 0.  1.
       -1    1    3    3    0  502  0.59328398696E+03  0.17162859045E+03  0.21179076752E+04  0.22061222049E+04  0.50400001928E-02 0. -1.
</event>
<event>
 5   0  0.8355946E-07  0.2903264E+04  0.7818609E-02  0.8271907E-01
        1   -1    0    0  501    0  0.00000000000E+00  0.00000000000E+00  0.13200829932E+04  0.13200829932E+04  0.50400001928E-02 0.  1.
       -1   -1    0    0    0  501  0.00000000000E+00  0.00000000000E+00 -0.15962896272E+04  0.15962896272E+04  0.50400001928E-02 0. -1.
    10030    2    1    2    0    0  0.00000000000E+00  0.00000000000E+00 -0.27620663398E+03  0.29163726204E+04  0.29032635354E+04 0.  0.
        4    1    3    3  502    0 -0.52165246753E+03  0.52858949924E+03 -0.13910141939E+04  0.15768482032E+04  0.12699999809E+01 0. -1.
       -4    1    3    3    0  502  0.52165246753E+03 -0.52858949924E+03  0.11148075599E+04  0.13395244171E+04  0.12699999809E+01 0.  1.
</event>
<event>
 5   0  0.8355946E-07  0.2906111E+04  0.7818609E-02  0.8271062E-01
        1   -1    0    0  501    0  0.00000000000E+00  0.00000000000E+00  0.23341463489E+04  0.23341463489E+04  0.50400001928E-02 0. -1.
       -1   -1    0    0    0  501  0.00000000000E+00  0.00000000000E+00 -0.90455774159E+03  0.90455774160E+03  0.50400001928E-02 0.  1.
    10030    2    1    2    0    0  0.00000000000E+00  0.00000000000E+00  0.14295886073E+04  0.32387040905E+04  0.29061109063E+04 0.  0.
        4    1    3    3  502    0 -0.13503455780E+04 -0.94814493980E+02  0.13033923533E+04  0.18791636991E+04  0.12699999809E+01 0. -1.
       -4    1    3    3    0  502  0.13503455780E+04  0.94814493980E+02  0.12619625399E+03  0.13595403914E+04  0.12699999809E+01 0.  1.
</event>
<event>
 5   0  0.2325590E-06  0.2896876E+04  0.7818609E-02  0.8273808E-01
       -2   -1    0    0    0  501  0.00000000000E+00  0.00000000000E+00  0.83131645975E+03  0.83131645975E+03  0.25500000920E-02 0. -1.
        2   -1    0    0  501    0  0.00000000000E+00  0.00000000000E+00 -0.25236744550E+04  0.25236744550E+04  0.25500000920E-02 0.  1.
    10030    2    1    2    0    0  0.00000000000E+00  0.00000000000E+00 -0.16923579952E+04  0.33549909147E+04  0.28968756366E+04 0.  0.
        5    1    3    3  502    0 -0.44153393564E+03 -0.19907988366E+03  0.73474308169E+03  0.88003096678E+03  0.46999998093E+01 0. -1.
       -5    1    3    3    0  502  0.44153393564E+03  0.19907988366E+03 -0.24271010769E+04  0.24749599480E+04  0.46999998093E+01 0.  1.
</event>
<event>
 5   0  0.8263673E-07  0.2895196E+04  0.7818609E-02  0.8274308E-01
        1   -1    0    0  501    0  0.00000000000E+00  0.00000000000E+00  0.14804550630E+04  0.14804550630E+04  0.50400001928E-02 0.  1.
       -1   -1    0    0    0  501  0.00000000000E+00  0.00000000000E+00 -0.14154703330E+04  0.14154703330E+04  0.50400001928E-02 0. -1.
    10030    2    1    2    0    0  0.00000000000E+00  0.00000000000E+00  0.64984729967E+02  0.28959253961E+04  0.28951961737E+04 0.  0.
        5    1    3    3  502    0 -0.13146686316E+04 -0.27072704823E+03 -0.50974323024E+03  0.14357949005E+04  0.46999998093E+01 0. -1.
       -5    1    3    3    0  502  0.13146686316E+04  0.27072704823E+03  0.57472796020E+03  0.14601304955E+04  0.46999998093E+01 0.  1.
</event>
<event>
 5   0  0.7621125E-07  0.2892476E+04  0.7818609E-02  0.8275120E-01
        3   -1    0    0  501    0  0.00000000000E+00  0.00000000000E+00  0.28739267587E+04  0.28739267605E+04  0.10100000352E+00 0.  1.
       -3   -1    0    0    0  501  0.00000000000E+00  0.00000000000E+00 -0.72778598954E+03  0.72778599655E+03  0.10100000352E+00 0. -1.
    10030    2    1    2    0    0  0.00000000000E+00  0.00000000000E+00  0.21461407692E+04  0.36017127570E+04  0.28924755112E+04 0.  0.
        4    1    3    3  502    0 -0.18020663842E+03  0.95282853328E+03  0.24091223024E+04  0.25969652534E+04  0.12699999809E+01 0.  1.
       -4    1    3    3    0  502  0.18020663842E+03 -0.95282853328E+03 -0.26298153326E+03  0.10047475037E+04  0.12699999809E+01 0. -1.
</event>
<event>
 5   0  0.2425845E-06  0.2876315E+04  0.7818609E-02  0.8279960E-01
        2   -1    0    0  501    0  0.00000000000E+00  0.00000000000E+00  0.15190749602E+04  0.15190749602E+04  0.25500000920E-02 0.  1.
       -2   -1    0    0    0  501  0.00000000000E+00  0.00000000000E+00 -0.13615502620E+04  0.13615502620E+04  0.25500000920E-02 0. -1.
    10030    2    1    2    0    0  0.00000000000E+00  0.00000000000E+00  0.15752469817E+03  0.28806252222E+04  0.28763149411E+04 0.  0.
        2    1    3    3  502    0  0.50625345327E+03 -0.24077823299E+03  0.14051450658E+04  0.15128447946E+04  0.25500000920E-02 0.  1.
       -2    1    3    3    0  502 -0.50625345327E+03  0.24077823299E+03 -0.12476203677E+04  0.13677804277E+04  0.25500000920E-02 0. -1.
</event>
<event>
 5   0  0.8947674E-07  0.2897391E+04  0.7818609E-02  0.8273654E-01
        1   -1    0    0  501    0  0.00000000000E+00  0.00000000000E+00  0.21921315552E+04  0.21921315552E+04  0.50400001928E-02 0.  1.
       -1   -1    0    0    0  501  0.00000000000E+00  0.00000000000E+00 -0.95738716616E+03  0.95738716617E+03  0.50400001928E-02 0. -1.
    10030    2    1    2    0    0  0.00000000000E+00  0.00000000000E+00  0.12347443890E+04  0.31495187214E+04  0.28973909764E+04 0.  0.
        3    1    3    3  502    0  0.62865545847E+03  0.39257658840E+03  0.19704354560E+04  0.21052173188E+04  0.10100000352E+00 0.  1.
       -3    1    3    3    0  502 -0.62865545847E+03 -0.39257658840E+03 -0.73569106691E+03  0.10443014025E+04  0.10100000352E+00 0. -1.
</event>
<event>
 5   0  0.2378690E-06  0.2898874E+04  0.7818609E-02  0.8273213E-01
        2   -1    0    0  501    0  0.00000000000E+00  0.00000000000E+00  0.26405858033E+04  0.26405858033E+04  0.25500000920E-02 0.  1.
       -2   -1    0    0    0  501  0.00000000000E+00  0.00000000000E+00 -0.79560642609E+03  0.79560642609E+03  0.25500000920E-02 0. -1.
    10030    2    1    2    0    0  0.00000000000E+00  0.00000000000E+00  0.18449793772E+04  0.34361922294E+04  0.28988735976E+04 0.  0.
        3    1    3    3  502    0  0.10288551655E+04 -0.97965892253E+03  0.12631475323E+04  0.19010040123E+04  0.10100000352E+00 0.  1.
       -3    1    3    3    0  502 -0.10288551655E+04  0.97965892253E+03  0.58183184489E+03  0.15351882171E+04  0.10100000352E+00 0. -1.
</event>
<event>
 5   0  0.2360103E-06  0.2881495E+04  0.7818609E-02  0.8278405E-01
        2   -1    0    0  501    0  0.00000000000E+00  0.00000000000E+00  0.13993181127E+04  0.13993181127E+04  0.25500000920E-02 0.  1.
       -2   -1    0    0    0  501  0.00000000000E+00  0.00000000000E+00 -0.14834034163E+04  0.14834034163E+04  0.25500000920E-02 0. -1.
    10030    2    1    2    0    0  0.00000000000E+00  0.00000000000E+00 -0.84085303621E+02  0.28827215291E+04  0.28814949377E+04 0.  0.
        4    1    3    3  502    0  0.33958234873E+03  0.76946411339E+03 -0.12123100037E+04  0.14754959679E+04  0.12699999809E+01 0. -1.
       -4    1    3    3    0  502 -0.33958234873E+03 -0.76946411339E+03  0.11282247000E+04  0.14072255612E+04  0.12699999809E+01 0.  1.
</event>
<event>
 5   0  0.2360103E-06  0.2900999E+04  0.7818609E-02  0.8272580E-01
        2   -1    0    0  501    0  0.00000000000E+00  0.00000000000E+00  0.25628571571E+04  0.25628571571E+04  0.25500000920E-02 0.  1.
       -2   -1    0    0    0  501  0.00000000000E+00  0.00000000000E+00 -0.82093897703E+03  0.82093897703E+03  0.25500000920E-02 0. -1.
    10030    2    1    2    0    0  0.00000000000E+00  0.00000000000E+00  0.17419181801E+04  0.33837961341E+04  0.29009993677E+04 0.  0.
        4    1    3    3  502    0  0.28434923182E+02 -0.60928281943E+03  0.24059989943E+04  0.24821093595E+04  0.12699999809E+01 0.  1.
       -4    1    3    3    0  502 -0.28434923182E+02  0.60928281943E+03 -0.66408081422E+03  0.90168677467E+03  0.12699999809E+01 0. -1.
</event>
<event>
 5   0  0.8355946E-07  0.2910656E+04  0.7818609E-02  0.8269714E-01
        1   -1    0    0  501    0  0.00000000000E+00  0.00000000000E+00  0.13874402488E+04  0.13874402488E+04  0.50400001928E-02 0.  1.
       -1   -1    0    0    0  501  0.00000000000E+00  0.00000000000E+00 -0.15265374321E+04  0.15265374321E+04  0.50400001928E-02 0. -1.
    10030    2    1    2    0    0  0.00000000000E+00  0.00000000000E+00 -0.13909718327E+03  0.29139776809E+04  0.29106559224E+04 0.  0.
        4    1    3    3  502    0  0.34272107156E+03 -0.95696475527E+03  0.97314786186E+03  0.14072162768E+04  0.12699999809E+01 0.  1.
       -4    1    3    3    0  502 -0.34272107156E+03  0.95696475527E+03 -0.11122450451E+04  0.15067614041E+04  0.12699999809E+01 0. -1.
</event>
<event>
 5   0  0.2304435E-06  0.2902183E+04  0.7818609E-02  0.8272228E-01
        2   -1    0    0  501    0  0.00000000000E+00  0.00000000000E+00  0.18326179796E+04  0.18326179796E+04  0.25500000920E-02 0.  1.
       -2   -1    0    0    0  501  0.00000000000E+00  0.00000000000E+00 -0.11489933711E+04  0.11489933711E+04  0.25500000920E-02 0. -1.
    10030    2    1    2    0    0  0.00000000000E+00  0.00000000000E+00  0.68362460853E+03  0.29816113507E+04  0.29021825651E+04 0.  0.
        1    1    3    3  502    0 -0.99220329991E+03  0.34387200143E+03  0.13706954872E+04  0.17267082731E+04  0.50400001928E-02 0.  1.
       -1    1    3    3    0  502  0.99220329991E+03 -0.34387200143E+03 -0.68707087871E+03  0.12549030776E+04  0.50400001928E-02 0. -1.
</event>
<event>
 5   0  0.8357118E-07  0.2809913E+04  0.7818609E-02  0.8300197E-01
       -1   -1    0    0    0  501  0.00000000000E+00  0.00000000000E+00  0.11453255452E+04  0.11453255452E+04  0.50400001928E-02 0.  1.
        1   -1    0    0  501    0  0.00000000000E+00  0.00000000000E+00 -0.17234422882E+04  0.17234422882E+04  0.50400001928E-02 0. -1.
    10030    2    1    2    0    0  0.00000000000E+00  0.00000000000E+00 -0.57811674300E+03  0.28687678335E+04  0.28099127947E+04 0.  0.
        1    1    3    3  502    0 -0.36285749677E+03 -0.46007007178E+03 -0.15927431961E+04  0.16971036865E+04  0.50400001928E-02 0. -1.
       -1    1    3    3    0  502  0.36285749677E+03  0.46007007178E+03  0.10146264531E+04  0.11716641470E+04  0.50400001928E-02 0.  1.
</event>
<event>
 5   0  0.8263673E-07  0.2880505E+04  0.7818609E-02  0.8278702E-01
        1   -1    0    0  501    0  0.00000000000E+00  0.00000000000E+00  0.13333468914E+04  0.13333468914E+04  0.50400001928E-02 0. -1.
       -1   -1    0    0    0  501  0.00000000000E+00  0.00000000000E+00 -0.15557295272E+04  0.15557295273E+04  0.50400001928E-02 0.  1.
    10030    2    1    2    0    0  0.00000000000E+00  0.00000000000E+00 -0.22238263583E+03  0.28890764187E+04  0.28805049065E+04 0.  0.
        5    1    3    3  502    0  0.53134957162E+03 -0.13381476098E+04 -0.74563525657E+02  0.14417188360E+04  0.46999998093E+01 0. -1.
       -5    1    3    3    0  502 -0.53134957162E+03  0.13381476098E+04 -0.14781911018E+03  0.14473575827E+04  0.46999998093E+01 0.  1.
</event>
<event>
 5   0  0.2304435E-06  0.2893422E+04  0.7818609E-02  0.8274837E-01
        2   -1    0    0  501    0  0.00000000000E+00  0.00000000000E+00  0.12576933334E+04  0.12576933334E+04  0.25500000920E-02 0.  1.
       -2   -1    0    0    0  501  0.00000000000E+00  0.00000000000E+00 -0.16641354715E+04  0.16641354715E+04  0.25500000920E-02 0. -1.
    10030    2    1    2    0    0  0.00000000000E+00  0.00000000000E+00 -0.40644213809E+03  0.29218288049E+04  0.28934215652E+04 0.  0.
        1    1    3    3  502    0 -0.12826919345E+04  0.64667288987E+03 -0.29815424303E+02  0.14367927425E+04  0.50400001928E-02 0.  1.
       -1    1    3    3    0  502  0.12826919345E+04 -0.64667288987E+03 -0.37662671379E+03  0.14850360625E+04  0.50400001928E-02 0. -1.
</event>
<event>
 5   0  0.8263673E-07  0.2899874E+04  0.7818609E-02  0.8272915E-01
       -1   -1    0    0    0  501  0.00000000000E+00  0.00000000000E+00  0.90991233409E+03  0.90991233411E+03  0.50400001928E-02 0. -1.
        1   -1    0    0  501    0  0.00000000000E+00  0.00000000000E+00 -0.23104618523E+04  0.23104618523E+04  0.50400001928E-02 0.  1.
    10030    2    1    2    0    0  0.00000000000E+00  0.00000000000E+00 -0.14005495182E+04  0.32203741864E+04  0.28998742986E+04 0.  0.
        5    1    3    3  502    0  0.21026682681E+03  0.11888638893E+04  0.19138945646E+03  0.12223998936E+04  0.46999998093E+01 0.  1.
       -5    1    3    3    0  502 -0.21026682681E+03 -0.11888638893E+04 -0.15919389746E+04  0.19979742928E+04  0.46999998093E+01 0. -1.
</event>
<event>
 5   0  0.8263673E-07  0.2898539E+04  0.7818609E-02  0.8273312E-01
        1   -1    0    0  501    0  0.00000000000E+00  0.00000000000E+00  0.13260238250E+04  0.13260238250E+04  0.50400001928E-02 0. -1.
       -1   -1    0    0    0  501  0.00000000000E+00  0.00000000000E+00 -0.15839696590E+04  0.15839696590E+04  0.50400001928E-02 0.  1.
    10030    2    1    2    0    0  0.00000000000E+00  0.00000000000E+00 -0.25794583405E+03  0.29099934840E+04  0.28985386014E+04 0.  0.
        5    1    3    3  502    0 -0.29446362196E+03 -0.13464375360E+04  0.32085643767E+03  0.14151232479E+04  0.46999998093E+01 0. -1.
       -5    1    3    3    0  502  0.29446362196E+03  0.13464375360E+04 -0.57880227172E+03  0.14948702361E+04  0.46999998093E+01 0.  1.
</event>
<event>
 5   0  0.8355946E-07  0.2939392E+04  0.7818609E-02  0.8261253E-01
        1   -1    0    0  501    0  0.00000000000E+00  0.00000000000E+00  0.19458436748E+04  0.19458436748E+04  0.50400001928E-02 0. -1.
       -1   -1    0    0    0  501  0.00000000000E+00  0.00000000000E+00 -0.11100619132E+04  0.11100619132E+04  0.50400001928E-02 0.  1.
    10030    2    1    2    0    0  0.00000000000E+00  0.00000000000E+00  0.83578176165E+03  0.30559055880E+04  0.29393924218E+04 0.  0.
        4    1    3    3  502    0  0.66646751074E+03  0.52874574414E+03  0.16638334912E+04  0.18687146663E+04  0.12699999809E+01 0. -1.
       -4    1    3    3    0  502 -0.66646751074E+03 -0.52874574414E+03 -0.82805172954E+03  0.11871909217E+04  0.12699999809E+01 0.  1.
</event>
<event>
 5   0  0.2325590E-06  0.2898931E+04  0.7818609E-02  0.8273196E-01
       -2   -1    0    0    0  501  0.00000000000E+00  0.00000000000E+00  0.10660797803E+04  0.10660797803E+04  0.25500000920E-02 0.  1.
        2   -1    0    0  501    0  0.00000000000E+00  0.00000000000E+00 -0.19707249013E+04  0.19707249013E+04  0.25500000920E-02 0. -1.
    10030    2    1    2    0    0  0.00000000000E+00  0.00000000000E+00 -0.90464512098E+03  0.30368046817E+04  0.28989308166E+04 0.  0.
        5    1    3    3  502    0  0.10223608224E+04  0.43108459094E+03  0.52470487945E+03  0.12273519773E+04  0.46999998093E+01 0.  1.
       -5    1    3    3    0  502 -0.10223608224E+04 -0.43108459094E+03 -0.14293500004E+04  0.18094527044E+04  0.46999998093E+01 0. -1.
</event>
<event>
 5   0  0.2304435E-06  0.2901162E+04  0.7818609E-02  0.8272532E-01
        2   -1    0    0  501    0  0.00000000000E+00  0.00000000000E+00  0.15755487556E+04  0.15755487556E+04  0.25500000920E-02 0.  1.
       -2   -1    0    0    0  501  0.00000000000E+00  0.00000000000E+00 -0.13355250614E+04  0.13355250614E+04  0.25500000920E-02 0. -1.
    10030    2    1    2    0    0  0.00000000000E+00  0.00000000000E+00  0.24002369417E+03  0.29110738170E+04  0.29011617318E+04 0.  0.
        1    1    3    3  502    0  0.33521642634E+03 -0.12897844961E+04  0.69491854893E+03  0.15029390834E+04  0.50400001928E-02 0.  1.
       -1    1    3    3    0  502 -0.33521642634E+03  0.12897844961E+04 -0.45489485476E+03  0.14081347335E+04  0.50400001928E-02 0. -1.
</event>
<event>
 5   0  0.8483636E-07  0.2832723E+04  0.7818609E-02  0.8293180E-01
       -1   -1    0    0    0  501  0.00000000000E+00  0.00000000000E+00  0.11942915789E+04  0.11942915789E+04  0.50400001928E-02 0. -1.
        1   -1    0    0  501    0  0.00000000000E+00  0.00000000000E+00 -0.16797240945E+04  0.16797240945E+04  0.50400001928E-02 0.  1.
    10030    2    1    2    0    0  0.00000000000E+00  0.00000000000E+00 -0.48543251560E+03  0.28740156735E+04  0.28327233123E+04 0.  0.
        2    1    3    3  502    0 -0.10168642346E+04 -0.21810834995E+02 -0.12427781678E+04  0.16059222144E+04  0.25500000920E-02 0.  1.
       -2    1    3    3    0  502  0.10168642346E+04  0.21810834995E+02  0.75734565223E+03  0.12680934591E+04  0.25500000920E-02 0. -1.
</event>
<event>
 5   0  0.8263673E-07  0.2907391E+04  0.7818609E-02  0.8270682E-01
        1   -1    0    0  501    0  0.00000000000E+00  0.00000000000E+00  0.21753836169E+04  0.21753836169E+04  0.50400001928E-02 0.  1.
       -1   -1    0    0    0  501  0.00000000000E+00  0.00000000000E+00 -0.97142909672E+03  0.97142909673E+03  0.50400001928E-02 0. -1.
    10030    2    1    2    0    0  0.00000000000E+00  0.00000000000E+00  0.12039545202E+04  0.31468127137E+04  0.29073912307E+04 0.  0.
        5    1    3    3  502    0  0.10090804644E+04 -0.96888288675E+03  0.17416659198E+03  0.14097281737E+04  0.46999998093E+01 0. -1.
       -5    1    3    3    0  502 -0.10090804644E+04  0.96888288675E+03  0.10297879282E+04  0.17370845400E+04  0.46999998093E+01 0.  1.
</event>
<event>
 5   0  0.2378690E-06  0.2899438E+04  0.7818609E-02  0.8273045E-01
       -2   -1    0    0    0  501  0.00000000000E+00  0.00000000000E+00  0.14902971577E+04  0.14902971577E+04  0.25500000920E-02 0.  1.
        2   -1    0    0  501    0  0.00000000000E+00  0.00000000000E+00 -0.14102458009E+04  0.14102458009E+04  0.25500000920E-02 0. -1.
    10030    2    1    2    0    0  0.00000000000E+00  0.00000000000E+00  0.80051356714E+02  0.29005429586E+04  0.28994380895E+04 0.  0.
        3    1    3    3  502    0 -0.13945416472E+04 -0.28955053540E+03  0.31049767669E+03  0.14577361681E+04  0.10100000352E+00 0.  1.
       -3    1    3    3    0  502  0.13945416472E+04  0.28955053540E+03 -0.23044631998E+03  0.14428067905E+04  0.10100000352E+00 0. -1.
</event>
<event>
 5   0  0.2304435E-06  0.2892875E+04  0.7818609E-02  0.8275000E-01
        2   -1    0    0  501    0  0.00000000000E+00  0.00000000000E+00  0.17918703334E+04  0.17918703334E+04  0.25500000920E-02 0.  1.
       -2   -1    0    0    0  501  0.00000000000E+00  0.00000000000E+00 -0.11675967210E+04  0.11675967210E+04  0.25500000920E-02 0. -1.
    10030    2    1    2    0    0  0.00000000000E+00  0.00000000000E+00  0.62427361247E+03  0.29594670544E+04  0.28928753348E+04 0.  0.
        1    1    3    3  502    0 -0.12557629607E+04 -0.47253252590E+03 -0.24062909803E+03  0.13631324090E+04  0.50400001928E-02 0. -1.
       -1    1    3    3    0  502  0.12557629607E+04  0.47253252590E+03  0.86490271050E+03  0.15963346454E+04  0.50400001928E-02 0.  1.
</event>
<event>
 5   0  0.7621125E-07  0.2902546E+04  0.7818609E-02  0.8272120E-01
       -3   -1    0    0    0  501  0.00000000000E+00  0.00000000000E+00  0.12134917156E+04  0.12134917198E+04  0.10100000352E+00 0. -1.
        3   -1    0    0  501    0  0.00000000000E+00  0.00000000000E+00 -0.17356466834E+04  0.17356466863E+04  0.10100000352E+00 0.  1.
    10030    2    1    2    0    0  0.00000000000E+00  0.00000000000E+00 -0.52215496776E+03  0.29491384061E+04  0.29025456979E+04 0.  0.
        1    1    3    3  502    0 -0.14784497449E+03  0.10478345290E+04 -0.12701855495E+04  0.16532352122E+04  0.50400001928E-02 0.  1.
       -1    1    3    3    0  502  0.14784497449E+03 -0.10478345290E+04  0.74803058179E+03  0.12959031939E+04  0.50400001928E-02 0. -1.
</event>
<event>
 5   0  0.8483636E-07  0.2888865E+04  0.7818609E-02  0.8276198E-01
       -1   -1    0    0    0  501  0.00000000000E+00  0.00000000000E+00  0.79437240518E+03  0.79437240520E+03  0.50400001928E-02 0. -1.
        1   -1    0    0  501    0  0.00000000000E+00  0.00000000000E+00 -0.26264567476E+04  0.26264567476E+04  0.50400001928E-02 0.  1.
    10030    2    1    2    0    0  0.00000000000E+00  0.00000000000E+00 -0.18320843424E+04  0.34208291528E+04  0.28888646654E+04 0.  0.
        2    1    3    3  502    0 -0.13242002693E+04 -0.47005535337E+03 -0.13122019745E+04  0.19225848253E+04  0.25500000920E-02 0.  1.
       -2    1    3    3    0  502  0.13242002693E+04  0.47005535337E+03 -0.51988236795E+03  0.14982443275E+04  0.25500000920E-02 0. -1.
</event>
<event>
 5   0  0.8263673E-07  0.2876033E+04  0.7818609E-02  0.8280044E-01
       -1   -1    0    0    0  501  0.00000000000E+00  0.00000000000E+00  0.17697851551E+04  0.17697851551E+04  0.50400001928E-02 0. -1.
        1   -1    0    0  501    0  0.00000000000E+00  0.00000000000E+00 -0.11684422658E+04  0.11684422658E+04  0.50400001928E-02 0.  1.
    10030    2    1    2    0    0  0.00000000000E+00  0.00000000000E+00  0.60134288935E+03  0.29382274209E+04  0.28760332242E+04 0.  0.
        5    1    3    3  502    0  0.56890909298E+03  0.42476699686E+02 -0.10478765872E+04  0.11931174536E+04  0.46999998093E+01 0.  1.
       -5    1    3    3    0  502 -0.56890909298E+03 -0.42476699686E+02  0.16492194766E+04  0.17451099673E+04  0.46999998093E+01 0. -1.
</event>
<event>
 5   0  0.8483636E-07  0.2935023E+04  0.7818609E-02  0.8262533E-01
       -1   -1    0    0    0  501  0.00000000000E+00  0.00000000000E+00  0.11277226915E+04  0.11277226915E+04  0.50400001928E-02 0.  1.
        1   -1    0    0  501    0  0.00000000000E+00  0.00000000000E+00 -0.19096810284E+04  0.19096810285E+04  0.50400001928E-02 0. -1.
    10030    2    1    2    0    0  0.00000000000E+00  0.00000000000E+00 -0.78195833700E+03  0.30374037199E+04  0.29350234270E+04 0.  0.
        2    1    3    3  502    0 -0.78695957172E+02 -0.66115257007E+03  0.96241376227E+03  0.11702803187E+04  0.25500000920E-02 0.  1.
       -2    1    3    3    0  502  0.78695957172E+02  0.66115257007E+03 -0.17443720993E+04  0.18671234012E+04  0.25500000920E-02 0. -1.
</event>
<event>
 5   0  0.8263673E-07  0.2942185E+04  0.7818609E-02  0.8260436E-01
       -1   -1    0    0    0  501  0.00000000000E+00  0.00000000000E+00  0.92206687458E+03  0.92206687460E+03  0.50400001928E-02 0.  1.
        1   -1    0    0  501    0  0.00000000000E+00  0.00000000000E+00 -0.23470236649E+04  0.23470236649E+04  0.50400001928E-02 0. -1.
    10030    2    1    2    0    0  0.00000000000E+00  0.00000000000E+00 -0.14249567903E+04  0.32690905395E+04  0.29421847497E+04 0.  0.
        5    1    3    3  502    0 -0.40787817428E+03  0.24356410745E+03 -0.22594380995E+04  0.23088461826E+04  0.46999998093E+01 0. -1.
       -5    1    3    3    0  502  0.40787817428E+03 -0.24356410745E+03  0.83448130920E+03  0.96024435687E+03  0.46999998093E+01 0.  1.
</event>
<event>
 5   0  0.8483636E-07  0.2908569E+04  0.7818609E-02  0.8270333E-01
       -1   -1    0    0    0  501  0.00000000000E+00  0.00000000000E+00  0.15928425055E+04  0.15928425055E+04  0.50400001928E-02 0.  1.
        1   -1    0    0  501    0  0.00000000000E+00  0.00000000000E+00 -0.13277792026E+04  0.13277792026E+04  0.50400001928E-02 0. -1.
    10030    2    1    2    0    0  0.00000000000E+00  0.00000000000E+00  0.26506330285E+03  0.29206217081E+04  0.29085688246E+04 0.  0.
        2    1    3    3  502    0 -0.59052597571E+03 -0.10417069418E+04 -0.69615716821E+03  0.13851025534E+04  0.25500000920E-02 0. -1.
       -2    1    3    3    0  502  0.59052597571E+03  0.10417069418E+04  0.96122047106E+03  0.15355191547E+04  0.25500000920E-02 0.  1.
</event>
<event>
 5   0  0.2378690E-06  0.2827065E+04  0.7818609E-02  0.8294915E-01
       -2   -1    0    0    0  501  0.00000000000E+00  0.00000000000E+00  0.10974801574E+04  0.10974801574E+04  0.25500000920E-02 0. -1.
        2   -1    0    0  501    0  0.00000000000E+00  0.00000000000E+00 -0.18206021687E+04  0.18206021687E+04  0.25500000920E-02 0.  1.
    10030    2    1    2    0    0  0.00000000000E+00  0.00000000000E+00 -0.72312201131E+03  0.29180823260E+04  0.28270654429E+04 0.  0.
        3    1    3    3  502    0 -0.95383768193E+03 -0.72374416838E+03 -0.11370566109E+04  0.16512146109E+04  0.10100000352E+00 0.  1.
       -3    1    3    3    0  502  0.95383768193E+03  0.72374416838E+03  0.41393459955E+03  0.12668677151E+04  0.10100000352E+00 0. -1.
</event>
<event>
 5   0  0.2425845E-06  0.2897402E+04  0.7818609E-02  0.8273651E-01
        2   -1    0    0  501    0  0.00000000000E+00  0.00000000000E+00  0.19797374582E+04  0.19797374582E+04  0.25500000920E-02 0. -1.
       -2   -1    0    0    0  501  0.00000000000E+00  0.00000000000E+00 -0.10601077669E+04  0.10601077669E+04  0.25500000920E-02 0.  1.
    10030    2    1    2    0    0  0.00000000000E+00  0.00000000000E+00  0.91962969136E+03  0.30398452251E+04  0.28974023234E+04 0.  0.
        2    1    3    3  502    0  0.71082237128E+03  0.77647426394E+03  0.15040103479E+04  0.18358180336E+04  0.25500000920E-02 0. -1.
       -2    1    3    3    0  502 -0.71082237128E+03 -0.77647426394E+03 -0.58438065654E+03  0.12040271915E+04  0.25500000920E-02 0.  1.
</event>
<event>
 5   0  0.2304435E-06  0.2933583E+04  0.7818609E-02  0.8262955E-01
        2   -1    0    0  501    0  0.00000000000E+00  0.00000000000E+00  0.14049246800E+04  0.14049246800E+04  0.25500000920E-02 0.  1.
       -2   -1    0    0    0  501  0.00000000000E+00  0.00000000000E+00 -0.15313829835E+04  0.15313829835E+04  0.25500000920E-02 0. -1.
    10030    2    1    2    0    0  0.00000000000E+00  0.00000000000E+00 -0.12645830347E+03  0.29363076636E+04  0.29335833025E+04 0.  0.
        1    1    3    3  502    0  0.12877356520E+03 -0.13483540678E+04 -0.62663413712E+03  0.14924180598E+04  0.50400001928E-02 0. -1.
       -1    1    3    3    0  502 -0.12877356520E+03  0.13483540678E+04  0.50017583365E+03  0.14438896038E+04  0.50400001928E-02 0.  1.
</event>
<event>
 5   0  0.8483636E-07  0.2901857E+04  0.7818609E-02  0.8272325E-01
       -1   -1    0    0    0  501  0.00000000000E+00  0.00000000000E+00  0.97543608775E+03  0.97543608776E+03  0.50400001928E-02 0. -1.
        1   -1    0    0  501    0  0.00000000000E+00  0.00000000000E+00 -0.21582075768E+04  0.21582075768E+04  0.50400001928E-02 0.  1.
    10030    2    1    2    0    0  0.00000000000E+00  0.00000000000E+00 -0.11827714891E+04  0.31336436646E+04  0.29018570298E+04 0.  0.
        2    1    3    3  502    0 -0.10214031093E+04 -0.83247390013E+03 -0.12472857108E+04  0.18143866044E+04  0.25500000920E-02 0.  1.
       -2    1    3    3    0  502  0.10214031093E+04  0.83247390013E+03  0.64514221664E+02  0.13192570602E+04  0.25500000920E-02 0. -1.
</event>
<event>
 5   0  0.2360103E-06  0.2882841E+04  0.7818609E-02  0.8278001E-01
        2   -1    0    0  501    0  0.00000000000E+00  0.00000000000E+00  0.10481405477E+04  0.10481405477E+04  0.25500000920E-02 0. -1.
       -2   -1    0    0    0  501  0.00000000000E+00  0.00000000000E+00 -0.19822658984E+04  0.19822658984E+04  0.25500000920E-02 0.  1.
    10030    2    1    2    0    0  0.00000000000E+00  0.00000000000E+00 -0.93412535070E+03  0.30304064461E+04  0.28828411433E+04 0.  0.
        4    1    3    3  502    0 -0.40638564378E+03 -0.10737899882E+04 -0.13831756615E+04  0.17975958261E+04  0.12699999809E+01 0.  1.
       -4    1    3    3    0  502  0.40638564378E+03  0.10737899882E+04  0.44905031083E+03  0.12328106200E+04  0.12699999809E+01 0. -1.
</event>
<event>
 5   0  0.8357118E-07  0.2929515E+04  0.7818609E-02  0.8264150E-01
       -1   -1    0    0    0  501  0.00000000000E+00  0.00000000000E+00  0.10051431967E+04  0.10051431967E+04  0.50400001928E-02 0.  1.
        1   -1    0    0  501    0  0.00000000000E+00  0.00000000000E+00 -0.21345360557E+04  0.21345360557E+04  0.50400001928E-02 0. -1.
    10030    2    1    2    0    0  0.00000000000E+00  0.00000000000E+00 -0.11293928590E+04  0.31396792524E+04  0.29295149049E+04 0.  0.
        1    1    3    3  502    0  0.64724496545E+03  0.12055979883E+04 -0.11247992838E+04  0.17713175840E+04  0.50400001928E-02 0. -1.
       -1    1    3    3    0  502 -0.64724496545E+03 -0.12055979883E+04 -0.45935752884E+01  0.13683616684E+04  0.50400001928E-02 0.  1.
</event>
<event>
 5   0  0.8355946E-07  0.2869405E+04  0.7818609E-02  0.8282039E-01
        1   -1    0    0  501    0  0.00000000000E+00  0.00000000000E+00  0.96045091930E+03  0.96045091931E+03  0.50400001928E-02 0. -1.
       -1   -1    0    0    0  501  0.00000000000E+00  0.00000000000E+00 -0.21431296536E+04  0.21431296536E+04  0.50400001928E-02 0.  1.
    10030    2    1    2    0    0  0.00000000000E+00  0.00000000000E+00 -0.11826787343E+04  0.31035805730E+04  0.28694047090E+04 0.  0.
        4    1    3    3  502    0  0.68831954562E+02  0.40954252513E+03  0.89401909725E+03  0.98576603564E+03  0.12699999809E+01 0. -1.
       -4    1    3    3    0  502 -0.68831954562E+02 -0.40954252513E+03 -0.20766978316E+04  0.21178145373E+04  0.12699999809E+01 0.  1.
</event>
<event>
 5   0  0.2378690E-06  0.2898934E+04  0.7818609E-02  0.8273195E-01
        2   -1    0    0  501    0  0.00000000000E+00  0.00000000000E+00  0.14466241075E+04  0.14466241075E+04  0.25500000920E-02 0.  1.
       -2   -1    0    0    0  501  0.00000000000E+00  0.00000000000E+00 -0.14523158516E+04  0.14523158516E+04  0.25500000920E-02 0. -1.
    10030    2    1    2    0    0  0.00000000000E+00  0.00000000000E+00 -0.56917440269E+01  0.28989399591E+04  0.28989343715E+04 0.  0.
        3    1    3    3  502    0 -0.48015226067E+02 -0.21541861682E+03 -0.14354143280E+04  0.14522826673E+04  0.10100000352E+00 0. -1.
       -3    1    3    3    0  502  0.48015226067E+02  0.21541861682E+03  0.14297225840E+04  0.14466572918E+04  0.10100000352E+00 0.  1.
</event>
<event>
 5   0  0.8263673E-07  0.2865358E+04  0.7818609E-02  0.8283260E-01
        1   -1    0    0  501    0  0.00000000000E+00  0.00000000000E+00  0.12239662135E+04  0.12239662135E+04  0.50400001928E-02 0.  1.
       -1   -1    0    0    0  501  0.00000000000E+00  0.00000000000E+00 -0.16769816669E+04  0.16769816670E+04  0.50400001928E-02 0. -1.
    10030    2    1    2    0    0  0.00000000000E+00  0.00000000000E+00 -0.45301545347E+03  0.29009478804E+04  0.28653578492E+04 0.  0.
        5    1    3    3  502    0  0.43462965182E+03  0.66317756262E+02  0.11539701990E+04  0.12348968739E+04  0.46999998093E+01 0.  1.
       -5    1    3    3    0  502 -0.43462965182E+03 -0.66317756262E+02 -0.16069856525E+04  0.16660510065E+04  0.46999998093E+01 0. -1.
</event>
<event>
 5   0  0.2378690E-06  0.2886228E+04  0.7818609E-02  0.8276987E-01
       -2   -1    0    0    0  501  0.00000000000E+00  0.00000000000E+00  0.12526021354E+04  0.12526021354E+04  0.25500000920E-02 0.  1.
        2   -1    0    0  501    0  0.00000000000E+00  0.00000000000E+00 -0.16626009593E+04  0.16626009593E+04  0.25500000920E-02 0. -1.
    10030    2    1    2    0    0  0.00000000000E+00  0.00000000000E+00 -0.40999882391E+03  0.29152030947E+04  0.28862276501E+04 0.  0.
        3    1    3    3  502    0  0.40776028964E+03  0.12798089270E+04 -0.73793093848E+03  0.15325538893E+04  0.10100000352E+00 0.  1.
       -3    1    3    3    0  502 -0.40776028964E+03 -0.12798089270E+04  0.32793211457E+03  0.13826492055E+04  0.10100000352E+00 0. -1.
</event>
<event>
 5   0  0.8355946E-07  0.2902757E+04  0.7818609E-02  0.8272058E-01
       -1   -1    0    0    0  501  0.00000000000E+00  0.00000000000E+00  0.16666727153E+04  0.16666727153E+04  0.50400001928E-02 0. -1.
        1   -1    0    0  501    0  0.00000000000E+00  0.00000000000E+00 -0.12638953825E+04  0.12638953825E+04  0.50400001928E-02 0.  1.
    10030    2    1    2    0    0  0.00000000000E+00  0.00000000000E+00  0.40277733285E+03  0.29305680978E+04  0.29027572747E+04 0.  0.
        4    1    3    3  502    0 -0.93589933240E+03 -0.98000732405E+03 -0.32337628014E+03  0.13931603451E+04  0.12699999809E+01 0.  1.
       -4    1    3    3    0  502  0.93589933240E+03  0.98000732405E+03  0.72615361298E+03  0.15374077527E+04  0.12699999809E+01 0. -1.
</event>
<event>
 5   0  0.8263673E-07  0.2902852E+04  0.7818609E-02  0.8272029E-01
       -1   -1    0    0    0  501  0.00000000000E+00  0.00000000000E+00  0.17607952236E+04  0.17607952236E+04  0.50400001928E-02 0.  1.
        1   -1    0    0  501    0  0.00000000000E+00  0.00000000000E+00 -0.11964127603E+04  0.11964127603E+04  0.50400001928E-02 0. -1.
    10030    2    1    2    0    0  0.00000000000E+00  0.00000000000E+00  0.56438246335E+03  0.29572079839E+04  0.29028523034E+04 0.  0.
        5    1    3    3  502    0 -0.11069482015E+04  0.58049109251E+03  0.10337807369E+04  0.16220446761E+04  0.46999998093E+01 0.  1.
       -5    1    3    3    0  502  0.11069482015E+04 -0.58049109251E+03 -0.46939827360E+03  0.13351633078E+04  0.46999998093E+01 0. -1.
</event>
<event>
 5   0  0.2325590E-06  0.2904433E+04  0.7818609E-02  0.8271560E-01
        2   -1    0    0  501    0  0.00000000000E+00  0.00000000000E+00  0.24025416569E+04  0.24025416569E+04  0.25500000920E-02 0. -1.
       -2   -1    0    0    0  501  0.00000000000E+00  0.00000000000E+00 -0.87779260232E+03  0.87779260232E+03  0.25500000920E-02 0.  1.
    10030    2    1    2    0    0  0.00000000000E+00  0.00000000000E+00  0.15247490546E+04  0.32803342593E+04  0.29044333652E+04 0.  0.
        5    1    3    3  502    0 -0.66798874246E+03 -0.98812025155E+03  0.16980391376E+04  0.20750782141E+04  0.46999998093E+01 0. -1.
       -5    1    3    3    0  502  0.66798874246E+03  0.98812025155E+03 -0.17329008301E+03  0.12052560452E+04  0.46999998093E+01 0.  1.
</event>
<event>
 5   0  0.8357118E-07  0.2827717E+04  0.7818609E-02  0.8294715E-01
        1   -1    0    0  501    0  0.00000000000E+00  0.00000000000E+00  0.23651061408E+04  0.23651061408E+04  0.50400001928E-02 0. -1.
       -1   -1    0    0    0  501  0.00000000000E+00  0.00000000000E+00 -0.84520352922E+03  0.84520352924E+03  0.50400001928E-02 0.  1.
    10030    2    1    2    0    0  0.00000000000E+00  0.00000000000E+00  0.15199026116E+04  0.32103096701E+04  0.28277171409E+04 0.  0.
        1    1    3    3  502    0  0.24012340591E+03  0.19289477445E+03  0.23265547583E+04  0.23468542110E+04  0.50400001928E-02 0. -1.
       -1    1    3    3    0  502 -0.24012340591E+03 -0.19289477445E+03 -0.80665214670E+03  0.86345545912E+03  0.50400001928E-02 0.  1.
</event>
<event>
 5   0  0.2325590E-06  0.2917065E+04  0.7818609E-02  0.8267818E-01
        2   -1    0    0  501    0  0.00000000000E+00  0.00000000000E+00  0.18764923827E+04  0.18764923827E+04  0.25500000920E-02 0. -1.
       -2   -1    0    0    0  501  0.00000000000E+00  0.00000000000E+00 -0.11336666749E+04  0.11336666749E+04  0.25500000920E-02 0.  1.
    10030    2    1    2    0    0  0.00000000000E+00  0.00000000000E+00  0.74282570780E+03  0.30101590577E+04  0.29170648811E+04 0.  0.
        5    1    3    3  502    0 -0.19916955870E+03  0.29449472050E+03 -0.10882614208E+04  0.11448714616E+04  0.46999998093E+01 0.  1.
       -5    1    3    3    0  502  0.19916955870E+03 -0.29449472050E+03  0.18310871286E+04  0.18652875961E+04  0.46999998093E+01 0. -1.
</event>
<event>
 5   0  0.8483636E-07  0.2902042E+04  0.7818609E-02  0.8272270E-01
       -1   -1    0    0    0  501  0.00000000000E+00  0.00000000000E+00  0.11720505920E+04  0.11720505920E+04  0.50400001928E-02 0.  1.
        1   -1    0    0  501    0  0.00000000000E+00  0.00000000000E+00 -0.17963916892E+04  0.17963916892E+04  0.50400001928E-02 0. -1.
    10030    2    1    2    0    0  0.00000000000E+00  0.00000000000E+00 -0.62434109717E+03  0.29684422812E+04  0.29020420003E+04 0.  0.
        2    1    3    3  502    0  0.31349782369E+03  0.27652457132E+03  0.11091237872E+04  0.11852857459E+04  0.25500000920E-02 0.  1.
       -2    1    3    3    0  502 -0.31349782369E+03 -0.27652457132E+03 -0.17334648844E+04  0.17831565353E+04  0.25500000920E-02 0. -1.
</event>
<event>
 5   0  0.8947674E-07  0.2901962E+04  0.7818609E-02  0.8272294E-01
       -1   -1    0    0    0  501  0.00000000000E+00  0.00000000000E+00  0.30194607245E+04  0.30194607245E+04  0.50400001928E-02 0. -1.
        1   -1    0    0  501    0  0.00000000000E+00  0.00000000000E+00 -0.69725876972E+03  0.69725876974E+03  0.50400001928E-02 0.  1.
    10030    2    1    2    0    0  0.00000000000E+00  0.00000000000E+00  0.23222019547E+04  0.37167194942E+04  0.29019617296E+04 0.  0.
        3    1    3    3  502    0  0.84788556762E+03  0.29431134399E+02 -0.34648550912E+03  0.91642148910E+03  0.10100000352E+00 0.  1.
       -3    1    3    3    0  502 -0.84788556762E+03 -0.29431134399E+02  0.26686874639E+04  0.28002980051E+04  0.10100000352E+00 0. -1.
</event>
<event>
 5   0  0.8263673E-07  0.2911068E+04  0.7818609E-02  0.8269592E-01
       -1   -1    0    0    0  501  0.00000000000E+00  0.00000000000E+00  0.12345451822E+04  0.12345451822E+04  0.50400001928E-02 0. -1.
        1   -1    0    0  501    0  0.00000000000E+00  0.00000000000E+00 -0.17160808377E+04  0.17160808377E+04  0.50400001928E-02 0.  1.
    10030    2    1    2    0    0  0.00000000000E+00  0.00000000000E+00 -0.48153565542E+03  0.29506260199E+04  0.29110680724E+04 0.  0.
        5    1    3    3  502    0  0.39142971410E+03 -0.11653414204E+04  0.54912902156E+03  0.13464035872E+04  0.46999998093E+01 0. -1.
       -5    1    3    3    0  502 -0.39142971410E+03  0.11653414204E+04 -0.10306646770E+04  0.16042224327E+04  0.46999998093E+01 0.  1.
</event>
<event>
 5   0  0.2425845E-06  0.2899595E+04  0.7818609E-02  0.8272998E-01
       -2   -1    0    0    0  501  0.00000000000E+00  0.00000000000E+00  0.14000581587E+04  0.14000581587E+04  0.25500000920E-02 0. -1.
        2   -1    0    0  501    0  0.00000000000E+00  0.00000000000E+00 -0.15013039902E+04  0.15013039902E+04  0.25500000920E-02 0.  1.
    10030    2    1    2    0    0  0.00000000000E+00  0.00000000000E+00 -0.10124583154E+03  0.29013621489E+04  0.28995950753E+04 0.  0.
        2    1    3    3  502    0 -0.96102528124E+03 -0.33421019815E+03  0.98279245191E+03  0.14146190481E+04  0.25500000920E-02 0. -1.
       -2    1    3    3    0  502  0.96102528124E+03  0.33421019815E+03 -0.10840382835E+04  0.14867431008E+04  0.25500000920E-02 0.  1.
</event>
<event>
 5   0  0.2304435E-06  0.2906388E+04  0.7818609E-02  0.8270979E-01
       -2   -1    0    0    0  501  0.00000000000E+00  0.00000000000E+00  0.15633733785E+04  0.15633733785E+04  0.25500000920E-02 0.  1.
        2   -1    0    0  501    0  0.00000000000E+00  0.00000000000E+00 -0.13507795479E+04  0.13507795479E+04  0.25500000920E-02 0. -1.
    10030    2    1    2    0    0  0.00000000000E+00  0.00000000000E+00  0.21259383064E+03  0.29141529264E+04  0.29063879889E+04 0.  0.
        1    1    3    3  502    0 -0.12567067734E+04  0.42330376914E+03  0.70225411672E+03  0.15005528447E+04  0.50400001928E-02 0.  1.
       -1    1    3    3    0  502  0.12567067734E+04 -0.42330376914E+03 -0.48966028609E+03  0.14136000817E+04  0.50400001928E-02 0. -1.
</event>
<event>
 5   0  0.8357118E-07  0.2898682E+04  0.7818609E-02  0.8273270E-01
        1   -1    0    0  501    0  0.00000000000E+00  0.00000000000E+00  0.20852294309E+04  0.20852294310E+04  0.50400001928E-02 0. -1.
       -1   -1    0    0    0  501  0.00000000000E+00  0.00000000000E+00 -0.10073662129E+04  0.10073662129E+04  0.50400001928E-02 0.  1.
    10030    2    1    2    0    0  0.00000000000E+00  0.00000000000E+00  0.10778632180E+04  0.30925956439E+04  0.28986822350E+04 0.  0.
        1    1    3    3  502    0 -0.14090169683E+04 -0.55900509349E+02  0.89620036980E+03  0.16708168023E+04  0.50400001928E-02 0. -1.
       -1    1    3    3    0  502  0.14090169683E+04  0.55900509349E+02  0.18166284824E+03  0.14217788416E+04  0.50400001928E-02 0.  1.
</event>
<event>
 5   0  0.8947674E-07  0.2881836E+04  0.7818609E-02  0.8278302E-01
        1   -1    0    0  501    0  0.00000000000E+00  0.00000000000E+00  0.18955118857E+04  0.18955118857E+04  0.50400001928E-02 0.  1.
       -1   -1    0    0    0  501  0.00000000000E+00  0.00000000000E+00 -0.10953475316E+04  0.10953475316E+04  0.50400001928E-02 0. -1.
    10030    2    1    2    0    0  0.00000000000E+00  0.00000000000E+00  0.80016435406E+03  0.29908594173E+04  0.28818357102E+04 0.  0.
        3    1    3    3  502    0 -0.41326891365E+03 -0.87679834170E+02 -0.10296280795E+04  0.11129298903E+04  0.10100000352E+00 0. -1.
       -3    1    3    3    0  502  0.41326891365E+03  0.87679834170E+02  0.18297924336E+04  0.18779295270E+04  0.10100000352E+00 0.  1.
</event>
<event>
 5   0  0.8947674E-07  0.2903522E+04  0.7818609E-02  0.8271830E-01
        1   -1    0    0  501    0  0.00000000000E+00  0.00000000000E+00  0.16613059520E+04  0.16613059520E+04  0.50400001928E-02 0.  1.
       -1   -1    0    0    0  501  0.00000000000E+00  0.00000000000E+00 -0.12686468133E+04  0.12686468133E+04  0.50400001928E-02 0. -1.
    10030    2    1    2    0    0  0.00000000000E+00  0.00000000000E+00  0.39265913875E+03  0.29299527653E+04  0.29035223450E+04 0.  0.
        3    1    3    3  502    0  0.33806765741E+03 -0.13445679263E+04  0.63089787391E+03  0.15232152793E+04  0.10100000352E+00 0.  1.
       -3    1    3    3    0  502 -0.33806765741E+03  0.13445679263E+04 -0.23823873517E+03  0.14067374860E+04  0.10100000352E+00 0. -1.
</event>
<event>
 5   0  0.8355946E-07  0.2892441E+04  0.7818609E-02  0.8275130E-01
       -1   -1    0    0    0  501  0.00000000000E+00  0.00000000000E+00  0.86366573274E+03  0.86366573275E+03  0.50400001928E-02 0.  1.
        1   -1    0    0  501    0  0.00000000000E+00  0.00000000000E+00 -0.24217159445E+04  0.24217159445E+04  0.50400001928E-02 0. -1.
    10030    2    1    2    0    0  0.00000000000E+00  0.00000000000E+00 -0.15580502117E+04  0.32853816772E+04  0.28924405444E+04 0.  0.
        4    1    3    3  502    0 -0.67508284226E+03  0.40835330368E+03  0.59768177164E+03  0.98980522205E+03  0.12699999809E+01 0.  1.
       -4    1    3    3    0  502  0.67508284226E+03 -0.40835330368E+03 -0.21557319834E+04  0.22955764552E+04  0.12699999809E+01 0. -1.
</event>
<event>
 5   0  0.2304435E-06  0.2905937E+04  0.7818609E-02  0.8271113E-01
       -2   -1    0    0    0  501  0.00000000000E+00  0.00000000000E+00  0.90416009485E+03  0.90416009486E+03  0.25500000920E-02 0.  1.
        2   -1    0    0  501    0  0.00000000000E+00  0.00000000000E+00 -0.23348933388E+04  0.23348933388E+04  0.25500000920E-02 0. -1.
    10030    2    1    2    0    0  0.00000000000E+00  0.00000000000E+00 -0.14307332440E+04  0.32390534337E+04  0.29059369454E+04 0.  0.
        1    1    3    3  502    0  0.26014674117E+03  0.73708197439E+03  0.64984333021E+03  0.10164952129E+04  0.50400001928E-02 0.  1.
       -1    1    3    3    0  502 -0.26014674117E+03 -0.73708197439E+03 -0.20805765742E+04  0.22225582208E+04  0.50400001928E-02 0. -1.
</event>
<event>
 5   0  0.2378690E-06  0.2893794E+04  0.7818609E-02  0.8274726E-01
        2   -1    0    0  501    0  0.00000000000E+00  0.00000000000E+00  0.22188800245E+04  0.22188800245E+04  0.25500000920E-02 0. -1.
       -2   -1    0    0    0  501  0.00000000000E+00  0.00000000000E+00 -0.94349889072E+03  0.94349889073E+03  0.25500000920E-02 0.  1.
    10030    2    1    2    0    0  0.00000000000E+00  0.00000000000E+00  0.12753811338E+04  0.31623789152E+04  0.28937939400E+04 0.  0.
        3    1    3    3  502    0  0.10581116700E+04 -0.76536814925E+03  0.13185077388E+04  0.18557616705E+04  0.10100000352E+00 0. -1.
       -3    1    3    3    0  502 -0.10581116700E+04  0.76536814925E+03 -0.43126605049E+02  0.13066172448E+04  0.10100000352E+00 0.  1.
</event>
<event>
 5   0  0.8947674E-07  0.2904437E+04  0.7818609E-02  0.8271558E-01
       -1   -1    0    0    0  501  0.00000000000E+00  0.00000000000E+00  0.83745572303E+03  0.83745572304E+03  0.50400001928E-02 0.  1.
        1   -1    0    0  501    0  0.00000000000E+00  0.00000000000E+00 -0.25182693950E+04  0.25182693950E+04  0.50400001928E-02 0. -1.
    10030    2    1    2    0    0  0.00000000000E+00  0.00000000000E+00 -0.16808136720E+04  0.33557251181E+04  0.29044373755E+04 0.  0.
        3    1    3    3  502    0 -0.58131011077E+03 -0.12903137252E+04 -0.46405092787E+03  0.14893536277E+04  0.10100000352E+00 0. -1.
       -3    1    3    3    0  502  0.58131011077E+03  0.12903137252E+04 -0.12167627441E+04  0.18663714904E+04  0.10100000352E+00 0.  1.
</event>
<event>
 5   0  0.2360103E-06  0.2912404E+04  0.7818609E-02  0.8269196E-01
        2   -1    0    0  501    0  0.00000000000E+00  0.00000000000E+00  0.18626187342E+04  0.18626187342E+04  0.25500000920E-02 0.  1.
       -2   -1    0    0    0  501  0.00000000000E+00  0.00000000000E+00 -0.11384639323E+04  0.11384639323E+04  0.25500000920E-02 0. -1.
    10030    2    1    2    0    0  0.00000000000E+00  0.00000000000E+00  0.72415480189E+03  0.30010826664E+04  0.29124039887E+04 0.  0.
        4    1    3    3  502    0 -0.10093681324E+04 -0.79878364630E+03  0.10637238525E+04  0.16698471150E+04  0.12699999809E+01 0.  1.
       -4    1    3    3    0  502  0.10093681324E+04  0.79878364630E+03 -0.33956905063E+03  0.13312355514E+04  0.12699999809E+01 0. -1.
</event>
<event>
 5   0  0.8947674E-07  0.2744621E+04  0.7818609E-02  0.8320671E-01
       -1   -1    0    0    0  501  0.00000000000E+00  0.00000000000E+00  0.10854524660E+04  0.10854524660E+04  0.50400001928E-02 0. -1.
        1   -1    0    0  501    0  0.00000000000E+00  0.00000000000E+00 -0.17349778661E+04  0.17349778661E+04  0.50400001928E-02 0.  1.
    10030    2    1    2    0    0  0.00000000000E+00  0.00000000000E+00 -0.64952540005E+03  0.28204303321E+04  0.27446209234E+04 0.  0.
        3    1    3    3  502    0  0.46533284634E+03  0.12844963551E+04 -0.45784041992E+03  0.14408620352E+04  0.10100000352E+00 0. -1.
       -3    1    3    3    0  502 -0.46533284634E+03 -0.12844963551E+04 -0.19168498013E+03  0.13795682969E+04  0.10100000352E+00 0.  1.
</event>
<event>
 5   0  0.8947674E-07  0.2899329E+04  0.7818609E-02  0.8273077E-01
        1   -1    0    0  501    0  0.00000000000E+00  0.00000000000E+00  0.26472494553E+04  0.26472494553E+04  0.50400001928E-02 0. -1.
       -1   -1    0    0    0  501  0.00000000000E+00  0.00000000000E+00 -0.79385312685E+03  0.79385312687E+03  0.50400001928E-02 0.  1.
    10030    2    1    2    0    0  0.00000000000E+00  0.00000000000E+00  0.18533963285E+04  0.34411025822E+04  0.28993290656E+04 0.  0.
        3    1    3    3  502    0  0.80242187142E+03 -0.12650111724E+03  0.23517448838E+04  0.24880891063E+04  0.10100000352E+00 0. -1.
       -3    1    3    3    0  502 -0.80242187142E+03  0.12650111724E+03 -0.49834855532E+03  0.95301347587E+03  0.10100000352E+00 0.  1.
</event>
<event>
 5   0  0.2325590E-06  0.2892617E+04  0.7818609E-02  0.8275077E-01
        2   -1    0    0  501    0  0.00000000000E+00  0.00000000000E+00  0.27676665544E+04  0.27676665544E+04  0.25500000920E-02 0. -1.
       -2   -1    0    0    0  501  0.00000000000E+00  0.00000000000E+00 -0.75580234421E+03  0.75580234421E+03  0.25500000920E-02 0.  1.
    10030    2    1    2    0    0  0.00000000000E+00  0.00000000000E+00  0.20118642102E+04  0.35234688986E+04  0.28926174098E+04 0.  0.
        5    1    3    3  502    0  0.66929670455E+03 -0.54672348794E+03  0.24185607753E+04  0.25683307740E+04  0.46999998093E+01 0. -1.
       -5    1    3    3    0  502 -0.66929670455E+03  0.54672348794E+03 -0.40669656510E+03  0.95513812459E+03  0.46999998093E+01 0.  1.
</event>
<event>
 5   0  0.8355946E-07  0.2726161E+04  0.7818609E-02  0.8326566E-01
       -1   -1    0    0    0  501  0.00000000000E+00  0.00000000000E+00  0.10805076660E+04  0.10805076661E+04  0.50400001928E-02 0.  1.
        1   -1    0    0  501    0  0.00000000000E+00  0.00000000000E+00 -0.17195514269E+04  0.17195514269E+04  0.50400001928E-02 0. -1.
    10030    2    1    2    0    0  0.00000000000E+00  0.00000000000E+00 -0.63904376083E+03  0.28000590929E+04  0.27261610363E+04 0.  0.
        4    1    3    3  502    0  0.12934391132E+04 -0.33340765351E+03 -0.59862577439E+03  0.14637280600E+04  0.12699999809E+01 0. -1.
       -4    1    3    3    0  502 -0.12934391132E+04  0.33340765351E+03 -0.40417986439E+02  0.13363310329E+04  0.12699999809E+01 0.  1.
</event>
<event>
 5   0  0.8947674E-07  0.2904719E+04  0.7818609E-02  0.8271475E-01
       -1   -1    0    0    0  501  0.00000000000E+00  0.00000000000E+00  0.17258849955E+04  0.17258849955E+04  0.50400001928E-02 0.  1.
        1   -1    0    0  501    0  0.00000000000E+00  0.00000000000E+00 -0.12221834067E+04  0.12221834068E+04  0.50400001928E-02 0. -1.
    10030    2    1    2    0    0  0.00000000000E+00  0.00000000000E+00  0.50370158873E+03  0.29480684022E+04  0.29047189217E+04 0.  0.
        3    1    3    3  502    0 -0.10633834609E+04 -0.32964635114E+03  0.11984526068E+04  0.16357688598E+04  0.10100000352E+00 0.  1.
       -3    1    3    3    0  502  0.10633834609E+04  0.32964635114E+03 -0.69475101805E+03  0.13122995424E+04  0.10100000352E+00 0. -1.
</event>
<event>
 5   0  0.2425845E-06  0.2898038E+04  0.7818609E-02  0.8273462E-01
       -2   -1    0    0    0  501  0.00000000000E+00  0.00000000000E+00  0.16662878441E+04  0.16662878441E+04  0.25500000920E-02 0.  1.
        2   -1    0    0  501    0  0.00000000000E+00  0.00000000000E+00 -0.12600796370E+04  0.12600796370E+04  0.25500000920E-02 0. -1.
    10030    2    1    2    0    0  0.00000000000E+00  0.00000000000E+00  0.40620820716E+03  0.29263674811E+04  0.28980375303E+04 0.  0.
        2    1    3    3  502    0  0.12115684282E+04 -0.36960911727E+03  0.91364925626E+03  0.15618143037E+04  0.25500000920E-02 0.  1.
       -2    1    3    3    0  502 -0.12115684282E+04  0.36960911727E+03 -0.50744104911E+03  0.13645531774E+04  0.25500000920E-02 0. -1.
</event>
<event>
 5   0  0.8357118E-07  0.2929906E+04  0.7818609E-02  0.8264035E-01
        1   -1    0    0  501    0  0.00000000000E+00  0.00000000000E+00  0.12024463595E+04  0.12024463595E+04  0.50400001928E-02 0.  1.
       -1   -1    0    0    0  501  0.00000000000E+00  0.00000000000E+00 -0.17847680697E+04  0.17847680697E+04  0.50400001928E-02 0. -1.
    10030    2    1    2    0    0  0.00000000000E+00  0.00000000000E+00 -0.58232171014E+03  0.29872144292E+04  0.29299063930E+04 0.  0.
        1    1    3    3  502    0 -0.83053006128E+03  0.24411904498E+03 -0.14961033762E+04  0.17284963416E+04  0.50400001928E-02 0. -1.
       -1    1    3    3    0  502  0.83053006128E+03 -0.24411904498E+03  0.91378166602E+03  0.12587180876E+04  0.50400001928E-02 0.  1.
</event>
<event>
 5   0  0.2304435E-06  0.2908781E+04  0.7818609E-02  0.8270270E-01
       -2   -1    0    0    0  501  0.00000000000E+00  0.00000000000E+00  0.15221260094E+04  0.15221260094E+04  0.25500000920E-02 0. -1.
        2   -1    0    0  501    0  0.00000000000E+00  0.00000000000E+00 -0.13896691728E+04  0.13896691728E+04  0.25500000920E-02 0.  1.
    10030    2    1    2    0    0  0.00000000000E+00  0.00000000000E+00  0.13245683659E+03  0.29117951821E+04  0.29087809077E+04 0.  0.
        1    1    3    3  502    0 -0.10632870784E+04  0.98298692795E+03 -0.69591511956E+02  0.14497191763E+04  0.50400001928E-02 0.  1.
       -1    1    3    3    0  502  0.10632870784E+04 -0.98298692795E+03  0.20204834855E+03  0.14620760058E+04  0.50400001928E-02 0. -1.
</event>
<event>
 5   0  0.8483636E-07  0.2894081E+04  0.7818609E-02  0.8274641E-01
        1   -1    0    0  501    0  0.00000000000E+00  0.00000000000E+00  0.14480583691E+04  0.14480583691E+04  0.50400001928E-02 0.  1.
       -1   -1    0    0    0  501  0.00000000000E+00  0.00000000000E+00 -0.14460230610E+04  0.14460230610E+04  0.50400001928E-02 0. -1.
    10030    2    1    2    0    0  0.00000000000E+00  0.00000000000E+00  0.20353080516E+01  0.28940814301E+04  0.28940807144E+04 0.  0.
        2    1    3    3  502    0  0.36246447950E+03 -0.13362429422E+04  0.42173155141E+03  0.14473365887E+04  0.25500000920E-02 0.  1.
       -2    1    3    3    0  502 -0.36246447950E+03  0.13362429422E+04 -0.41969624336E+03  0.14467448414E+04  0.25500000920E-02 0. -1.
</event>
<event>
 5   0  0.8355946E-07  0.2859419E+04  0.7818609E-02  0.8285055E-01
       -1   -1    0    0    0  501  0.00000000000E+00  0.00000000000E+00  0.12176614168E+04  0.12176614168E+04  0.50400001928E-02 0. -1.
        1   -1    0    0  501    0  0.00000000000E+00  0.00000000000E+00 -0.16786839416E+04  0.16786839416E+04  0.50400001928E-02 0.  1.
    10030    2    1    2    0    0  0.00000000000E+00  0.00000000000E+00 -0.46102252482E+03  0.28963453584E+04  0.28594185890E+04 0.  0.
        4    1    3    3  502    0 -0.32869054624E+03 -0.28347780903E+03  0.11493104428E+04  0.12285411065E+04  0.12699999809E+01 0. -1.
       -4    1    3    3    0  502  0.32869054624E+03  0.28347780903E+03 -0.16103329676E+04  0.16678042520E+04  0.12699999809E+01 0.  1.
</event>
<event>
 5   0  0.2378690E-06  0.2889846E+04  0.7818609E-02  0.8275905E-01
        2   -1    0    0  501    0  0.00000000000E+00  0.00000000000E+00  0.15871722842E+04  0.15871722842E+04  0.25500000920E-02 0. -1.
       -2   -1    0    0    0  501  0.00000000000E+00  0.00000000000E+00 -0.13154230022E+04  0.13154230022E+04  0.25500000920E-02 0.  1.
    10030    2    1    2    0    0  0.00000000000E+00  0.00000000000E+00  0.27174928199E+03  0.29025952863E+04  0.28898463150E+04 0.  0.
        3    1    3    3  502    0  0.11897973147E+04 -0.74843320431E+03 -0.20031531921E+03  0.14198225765E+04  0.10100000352E+00 0. -1.
       -3    1    3    3    0  502 -0.11897973147E+04  0.74843320431E+03  0.47206460120E+03  0.14827727099E+04  0.10100000352E+00 0.  1.
</event>
<event>
 5   0  0.8947674E-07  0.2893036E+04  0.7818609E-02  0.8274952E-01
       -1   -1    0    0    0  501  0.00000000000E+00  0.00000000000E+00  0.15048705594E+04  0.15048705594E+04  0.50400001928E-02 0. -1.
        1   -1    0    0  501    0  0.00000000000E+00  0.00000000000E+00 -0.13904284143E+04  0.13904284143E+04  0.50400001928E-02 0.  1.
    10030    2    1    2    0    0  0.00000000000E+00  0.00000000000E+00  0.11444214502E+03  0.28952989737E+04  0.28930363189E+04 0.  0.
        3    1    3    3  502    0 -0.57495202635E+03  0.29695219526E+02 -0.12708296517E+04  0.13951557807E+04  0.10100000352E+00 0.  1.
       -3    1    3    3    0  502  0.57495202635E+03 -0.29695219526E+02  0.13852717967E+04  0.15001431930E+04  0.10100000352E+00 0. -1.
</event>
<event>
 5   0  0.2425845E-06  0.2909280E+04  0.7818609E-02  0.8270122E-01
       -2   -1    0    0    0  501  0.00000000000E+00  0.00000000000E+00  0.17049726696E+04  0.17049726696E+04  0.25500000920E-02 0. -1.
        2   -1    0    0  501    0  0.00000000000E+00  0.00000000000E+00 -0.12410627556E+04  0.12410627556E+04  0.25500000920E-02 0.  1.
    10030    2    1    2    0    0  0.00000000000E+00  0.00000000000E+00  0.46390991397E+03  0.29460354251E+04  0.29092803780E+04 0.  0.
        2    1    3    3  502    0 -0.23811864011E+03  0.54554080278E+03 -0.11120899574E+04  0.12613720021E+04  0.25500000920E-02 0.  1.
       -2    1    3    3    0  502  0.23811864011E+03 -0.54554080278E+03  0.15759998714E+04  0.16846634230E+04  0.25500000920E-02 0. -1.
</event>
<event>
 5   0  0.2378690E-06  0.2899624E+04  0.7818609E-02  0.8272989E-01
       -2   -1    0    0    0  501  0.00000000000E+00  0.00000000000E+00  0.10080178161E+04  0.10080178161E+04  0.25500000920E-02 0. -1.
        2   -1    0    0  501    0  0.00000000000E+00  0.00000000000E+00 -0.20852354319E+04  0.20852354319E+04  0.25500000920E-02 0.  1.
    10030    2    1    2    0    0  0.00000000000E+00  0.00000000000E+00 -0.10772176159E+04  0.30932532480E+04  0.28996237453E+04 0.  0.
        3    1    3    3  502    0 -0.10285853266E+04  0.81024047461E+03  0.12543514345E+03  0.13153749984E+04  0.10100000352E+00 0. -1.
       -3    1    3    3    0  502  0.10285853266E+04 -0.81024047461E+03 -0.12026527593E+04  0.17778782497E+04  0.10100000352E+00 0.  1.
</event>
<event>
 5   0  0.2425845E-06  0.2921436E+04  0.7818609E-02  0.8266528E-01
       -2   -1    0    0    0  501  0.00000000000E+00  0.00000000000E+00  0.13741136010E+04  0.13741136010E+04  0.25500000920E-02 0. -1.
        2   -1    0    0  501    0  0.00000000000E+00  0.00000000000E+00 -0.15527807879E+04  0.15527807879E+04  0.25500000920E-02 0.  1.
    10030    2    1    2    0    0  0.00000000000E+00  0.00000000000E+00 -0.17866718689E+03  0.29268943890E+04  0.29214360853E+04 0.  0.
        2    1    3    3  502    0 -0.69704967035E+03  0.32584496635E+03 -0.13332829889E+04  0.15393819258E+04  0.25500000920E-02 0.  1.
       -2    1    3    3    0  502  0.69704967035E+03 -0.32584496635E+03  0.11546158020E+04  0.13875124631E+04  0.25500000920E-02 0. -1.
</event>
<event>
 5   0  0.2360103E-06  0.2896446E+04  0.7818609E-02  0.8273936E-01
        2   -1    0    0  501    0  0.00000000000E+00  0.00000000000E+00  0.24292809555E+04  0.24292809555E+04  0.25500000920E-02 0. -1.
       -2   -1    0    0    0  501  0.00000000000E+00  0.00000000000E+00 -0.86336221712E+03  0.86336221712E+03  0.25500000920E-02 0.  1.
    10030    2    1    2    0    0  0.00000000000E+00  0.00000000000E+00  0.15659187383E+04  0.32926431726E+04  0.28964456782E+04 0.  0.
        4    1    3    3  502    0 -0.38393791299E+03  0.44717589674E+03 -0.72085758291E+03  0.93113472247E+03  0.12699999809E+01 0.  1.
       -4    1    3    3    0  502  0.38393791299E+03 -0.44717589674E+03  0.22867763213E+04  0.23615084501E+04  0.12699999809E+01 0. -1.
</event>
<event>
 5   0  0.8263673E-07  0.2889329E+04  0.7818609E-02  0.8276060E-01
       -1   -1    0    0    0  501  0.00000000000E+00  0.00000000000E+00  0.16104097395E+04  0.16104097395E+04  0.50400001928E-02 0. -1.
        1   -1    0    0  501    0  0.00000000000E+00  0.00000000000E+00 -0.12959775499E+04  0.12959775499E+04  0.50400001928E-02 0.  1.
    10030    2    1    2    0    0  0.00000000000E+00  0.00000000000E+00  0.31443218957E+03  0.29063872894E+04  0.28893285508E+04 0.  0.
        5    1    3    3  502    0 -0.12502564034E+03 -0.11731256433E+04  0.99591183882E+03  0.15439292945E+04  0.46999998093E+01 0. -1.
       -5    1    3    3    0  502  0.12502564034E+03  0.11731256433E+04 -0.68147964925E+03  0.13624579950E+04  0.46999998093E+01 0.  1.
</event>
<event>
 5   0  0.8357118E-07  0.2895923E+04  0.7818609E-02  0.8274091E-01
        1   -1    0    0  501    0  0.00000000000E+00  0.00000000000E+00  0.15639000873E+04  0.15639000874E+04  0.50400001928E-02 0. -1.
       -1   -1    0    0    0  501  0.00000000000E+00  0.00000000000E+00 -0.13406180945E+04  0.13406180946E+04  0.50400001928E-02 0.  1.
    10030    2    1    2    0    0  0.00000000000E+00  0.00000000000E+00  0.22328199280E+03  0.29045181819E+04  0.28959231724E+04 0.  0.
        1    1    3    3  502    0  0.96136546003E+03  0.13581793254E+03 -0.96575515837E+03  0.13694353159E+04  0.50400001928E-02 0.  1.
       -1    1    3    3    0  502 -0.96136546003E+03 -0.13581793254E+03  0.11890371512E+04  0.15350828660E+04  0.50400001928E-02 0. -1.
</event>
<event>
 5   0  0.2425845E-06  0.2905729E+04  0.7818609E-02  0.8271175E-01
        2   -1    0    0  501    0  0.00000000000E+00  0.00000000000E+00  0.24852577080E+04  0.24852577080E+04  0.25500000920E-02 0.  1.
       -2   -1    0    0    0  501  0.00000000000E+00  0.00000000000E+00 -0.84933445917E+03  0.84933445918E+03  0.25500000920E-02 0. -1.
    10030    2    1    2    0    0  0.00000000000E+00  0.00000000000E+00  0.16359232488E+04  0.33345921672E+04  0.29057288320E+04 0.  0.
        2    1    3    3  502    0  0.14352174613E+04  0.30206142447E+02  0.56121508179E+03  0.15413383601E+04  0.25500000920E-02 0. -1.
       -2    1    3    3    0  502 -0.14352174613E+04 -0.30206142447E+02  0.10747081670E+04  0.17932538071E+04  0.25500000920E-02 0.  1.
</event>
<event>
 5   0  0.2425845E-06  0.2866318E+04  0.7818609E-02  0.8282970E-01
       -2   -1    0    0    0  501  0.00000000000E+00  0.00000000000E+00  0.11879337095E+04  0.11879337095E+04  0.25500000920E-02 0.  1.
        2   -1    0    0  501    0  0.00000000000E+00  0.00000000000E+00 -0.17290066460E+04  0.17290066460E+04  0.25500000920E-02 0. -1.
    10030    2    1    2    0    0  0.00000000000E+00  0.00000000000E+00 -0.54107293651E+03  0.29169403555E+04  0.28663183903E+04 0.  0.
        2    1    3    3  502    0 -0.92891306825E+03  0.10903699125E+04 -0.31782480113E+03  0.14672418474E+04  0.25500000920E-02 0. -1.
       -2    1    3    3    0  502  0.92891306825E+03 -0.10903699125E+04 -0.22324813538E+03  0.14496985081E+04  0.25500000920E-02 0.  1.
</event>
<event>
 5   0  0.2378690E-06  0.2913364E+04  0.7818609E-02  0.8268913E-01
        2   -1    0    0  501    0  0.00000000000E+00  0.00000000000E+00  0.20542499161E+04  0.20542499161E+04  0.25500000920E-02 0. -1.
       -2   -1    0    0    0  501  0.00000000000E+00  0.00000000000E+00 -0.10329424018E+04  0.10329424018E+04  0.25500000920E-02 0.  1.
    10030    2    1    2    0    0  0.00000000000E+00  0.00000000000E+00  0.10213075142E+04  0.30871923179E+04  0.29133635834E+04 0.  0.
        3    1    3    3  502    0 -0.12563045306E+04 -0.67054124484E+03  0.83553289949E+03  0.16510729453E+04  0.10100000352E+00 0. -1.
       -3    1    3    3    0  502  0.12563045306E+04  0.67054124484E+03  0.18577461473E+03  0.14361193725E+04  0.10100000352E+00 0.  1.
</event>
<event>
 5   0  0.8483636E-07  0.2900659E+04  0.7818609E-02  0.8272681E-01
        1   -1    0    0  501    0  0.00000000000E+00  0.00000000000E+00  0.97195218570E+03  0.97195218571E+03  0.50400001928E-02 0.  1.
       -1   -1    0    0    0  501  0.00000000000E+00  0.00000000000E+00 -0.21641555135E+04  0.21641555135E+04  0.50400001928E-02 0. -1.
    10030    2    1    2    0    0  0.00000000000E+00  0.00000000000E+00 -0.11922033278E+04  0.31361076992E+04  0.29006590158E+04 0.  0.
        2    1    3    3  502    0 -0.54656294902E+03  0.89028623624E+03  0.49159858920E+03  0.11545604413E+04  0.25500000920E-02 0.  1.
       -2    1    3    3    0  502  0.54656294902E+03 -0.89028623624E+03 -0.16838019170E+04  0.19815472579E+04  0.25500000920E-02 0. -1.
</event>
<event>
 5   0  0.8357118E-07  0.2897221E+04  0.7818609E-02  0.8273705E-01
       -1   -1    0    0    0  501  0.00000000000E+00  0.00000000000E+00  0.12190996010E+04  0.12190996010E+04  0.50400001928E-02 0. -1.
        1   -1    0    0  501    0  0.00000000000E+00  0.00000000000E+00 -0.17213294103E+04  0.17213294104E+04  0.50400001928E-02 0.  1.
    10030    2    1    2    0    0  0.00000000000E+00  0.00000000000E+00 -0.50222980934E+03  0.29404290114E+04  0.28972207354E+04 0.  0.
        1    1    3    3  502    0 -0.94314227254E+03 -0.48743553422E+03  0.74916029595E+03  0.12993659590E+04  0.50400001928E-02 0. -1.
       -1    1    3    3    0  502  0.94314227254E+03  0.48743553422E+03 -0.12513901053E+04  0.16410630524E+04  0.50400001928E-02 0.  1.
</event>
<event>
 5   0  0.2425845E-06  0.2900050E+04  0.7818609E-02  0.8272863E-01
       -2   -1    0    0    0  501  0.00000000000E+00  0.00000000000E+00  0.13277154756E+04  0.13277154756E+04  0.25500000920E-02 0. -1.
        2   -1    0    0  501    0  0.00000000000E+00  0.00000000000E+00 -0.15836019648E+04  0.15836019648E+04  0.25500000920E-02 0.  1.
    10030    2    1    2    0    0  0.00000000000E+00  0.00000000000E+00 -0.25588648915E+03  0.29113174404E+04  0.29000502312E+04 0.  0.
        2    1    3    3  502    0 -0.13673481607E+03 -0.10618123781E+04  0.85382920555E+03  0.13693670978E+04  0.25500000920E-02 0. -1.
       -2    1    3    3    0  502  0.13673481607E+03  0.10618123781E+04 -0.11097156947E+04  0.15419503427E+04  0.25500000920E-02 0.  1.
</event>
<event>
 5   0  0.2325590E-06  0.2900902E+04  0.7818609E-02  0.8272609E-01
       -2   -1    0    0    0  501  0.00000000000E+00  0.00000000000E+00  0.18878311192E+04  0.18878311192E+04  0.25500000920E-02 0.  1.
        2   -1    0    0  501    0  0.00000000000E+00  0.00000000000E+00 -0.11144049310E+04  0.11144049310E+04  0.25500000920E-02 0. -1.
    10030    2    1    2    0    0  0.00000000000E+00  0.00000000000E+00  0.77342618819E+03  0.30022360503E+04  0.29009021412E+04 0.  0.
        5    1    3    3  502    0  0.84389783080E+03 -0.73780363757E+03 -0.56591256995E+03  0.12557057312E+04  0.46999998093E+01 0. -1.
       -5    1    3    3    0  502 -0.84389783080E+03  0.73780363757E+03  0.13393387581E+04  0.17465303191E+04  0.46999998093E+01 0.  1.
</event>
<event>
 5   0  0.8483636E-07  0.2897136E+04  0.7818609E-02  0.8273730E-01
       -1   -1    0    0    0  501  0.00000000000E+00  0.00000000000E+00  0.11478639446E+04  0.11478639446E+04  0.50400001928E-02 0. -1.
        1   -1    0    0  501    0  0.00000000000E+00  0.00000000000E+00 -0.18280474349E+04  0.18280474349E+04  0.50400001928E-02 0.  1.
    10030    2    1    2    0    0  0.00000000000E+00  0.00000000000E+00 -0.68018349030E+03  0.29759113795E+04  0.28971363376E+04 0.  0.
        2    1    3    3  502    0 -0.41766036540E+03 -0.48811864375E+03 -0.16737198241E+04  0.17927738398E+04  0.25500000920E-02 0.  1.
       -2    1    3    3    0  502  0.41766036540E+03  0.48811864375E+03  0.99353633381E+03  0.11831375397E+04  0.25500000920E-02 0. -1.
</event>
<event>
 5   0  0.8263673E-07  0.2881732E+04  0.7818609E-02  0.8278333E-01
       -1   -1    0    0    0  501  0.00000000000E+00  0.00000000000E+00  0.93903671079E+03  0.93903671081E+03  0.50400001928E-02 0. -1.
        1   -1    0    0  501    0  0.00000000000E+00  0.00000000000E+00 -0.22108775192E+04  0.22108775192E+04  0.50400001928E-02 0.  1.
    10030    2    1    2    0    0  0.00000000000E+00  0.00000000000E+00 -0.12718408084E+04  0.31499142301E+04  0.28817322247E+04 0.  0.
        5    1    3    3  502    0 -0.72778342327E+03 -0.23508024520E+03 -0.19706846142E+04  0.21138948346E+04  0.46999998093E+01 0.  1.
       -5    1    3    3    0  502  0.72778342327E+03  0.23508024520E+03  0.69884380580E+03  0.10360193955E+04  0.46999998093E+01 0. -1.
</event>
<event>
 5   0  0.2360103E-06  0.2899868E+04  0.7818609E-02  0.8272917E-01
       -2   -1    0    0    0  501  0.00000000000E+00  0.00000000000E+00  0.88799003594E+03  0.88799003595E+03  0.25500000920E-02 0.  1.
        2   -1    0    0  501    0  0.00000000000E+00  0.00000000000E+00 -0.23674918130E+04  0.23674918130E+04  0.25500000920E-02 0. -1.
    10030    2    1    2    0    0  0.00000000000E+00  0.00000000000E+00 -0.14795017770E+04  0.32554818489E+04  0.28998683695E+04 0.  0.
        4    1    3    3  502    0 -0.70326984025E+03 -0.80569898363E+03 -0.18388794758E+04  0.21272561340E+04  0.12699999809E+01 0. -1.
       -4    1    3    3    0  502  0.70326984025E+03  0.80569898363E+03  0.35937769877E+03  0.11282257149E+04  0.12699999809E+01 0.  1.
</event>
<event>
 5   0  0.8947674E-07  0.2910793E+04  0.7818609E-02  0.8269674E-01
        1   -1    0    0  501    0  0.00000000000E+00  0.00000000000E+00  0.27629348793E+04  0.27629348793E+04  0.50400001928E-02 0. -1.
       -1   -1    0    0    0  501  0.00000000000E+00  0.00000000000E+00 -0.76664085501E+03  0.76664085502E+03  0.50400001928E-02 0.  1.
    10030    2    1    2    0    0  0.00000000000E+00  0.00000000000E+00  0.19962940243E+04  0.35295757343E+04  0.29107928530E+04 0.  0.
        3    1    3    3  502    0  0.95690318760E+03  0.71405393034E+03  0.20073200137E+04  0.23355663924E+04  0.10100000352E+00 0. -1.
       -3    1    3    3    0  502 -0.95690318760E+03 -0.71405393034E+03 -0.11025989412E+02  0.11940093419E+04  0.10100000352E+00 0.  1.
</event>
<event>
 5   0  0.8483636E-07  0.2920217E+04  0.7818609E-02  0.8266888E-01
       -1   -1    0    0    0  501  0.00000000000E+00  0.00000000000E+00  0.13168361449E+04  0.13168361449E+04  0.50400001928E-02 0. -1.
        1   -1    0    0  501    0  0.00000000000E+00  0.00000000000E+00 -0.16189691626E+04  0.16189691626E+04  0.50400001928E-02 0.  1.
    10030    2    1    2    0    0  0.00000000000E+00  0.00000000000E+00 -0.30213301774E+03  0.29358053075E+04  0.29202171911E+04 0.  0.
        2    1    3    3  502    0  0.95340571247E+03 -0.10851142072E+04  0.63289412666E+02  0.14458426073E+04  0.25500000920E-02 0. -1.
       -2    1    3    3    0  502 -0.95340571247E+03  0.10851142072E+04 -0.36542243040E+03  0.14899627002E+04  0.25500000920E-02 0.  1.
</event>
<event>
 5   0  0.2425845E-06  0.2908032E+04  0.7818609E-02  0.8270492E-01
       -2   -1    0    0    0  501  0.00000000000E+00  0.00000000000E+00  0.14378904161E+04  0.14378904161E+04  0.25500000920E-02 0. -1.
        2   -1    0    0  501    0  0.00000000000E+00  0.00000000000E+00 -0.14703228796E+04  0.14703228796E+04  0.25500000920E-02 0.  1.
    10030    2    1    2    0    0  0.00000000000E+00  0.00000000000E+00 -0.32432463550E+02  0.29082132957E+04  0.29080324463E+04 0.  0.
        2    1    3    3  502    0 -0.92422754440E+03 -0.57817609610E+03  0.94596574894E+03  0.14433763716E+04  0.25500000920E-02 0. -1.
       -2    1    3    3    0  502  0.92422754440E+03  0.57817609610E+03 -0.97839821249E+03  0.14648369241E+04  0.25500000920E-02 0.  1.
</event>
<event>
 5   0  0.2325590E-06  0.2897491E+04  0.7818609E-02  0.8273624E-01
       -2   -1    0    0    0  501  0.00000000000E+00  0.00000000000E+00  0.78006206498E+03  0.78006206498E+03  0.25500000920E-02 0. -1.
        2   -1    0    0  501    0  0.00000000000E+00  0.00000000000E+00 -0.26906373444E+04  0.26906373444E+04  0.25500000920E-02 0.  1.
    10030    2    1    2    0    0  0.00000000000E+00  0.00000000000E+00 -0.19105752794E+04  0.34706994094E+04  0.28974914136E+04 0.  0.
        5    1    3    3  502    0  0.42933305923E+03 -0.19331977946E+03 -0.25964195099E+04  0.26387716412E+04  0.46999998093E+01 0.  1.
       -5    1    3    3    0  502 -0.42933305923E+03  0.19331977946E+03  0.68584423053E+03  0.83192776816E+03  0.46999998093E+01 0. -1.
</event>
<event>
 5   0  0.8355946E-07  0.2897087E+04  0.7818609E-02  0.8273745E-01
        1   -1    0    0  501    0  0.00000000000E+00  0.00000000000E+00  0.20338332121E+04  0.20338332121E+04  0.50400001928E-02 0.  1.
       -1   -1    0    0    0  501  0.00000000000E+00  0.00000000000E+00 -0.10316863058E+04  0.10316863058E+04  0.50400001928E-02 0. -1.
    10030    2    1    2    0    0  0.00000000000E+00  0.00000000000E+00  0.10021469063E+04  0.30655195179E+04  0.28970867251E+04 0.  0.
        4    1    3    3  502    0  0.32102498212E+02 -0.81487058361E+03 -0.76570532809E+03  0.11186379668E+04  0.12699999809E+01 0. -1.
       -4    1    3    3    0  502 -0.32102498212E+02  0.81487058361E+03  0.17678522344E+04  0.19468815511E+04  0.12699999809E+01 0.  1.
</event>
<event>
 5   0  0.2325590E-06  0.2864402E+04  0.7818609E-02  0.8283548E-01
       -2   -1    0    0    0  501  0.00000000000E+00  0.00000000000E+00  0.14040646844E+04  0.14040646844E+04  0.25500000920E-02 0.  1.
        2   -1    0    0  501    0  0.00000000000E+00  0.00000000000E+00 -0.14609011861E+04  0.14609011861E+04  0.25500000920E-02 0. -1.
    10030    2    1    2    0    0  0.00000000000E+00  0.00000000000E+00 -0.56836501665E+02  0.28649658705E+04  0.28644020408E+04 0.  0.
        5    1    3    3  502    0 -0.97401684644E+03 -0.10067868393E+04 -0.32655261227E+03  0.14383974609E+04  0.46999998093E+01 0. -1.
       -5    1    3    3    0  502  0.97401684644E+03  0.10067868393E+04  0.26971611061E+03  0.14265684096E+04  0.46999998093E+01 0.  1.
</event>
<event>
 5   0  0.8947674E-07  0.2887290E+04  0.7818609E-02  0.8276669E-01
       -1   -1    0    0    0  501  0.00000000000E+00  0.00000000000E+00  0.18377965084E+04  0.18377965084E+04  0.50400001928E-02 0.  1.
        1   -1    0    0  501    0  0.00000000000E+00  0.00000000000E+00 -0.11340269103E+04  0.11340269103E+04  0.50400001928E-02 0. -1.
    10030    2    1    2    0    0  0.00000000000E+00  0.00000000000E+00  0.70376959815E+03  0.29718234188E+04  0.28872898685E+04 0.  0.
        3    1    3    3  502    0 -0.36367079187E+03  0.10688908023E+04 -0.57408014739E+03  0.12666301820E+04  0.10100000352E+00 0. -1.
       -3    1    3    3    0  502  0.36367079187E+03 -0.10688908023E+04  0.12778497455E+04  0.17051932367E+04  0.10100000352E+00 0.  1.
</event>
<event>
 5   0  0.2425845E-06  0.2900842E+04  0.7818609E-02  0.8272627E-01
       -2   -1    0    0    0  501  0.00000000000E+00  0.00000000000E+00  0.13942263981E+04  0.13942263981E+04  0.25500000920E-02 0.  1.
        2   -1    0    0  501    0  0.00000000000E+00  0.00000000000E+00 -0.15088808876E+04  0.15088808876E+04  0.25500000920E-02 0. -1.
    10030    2    1    2    0    0  0.00000000000E+00  0.00000000000E+00 -0.11465448957E+03  0.29031072857E+04  0.29008423363E+04 0.  0.
        2    1    3    3  502    0  0.79326984011E+03  0.12006160616E+04  0.12437882812E+03  0.14443773951E+04  0.25500000920E-02 0.  1.
       -2    1    3    3    0  502 -0.79326984011E+03 -0.12006160616E+04 -0.23903331769E+03  0.14587298906E+04  0.25500000920E-02 0. -1.
</event>
<event>
 5   0  0.2378690E-06  0.2896197E+04  0.7818609E-02  0.8274010E-01
       -2   -1    0    0    0  501  0.00000000000E+00  0.00000000000E+00  0.92996404539E+03  0.92996404539E+03  0.25500000920E-02 0.  1.
        2   -1    0    0  501    0  0.00000000000E+00  0.00000000000E+00 -0.22549149432E+04  0.22549149432E+04  0.25500000920E-02 0. -1.
    10030    2    1    2    0    0  0.00000000000E+00  0.00000000000E+00 -0.13249508978E+04  0.31848789886E+04  0.28961973846E+04 0.  0.
        3    1    3    3  502    0 -0.30569510325E+03  0.14093338476E+04 -0.80719224512E+03  0.16526435553E+04  0.10100000352E+00 0.  1.
       -3    1    3    3    0  502  0.30569510325E+03 -0.14093338476E+04 -0.51775865270E+03  0.15322354332E+04  0.10100000352E+00 0. -1.
</event>
<event>
 5   0  0.2304435E-06  0.2880272E+04  0.7818609E-02  0.8278771E-01
        2   -1    0    0  501    0  0.00000000000E+00  0.00000000000E+00  0.18217308179E+04  0.18217308179E+04  0.25500000920E-02 0.  1.
       -2   -1    0    0    0  501  0.00000000000E+00  0.00000000000E+00 -0.11384731712E+04  0.11384731712E+04  0.25500000920E-02 0. -1.
    10030    2    1    2    0    0  0.00000000000E+00  0.00000000000E+00  0.68325764671E+03  0.29602039892E+04  0.28802719743E+04 0.  0.
        1    1    3    3  502    0 -0.58387360099E+03 -0.10757673096E+04  0.11215073791E+04  0.16601091794E+04  0.50400001928E-02 0.  1.
       -1    1    3    3    0  502  0.58387360099E+03  0.10757673096E+04 -0.43824973238E+03  0.13000948097E+04  0.50400001928E-02 0. -1.
</event>
<event>
 5   0  0.8357118E-07  0.2939259E+04  0.7818609E-02  0.8261292E-01
        1   -1    0    0  501    0  0.00000000000E+00  0.00000000000E+00  0.16678202315E+04  0.16678202315E+04  0.50400001928E-02 0. -1.
       -1   -1    0    0    0  501  0.00000000000E+00  0.00000000000E+00 -0.12949902001E+04  0.12949902001E+04  0.50400001928E-02 0.  1.
    10030    2    1    2    0    0  0.00000000000E+00  0.00000000000E+00  0.37283003142E+03  0.29628104316E+04  0.29392589919E+04 0.  0.
        1    1    3    3  502    0 -0.41441690447E+03  0.64707478858E+02  0.16062045640E+04  0.16600667246E+04  0.50400001928E-02 0. -1.
       -1    1    3    3    0  502  0.41441690447E+03 -0.64707478858E+02 -0.12333745326E+04  0.13027437070E+04  0.50400001928E-02 0.  1.
</event>
<event>
 5   0  0.2378690E-06  0.3049582E+04  0.7818609E-02  0.8229713E-01
       -2   -1    0    0    0  501  0.00000000000E+00  0.00000000000E+00  0.12813258361E+04  0.12813258361E+04  0.25500000920E-02 0.  1.
        2   -1    0    0  501    0  0.00000000000E+00  0.00000000000E+00 -0.18145168148E+04  0.18145168148E+04  0.25500000920E-02 0. -1.
    10030    2    1    2    0    0  0.00000000000E+00  0.00000000000E+00 -0.53319097868E+03  0.30958426509E+04  0.30495817909E+04 0.  0.
        3    1    3    3  502    0  0.28351652112E+03  0.88843602127E+03  0.95805717212E+03  0.13370017715E+04  0.10100000352E+00 0.  1.
       -3    1    3    3    0  502 -0.28351652112E+03 -0.88843602127E+03 -0.14912481508E+04  0.17588408794E+04  0.10100000352E+00 0. -1.
</event>
<event>
 5   0  0.8355946E-07  0.2891002E+04  0.7818609E-02  0.8275560E-01
       -1   -1    0    0    0  501  0.00000000000E+00  0.00000000000E+00  0.29078017404E+04  0.29078017404E+04  0.50400001928E-02 0. -1.
        1   -1    0    0  501    0  0.00000000000E+00  0.00000000000E+00 -0.71857465648E+03  0.71857465650E+03  0.50400001928E-02 0.  1.
    10030    2    1    2    0    0  0.00000000000E+00  0.00000000000E+00  0.21892270840E+04  0.36263763969E+04  0.28910016512E+04 0.  0.
        4    1    3    3  502    0  0.56378830684E+03 -0.98139409214E+03  0.22224834775E+04  0.24940781943E+04  0.12699999809E+01 0. -1.
       -4    1    3    3    0  502 -0.56378830684E+03  0.98139409214E+03 -0.33256393496E+02  0.11322982026E+04  0.12699999809E+01 0.  1.
</event>
<event>
 5   0  0.2325590E-06  0.2860910E+04  0.7818609E-02  0.8284604E-01
       -2   -1    0    0    0  501  0.00000000000E+00  0.00000000000E+00  0.11317451349E+04  0.11317451349E+04  0.25500000920E-02 0. -1.
        2   -1    0    0  501    0  0.00000000000E+00  0.00000000000E+00 -0.18080056157E+04  0.18080056157E+04  0.25500000920E-02 0.  1.
    10030    2    1    2    0    0  0.00000000000E+00  0.00000000000E+00 -0.67626048084E+03  0.29397507507E+04  0.28609100367E+04 0.  0.
        5    1    3    3  502    0  0.13655727855E+04  0.25152035945E+03 -0.69129928835E+03  0.15511184093E+04  0.46999998093E+01 0.  1.
       -5    1    3    3    0  502 -0.13655727855E+04 -0.25152035945E+03  0.15038807505E+02  0.13886323413E+04  0.46999998093E+01 0. -1.
</event>
<event>
 5   0  0.8355946E-07  0.2879080E+04  0.7818609E-02  0.8279129E-01
        1   -1    0    0  501    0  0.00000000000E+00  0.00000000000E+00  0.27966343277E+04  0.27966343277E+04  0.50400001928E-02 0. -1.
       -1   -1    0    0    0  501  0.00000000000E+00  0.00000000000E+00 -0.74098889462E+03  0.74098889464E+03  0.50400001928E-02 0.  1.
    10030    2    1    2    0    0  0.00000000000E+00  0.00000000000E+00  0.20556454331E+04  0.35376232223E+04  0.28790796996E+04 0.  0.
        4    1    3    3  502    0  0.60643806600E+03  0.39904376355E+03 -0.49960307418E+03  0.88125359447E+03  0.12699999809E+01 0.  1.
       -4    1    3    3    0  502 -0.60643806600E+03 -0.39904376355E+03  0.25552485072E+04  0.26563696278E+04  0.12699999809E+01 0. -1.
</event>
<event>
 5   0  0.8263673E-07  0.2860477E+04  0.7818609E-02  0.8284735E-01
        1   -1    0    0  501    0  0.00000000000E+00  0.00000000000E+00  0.10212803937E+04  0.10212803937E+04  0.50400001928E-02 0. -1.
       -1   -1    0    0    0  501  0.00000000000E+00  0.00000000000E+00 -0.20029581021E+04  0.20029581022E+04  0.50400001928E-02 0.  1.
    10030    2    1    2    0    0  0.00000000000E+00  0.00000000000E+00 -0.98167770849E+03  0.30242384958E+04  0.28604767708E+04 0.  0.
        5    1    3    3  502    0  0.45982915133E+03  0.14574080411E+03 -0.19143527924E+04  0.19741965288E+04  0.46999998093E+01 0.  1.
       -5    1    3    3    0  502 -0.45982915133E+03 -0.14574080411E+03  0.93267508392E+03  0.10500419670E+04  0.46999998093E+01 0. -1.
</event>
<event>
 5   0  0.2304435E-06  0.2897590E+04  0.7818609E-02  0.8273595E-01
        2   -1    0    0  501    0  0.00000000000E+00  0.00000000000E+00  0.19833452947E+04  0.19833452947E+04  0.25500000920E-02 0.  1.
       -2   -1    0    0    0  501  0.00000000000E+00  0.00000000000E+00 -0.10583163445E+04  0.10583163445E+04  0.25500000920E-02 0. -1.
    10030    2    1    2    0    0  0.00000000000E+00  0.00000000000E+00  0.92502895016E+03  0.30416616392E+04  0.28975898551E+04 0.  0.
        1    1    3    3  502    0 -0.13493521010E+04  0.32108592541E+03  0.23184526662E+02  0.13872219672E+04  0.50400001928E-02 0. -1.
       -1    1    3    3    0  502  0.13493521010E+04 -0.32108592541E+03  0.90184442350E+03  0.16544396720E+04  0.50400001928E-02 0.  1.
</event>
<event>
 5   0  0.2360103E-06  0.2788525E+04  0.7818609E-02  0.8306840E-01
       -2   -1    0    0    0  501  0.00000000000E+00  0.00000000000E+00  0.14334281124E+04  0.14334281124E+04  0.25500000920E-02 0.  1.
        2   -1    0    0  501    0  0.00000000000E+00  0.00000000000E+00 -0.13561668416E+04  0.13561668416E+04  0.25500000920E-02 0. -1.
    10030    2    1    2    0    0  0.00000000000E+00  0.00000000000E+00  0.77261270845E+02  0.27895949540E+04  0.27885248257E+04 0.  0.
        4    1    3    3  502    0 -0.77967517843E+03  0.10153432099E+04  0.59124722976E+03  0.14101028748E+04  0.12699999809E+01 0.  1.
       -4    1    3    3    0  502  0.77967517843E+03 -0.10153432099E+04 -0.51398595892E+03  0.13794920792E+04  0.12699999809E+01 0. -1.
</event>
<event>
 5   0  0.2378690E-06  0.2892197E+04  0.7818609E-02  0.8275203E-01
       -2   -1    0    0    0  501  0.00000000000E+00  0.00000000000E+00  0.13085131348E+04  0.13085131348E+04  0.25500000920E-02 0.  1.
        2   -1    0    0  501    0  0.00000000000E+00  0.00000000000E+00 -0.15981504303E+04  0.15981504303E+04  0.25500000920E-02 0. -1.
    10030    2    1    2    0    0  0.00000000000E+00  0.00000000000E+00 -0.28963729552E+03  0.29066635651E+04  0.28921969708E+04 0.  0.
        3    1    3    3  502    0 -0.11246640464E+04  0.44626262692E+03 -0.94072769227E+03  0.15326409073E+04  0.10100000352E+00 0. -1.
       -3    1    3    3    0  502  0.11246640464E+04 -0.44626262692E+03  0.65109039675E+03  0.13740226579E+04  0.10100000352E+00 0.  1.
</event>
<event>
 5   0  0.8355946E-07  0.2895622E+04  0.7818609E-02  0.8274181E-01
       -1   -1    0    0    0  501  0.00000000000E+00  0.00000000000E+00  0.12272979244E+04  0.12272979244E+04  0.50400001928E-02 0.  1.
        1   -1    0    0  501    0  0.00000000000E+00  0.00000000000E+00 -0.17079442688E+04  0.17079442688E+04  0.50400001928E-02 0. -1.
    10030    2    1    2    0    0  0.00000000000E+00  0.00000000000E+00 -0.48064634445E+03  0.29352421932E+04  0.28956218373E+04 0.  0.
        4    1    3    3  502    0 -0.12856359191E+04 -0.40035031727E+03 -0.77959363531E+03  0.15559267149E+04  0.12699999809E+01 0. -1.
       -4    1    3    3    0  502  0.12856359191E+04  0.40035031727E+03  0.29894729086E+03  0.13793154783E+04  0.12699999809E+01 0.  1.
</event>
<event>
 5   0  0.8483636E-07  0.2900888E+04  0.7818609E-02  0.8272613E-01
        1   -1    0    0  501    0  0.00000000000E+00  0.00000000000E+00  0.17275096481E+04  0.17275096481E+04  0.50400001928E-02 0.  1.
       -1   -1    0    0    0  501  0.00000000000E+00  0.00000000000E+00 -0.12178150772E+04  0.12178150772E+04  0.50400001928E-02 0. -1.
    10030    2    1    2    0    0  0.00000000000E+00  0.00000000000E+00  0.50969457090E+03  0.29453247254E+04  0.29008876542E+04 0.  0.
        2    1    3    3  502    0 -0.20336286213E+03  0.11583975005E+04 -0.60700562226E+03  0.13235169241E+04  0.25500000920E-02 0. -1.
       -2    1    3    3    0  502  0.20336286213E+03 -0.11583975005E+04  0.11167001932E+04  0.16218078013E+04  0.25500000920E-02 0.  1.
</event>
<event>
 5   0  0.2325590E-06  0.2906844E+04  0.7818609E-02  0.8270844E-01
       -2   -1    0    0    0  501  0.00000000000E+00  0.00000000000E+00  0.22209388482E+04  0.22209388482E+04  0.25500000920E-02 0.  1.
        2   -1    0    0  501    0  0.00000000000E+00  0.00000000000E+00 -0.95114549159E+03  0.95114549159E+03  0.25500000920E-02 0. -1.
    10030    2    1    2    0    0  0.00000000000E+00  0.00000000000E+00  0.12697933566E+04  0.31720843398E+04  0.29068443182E+04 0.  0.
        5    1    3    3  502    0  0.12664767697E+04  0.66099942989E+03  0.34304126183E+03  0.14692117110E+04  0.46999998093E+01 0. -1.
       -5    1    3    3    0  502 -0.12664767697E+04 -0.66099942989E+03  0.92675209480E+03  0.17028726288E+04  0.46999998093E+01 0.  1.
</event>
<event>
 5   0  0.8357118E-07  0.2903682E+04  0.7818609E-02  0.8271783E-01
        1   -1    0    0  501    0  0.00000000000E+00  0.00000000000E+00  0.14447081935E+04  0.14447081935E+04  0.50400001928E-02 0. -1.
       -1   -1    0    0    0  501  0.00000000000E+00  0.00000000000E+00 -0.14590088553E+04  0.14590088554E+04  0.50400001928E-02 0.  1.
    10030    2    1    2    0    0  0.00000000000E+00  0.00000000000E+00 -0.14300661891E+02  0.29037170488E+04  0.29036818336E+04 0.  0.
        1    1    3    3  502    0  0.73656467674E+02  0.59183580962E+03 -0.13308533363E+04  0.14583776958E+04  0.50400001928E-02 0.  1.
       -1    1    3    3    0  502 -0.73656467674E+02 -0.59183580962E+03  0.13165526744E+04  0.14453393530E+04  0.50400001928E-02 0. -1.
</event>
<event>
 5   0  0.2378690E-06  0.2893951E+04  0.7818609E-02  0.8274679E-01
        2   -1    0    0  501    0  0.00000000000E+00  0.00000000000E+00  0.22297505791E+04  0.22297505791E+04  0.25500000920E-02 0.  1.
       -2   -1    0    0    0  501  0.00000000000E+00  0.00000000000E+00 -0.93900104050E+03  0.93900104051E+03  0.25500000920E-02 0. -1.
    10030    2    1    2    0    0  0.00000000000E+00  0.00000000000E+00  0.12907495386E+04  0.31687516196E+04  0.28939510112E+04 0.  0.
        3    1    3    3  502    0  0.43622456794E+02  0.45665145567E+03  0.21480229536E+04  0.21964598995E+04  0.10100000352E+00 0.  1.
       -3    1    3    3    0  502 -0.43622456794E+02 -0.45665145567E+03 -0.85727341501E+03  0.97229172011E+03  0.10100000352E+00 0. -1.
</event>
<event>
 5   0  0.8483636E-07  0.2913425E+04  0.7818609E-02  0.8268894E-01
        1   -1    0    0  501    0  0.00000000000E+00  0.00000000000E+00  0.22899376703E+04  0.22899376703E+04  0.50400001928E-02 0. -1.
       -1   -1    0    0    0  501  0.00000000000E+00  0.00000000000E+00 -0.92666770121E+03  0.92666770122E+03  0.50400001928E-02 0.  1.
    10030    2    1    2    0    0  0.00000000000E+00  0.00000000000E+00  0.13632699691E+04  0.32166053715E+04  0.29134249789E+04 0.  0.
        2    1    3    3  502    0 -0.11490105331E+04  0.50219929002E+02 -0.30541484482E+03  0.11899686861E+04  0.25500000920E-02 0.  1.
       -2    1    3    3    0  502  0.11490105331E+04 -0.50219929002E+02  0.16686848139E+04  0.20266366854E+04  0.25500000920E-02 0. -1.
</event>
<event>
 5   0  0.8355946E-07  0.2911477E+04  0.7818609E-02  0.8269471E-01
       -1   -1    0    0    0  501  0.00000000000E+00  0.00000000000E+00  0.97182863306E+03  0.97182863307E+03  0.50400001928E-02 0. -1.
        1   -1    0    0  501    0  0.00000000000E+00  0.00000000000E+00 -0.21806058265E+04  0.21806058265E+04  0.50400001928E-02 0.  1.
    10030    2    1    2    0    0  0.00000000000E+00  0.00000000000E+00 -0.12087771935E+04  0.31524344596E+04  0.29114774117E+04 0.  0.
        4    1    3    3  502    0 -0.25184642853E+03 -0.52469200445E+03 -0.20491527315E+04  0.21302011297E+04  0.12699999809E+01 0.  1.
       -4    1    3    3    0  502  0.25184642853E+03  0.52469200445E+03  0.84037553798E+03  0.10222333299E+04  0.12699999809E+01 0. -1.
</event>
<event>
 5   0  0.7621125E-07  0.2897698E+04  0.7818609E-02  0.8273563E-01
       -3   -1    0    0    0  501  0.00000000000E+00  0.00000000000E+00  0.15951699547E+04  0.15951699579E+04  0.10100000352E+00 0.  1.
        3   -1    0    0  501    0  0.00000000000E+00  0.00000000000E+00 -0.13159496222E+04  0.13159496261E+04  0.10100000352E+00 0. -1.
    10030    2    1    2    0    0  0.00000000000E+00  0.00000000000E+00  0.27922033246E+03  0.29111195840E+04  0.28976979205E+04 0.  0.
        3    1    3    3  502    0  0.47309779653E+03 -0.13676772973E+04  0.20921734127E+03  0.14622361713E+04  0.10100000352E+00 0.  1.
       -3    1    3    3    0  502 -0.47309779653E+03  0.13676772973E+04  0.70002991187E+02  0.14488834127E+04  0.10100000352E+00 0. -1.
</event>
<event>
 5   0  0.2360103E-06  0.2904930E+04  0.7818609E-02  0.8271412E-01
       -2   -1    0    0    0  501  0.00000000000E+00  0.00000000000E+00  0.24628134076E+04  0.24628134076E+04  0.25500000920E-02 0. -1.
        2   -1    0    0  501    0  0.00000000000E+00  0.00000000000E+00 -0.85660346072E+03  0.85660346072E+03  0.25500000920E-02 0.  1.
    10030    2    1    2    0    0  0.00000000000E+00  0.00000000000E+00  0.16062099468E+04  0.33194168683E+04  0.29049299393E+04 0.  0.
        4    1    3    3  502    0 -0.14359469044E+04 -0.46296098117E+01  0.55357060565E+03  0.15389629540E+04  0.12699999809E+01 0. -1.
       -4    1    3    3    0  502  0.14359469044E+04  0.46296098117E+01  0.10526393412E+04  0.17804539143E+04  0.12699999809E+01 0.  1.
</event>
<event>
 5   0  0.8263673E-07  0.2903271E+04  0.7818609E-02  0.8271905E-01
       -1   -1    0    0    0  501  0.00000000000E+00  0.00000000000E+00  0.11083970357E+04  0.11083970358E+04  0.50400001928E-02 0.  1.
        1   -1    0    0  501    0  0.00000000000E+00  0.00000000000E+00 -0.19011652146E+04  0.19011652146E+04  0.50400001928E-02 0. -1.
    10030    2    1    2    0    0  0.00000000000E+00  0.00000000000E+00 -0.79276817881E+03  0.30095622503E+04  0.29032711815E+04 0.  0.
        5    1    3    3  502    0 -0.81120737308E+03  0.11989254250E+04 -0.28404579008E+03  0.14751893701E+04  0.46999998093E+01 0.  1.
       -5    1    3    3    0  502  0.81120737308E+03 -0.11989254250E+04 -0.50872238873E+03  0.15343728802E+04  0.46999998093E+01 0. -1.
</event>
<event>
 5   0  0.2425845E-06  0.2897474E+04  0.7818609E-02  0.8273630E-01
        2   -1    0    0  501    0  0.00000000000E+00  0.00000000000E+00  0.27308393829E+04  0.27308393829E+04  0.25500000920E-02 0. -1.
       -2   -1    0    0    0  501  0.00000000000E+00  0.00000000000E+00 -0.76856899279E+03  0.76856899279E+03  0.25500000920E-02 0.  1.
    10030    2    1    2    0    0  0.00000000000E+00  0.00000000000E+00  0.19622703901E+04  0.34994083757E+04  0.28974737093E+04 0.  0.
        2    1    3    3  502    0  0.13185855474E+04 -0.60420259200E+02  0.17022710417E+04  0.21540764037E+04  0.25500000920E-02 0.  1.
       -2    1    3    3    0  502 -0.13185855474E+04  0.60420259200E+02  0.25999934838E+03  0.13453319720E+04  0.25500000920E-02 0. -1.
</event>
<event>
 5   0  0.8355946E-07  0.2904336E+04  0.7818609E-02  0.8271588E-01
        1   -1    0    0  501    0  0.00000000000E+00  0.00000000000E+00  0.21258266812E+04  0.21258266812E+04  0.50400001928E-02 0. -1.
       -1   -1    0    0    0  501  0.00000000000E+00  0.00000000000E+00 -0.99198696000E+03  0.99198696002E+03  0.50400001928E-02 0.  1.
    10030    2    1    2    0    0  0.00000000000E+00  0.00000000000E+00  0.11338397212E+04  0.31178136413E+04  0.29043363077E+04 0.  0.
        4    1    3    3  502    0 -0.55700682832E+03 -0.11625345698E+04  0.12846812369E+04  0.18199315169E+04  0.12699999809E+01 0. -1.
       -4    1    3    3    0  502  0.55700682832E+03  0.11625345698E+04 -0.15084151572E+03  0.12978821243E+04  0.12699999809E+01 0.  1.
</event>
<event>
 5   0  0.8357118E-07  0.2868167E+04  0.7818609E-02  0.8282412E-01
       -1   -1    0    0    0  501  0.00000000000E+00  0.00000000000E+00  0.95490914735E+03  0.95490914736E+03  0.50400001928E-02 0. -1.
        1   -1    0    0  501    0  0.00000000000E+00  0.00000000000E+00 -0.21537078352E+04  0.21537078352E+04  0.50400001928E-02 0.  1.
    10030    2    1    2    0    0  0.00000000000E+00  0.00000000000E+00 -0.11987986879E+04  0.31086169826E+04  0.28681668798E+04 0.  0.
        1    1    3    3  502    0 -0.84889589930E+03  0.68612991283E+02 -0.18499312656E+04  0.20365602564E+04  0.50400001928E-02 0.  1.
       -1    1    3    3    0  502  0.84889589930E+03 -0.68612991283E+02  0.65113257772E+03  0.10720567262E+04  0.50400001928E-02 0. -1.
</event>
<event>
 5   0  0.2425845E-06  0.2903020E+04  0.7818609E-02  0.8271979E-01
        2   -1    0    0  501    0  0.00000000000E+00  0.00000000000E+00  0.24788691206E+04  0.24788691206E+04  0.25500000920E-02 0. -1.
       -2   -1    0    0    0  501  0.00000000000E+00  0.00000000000E+00 -0.84993663414E+03  0.84993663414E+03  0.25500000920E-02 0.  1.
    10030    2    1    2    0    0  0.00000000000E+00  0.00000000000E+00  0.16289324865E+04  0.33288057547E+04  0.29030202733E+04 0.  0.
        2    1    3    3  502    0 -0.64486849759E+03  0.18320135210E+03 -0.66178535108E+03  0.94200741265E+03  0.25500000920E-02 0.  1.
       -2    1    3    3    0  502  0.64486849759E+03 -0.18320135210E+03  0.22907178375E+04  0.23867983421E+04  0.25500000920E-02 0. -1.
</event>
<event>
 5   0  0.2304435E-06  0.2919480E+04  0.7818609E-02  0.8267105E-01
        2   -1    0    0  501    0  0.00000000000E+00  0.00000000000E+00  0.20638533946E+04  0.20638533946E+04  0.25500000920E-02 0.  1.
       -2   -1    0    0    0  501  0.00000000000E+00  0.00000000000E+00 -0.10324575453E+04  0.10324575453E+04  0.25500000920E-02 0. -1.
    10030    2    1    2    0    0  0.00000000000E+00  0.00000000000E+00  0.10313958493E+04  0.30963109398E+04  0.29194800973E+04 0.  0.
        1    1    3    3  502    0 -0.29825891338E+03 -0.11448965832E+04 -0.39113188928E+03  0.12460861609E+04  0.50400001928E-02 0. -1.
       -1    1    3    3    0  502  0.29825891338E+03  0.11448965832E+04  0.14225277386E+04  0.18502247789E+04  0.50400001928E-02 0.  1.
</event>
<event>
 5   0  0.8483636E-07  0.2913593E+04  0.7818609E-02  0.8268845E-01
        1   -1    0    0  501    0  0.00000000000E+00  0.00000000000E+00  0.14437769656E+04  0.14437769656E+04  0.50400001928E-02 0. -1.
       -1   -1    0    0    0  501  0.00000000000E+00  0.00000000000E+00 -0.14699330871E+04  0.14699330872E+04  0.50400001928E-02 0.  1.
    10030    2    1    2    0    0  0.00000000000E+00  0.00000000000E+00 -0.26156121530E+02  0.29137100528E+04  0.29135926498E+04 0.  0.
        2    1    3    3  502    0  0.12778307638E+04  0.64519534366E+03  0.25735295292E+03  0.14544273907E+04  0.25500000920E-02 0. -1.
       -2    1    3    3    0  502 -0.12778307638E+04 -0.64519534366E+03 -0.28350907445E+03  0.14592826621E+04  0.25500000920E-02 0.  1.
</event>
<event>
 5   0  0.8357118E-07  0.2879928E+04  0.7818609E-02  0.8278875E-01
        1   -1    0    0  501    0  0.00000000000E+00  0.00000000000E+00  0.14191538073E+04  0.14191538073E+04  0.50400001928E-02 0.  1.
       -1   -1    0    0    0  501  0.00000000000E+00  0.00000000000E+00 -0.14610797359E+04  0.14610797360E+04  0.50400001928E-02 0. -1.
    10030    2    1    2    0    0  0.00000000000E+00  0.00000000000E+00 -0.41925928623E+02  0.28802335433E+04  0.28799283811E+04 0.  0.
        1    1    3    3  502    0 -0.45351792774E+03 -0.55742786920E+02 -0.13866519106E+04  0.14599963323E+04  0.50400001928E-02 0. -1.
       -1    1    3    3    0  502  0.45351792774E+03  0.55742786920E+02  0.13447259819E+04  0.14202372110E+04  0.50400001928E-02 0.  1.
</event>
<event>
 5   0  0.8357118E-07  0.2929702E+04  0.7818609E-02  0.8264095E-01
       -1   -1    0    0    0  501  0.00000000000E+00  0.00000000000E+00  0.16027907198E+04  0.16027907198E+04  0.50400001928E-02 0.  1.
        1   -1    0    0  501    0  0.00000000000E+00  0.00000000000E+00 -0.13387823699E+04  0.13387823699E+04  0.50400001928E-02 0. -1.
    10030    2    1    2    0    0  0.00000000000E+00  0.00000000000E+00  0.26400834994E+03  0.29415730897E+04  0.29297016628E+04 0.  0.
        1    1    3    3  502    0 -0.10484576540E+04 -0.10228167097E+04  0.15133014145E+03  0.14725210646E+04  0.50400001928E-02 0.  1.
       -1    1    3    3    0  502  0.10484576540E+04  0.10228167097E+04  0.11267820849E+03  0.14690520251E+04  0.50400001928E-02 0. -1.
</event>
<event>
 5   0  0.2360103E-06  0.2913695E+04  0.7818609E-02  0.8268814E-01
       -2   -1    0    0    0  501  0.00000000000E+00  0.00000000000E+00  0.98349686340E+03  0.98349686340E+03  0.25500000920E-02 0.  1.
        2   -1    0    0  501    0  0.00000000000E+00  0.00000000000E+00 -0.21580189670E+04  0.21580189670E+04  0.25500000920E-02 0. -1.
    10030    2    1    2    0    0  0.00000000000E+00  0.00000000000E+00 -0.11745221036E+04  0.31415158304E+04  0.29136951695E+04 0.  0.
        4    1    3    3  502    0 -0.11246476553E+04  0.82396742996E+01 -0.15856803587E+04  0.19440380793E+04  0.12699999809E+01 0. -1.
       -4    1    3    3    0  502  0.11246476553E+04 -0.82396742996E+01  0.41115825512E+03  0.11974777511E+04  0.12699999809E+01 0.  1.
</event>
<event>
 5   0  0.8947674E-07  0.2864548E+04  0.7818609E-02  0.8283504E-01
        1   -1    0    0  501    0  0.00000000000E+00  0.00000000000E+00  0.21839160349E+04  0.21839160349E+04  0.50400001928E-02 0. -1.
       -1   -1    0    0    0  501  0.00000000000E+00  0.00000000000E+00 -0.93932577576E+03  0.93932577577E+03  0.50400001928E-02 0.  1.
    10030    2    1    2    0    0  0.00000000000E+00  0.00000000000E+00  0.12445902592E+04  0.31232418107E+04  0.28645478692E+04 0.  0.
        3    1    3    3  502    0  0.86833698079E+03  0.59785700610E+03 -0.43477965686E+03  0.11403839144E+04  0.10100000352E+00 0.  1.
       -3    1    3    3    0  502 -0.86833698079E+03 -0.59785700610E+03  0.16793699160E+04  0.19828578963E+04  0.10100000352E+00 0. -1.
</event>
<event>
 5   0  0.8357118E-07  0.2879424E+04  0.7818609E-02  0.8279026E-01
       -1   -1    0    0    0  501  0.00000000000E+00  0.00000000000E+00  0.12578943818E+04  0.12578943818E+04  0.50400001928E-02 0. -1.
        1   -1    0    0  501    0  0.00000000000E+00  0.00000000000E+00 -0.16478101676E+04  0.16478101677E+04  0.50400001928E-02 0.  1.
    10030    2    1    2    0    0  0.00000000000E+00  0.00000000000E+00 -0.38991578585E+03  0.29057045495E+04  0.28794243537E+04 0.  0.
        1    1    3    3  502    0 -0.22576079869E+03  0.53779732356E+03  0.11333296017E+04  0.12746096993E+04  0.50400001928E-02 0. -1.
       -1    1    3    3    0  502  0.22576079869E+03 -0.53779732356E+03 -0.15232453876E+04  0.16310948502E+04  0.50400001928E-02 0.  1.
</event>
<event>
 5   0  0.8357118E-07  0.2900745E+04  0.7818609E-02  0.8272656E-01
       -1   -1    0    0    0  501  0.00000000000E+00  0.00000000000E+00  0.10246073832E+04  0.10246073832E+04  0.50400001928E-02 0. -1.
        1   -1    0    0  501    0  0.00000000000E+00  0.00000000000E+00 -0.20530602964E+04  0.20530602964E+04  0.50400001928E-02 0.  1.
    10030    2    1    2    0    0  0.00000000000E+00  0.00000000000E+00 -0.10284529132E+04  0.30776676796E+04  0.29007452407E+04 0.  0.
        1    1    3    3  502    0  0.67738097483E+03  0.11222552693E+04 -0.11727930964E+04  0.17589046368E+04  0.50400001928E-02 0.  1.
       -1    1    3    3    0  502 -0.67738097483E+03 -0.11222552693E+04  0.14434018316E+03  0.13187630428E+04  0.50400001928E-02 0. -1.
</event>
<event>
 5   0  0.2360103E-06  0.2867907E+04  0.7818609E-02  0.8282491E-01
       -2   -1    0    0    0  501  0.00000000000E+00  0.00000000000E+00  0.16033644409E+04  0.16033644409E+04  0.25500000920E-02 0.  1.
        2   -1    0    0  501    0  0.00000000000E+00  0.00000000000E+00 -0.12824423040E+04  0.12824423040E+04  0.25500000920E-02 0. -1.
    10030    2    1    2    0    0  0.00000000000E+00  0.00000000000E+00  0.32092213690E+03  0.28858067450E+04  0.28679068241E+04 0.  0.
        4    1    3    3  502    0  0.86715348379E+03  0.19460908238E+03 -0.97190394609E+03  0.13169763676E+04  0.12699999809E+01 0. -1.
       -4    1    3    3    0  502 -0.86715348379E+03 -0.19460908238E+03  0.12928260830E+04  0.15688303774E+04  0.12699999809E+01 0.  1.
</event>
<event>
 5   0  0.2378690E-06  0.2924084E+04  0.7818609E-02  0.8265748E-01
        2   -1    0    0  501    0  0.00000000000E+00  0.00000000000E+00  0.24011274626E+04  0.24011274626E+04  0.25500000920E-02 0.  1.
       -2   -1    0    0    0  501  0.00000000000E+00  0.00000000000E+00 -0.89023476096E+03  0.89023476096E+03  0.25500000920E-02 0. -1.
    10030    2    1    2    0    0  0.00000000000E+00  0.00000000000E+00  0.15108927016E+04  0.32913622235E+04  0.29240842209E+04 0.  0.
        3    1    3    3  502    0 -0.25462761103E+03 -0.82285057147E+03 -0.57431553960E+03  0.10352567954E+04  0.10100000352E+00 0. -1.
       -3    1    3    3    0  502  0.25462761103E+03  0.82285057147E+03  0.20852082412E+04  0.22561054281E+04  0.10100000352E+00 0.  1.
</event>
<event>
 5   0  0.2325590E-06  0.2897763E+04  0.7818609E-02  0.8273543E-01
       -2   -1    0    0    0  501  0.00000000000E+00  0.00000000000E+00  0.10921469023E+04  0.10921469023E+04  0.25500000920E-02 0. -1.
        2   -1    0    0  501    0  0.00000000000E+00  0.00000000000E+00 -0.19221387956E+04  0.19221387956E+04  0.25500000920E-02 0.  1.
    10030    2    1    2    0    0  0.00000000000E+00  0.00000000000E+00 -0.82999189330E+03  0.30142856979E+04  0.28977632280E+04 0.  0.
        5    1    3    3  502    0 -0.56538734631E+03  0.25858073430E+03  0.94633370783E+03  0.11322969682E+04  0.46999998093E+01 0. -1.
       -5    1    3    3    0  502  0.56538734631E+03 -0.25858073430E+03 -0.17763256011E+04  0.18819887297E+04  0.46999998093E+01 0.  1.
</event>
<event>
 5   0  0.2378690E-06  0.2804021E+04  0.7818609E-02  0.8302021E-01
       -2   -1    0    0    0  501  0.00000000000E+00  0.00000000000E+00  0.12419799436E+04  0.12419799436E+04  0.25500000920E-02 0.  1.
        2   -1    0    0  501    0  0.00000000000E+00  0.00000000000E+00 -0.15826611004E+04  0.15826611004E+04  0.25500000920E-02 0. -1.
    10030    2    1    2    0    0  0.00000000000E+00  0.00000000000E+00 -0.34068115685E+03  0.28246410440E+04  0.28040209301E+04 0.  0.
        3    1    3    3  502    0 -0.65820898232E+03  0.84688232445E+02  0.10737401696E+04  0.12622714142E+04  0.10100000352E+00 0.  1.
       -3    1    3    3    0  502  0.65820898232E+03 -0.84688232445E+02 -0.14144213264E+04  0.15623696298E+04  0.10100000352E+00 0. -1.
</event>
<event>
 5   0  0.8263673E-07  0.2900694E+04  0.7818609E-02  0.8272671E-01
        1   -1    0    0  501    0  0.00000000000E+00  0.00000000000E+00  0.13210909380E+04  0.13210909380E+04  0.50400001928E-02 0. -1.
       -1   -1    0    0    0  501  0.00000000000E+00  0.00000000000E+00 -0.15922497170E+04  0.15922497170E+04  0.50400001928E-02 0.  1.
    10030    2    1    2    0    0  0.00000000000E+00  0.00000000000E+00 -0.27115877901E+03  0.29133406551E+04  0.29006941736E+04 0.  0.
        5    1    3    3  502    0  0.37688121203E+03  0.50585983036E+03 -0.14472406067E+04  0.15787530141E+04  0.46999998093E+01 0.  1.
       -5    1    3    3    0  502 -0.37688121203E+03 -0.50585983036E+03  0.11760818277E+04  0.13345876409E+04  0.46999998093E+01 0. -1.
</event>
<event>
 5   0  0.2325590E-06  0.2898123E+04  0.7818609E-02  0.8273436E-01
       -2   -1    0    0    0  501  0.00000000000E+00  0.00000000000E+00  0.13244208560E+04  0.13244208560E+04  0.25500000920E-02 0.  1.
        2   -1    0    0  501    0  0.00000000000E+00  0.00000000000E+00 -0.15854315361E+04  0.15854315361E+04  0.25500000920E-02 0. -1.
    10030    2    1    2    0    0  0.00000000000E+00  0.00000000000E+00 -0.26101068008E+03  0.29098523921E+04  0.28981225593E+04 0.  0.
        5    1    3    3  502    0  0.93211116308E+03  0.39040895127E+03  0.91220941976E+03  0.13613957856E+04  0.46999998093E+01 0.  1.
       -5    1    3    3    0  502 -0.93211116308E+03 -0.39040895127E+03 -0.11732200998E+04  0.15484566065E+04  0.46999998093E+01 0. -1.
</event>
<event>
 5   0  0.2425845E-06  0.2902602E+04  0.7818609E-02  0.8272104E-01
        2   -1    0    0  501    0  0.00000000000E+00  0.00000000000E+00  0.15865193941E+04  0.15865193941E+04  0.25500000920E-02 0.  1.
       -2   -1    0    0    0  501  0.00000000000E+00  0.00000000000E+00 -0.13276070876E+04  0.13276070876E+04  0.25500000920E-02 0. -1.
    10030    2    1    2    0    0  0.00000000000E+00  0.00000000000E+00  0.25891230654E+03  0.29141264817E+04  0.29026018619E+04 0.  0.
        2    1    3    3  502    0  0.50330041972E+02 -0.79849872682E+03  0.13451068592E+04  0.15650705392E+04  0.25500000920E-02 0.  1.
       -2    1    3    3    0  502 -0.50330041972E+02  0.79849872682E+03 -0.10861945527E+04  0.13490559425E+04  0.25500000920E-02 0. -1.
</event>
<event>
 5   0  0.2325590E-06  0.2936166E+04  0.7818609E-02  0.8262198E-01
       -2   -1    0    0    0  501  0.00000000000E+00  0.00000000000E+00  0.92356205791E+03  0.92356205791E+03  0.25500000920E-02 0. -1.
        2   -1    0    0  501    0  0.00000000000E+00  0.00000000000E+00 -0.23336461778E+04  0.23336461778E+04  0.25500000920E-02 0.  1.
    10030    2    1    2    0    0  0.00000000000E+00  0.00000000000E+00 -0.14100841199E+04  0.32572082357E+04  0.29361655719E+04 0.  0.
        5    1    3    3  502    0  0.88449860382E+03 -0.11020465210E+04 -0.11465550422E+04  0.18197403302E+04  0.46999998093E+01 0.  1.
       -5    1    3    3    0  502 -0.88449860382E+03  0.11020465210E+04 -0.26352907774E+03  0.14374679055E+04  0.46999998093E+01 0. -1.
</event>
<event>
 5   0  0.8357118E-07  0.2997721E+04  0.7818609E-02  0.8244382E-01
       -1   -1    0    0    0  501  0.00000000000E+00  0.00000000000E+00  0.13393307832E+04  0.13393307832E+04  0.50400001928E-02 0. -1.
        1   -1    0    0  501    0  0.00000000000E+00  0.00000000000E+00 -0.16773924426E+04  0.16773924426E+04  0.50400001928E-02 0.  1.
    10030    2    1    2    0    0  0.00000000000E+00  0.00000000000E+00 -0.33806165936E+03  0.30167232258E+04  0.29977213572E+04 0.  0.
        1    1    3    3  502    0 -0.90710798099E+03 -0.95351944844E+03  0.55282987103E+03  0.14274680711E+04  0.50400001928E-02 0. -1.
       -1    1    3    3    0  502  0.90710798099E+03  0.95351944844E+03 -0.89089153039E+03  0.15892551547E+04  0.50400001928E-02 0.  1.
</event>
<event>
 5   0  0.2425845E-06  0.2940189E+04  0.7818609E-02  0.8261019E-01
       -2   -1    0    0    0  501  0.00000000000E+00  0.00000000000E+00  0.10476382692E+04  0.10476382692E+04  0.25500000920E-02 0.  1.
        2   -1    0    0  501    0  0.00000000000E+00  0.00000000000E+00 -0.20629048672E+04  0.20629048672E+04  0.25500000920E-02 0. -1.
    10030    2    1    2    0    0  0.00000000000E+00  0.00000000000E+00 -0.10152665980E+04  0.31105431364E+04  0.29401891671E+04 0.  0.
        2    1    3    3  502    0 -0.23238973637E+03 -0.42190988706E+03 -0.19770523236E+04  0.20348830022E+04  0.25500000920E-02 0. -1.
       -2    1    3    3    0  502  0.23238973637E+03  0.42190988706E+03  0.96178572556E+03  0.10756601342E+04  0.25500000920E-02 0.  1.
</event>
<event>
 5   0  0.8263673E-07  0.2893779E+04  0.7818609E-02  0.8274731E-01
        1   -1    0    0  501    0  0.00000000000E+00  0.00000000000E+00  0.21093035575E+04  0.21093035575E+04  0.50400001928E-02 0.  1.
       -1   -1    0    0    0  501  0.00000000000E+00  0.00000000000E+00 -0.99250290887E+03  0.99250290889E+03  0.50400001928E-02 0. -1.
    10030    2    1    2    0    0  0.00000000000E+00  0.00000000000E+00  0.11168006486E+04  0.31018064664E+04  0.28937794778E+04 0.  0.
        5    1    3    3  502    0  0.12606412521E+04  0.11062759594E+03  0.13102613129E+04  0.18216096260E+04  0.46999998093E+01 0. -1.
       -5    1    3    3    0  502 -0.12606412521E+04 -0.11062759594E+03 -0.19346066430E+03  0.12801968404E+04  0.46999998093E+01 0.  1.
</event>
<event>
 5   0  0.8947674E-07  0.2891703E+04  0.7818609E-02  0.8275350E-01
        1   -1    0    0  501    0  0.00000000000E+00  0.00000000000E+00  0.10925863637E+04  0.10925863637E+04  0.50400001928E-02 0. -1.
       -1   -1    0    0    0  501  0.00000000000E+00  0.00000000000E+00 -0.19133381674E+04  0.19133381674E+04  0.50400001928E-02 0.  1.
    10030    2    1    2    0    0  0.00000000000E+00  0.00000000000E+00 -0.82075180377E+03  0.30059245311E+04  0.28917034363E+04 0.  0.
        3    1    3    3  502    0 -0.85666719275E+03  0.63550952085E+02  0.79856246684E+03  0.11728680345E+04  0.10100000352E+00 0. -1.
       -3    1    3    3    0  502  0.85666719275E+03 -0.63550952085E+02 -0.16193142706E+04  0.18330564966E+04  0.10100000352E+00 0.  1.
</event>
<event>
 5   0  0.2360103E-06  0.2902881E+04  0.7818609E-02  0.8272021E-01
        2   -1    0    0  501    0  0.00000000000E+00  0.00000000000E+00  0.18080318975E+04  0.18080318975E+04  0.25500000920E-02 0. -1.
       -2   -1    0    0    0  501  0.00000000000E+00  0.00000000000E+00 -0.11651782480E+04  0.11651782480E+04  0.25500000920E-02 0.  1.
    10030    2    1    2    0    0  0.00000000000E+00  0.00000000000E+00  0.64285364957E+03  0.29732101455E+04  0.29028809405E+04 0.  0.
        4    1    3    3  502    0  0.10705375548E+04  0.12217458892E+03  0.13174586163E+04  0.17019624276E+04  0.12699999809E+01 0. -1.
       -4    1    3    3    0  502 -0.10705375548E+04 -0.12217458892E+03 -0.67460496672E+03  0.12712477179E+04  0.12699999809E+01 0.  1.
</event>
<event>
 5   0  0.8263673E-07  0.2887276E+04  0.7818609E-02  0.8276673E-01
        1   -1    0    0  501    0  0.00000000000E+00  0.00000000000E+00  0.11639499804E+04  0.11639499804E+04  0.50400001928E-02 0.  1.
       -1   -1    0    0    0  501  0.00000000000E+00  0.00000000000E+00 -0.17905327276E+04  0.17905327276E+04  0.50400001928E-02 0. -1.
    10030    2    1    2    0    0  0.00000000000E+00  0.00000000000E+00 -0.62658274722E+03  0.29544827081E+04  0.28872759018E+04 0.  0.
        5    1    3    3  502    0  0.11087780417E+04  0.62794595749E+03 -0.10075857410E+04  0.16244863763E+04  0.46999998093E+01 0. -1.
       -5    1    3    3    0  502 -0.11087780417E+04 -0.62794595749E+03  0.38100299373E+03  0.13299963318E+04  0.46999998093E+01 0.  1.
</event>
<event>
 5   0  0.8357118E-07  0.2916980E+04  0.7818609E-02  0.8267843E-01
        1   -1    0    0  501    0  0.00000000000E+00  0.00000000000E+00  0.14096637879E+04  0.14096637879E+04  0.50400001928E-02 0.  1.
       -1   -1    0    0    0  501  0.00000000000E+00  0.00000000000E+00 -0.15090076526E+04  0.15090076526E+04  0.50400001928E-02 0. -1.
    10030    2    1    2    0    0  0.00000000000E+00  0.00000000000E+00 -0.99343864785E+02  0.29186714405E+04  0.29169802492E+04 0.  0.
        1    1    3    3  502    0  0.71534853127E+03  0.12211605691E+04  0.30300481383E+03  0.14473315356E+04  0.50400001928E-02 0.  1.
       -1    1    3    3    0  502 -0.71534853127E+03 -0.12211605691E+04 -0.40234867862E+03  0.14713399049E+04  0.50400001928E-02 0. -1.
</event>
<event>
 5   0  0.8263673E-07  0.2917596E+04  0.7818609E-02  0.8267661E-01
        1   -1    0    0  501    0  0.00000000000E+00  0.00000000000E+00  0.14716323517E+04  0.14716323517E+04  0.50400001928E-02 0.  1.
       -1   -1    0    0    0  501  0.00000000000E+00  0.00000000000E+00 -0.14460756515E+04  0.14460756515E+04  0.50400001928E-02 0. -1.
    10030    2    1    2    0    0  0.00000000000E+00  0.00000000000E+00  0.25556700261E+02  0.29177080032E+04  0.29175960733E+04 0.  0.
        5    1    3    3  502    0  0.13707767699E+04  0.11928412825E+03  0.49737094441E+03  0.14630986305E+04  0.46999998093E+01 0.  1.
       -5    1    3    3    0  502 -0.13707767699E+04 -0.11928412825E+03 -0.47181424415E+03  0.14546093727E+04  0.46999998093E+01 0. -1.
</event>
<event>
 5   0  0.2325590E-06  0.2901202E+04  0.7818609E-02  0.8272520E-01
       -2   -1    0    0    0  501  0.00000000000E+00  0.00000000000E+00  0.15184609659E+04  0.15184609659E+04  0.25500000920E-02 0.  1.
        2   -1    0    0  501    0  0.00000000000E+00  0.00000000000E+00 -0.13857737668E+04  0.13857737668E+04  0.25500000920E-02 0. -1.
    10030    2    1    2    0    0  0.00000000000E+00  0.00000000000E+00  0.13268719903E+03  0.29042347327E+04  0.29012020767E+04 0.  0.
        5    1    3    3  502    0 -0.61889388515E+03  0.13088487822E+04  0.15647385667E+03  0.14562351917E+04  0.46999998093E+01 0.  1.
       -5    1    3    3    0  502  0.61889388515E+03 -0.13088487822E+04 -0.23786657635E+02  0.14479995410E+04  0.46999998093E+01 0. -1.
</event>
<event>
 5   0  0.8357118E-07  0.2901455E+04  0.7818609E-02  0.8272445E-01
        1   -1    0    0  501    0  0.00000000000E+00  0.00000000000E+00  0.15782276598E+04  0.15782276598E+04  0.50400001928E-02 0.  1.
       -1   -1    0    0    0  501  0.00000000000E+00  0.00000000000E+00 -0.13335278432E+04  0.13335278432E+04  0.50400001928E-02 0. -1.
    10030    2    1    2    0    0  0.00000000000E+00  0.00000000000E+00  0.24469981658E+03  0.29117555030E+04  0.29014551710E+04 0.  0.
        1    1    3    3  502    0  0.91063683718E+03 -0.10694888320E+04 -0.24162860313E+03  0.14252895119E+04  0.50400001928E-02 0. -1.
       -1    1    3    3    0  502 -0.91063683718E+03  0.10694888320E+04  0.48632841971E+03  0.14864659911E+04  0.50400001928E-02 0.  1.
</event>
<event>
 5   0  0.7621125E-07  0.2889566E+04  0.7818609E-02  0.8275989E-01
       -3   -1    0    0    0  501  0.00000000000E+00  0.00000000000E+00  0.15242946532E+04  0.15242946566E+04  0.10100000352E+00 0.  1.
        3   -1    0    0  501    0  0.00000000000E+00  0.00000000000E+00 -0.13694189343E+04  0.13694189380E+04  0.10100000352E+00 0. -1.
    10030    2    1    2    0    0  0.00000000000E+00  0.00000000000E+00  0.15487571898E+03  0.28937135946E+04  0.28895660365E+04 0.  0.
        4    1    3    3  502    0 -0.83876792726E+03  0.11921408170E+03  0.12494393212E+04  0.15095840034E+04  0.12699999809E+01 0.  1.
       -4    1    3    3    0  502  0.83876792726E+03 -0.11921408170E+03 -0.10945636022E+04  0.13841295912E+04  0.12699999809E+01 0. -1.
</event>
<event>
 5   0  0.2325590E-06  0.2910050E+04  0.7818609E-02  0.8269894E-01
        2   -1    0    0  501    0  0.00000000000E+00  0.00000000000E+00  0.28391971202E+04  0.28391971202E+04  0.25500000920E-02 0.  1.
       -2   -1    0    0    0  501  0.00000000000E+00  0.00000000000E+00 -0.74566762000E+03  0.74566762000E+03  0.25500000920E-02 0. -1.
    10030    2    1    2    0    0  0.00000000000E+00  0.00000000000E+00  0.20935295002E+04  0.35848647402E+04  0.29100497311E+04 0.  0.
        5    1    3    3  502    0 -0.64349230695E+03 -0.37988028514E+03  0.25847472237E+04  0.26906006170E+04  0.46999998093E+01 0.  1.
       -5    1    3    3    0  502  0.64349230695E+03  0.37988028514E+03 -0.49121772347E+03  0.89426412317E+03  0.46999998093E+01 0. -1.
</event>
<event>
 5   0  0.8263673E-07  0.2903391E+04  0.7818609E-02  0.8271869E-01
       -1   -1    0    0    0  501  0.00000000000E+00  0.00000000000E+00  0.14786893199E+04  0.14786893199E+04  0.50400001928E-02 0. -1.
        1   -1    0    0  501    0  0.00000000000E+00  0.00000000000E+00 -0.14251943115E+04  0.14251943115E+04  0.50400001928E-02 0.  1.
    10030    2    1    2    0    0  0.00000000000E+00  0.00000000000E+00  0.53495008395E+02  0.29038836314E+04  0.29033908502E+04 0.  0.
        5    1    3    3  502    0  0.69074661174E+03 -0.14787465484E+03 -0.12416947465E+04  0.14285747193E+04  0.46999998093E+01 0.  1.
       -5    1    3    3    0  502 -0.69074661174E+03  0.14787465484E+03  0.12951897548E+04  0.14753089121E+04  0.46999998093E+01 0. -1.
</event>
<event>
 5   0  0.2360103E-06  0.2912952E+04  0.7818609E-02  0.8269034E-01
        2   -1    0    0  501    0  0.00000000000E+00  0.00000000000E+00  0.15434323379E+04  0.15434323379E+04  0.25500000920E-02 0. -1.
       -2   -1    0    0    0  501  0.00000000000E+00  0.00000000000E+00 -0.13744191585E+04  0.13744191585E+04  0.25500000920E-02 0.  1.
    10030    2    1    2    0    0  0.00000000000E+00  0.00000000000E+00  0.16901317946E+03  0.29178514964E+04  0.29129524370E+04 0.  0.
        4    1    3    3  502    0 -0.83956617023E+03 -0.21946238805E+03  0.12562115691E+04  0.15267954065E+04  0.12699999809E+01 0. -1.
       -4    1    3    3    0  502  0.83956617023E+03  0.21946238805E+03 -0.10871983897E+04  0.13910560899E+04  0.12699999809E+01 0.  1.
</event>
<event>
 5   0  0.8355946E-07  0.2867336E+04  0.7818609E-02  0.8282663E-01
        1   -1    0    0  501    0  0.00000000000E+00  0.00000000000E+00  0.22490581878E+04  0.22490581878E+04  0.50400001928E-02 0. -1.
       -1   -1    0    0    0  501  0.00000000000E+00  0.00000000000E+00 -0.91389548684E+03  0.91389548686E+03  0.50400001928E-02 0.  1.
    10030    2    1    2    0    0  0.00000000000E+00  0.00000000000E+00  0.13351627010E+04  0.31629536747E+04  0.28673361348E+04 0.  0.
        4    1    3    3  502    0 -0.47202478862E+03 -0.72857057080E+03 -0.59100502763E+03  0.10501957119E+04  0.12699999809E+01 0.  1.
       -4    1    3    3    0  502  0.47202478862E+03  0.72857057080E+03  0.19261677286E+04  0.21127579628E+04  0.12699999809E+01 0. -1.
</event>
<event>
 5   0  0.8483636E-07  0.2820336E+04  0.7818609E-02  0.8296983E-01
        1   -1    0    0  501    0  0.00000000000E+00  0.00000000000E+00  0.15141359631E+04  0.15141359631E+04  0.50400001928E-02 0.  1.
       -1   -1    0    0    0  501  0.00000000000E+00  0.00000000000E+00 -0.13133390465E+04  0.13133390465E+04  0.50400001928E-02 0. -1.
    10030    2    1    2    0    0  0.00000000000E+00  0.00000000000E+00  0.20079691657E+03  0.28274750096E+04  0.28203360665E+04 0.  0.
        2    1    3    3  502    0  0.69610726839E+03  0.70328395883E+03  0.11076306852E+04  0.14852674475E+04  0.25500000920E-02 0.  1.
       -2    1    3    3    0  502 -0.69610726839E+03 -0.70328395883E+03 -0.90683376858E+03  0.13422075621E+04  0.25500000920E-02 0. -1.
</event>
<event>
 5   0  0.8947674E-07  0.2901812E+04  0.7818609E-02  0.8272338E-01
        1   -1    0    0  501    0  0.00000000000E+00  0.00000000000E+00  0.12592184899E+04  0.12592184899E+04  0.50400001928E-02 0. -1.
       -1   -1    0    0    0  501  0.00000000000E+00  0.00000000000E+00 -0.16717739706E+04  0.16717739706E+04  0.50400001928E-02 0.  1.
    10030    2    1    2    0    0  0.00000000000E+00  0.00000000000E+00 -0.41255548068E+03  0.29309924606E+04  0.29018123267E+04 0.  0.
        3    1    3    3  502    0  0.90219841683E+03  0.22033043145E+03  0.91966099378E+03  0.13070133267E+04  0.10100000352E+00 0. -1.
       -3    1    3    3    0  502 -0.90219841683E+03 -0.22033043145E+03 -0.13322164745E+04  0.16239791339E+04  0.10100000352E+00 0.  1.
</event>
<event>
 5   0  0.2378690E-06  0.2944007E+04  0.7818609E-02  0.8259903E-01
       -2   -1    0    0    0  501  0.00000000000E+00  0.00000000000E+00  0.13375171615E+04  0.13375171615E+04  0.25500000920E-02 0.  1.
        2   -1    0    0  501    0  0.00000000000E+00  0.00000000000E+00 -0.16200125408E+04  0.16200125408E+04  0.25500000920E-02 0. -1.
    10030    2    1    2    0    0  0.00000000000E+00  0.00000000000E+00 -0.28249537925E+03  0.29575297023E+04  0.29440071842E+04 0.  0.
        3    1    3    3  502    0  0.10016258977E+04 -0.77058645281E+03 -0.89952371728E+03  0.15511933626E+04  0.10100000352E+00 0. -1.
       -3    1    3    3    0  502 -0.10016258977E+04  0.77058645281E+03  0.61702833804E+03  0.14063363397E+04  0.10100000352E+00 0.  1.
</event>
<event>
 5   0  0.8483636E-07  0.2890586E+04  0.7818609E-02  0.8275684E-01
       -1   -1    0    0    0  501  0.00000000000E+00  0.00000000000E+00  0.20394624548E+04  0.20394624548E+04  0.50400001928E-02 0.  1.
        1   -1    0    0  501    0  0.00000000000E+00  0.00000000000E+00 -0.10242267698E+04  0.10242267698E+04  0.50400001928E-02 0. -1.
    10030    2    1    2    0    0  0.00000000000E+00  0.00000000000E+00  0.10152356850E+04  0.30636892246E+04  0.28905861289E+04 0.  0.
        2    1    3    3  502    0  0.13005724540E+04 -0.51028683012E+03  0.11533048350E+03  0.14018496629E+04  0.25500000920E-02 0. -1.
       -2    1    3    3    0  502 -0.13005724540E+04  0.51028683012E+03  0.89990520145E+03  0.16618395617E+04  0.25500000920E-02 0.  1.
</event>
<event>
 5   0  0.8355946E-07  0.2898869E+04  0.7818609E-02  0.8273214E-01
       -1   -1    0    0    0  501  0.00000000000E+00  0.00000000000E+00  0.11825950905E+04  0.11825950905E+04  0.50400001928E-02 0. -1.
        1   -1    0    0  501    0  0.00000000000E+00  0.00000000000E+00 -0.17764826821E+04  0.17764826821E+04  0.50400001928E-02 0.  1.
    10030    2    1    2    0    0  0.00000000000E+00  0.00000000000E+00 -0.59388759164E+03  0.29590777726E+04  0.28988685367E+04 0.  0.
        4    1    3    3  502    0 -0.13392106837E+04 -0.35359211544E+03  0.13894461239E+03  0.13920559822E+04  0.12699999809E+01 0. -1.
       -4    1    3    3    0  502  0.13392106837E+04  0.35359211544E+03 -0.73283220402E+03  0.15670217904E+04  0.12699999809E+01 0.  1.
</event>
<event>
 5   0  0.2325590E-06  0.2910276E+04  0.7818609E-02  0.8269827E-01
       -2   -1    0    0    0  501  0.00000000000E+00  0.00000000000E+00  0.18721446207E+04  0.18721446207E+04  0.25500000920E-02 0. -1.
        2   -1    0    0  501    0  0.00000000000E+00  0.00000000000E+00 -0.11310164688E+04  0.11310164688E+04  0.25500000920E-02 0.  1.
    10030    2    1    2    0    0  0.00000000000E+00  0.00000000000E+00  0.74112815196E+03  0.30031610895E+04  0.29102758619E+04 0.  0.
        5    1    3    3  502    0  0.59089840396E+03 -0.74984148046E+03  0.15037853759E+04  0.17812399379E+04  0.46999998093E+01 0. -1.
       -5    1    3    3    0  502 -0.59089840396E+03  0.74984148046E+03 -0.76265722393E+03  0.12219211516E+04  0.46999998093E+01 0.  1.
</event>
<event>
 5   0  0.2360103E-06  0.2878459E+04  0.7818609E-02  0.8279316E-01
       -2   -1    0    0    0  501  0.00000000000E+00  0.00000000000E+00  0.16464687615E+04  0.16464687615E+04  0.25500000920E-02 0. -1.
        2   -1    0    0  501    0  0.00000000000E+00  0.00000000000E+00 -0.12580747977E+04  0.12580747977E+04  0.25500000920E-02 0.  1.
    10030    2    1    2    0    0  0.00000000000E+00  0.00000000000E+00  0.38839396378E+03  0.29045435592E+04  0.28784585138E+04 0.  0.
        4    1    3    3  502    0  0.21347705231E+03 -0.29829804046E+03  0.15985074014E+04  0.16400553948E+04  0.12699999809E+01 0. -1.
       -4    1    3    3    0  502 -0.21347705231E+03  0.29829804046E+03 -0.12101134377E+04  0.12644881643E+04  0.12699999809E+01 0.  1.
</event>
<event>
 5   0  0.8483636E-07  0.2903194E+04  0.7818609E-02  0.8271928E-01
        1   -1    0    0  501    0  0.00000000000E+00  0.00000000000E+00  0.22751074028E+04  0.22751074028E+04  0.50400001928E-02 0. -1.
       -1   -1    0    0    0  501  0.00000000000E+00  0.00000000000E+00 -0.92616895047E+03  0.92616895048E+03  0.50400001928E-02 0.  1.
    10030    2    1    2    0    0  0.00000000000E+00  0.00000000000E+00  0.13489384523E+04  0.32012763533E+04  0.29031939897E+04 0.  0.
        2    1    3    3  502    0 -0.77814415946E+03 -0.61615044970E+03  0.18424628361E+04  0.20928017135E+04  0.25500000920E-02 0. -1.
       -2    1    3    3    0  502  0.77814415946E+03  0.61615044970E+03 -0.49352438381E+03  0.11084746398E+04  0.25500000920E-02 0.  1.
</event>
<event>
 5   0  0.8947674E-07  0.2909283E+04  0.7818609E-02  0.8270121E-01
       -1   -1    0    0    0  501  0.00000000000E+00  0.00000000000E+00  0.20812099740E+04  0.20812099740E+04  0.50400001928E-02 0.  1.
        1   -1    0    0  501    0  0.00000000000E+00  0.00000000000E+00 -0.10167072805E+04  0.10167072806E+04  0.50400001928E-02 0. -1.
    10030    2    1    2    0    0  0.00000000000E+00  0.00000000000E+00  0.10645026935E+04  0.30979172546E+04  0.29092826146E+04 0.  0.
        3    1    3    3  502    0 -0.22303149910E+03  0.26099697300E+03 -0.97294986988E+03  0.10317431507E+04  0.10100000352E+00 0. -1.
       -3    1    3    3    0  502  0.22303149910E+03 -0.26099697300E+03  0.20374525633E+04  0.20661741039E+04  0.10100000352E+00 0.  1.
</event>
<event>
 5   0  0.8263673E-07  0.2905548E+04  0.7818609E-02  0.8271229E-01
       -1   -1    0    0    0  501  0.00000000000E+00  0.00000000000E+00  0.21267179245E+04  0.21267179245E+04  0.50400001928E-02 0. -1.
        1   -1    0    0  501    0  0.00000000000E+00  0.00000000000E+00 -0.99239886073E+03  0.99239886074E+03  0.50400001928E-02 0.  1.
    10030    2    1    2    0    0  0.00000000000E+00  0.00000000000E+00  0.11343190638E+04  0.31191167852E+04  0.29055481035E+04 0.  0.
        5    1    3    3  502    0  0.65259911252E+03 -0.69105641408E+03 -0.61227172722E+03  0.11306384599E+04  0.46999998093E+01 0.  1.
       -5    1    3    3    0  502 -0.65259911252E+03  0.69105641408E+03  0.17465907910E+04  0.19884783253E+04  0.46999998093E+01 0. -1.
</event>
<event>
 5   0  0.2425845E-06  0.2901877E+04  0.7818609E-02  0.8272319E-01
        2   -1    0    0  501    0  0.00000000000E+00  0.00000000000E+00  0.16312802187E+04  0.16312802187E+04  0.25500000920E-02 0.  1.
       -2   -1    0    0    0  501  0.00000000000E+00  0.00000000000E+00 -0.12905344088E+04  0.12905344088E+04  0.25500000920E-02 0. -1.
    10030    2    1    2    0    0  0.00000000000E+00  0.00000000000E+00  0.34074580989E+03  0.29218146275E+04  0.29018774975E+04 0.  0.
        2    1    3    3  502    0 -0.75131752999E+03 -0.88329446009E+03  0.10484517338E+04  0.15633100052E+04  0.25500000920E-02 0.  1.
       -2    1    3    3    0  502  0.75131752999E+03  0.88329446009E+03 -0.70770592392E+03  0.13585046223E+04  0.25500000920E-02 0. -1.
</event>
<event>
 5   0  0.8357118E-07  0.2899940E+04  0.7818609E-02  0.8272895E-01
       -1   -1    0    0    0  501  0.00000000000E+00  0.00000000000E+00  0.20920464125E+04  0.20920464125E+04  0.50400001928E-02 0.  1.
        1   -1    0    0  501    0  0.00000000000E+00  0.00000000000E+00 -0.10049552733E+04  0.10049552733E+04  0.50400001928E-02 0. -1.
    10030    2    1    2    0    0  0.00000000000E+00  0.00000000000E+00  0.10870911392E+04  0.30970016858E+04  0.28999400506E+04 0.  0.
        1    1    3    3  502    0  0.16638762219E+03  0.64627772372E+03 -0.83119473546E+03  0.10659476654E+04  0.50400001928E-02 0. -1.
       -1    1    3    3    0  502 -0.16638762219E+03 -0.64627772372E+03  0.19182858747E+04  0.20310540205E+04  0.50400001928E-02 0.  1.
</event>
<event>
 5   0  0.2325590E-06  0.2905052E+04  0.7818609E-02  0.8271376E-01
        2   -1    0    0  501    0  0.00000000000E+00  0.00000000000E+00  0.22101305712E+04  0.22101305712E+04  0.25500000920E-02 0. -1.
       -2   -1    0    0    0  501  0.00000000000E+00  0.00000000000E+00 -0.95461866372E+03  0.95461866373E+03  0.25500000920E-02 0.  1.
    10030    2    1    2    0    0  0.00000000000E+00  0.00000000000E+00  0.12555119075E+04  0.31647492349E+04  0.29050520770E+04 0.  0.
        5    1    3    3  502    0 -0.41829564984E+03  0.41727923121E+03 -0.81778403473E+03  0.10089033774E+04  0.46999998093E+01 0.  1.
       -5    1    3    3    0  502  0.41829564984E+03 -0.41727923121E+03  0.20732959422E+04  0.21558458575E+04  0.46999998093E+01 0. -1.
</event>
<event>
 5   0  0.8947674E-07  0.2902651E+04  0.7818609E-02  0.8272089E-01
       -1   -1    0    0    0  501  0.00000000000E+00  0.00000000000E+00  0.20731874145E+04  0.20731874145E+04  0.50400001928E-02 0. -1.
        1   -1    0    0  501    0  0.00000000000E+00  0.00000000000E+00 -0.10159936810E+04  0.10159936810E+04  0.50400001928E-02 0.  1.
    10030    2    1    2    0    0  0.00000000000E+00  0.00000000000E+00  0.10571937335E+04  0.30891810956E+04  0.29026507284E+04 0.  0.
        3    1    3    3  502    0 -0.40583115976E+03  0.88089204797E+02  0.20086049822E+04  0.20510857181E+04  0.10100000352E+00 0. -1.
       -3    1    3    3    0  502  0.40583115976E+03 -0.88089204797E+02 -0.95141124873E+03  0.10380953774E+04  0.10100000352E+00 0.  1.
</event>
<event>
 5   0  0.2425845E-06  0.2909082E+04  0.7818609E-02  0.8270180E-01
       -2   -1    0    0    0  501  0.00000000000E+00  0.00000000000E+00  0.11794564595E+04  0.11794564595E+04  0.25500000920E-02 0.  1.
        2   -1    0    0  501    0  0.00000000000E+00  0.00000000000E+00 -0.17937838503E+04  0.17937838503E+04  0.25500000920E-02 0. -1.
    10030    2    1    2    0    0  0.00000000000E+00  0.00000000000E+00 -0.61432739082E+03  0.29732403098E+04  0.29090822946E+04 0.  0.
        2    1    3    3  502    0  0.58051822423E+03  0.13095592162E+04 -0.49121376799E+02  0.14333037567E+04  0.25500000920E-02 0. -1.
       -2    1    3    3    0  502 -0.58051822423E+03 -0.13095592162E+04 -0.56520601402E+03  0.15399365531E+04  0.25500000920E-02 0.  1.
</event>
<event>
 5   0  0.2325590E-06  0.2904310E+04  0.7818609E-02  0.8271596E-01
       -2   -1    0    0    0  501  0.00000000000E+00  0.00000000000E+00  0.23909670731E+04  0.23909670731E+04  0.25500000920E-02 0. -1.
        2   -1    0    0  501    0  0.00000000000E+00  0.00000000000E+00 -0.88196718949E+03  0.88196718950E+03  0.25500000920E-02 0.  1.
    10030    2    1    2    0    0  0.00000000000E+00  0.00000000000E+00  0.15089998836E+04  0.32729342626E+04  0.29043102518E+04 0.  0.
        5    1    3    3  502    0 -0.11901428648E+04 -0.16450188133E+03  0.16736378571E+04  0.20602394701E+04  0.46999998093E+01 0. -1.
       -5    1    3    3    0  502  0.11901428648E+04  0.16450188133E+03 -0.16463797343E+03  0.12126947925E+04  0.46999998093E+01 0.  1.
</event>
<event>
 5   0  0.8357118E-07  0.2885897E+04  0.7818609E-02  0.8277086E-01
       -1   -1    0    0    0  501  0.00000000000E+00  0.00000000000E+00  0.14627355233E+04  0.14627355233E+04  0.50400001928E-02 0.  1.
        1   -1    0    0  501    0  0.00000000000E+00  0.00000000000E+00 -0.14234289555E+04  0.14234289556E+04  0.50400001928E-02 0. -1.
    10030    2    1    2    0    0  0.00000000000E+00  0.00000000000E+00  0.39306567793E+02  0.28861644789E+04  0.28858968091E+04 0.  0.
        1    1    3    3  502    0 -0.34939813362E+02  0.48284083139E+03 -0.13397902844E+04  0.14245680275E+04  0.50400001928E-02 0. -1.
       -1    1    3    3    0  502  0.34939813362E+02 -0.48284083139E+03  0.13790968521E+04  0.14615964514E+04  0.50400001928E-02 0.  1.
</event>
<event>
 5   0  0.8355946E-07  0.2893095E+04  0.7818609E-02  0.8274935E-01
        1   -1    0    0  501    0  0.00000000000E+00  0.00000000000E+00  0.18400003785E+04  0.18400003786E+04  0.50400001928E-02 0.  1.
       -1   -1    0    0    0  501  0.00000000000E+00  0.00000000000E+00 -0.11372275794E+04  0.11372275794E+04  0.50400001928E-02 0. -1.
    10030    2    1    2    0    0  0.00000000000E+00  0.00000000000E+00  0.70277279918E+03  0.29772279579E+04  0.28930946591E+04 0.  0.
        4    1    3    3  502    0 -0.77142221628E+02 -0.12432467495E+04 -0.40544924384E+03  0.13099633982E+04  0.12699999809E+01 0. -1.
       -4    1    3    3    0  502  0.77142221628E+02  0.12432467495E+04  0.11082220430E+04  0.16672645597E+04  0.12699999809E+01 0.  1.
</event>
<event>
 5   0  0.2378690E-06  0.2902283E+04  0.7818609E-02  0.8272198E-01
       -2   -1    0    0    0  501  0.00000000000E+00  0.00000000000E+00  0.10068949997E+04  0.10068949997E+04  0.25500000920E-02 0.  1.
        2   -1    0    0  501    0  0.00000000000E+00  0.00000000000E+00 -0.20913917197E+04  0.20913917197E+04  0.25500000920E-02 0. -1.
    10030    2    1    2    0    0  0.00000000000E+00  0.00000000000E+00 -0.10844967200E+04  0.30982867194E+04  0.29022831460E+04 0.  0.
        3    1    3    3  502    0  0.15385935695E+03 -0.88628768562E+03  0.67335085128E+03  0.11236458261E+04  0.10100000352E+00 0.  1.
       -3    1    3    3    0  502 -0.15385935695E+03  0.88628768562E+03 -0.17578475712E+04  0.19746408933E+04  0.10100000352E+00 0. -1.
</event>
<event>
 5   0  0.8263673E-07  0.2895873E+04  0.7818609E-02  0.8274107E-01
        1   -1    0    0  501    0  0.00000000000E+00  0.00000000000E+00  0.12427858821E+04  0.12427858821E+04  0.50400001928E-02 0. -1.
       -1   -1    0    0    0  501  0.00000000000E+00  0.00000000000E+00 -0.16869516934E+04  0.16869516934E+04  0.50400001928E-02 0.  1.
    10030    2    1    2    0    0  0.00000000000E+00  0.00000000000E+00 -0.44416581126E+03  0.29297375755E+04  0.28958727516E+04 0.  0.
        5    1    3    3  502    0 -0.11767521642E+04  0.25991911306E+03  0.58992003802E+03  0.13417642649E+04  0.46999998093E+01 0. -1.
       -5    1    3    3    0  502  0.11767521642E+04 -0.25991911306E+03 -0.10340858493E+04  0.15879733106E+04  0.46999998093E+01 0.  1.
</event>
<event>
 5   0  0.2304435E-06  0.2896920E+04  0.7818609E-02  0.8273794E-01
        2   -1    0    0  501    0  0.00000000000E+00  0.00000000000E+00  0.21891654335E+04  0.21891654335E+04  0.25500000920E-02 0. -1.
       -2   -1    0    0    0  501  0.00000000000E+00  0.00000000000E+00 -0.95837291624E+03  0.95837291625E+03  0.25500000920E-02 0.  1.
    10030    2    1    2    0    0  0.00000000000E+00  0.00000000000E+00  0.12307925172E+04  0.31475383497E+04  0.28969203376E+04 0.  0.
        1    1    3    3  502    0 -0.10494799535E+04 -0.60746440142E+03 -0.24536234672E+03  0.12371838396E+04  0.50400001928E-02 0.  1.
       -1    1    3    3    0  502  0.10494799535E+04  0.60746440142E+03  0.14761548639E+04  0.19103545101E+04  0.50400001928E-02 0. -1.
</event>
<event>
 5   0  0.8357118E-07  0.2891962E+04  0.7818609E-02  0.8275273E-01
        1   -1    0    0  501    0  0.00000000000E+00  0.00000000000E+00  0.10796978623E+04  0.10796978623E+04  0.50400001928E-02 0. -1.
       -1   -1    0    0    0  501  0.00000000000E+00  0.00000000000E+00 -0.19365246351E+04  0.19365246351E+04  0.50400001928E-02 0.  1.
    10030    2    1    2    0    0  0.00000000000E+00  0.00000000000E+00 -0.85682677279E+03  0.30162224975E+04  0.28919623157E+04 0.  0.
        1    1    3    3  502    0 -0.55906332565E+03 -0.57303197891E+03  0.82746147895E+03  0.11513513582E+04  0.50400001928E-02 0. -1.
       -1    1    3    3    0  502  0.55906332565E+03  0.57303197891E+03 -0.16842882517E+04  0.18648711392E+04  0.50400001928E-02 0.  1.
</event>
<event>
 5   0  0.2425845E-06  0.2903094E+04  0.7818609E-02  0.8271957E-01
        2   -1    0    0  501    0  0.00000000000E+00  0.00000000000E+00  0.18535777187E+04  0.18535777187E+04  0.25500000920E-02 0.  1.
       -2   -1    0    0    0  501  0.00000000000E+00  0.00000000000E+00 -0.11367148606E+04  0.11367148606E+04  0.25500000920E-02 0. -1.
    10030    2    1    2    0    0  0.00000000000E+00  0.00000000000E+00  0.71686285810E+03  0.29902925793E+04  0.29030944443E+04 0.  0.
        2    1    3    3  502    0  0.87097628584E+03 -0.24064145122E+03 -0.81168312973E+03  0.12146347194E+04  0.25500000920E-02 0. -1.
       -2    1    3    3    0  502 -0.87097628584E+03  0.24064145122E+03  0.15285459878E+04  0.17756578599E+04  0.25500000920E-02 0.  1.
</event>
<event>
 5   0  0.8947674E-07  0.2881097E+04  0.7818609E-02  0.8278524E-01
        1   -1    0    0  501    0  0.00000000000E+00  0.00000000000E+00  0.91357561414E+03  0.91357561416E+03  0.50400001928E-02 0.  1.
       -1   -1    0    0    0  501  0.00000000000E+00  0.00000000000E+00 -0.22714922575E+04  0.22714922575E+04  0.50400001928E-02 0. -1.
    10030    2    1    2    0    0  0.00000000000E+00  0.00000000000E+00 -0.13579166434E+04  0.31850678717E+04  0.28810969676E+04 0.  0.
        3    1    3    3  502    0  0.12448196287E+04 -0.21646694339E+03  0.85957124216E+02  0.12664211318E+04  0.10100000352E+00 0. -1.
       -3    1    3    3    0  502 -0.12448196287E+04  0.21646694339E+03 -0.14438737676E+04  0.19186467399E+04  0.10100000352E+00 0.  1.
</event>
<event>
 5   0  0.2360103E-06  0.2910793E+04  0.7818609E-02  0.8269674E-01
       -2   -1    0    0    0  501  0.00000000000E+00  0.00000000000E+00  0.12405652824E+04  0.12405652824E+04  0.25500000920E-02 0. -1.
        2   -1    0    0  501    0  0.00000000000E+00  0.00000000000E+00 -0.17074300058E+04  0.17074300058E+04  0.25500000920E-02 0.  1.
    10030    2    1    2    0    0  0.00000000000E+00  0.00000000000E+00 -0.46686472347E+03  0.29479952882E+04  0.29107925981E+04 0.  0.
        4    1    3    3  502    0 -0.46429000324E+03  0.12643481375E+04 -0.79187371034E+03  0.15624362406E+04  0.12699999809E+01 0.  1.
       -4    1    3    3    0  502  0.46429000324E+03 -0.12643481375E+04  0.32500898687E+03  0.13855590476E+04  0.12699999809E+01 0. -1.
</event>
<event>
 5   0  0.2304435E-06  0.2902540E+04  0.7818609E-02  0.8272122E-01
        2   -1    0    0  501    0  0.00000000000E+00  0.00000000000E+00  0.13495195606E+04  0.13495195606E+04  0.25500000920E-02 0. -1.
       -2   -1    0    0    0  501  0.00000000000E+00  0.00000000000E+00 -0.15606924346E+04  0.15606924346E+04  0.25500000920E-02 0.  1.
    10030    2    1    2    0    0  0.00000000000E+00  0.00000000000E+00 -0.21117287405E+03  0.29102119952E+04  0.29025402451E+04 0.  0.
        1    1    3    3  502    0 -0.46073896783E+03 -0.12143290794E+04  0.54366617576E+03  0.14079944674E+04  0.50400001928E-02 0. -1.
       -1    1    3    3    0  502  0.46073896783E+03  0.12143290794E+04 -0.75483904981E+03  0.15022175278E+04  0.50400001928E-02 0.  1.
</event>
<event>
 5   0  0.8947674E-07  0.2897569E+04  0.7818609E-02  0.8273601E-01
        1   -1    0    0  501    0  0.00000000000E+00  0.00000000000E+00  0.18107433132E+04  0.18107433132E+04  0.50400001928E-02 0. -1.
       -1   -1    0    0    0  501  0.00000000000E+00  0.00000000000E+00 -0.11591798448E+04  0.11591798448E+04  0.50400001928E-02 0.  1.
    10030    2    1    2    0    0  0.00000000000E+00  0.00000000000E+00  0.65156346841E+03  0.29699231580E+04  0.28975694316E+04 0.  0.
        3    1    3    3  502    0  0.91599333432E+03  0.51502187964E+03  0.13480251555E+04  0.17092288188E+04  0.10100000352E+00 0. -1.
       -3    1    3    3    0  502 -0.91599333432E+03 -0.51502187964E+03 -0.69646168706E+03  0.12606943392E+04  0.10100000352E+00 0.  1.
</event>
<event>
 5   0  0.8263673E-07  0.2922354E+04  0.7818609E-02  0.8266258E-01
        1   -1    0    0  501    0  0.00000000000E+00  0.00000000000E+00  0.18998056773E+04  0.18998056773E+04  0.50400001928E-02 0.  1.
       -1   -1    0    0    0  501  0.00000000000E+00  0.00000000000E+00 -0.11238190724E+04  0.11238190724E+04  0.50400001928E-02 0. -1.
    10030    2    1    2    0    0  0.00000000000E+00  0.00000000000E+00  0.77598660482E+03  0.30236247497E+04  0.29223537459E+04 0.  0.
        5    1    3    3  502    0  0.87164238996E+03  0.23940545467E+03 -0.79980576842E+03  0.12069742271E+04  0.46999998093E+01 0. -1.
       -5    1    3    3    0  502 -0.87164238996E+03 -0.23940545467E+03  0.15757923732E+04  0.18166505226E+04  0.46999998093E+01 0.  1.
</event>
<event>
 5   0  0.8947674E-07  0.2897509E+04  0.7818609E-02  0.8273619E-01
        1   -1    0    0  501    0  0.00000000000E+00  0.00000000000E+00  0.77399730490E+03  0.77399730491E+03  0.50400001928E-02 0. -1.
       -1   -1    0    0    0  501  0.00000000000E+00  0.00000000000E+00 -0.27117524888E+04  0.27117524888E+04  0.50400001928E-02 0.  1.
    10030    2    1    2    0    0  0.00000000000E+00  0.00000000000E+00 -0.19377551839E+04  0.34857497937E+04  0.28975086664E+04 0.  0.
        3    1    3    3  502    0 -0.13538680796E+04 -0.30986466634E+03 -0.14647687093E+04  0.20185445921E+04  0.10100000352E+00 0.  1.
       -3    1    3    3    0  502  0.13538680796E+04  0.30986466634E+03 -0.47298647464E+03  0.14672052016E+04  0.10100000352E+00 0. -1.
</event>
<event>
 5   0  0.7621125E-07  0.2924735E+04  0.7818609E-02  0.8265556E-01
        3   -1    0    0  501    0  0.00000000000E+00  0.00000000000E+00  0.20516238888E+04  0.20516238913E+04  0.10100000352E+00 0. -1.
       -3   -1    0    0    0  501  0.00000000000E+00  0.00000000000E+00 -0.10423539067E+04  0.10423539116E+04  0.10100000352E+00 0.  1.
    10030    2    1    2    0    0  0.00000000000E+00  0.00000000000E+00  0.10092699821E+04  0.30939778029E+04  0.29247346458E+04 0.  0.
        4    1    3    3  502    0 -0.28716592115E+02  0.14518700711E+04  0.68714443032E+03  0.16065243313E+04  0.12699999809E+01 0.  1.
       -4    1    3    3    0  502  0.28716592115E+02 -0.14518700711E+04  0.32212555175E+03  0.14874534716E+04  0.12699999809E+01 0. -1.
</event>
<event>
 5   0  0.2425845E-06  0.2895860E+04  0.7818609E-02  0.8274110E-01
        2   -1    0    0  501    0  0.00000000000E+00  0.00000000000E+00  0.24876409936E+04  0.24876409936E+04  0.25500000920E-02 0. -1.
       -2   -1    0    0    0  501  0.00000000000E+00  0.00000000000E+00 -0.84276655172E+03  0.84276655173E+03  0.25500000920E-02 0.  1.
    10030    2    1    2    0    0  0.00000000000E+00  0.00000000000E+00  0.16448744419E+04  0.33304075453E+04  0.28958595423E+04 0.  0.
        2    1    3    3  502    0 -0.22030259383E+03  0.14208857451E+04  0.62641690041E+03  0.15683901512E+04  0.25500000920E-02 0.  1.
       -2    1    3    3    0  502  0.22030259383E+03 -0.14208857451E+04  0.10184575415E+04  0.17620173941E+04  0.25500000920E-02 0. -1.
</event>
<event>
 5   0  0.8947674E-07  0.2911368E+04  0.7818609E-02  0.8269503E-01
       -1   -1    0    0    0  501  0.00000000000E+00  0.00000000000E+00  0.12187175575E+04  0.12187175576E+04  0.50400001928E-02 0. -1.
        1   -1    0    0  501    0  0.00000000000E+00  0.00000000000E+00 -0.17387264156E+04  0.17387264157E+04  0.50400001928E-02 0.  1.
    10030    2    1    2    0    0  0.00000000000E+00  0.00000000000E+00 -0.52000885810E+03  0.29574439732E+04  0.29113683453E+04 0.  0.
        3    1    3    3  502    0  0.56360296192E+02 -0.14539218653E+04 -0.21513380281E+03  0.14708323619E+04  0.10100000352E+00 0.  1.
       -3    1    3    3    0  502 -0.56360296192E+02  0.14539218653E+04 -0.30487505528E+03  0.14866116113E+04  0.10100000352E+00 0. -1.
</event>
<event>
 5   0  0.2304435E-06  0.2893180E+04  0.7818609E-02  0.8274909E-01
       -2   -1    0    0    0  501  0.00000000000E+00  0.00000000000E+00  0.10319288664E+04  0.10319288664E+04  0.25500000920E-02 0.  1.
        2   -1    0    0  501    0  0.00000000000E+00  0.00000000000E+00 -0.20278754755E+04  0.20278754755E+04  0.25500000920E-02 0. -1.
    10030    2    1    2    0    0  0.00000000000E+00  0.00000000000E+00 -0.99594660909E+03  0.30598043420E+04  0.28931804235E+04 0.  0.
        1    1    3    3  502    0 -0.41916833690E+03 -0.36375277508E+03  0.91485438967E+03  0.10700358547E+04  0.50400001928E-02 0.  1.
       -1    1    3    3    0  502  0.41916833690E+03  0.36375277508E+03 -0.19108009988E+04  0.19897684873E+04  0.50400001928E-02 0. -1.
</event>
<event>
 5   0  0.2360103E-06  0.2918228E+04  0.7818609E-02  0.8267475E-01
       -2   -1    0    0    0  501  0.00000000000E+00  0.00000000000E+00  0.98512291345E+03  0.98512291346E+03  0.25500000920E-02 0.  1.
        2   -1    0    0  501    0  0.00000000000E+00  0.00000000000E+00 -0.21611660892E+04  0.21611660892E+04  0.25500000920E-02 0. -1.
    10030    2    1    2    0    0  0.00000000000E+00  0.00000000000E+00 -0.11760431757E+04  0.31462890026E+04  0.29182283901E+04 0.  0.
        4    1    3    3  502    0  0.34157703945E+03 -0.13798437406E+04 -0.23310045026E+03  0.14404794532E+04  0.12699999809E+01 0.  1.
       -4    1    3    3    0  502 -0.34157703945E+03  0.13798437406E+04 -0.94294272546E+03  0.17058095494E+04  0.12699999809E+01 0. -1.
</event>
<event>
 5   0  0.8263673E-07  0.2980533E+04  0.7818609E-02  0.8249312E-01
        1   -1    0    0  501    0  0.00000000000E+00  0.00000000000E+00  0.27506400801E+04  0.27506400801E+04  0.50400001928E-02 0.  1.
       -1   -1    0    0    0  501  0.00000000000E+00  0.00000000000E+00 -0.80740986324E+03  0.80740986326E+03  0.50400001928E-02 0. -1.
    10030    2    1    2    0    0  0.00000000000E+00  0.00000000000E+00  0.19432302168E+04  0.35580499433E+04  0.29805327919E+04 0.  0.
        5    1    3    3  502    0  0.83582817065E+02 -0.82063657218E+03  0.24532483811E+04  0.25882195000E+04  0.46999998093E+01 0.  1.
       -5    1    3    3    0  502 -0.83582817065E+02  0.82063657218E+03 -0.51001816427E+03  0.96983044332E+03  0.46999998093E+01 0. -1.
</event>
<event>
 5   0  0.2378690E-06  0.2912625E+04  0.7818609E-02  0.8269131E-01
        2   -1    0    0  501    0  0.00000000000E+00  0.00000000000E+00  0.15385996766E+04  0.15385996766E+04  0.25500000920E-02 0.  1.
       -2   -1    0    0    0  501  0.00000000000E+00  0.00000000000E+00 -0.13784263425E+04  0.13784263425E+04  0.25500000920E-02 0. -1.
    10030    2    1    2    0    0  0.00000000000E+00  0.00000000000E+00  0.16017333413E+03  0.29170260192E+04  0.29126251560E+04 0.  0.
        3    1    3    3  502    0  0.42272511744E+02 -0.10210344418E+04  0.11192227121E+04  0.15155717687E+04  0.10100000352E+00 0.  1.
       -3    1    3    3    0  502 -0.42272511744E+02  0.10210344418E+04 -0.95904937794E+03  0.14014542505E+04  0.10100000352E+00 0. -1.
</event>
<event>
 5   0  0.2378690E-06  0.2889001E+04  0.7818609E-02  0.8276157E-01
       -2   -1    0    0    0  501  0.00000000000E+00  0.00000000000E+00  0.93473619189E+03  0.93473619190E+03  0.25500000920E-02 0. -1.
        2   -1    0    0  501    0  0.00000000000E+00  0.00000000000E+00 -0.22322687547E+04  0.22322687547E+04  0.25500000920E-02 0.  1.
    10030    2    1    2    0    0  0.00000000000E+00  0.00000000000E+00 -0.12975325628E+04  0.31670049466E+04  0.28890014850E+04 0.  0.
        3    1    3    3  502    0  0.96241617771E+03  0.75735886108E+03  0.19093669118E+03  0.12394733453E+04  0.10100000352E+00 0. -1.
       -3    1    3    3    0  502 -0.96241617771E+03 -0.75735886108E+03 -0.14884692540E+04  0.19275316012E+04  0.10100000352E+00 0.  1.
</event>
<event>
 5   0  0.8483636E-07  0.2903533E+04  0.7818609E-02  0.8271827E-01
       -1   -1    0    0    0  501  0.00000000000E+00  0.00000000000E+00  0.70204316965E+03  0.70204316967E+03  0.50400001928E-02 0. -1.
        1   -1    0    0  501    0  0.00000000000E+00  0.00000000000E+00 -0.30021308255E+04  0.30021308255E+04  0.50400001928E-02 0.  1.
    10030    2    1    2    0    0  0.00000000000E+00  0.00000000000E+00 -0.23000876559E+04  0.37041739952E+04  0.29035326349E+04 0.  0.
        2    1    3    3  502    0 -0.92759064420E+03 -0.96754437977E+03 -0.43852566637E+03  0.14102734806E+04  0.25500000920E-02 0. -1.
       -2    1    3    3    0  502  0.92759064420E+03  0.96754437977E+03 -0.18615619895E+04  0.22939005146E+04  0.25500000920E-02 0.  1.
</event>
<event>
 5   0  0.8263673E-07  0.2882382E+04  0.7818609E-02  0.8278139E-01
        1   -1    0    0  501    0  0.00000000000E+00  0.00000000000E+00  0.13676729516E+04  0.13676729516E+04  0.50400001928E-02 0.  1.
       -1   -1    0    0    0  501  0.00000000000E+00  0.00000000000E+00 -0.15186605588E+04  0.15186605589E+04  0.50400001928E-02 0. -1.
    10030    2    1    2    0    0  0.00000000000E+00  0.00000000000E+00 -0.15098760725E+03  0.28863335105E+04  0.28823816326E+04 0.  0.
        5    1    3    3  502    0  0.60717108934E+03  0.10373438583E+04  0.72075037851E+03  0.14015142562E+04  0.46999998093E+01 0.  1.
       -5    1    3    3    0  502 -0.60717108934E+03 -0.10373438583E+04 -0.87173798575E+03  0.14848192543E+04  0.46999998093E+01 0. -1.
</event>
<event>
 5   0  0.8357118E-07  0.2961274E+04  0.7818609E-02  0.8254876E-01
        1   -1    0    0  501    0  0.00000000000E+00  0.00000000000E+00  0.14255441493E+04  0.14255441493E+04  0.50400001928E-02 0.  1.
       -1   -1    0    0    0  501  0.00000000000E+00  0.00000000000E+00 -0.15378593667E+04  0.15378593667E+04  0.50400001928E-02 0. -1.
    10030    2    1    2    0    0  0.00000000000E+00  0.00000000000E+00 -0.11231521741E+03  0.29634035161E+04  0.29612743357E+04 0.  0.
        1    1    3    3  502    0  0.18338265182E+03  0.43976670780E+02  0.14134769705E+04  0.14260015045E+04  0.50400001928E-02 0.  1.
       -1    1    3    3    0  502 -0.18338265182E+03 -0.43976670780E+02 -0.15257921879E+04  0.15374020116E+04  0.50400001928E-02 0. -1.
</event>
<event>
 5   0  0.2325590E-06  0.2915019E+04  0.7818609E-02  0.8268423E-01
       -2   -1    0    0    0  501  0.00000000000E+00  0.00000000000E+00  0.99839091640E+03  0.99839091641E+03  0.25500000920E-02 0.  1.
        2   -1    0    0  501    0  0.00000000000E+00  0.00000000000E+00 -0.21277577115E+04  0.21277577115E+04  0.25500000920E-02 0. -1.
    10030    2    1    2    0    0  0.00000000000E+00  0.00000000000E+00 -0.11293667951E+04  0.31261486279E+04  0.29150190198E+04 0.  0.
        5    1    3    3  502    0 -0.35535536415E+03  0.35948085022E+03  0.90137262875E+03  0.10334401881E+04  0.46999998093E+01 0.  1.
       -5    1    3    3    0  502  0.35535536415E+03 -0.35948085022E+03 -0.20307394239E+04  0.20927084398E+04  0.46999998093E+01 0. -1.
</event>
<event>
 5   0  0.2378690E-06  0.2889711E+04  0.7818609E-02  0.8275945E-01
       -2   -1    0    0    0  501  0.00000000000E+00  0.00000000000E+00  0.12421343038E+04  0.12421343038E+04  0.25500000920E-02 0.  1.
        2   -1    0    0  501    0  0.00000000000E+00  0.00000000000E+00 -0.16806614540E+04  0.16806614540E+04  0.25500000920E-02 0. -1.
    10030    2    1    2    0    0  0.00000000000E+00  0.00000000000E+00 -0.43852715014E+03  0.29227957578E+04  0.28897108818E+04 0.  0.
        3    1    3    3  502    0  0.11792576374E+02  0.10398319692E+04 -0.12338523183E+04  0.16136236062E+04  0.10100000352E+00 0. -1.
       -3    1    3    3    0  502 -0.11792576374E+02 -0.10398319692E+04  0.79532516817E+03  0.13091721515E+04  0.10100000352E+00 0.  1.
</event>
<event>
 5   0  0.2360103E-06  0.2904599E+04  0.7818609E-02  0.8271511E-01
        2   -1    0    0  501    0  0.00000000000E+00  0.00000000000E+00  0.15715056108E+04  0.15715056108E+04  0.25500000920E-02 0. -1.
       -2   -1    0    0    0  501  0.00000000000E+00  0.00000000000E+00 -0.13421353215E+04  0.13421353215E+04  0.25500000920E-02 0.  1.
    10030    2    1    2    0    0  0.00000000000E+00  0.00000000000E+00  0.22937028930E+03  0.29136409322E+04  0.29045985527E+04 0.  0.
        4    1    3    3  502    0 -0.50691337765E+03  0.44933750500E+03 -0.11739565525E+04  0.13553748433E+04  0.12699999809E+01 0.  1.
       -4    1    3    3    0  502  0.50691337765E+03 -0.44933750500E+03  0.14033268418E+04  0.15582660889E+04  0.12699999809E+01 0. -1.
</event>
<event>
 5   0  0.2378690E-06  0.2912224E+04  0.7818609E-02  0.8269250E-01
       -2   -1    0    0    0  501  0.00000000000E+00  0.00000000000E+00  0.89538133851E+03  0.89538133852E+03  0.25500000920E-02 0.  1.
        2   -1    0    0  501    0  0.00000000000E+00  0.00000000000E+00 -0.23679990627E+04  0.23679990627E+04  0.25500000920E-02 0. -1.
    10030    2    1    2    0    0  0.00000000000E+00  0.00000000000E+00 -0.14726177242E+04  0.32633804012E+04  0.29122240095E+04 0.  0.
        3    1    3    3  502    0 -0.74493352858E+03  0.94739087275E+03  0.17940927492E+03  0.12184675317E+04  0.10100000352E+00 0.  1.
       -3    1    3    3    0  502  0.74493352858E+03 -0.94739087275E+03 -0.16520269991E+04  0.20449128694E+04  0.10100000352E+00 0. -1.
</event>
<event>
 5   0  0.8263673E-07  0.2898494E+04  0.7818609E-02  0.8273326E-01
       -1   -1    0    0    0  501  0.00000000000E+00  0.00000000000E+00  0.12854248742E+04  0.12854248742E+04  0.50400001928E-02 0. -1.
        1   -1    0    0  501    0  0.00000000000E+00  0.00000000000E+00 -0.16339472341E+04  0.16339472341E+04  0.50400001928E-02 0.  1.
    10030    2    1    2    0    0  0.00000000000E+00  0.00000000000E+00 -0.34852235996E+03  0.29193721083E+04  0.28984936901E+04 0.  0.
        5    1    3    3  502    0  0.88146847724E+02  0.14462894606E+04 -0.14628961691E+03  0.14563467350E+04  0.46999998093E+01 0.  1.
       -5    1    3    3    0  502 -0.88146847724E+02 -0.14462894606E+04 -0.20223274305E+03  0.14630253733E+04  0.46999998093E+01 0. -1.
</event>
<event>
 5   0  0.8355946E-07  0.2884215E+04  0.7818609E-02  0.8277590E-01
        1   -1    0    0  501    0  0.00000000000E+00  0.00000000000E+00  0.13194202885E+04  0.13194202885E+04  0.50400001928E-02 0. -1.
       -1   -1    0    0    0  501  0.00000000000E+00  0.00000000000E+00 -0.15762023291E+04  0.15762023291E+04  0.50400001928E-02 0.  1.
    10030    2    1    2    0    0  0.00000000000E+00  0.00000000000E+00 -0.25678204055E+03  0.28956226176E+04  0.28842145078E+04 0.  0.
        4    1    3    3  502    0 -0.10107807163E+04 -0.10285174505E+04 -0.14051838174E+03  0.14488867558E+04  0.12699999809E+01 0. -1.
       -4    1    3    3    0  502  0.10107807163E+04  0.10285174505E+04 -0.11626365882E+03  0.14467358618E+04  0.12699999809E+01 0.  1.
</event>
<event>
 5   0  0.8263673E-07  0.2922146E+04  0.7818609E-02  0.8266319E-01
        1   -1    0    0  501    0  0.00000000000E+00  0.00000000000E+00  0.15634031110E+04  0.15634031110E+04  0.50400001928E-02 0.  1.
       -1   -1    0    0    0  501  0.00000000000E+00  0.00000000000E+00 -0.13654410447E+04  0.13654410447E+04  0.50400001928E-02 0. -1.
    10030    2    1    2    0    0  0.00000000000E+00  0.00000000000E+00  0.19796206627E+03  0.29288441558E+04  0.29221463189E+04 0.  0.
        5    1    3    3  502    0 -0.35896894011E+03  0.80520991964E+02  0.15162129671E+04  0.15602135052E+04  0.46999998093E+01 0.  1.
       -5    1    3    3    0  502  0.35896894011E+03 -0.80520991964E+02 -0.13182509009E+04  0.13686306506E+04  0.46999998093E+01 0. -1.
</event>
<event>
 5   0  0.8355946E-07  0.2903706E+04  0.7818609E-02  0.8271776E-01
        1   -1    0    0  501    0  0.00000000000E+00  0.00000000000E+00  0.17848312365E+04  0.17848312365E+04  0.50400001928E-02 0. -1.
       -1   -1    0    0    0  501  0.00000000000E+00  0.00000000000E+00 -0.11809955166E+04  0.11809955166E+04  0.50400001928E-02 0.  1.
    10030    2    1    2    0    0  0.00000000000E+00  0.00000000000E+00  0.60383571987E+03  0.29658267531E+04  0.29037063820E+04 0.  0.
        4    1    3    3  502    0 -0.25618875192E+03 -0.68009056575E+03  0.15856758746E+04  0.17442836485E+04  0.12699999809E+01 0. -1.
       -4    1    3    3    0  502  0.25618875192E+03  0.68009056575E+03 -0.98184015472E+03  0.12215431047E+04  0.12699999809E+01 0.  1.
</event>
<event>
 5   0  0.2378690E-06  0.2896391E+04  0.7818609E-02  0.8273952E-01
       -2   -1    0    0    0  501  0.00000000000E+00  0.00000000000E+00  0.12827148952E+04  0.12827148952E+04  0.25500000920E-02 0.  1.
        2   -1    0    0  501    0  0.00000000000E+00  0.00000000000E+00 -0.16350242020E+04  0.16350242020E+04  0.25500000920E-02 0. -1.
    10030    2    1    2    0    0  0.00000000000E+00  0.00000000000E+00 -0.35230930677E+03  0.29177390971E+04  0.28963907871E+04 0.  0.
        3    1    3    3  502    0 -0.96370427814E+03  0.29545698408E+03 -0.12236501909E+04  0.15853518742E+04  0.10100000352E+00 0. -1.
       -3    1    3    3    0  502  0.96370427814E+03 -0.29545698408E+03  0.87134088418E+03  0.13323872229E+04  0.10100000352E+00 0.  1.
</event>
<event>
 5   0  0.8947674E-07  0.2821374E+04  0.7818609E-02  0.8296663E-01
       -1   -1    0    0    0  501  0.00000000000E+00  0.00000000000E+00  0.83388363015E+03  0.83388363017E+03  0.50400001928E-02 0.  1.
        1   -1    0    0  501    0  0.00000000000E+00  0.00000000000E+00 -0.23864688475E+04  0.23864688475E+04  0.50400001928E-02 0. -1.
    10030    2    1    2    0    0  0.00000000000E+00  0.00000000000E+00 -0.15525852173E+04  0.32203524777E+04  0.28213736412E+04 0.  0.
        3    1    3    3  502    0  0.74497808089E+03  0.66562165362E+03 -0.19131266189E+04  0.21582627266E+04  0.10100000352E+00 0. -1.
       -3    1    3    3    0  502 -0.74497808089E+03 -0.66562165362E+03  0.36054140162E+03  0.10620897510E+04  0.10100000352E+00 0.  1.
</event>
<event>
 5   0  0.8483636E-07  0.2911141E+04  0.7818609E-02  0.8269570E-01
       -1   -1    0    0    0  501  0.00000000000E+00  0.00000000000E+00  0.96115126042E+03  0.96115126043E+03  0.50400001928E-02 0.  1.
        1   -1    0    0  501    0  0.00000000000E+00  0.00000000000E+00 -0.22043204252E+04  0.22043204252E+04  0.50400001928E-02 0. -1.
    10030    2    1    2    0    0  0.00000000000E+00  0.00000000000E+00 -0.12431691648E+04  0.31654716857E+04  0.29111409139E+04 0.  0.
        2    1    3    3  502    0 -0.56424578025E+03  0.28456229589E+03  0.80420562746E+03  0.10227881951E+04  0.25500000920E-02 0.  1.
       -2    1    3    3    0  502  0.56424578025E+03 -0.28456229589E+03 -0.20473747923E+04  0.21426834906E+04  0.25500000920E-02 0. -1.
</event>
<event>
 5   0  0.2378690E-06  0.2915008E+04  0.7818609E-02  0.8268426E-01
       -2   -1    0    0    0  501  0.00000000000E+00  0.00000000000E+00  0.90205830878E+03  0.90205830878E+03  0.25500000920E-02 0.  1.
        2   -1    0    0  501    0  0.00000000000E+00  0.00000000000E+00 -0.23549665941E+04  0.23549665941E+04  0.25500000920E-02 0. -1.
    10030    2    1    2    0    0  0.00000000000E+00  0.00000000000E+00 -0.14529082853E+04  0.32570249029E+04  0.29150075013E+04 0.  0.
        3    1    3    3  502    0 -0.35615287060E+03  0.24907904146E+03 -0.22808812242E+04  0.23219182598E+04  0.10100000352E+00 0. -1.
       -3    1    3    3    0  502  0.35615287060E+03 -0.24907904146E+03  0.82797293890E+03  0.93510664305E+03  0.10100000352E+00 0.  1.
</event>
<event>
 5   0  0.8947674E-07  0.2907682E+04  0.7818609E-02  0.8270596E-01
       -1   -1    0    0    0  501  0.00000000000E+00  0.00000000000E+00  0.96241215202E+03  0.96241215203E+03  0.50400001928E-02 0.  1.
        1   -1    0    0  501    0  0.00000000000E+00  0.00000000000E+00 -0.21962037858E+04  0.21962037858E+04  0.50400001928E-02 0. -1.
    10030    2    1    2    0    0  0.00000000000E+00  0.00000000000E+00 -0.12337916338E+04  0.31586159378E+04  0.29076816963E+04 0.  0.
        3    1    3    3  502    0 -0.12470332348E+04  0.28884032298E+03  0.13188957956E+03  0.12868238000E+04  0.10100000352E+00 0.  1.
       -3    1    3    3    0  502  0.12470332348E+04 -0.28884032298E+03 -0.13656812133E+04  0.18717921379E+04  0.10100000352E+00 0. -1.
</event>
<event>
 5   0  0.2360103E-06  0.2908304E+04  0.7818609E-02  0.8270411E-01
        2   -1    0    0  501    0  0.00000000000E+00  0.00000000000E+00  0.17097171043E+04  0.17097171043E+04  0.25500000920E-02 0.  1.
       -2   -1    0    0    0  501  0.00000000000E+00  0.00000000000E+00 -0.12367883278E+04  0.12367883278E+04  0.25500000920E-02 0. -1.
    10030    2    1    2    0    0  0.00000000000E+00  0.00000000000E+00  0.47292877653E+03  0.29465054321E+04  0.29083040820E+04 0.  0.
        4    1    3    3  502    0 -0.36358389281E+03  0.13883289314E+04  0.47386270694E+03  0.15113563269E+04  0.12699999809E+01 0.  1.
       -4    1    3    3    0  502  0.36358389281E+03 -0.13883289314E+04 -0.93393041181E+00  0.14351491052E+04  0.12699999809E+01 0. -1.
</event>
<event>
 5   0  0.8483636E-07  0.2852727E+04  0.7818609E-02  0.8287083E-01
       -1   -1    0    0    0  501  0.00000000000E+00  0.00000000000E+00  0.12254321835E+04  0.12254321835E+04  0.50400001928E-02 0.  1.
        1   -1    0    0  501    0  0.00000000000E+00  0.00000000000E+00 -0.16602409122E+04  0.16602409122E+04  0.50400001928E-02 0. -1.
    10030    2    1    2    0    0  0.00000000000E+00  0.00000000000E+00 -0.43480872869E+03  0.28856730956E+04  0.28527268682E+04 0.  0.
        2    1    3    3  502    0 -0.13171024026E+03 -0.12234651425E+03  0.12139272861E+04  0.12271657235E+04  0.25500000920E-02 0.  1.
       -2    1    3    3    0  502  0.13171024026E+03  0.12234651425E+03 -0.16487360148E+04  0.16585073721E+04  0.25500000920E-02 0. -1.
</event>
<event>
 5   0  0.8483636E-07  0.2888008E+04  0.7818609E-02  0.8276454E-01
       -1   -1    0    0    0  501  0.00000000000E+00  0.00000000000E+00  0.13700599120E+04  0.13700599121E+04  0.50400001928E-02 0.  1.
        1   -1    0    0  501    0  0.00000000000E+00  0.00000000000E+00 -0.15219393392E+04  0.15219393392E+04  0.50400001928E-02 0. -1.
    10030    2    1    2    0    0  0.00000000000E+00  0.00000000000E+00 -0.15187942714E+03  0.28919992513E+04  0.28880083637E+04 0.  0.
        2    1    3    3  502    0  0.10296012217E+04  0.92509282191E+03  0.33605643369E+03  0.14243627809E+04  0.25500000920E-02 0. -1.
       -2    1    3    3    0  502 -0.10296012217E+04 -0.92509282191E+03 -0.48793586083E+03  0.14676364704E+04  0.25500000920E-02 0.  1.
</event>
<event>
 5   0  0.8355946E-07  0.2882730E+04  0.7818609E-02  0.8278034E-01
        1   -1    0    0  501    0  0.00000000000E+00  0.00000000000E+00  0.12813565285E+04  0.12813565285E+04  0.50400001928E-02 0. -1.
       -1   -1    0    0    0  501  0.00000000000E+00  0.00000000000E+00 -0.16213549567E+04  0.16213549567E+04  0.50400001928E-02 0.  1.
    10030    2    1    2    0    0  0.00000000000E+00  0.00000000000E+00 -0.33999842819E+03  0.29027114853E+04  0.28827304826E+04 0.  0.
        4    1    3    3  502    0 -0.21268496767E+03  0.82790357411E+03  0.99859341277E+03  0.13144769456E+04  0.12699999809E+01 0. -1.
       -4    1    3    3    0  502  0.21268496767E+03 -0.82790357411E+03 -0.13385918410E+04  0.15882345397E+04  0.12699999809E+01 0.  1.
</event>
<event>
 5   0  0.8947674E-07  0.2893185E+04  0.7818609E-02  0.8274908E-01
        1   -1    0    0  501    0  0.00000000000E+00  0.00000000000E+00  0.16556568922E+04  0.16556568922E+04  0.50400001928E-02 0.  1.
       -1   -1    0    0    0  501  0.00000000000E+00  0.00000000000E+00 -0.12639273837E+04  0.12639273837E+04  0.50400001928E-02 0. -1.
    10030    2    1    2    0    0  0.00000000000E+00  0.00000000000E+00  0.39172950845E+03  0.29195842759E+04  0.28931851541E+04 0.  0.
        3    1    3    3  502    0 -0.66364399164E+03 -0.35383366050E+02  0.14924837274E+04  0.16337634520E+04  0.10100000352E+00 0.  1.
       -3    1    3    3    0  502  0.66364399164E+03  0.35383366050E+02 -0.11007542190E+04  0.12858208239E+04  0.10100000352E+00 0. -1.
</event>
<event>
 5   0  0.8263673E-07  0.2910129E+04  0.7818609E-02  0.8269870E-01
       -1   -1    0    0    0  501  0.00000000000E+00  0.00000000000E+00  0.97447692660E+03  0.97447692661E+03  0.50400001928E-02 0.  1.
        1   -1    0    0  501    0  0.00000000000E+00  0.00000000000E+00 -0.21726651817E+04  0.21726651817E+04  0.50400001928E-02 0. -1.
    10030    2    1    2    0    0  0.00000000000E+00  0.00000000000E+00 -0.11981882551E+04  0.31471421084E+04  0.29101285806E+04 0.  0.
        5    1    3    3  502    0  0.66165553116E+03  0.84736903079E+03  0.46125512599E+03  0.11698720860E+04  0.46999998093E+01 0.  1.
       -5    1    3    3    0  502 -0.66165553116E+03 -0.84736903079E+03 -0.16594433811E+04  0.19772700224E+04  0.46999998093E+01 0. -1.
</event>
<event>
 5   0  0.2378690E-06  0.2902132E+04  0.7818609E-02  0.8272244E-01
        2   -1    0    0  501    0  0.00000000000E+00  0.00000000000E+00  0.16160954542E+04  0.16160954542E+04  0.25500000920E-02 0.  1.
       -2   -1    0    0    0  501  0.00000000000E+00  0.00000000000E+00 -0.13028883666E+04  0.13028883666E+04  0.25500000920E-02 0. -1.
    10030    2    1    2    0    0  0.00000000000E+00  0.00000000000E+00  0.31320708765E+03  0.29189838208E+04  0.29021316074E+04 0.  0.
        3    1    3    3  502    0  0.88901781179E+03 -0.97344566552E+02  0.13059390339E+04  0.15828156572E+04  0.10100000352E+00 0.  1.
       -3    1    3    3    0  502 -0.88901781179E+03  0.97344566552E+02 -0.99273194620E+03  0.13361681636E+04  0.10100000352E+00 0. -1.
</event>
<event>
 5   0  0.8357118E-07  0.2890383E+04  0.7818609E-02  0.8275745E-01
       -1   -1    0    0    0  501  0.00000000000E+00  0.00000000000E+00  0.99294066723E+03  0.99294066725E+03  0.50400001928E-02 0. -1.
        1   -1    0    0  501    0  0.00000000000E+00  0.00000000000E+00 -0.21034273690E+04  0.21034273690E+04  0.50400001928E-02 0.  1.
    10030    2    1    2    0    0  0.00000000000E+00  0.00000000000E+00 -0.11104867017E+04  0.30963680362E+04  0.28903830717E+04 0.  0.
        1    1    3    3  502    0 -0.13614581781E+02  0.35171723265E+03 -0.20568078424E+04  0.20867076626E+04  0.50400001928E-02 0.  1.
       -1    1    3    3    0  502  0.13614581781E+02 -0.35171723265E+03  0.94632114071E+03  0.10096603736E+04  0.50400001928E-02 0. -1.
</event>
<event>
 5   0  0.2304435E-06  0.2934327E+04  0.7818609E-02  0.8262737E-01
       -2   -1    0    0    0  501  0.00000000000E+00  0.00000000000E+00  0.12930681969E+04  0.12930681969E+04  0.25500000920E-02 0. -1.
        2   -1    0    0  501    0  0.00000000000E+00  0.00000000000E+00 -0.16646985184E+04  0.16646985184E+04  0.25500000920E-02 0.  1.
    10030    2    1    2    0    0  0.00000000000E+00  0.00000000000E+00 -0.37163032146E+03  0.29577667153E+04  0.29343269835E+04 0.  0.
        1    1    3    3  502    0  0.91317044634E+03 -0.94564535429E+03 -0.84251250065E+03  0.15613944774E+04  0.50400001928E-02 0.  1.
       -1    1    3    3    0  502 -0.91317044634E+03  0.94564535429E+03  0.47088217920E+03  0.13963722379E+04  0.50400001928E-02 0. -1.
</event>
<event>
 5   0  0.8947674E-07  0.2905389E+04  0.7818609E-02  0.8271276E-01
       -1   -1    0    0    0  501  0.00000000000E+00  0.00000000000E+00  0.29645250725E+04  0.29645250725E+04  0.50400001928E-02 0. -1.
        1   -1    0    0  501    0  0.00000000000E+00  0.00000000000E+00 -0.71185814167E+03  0.71185814169E+03  0.50400001928E-02 0.  1.
    10030    2    1    2    0    0  0.00000000000E+00  0.00000000000E+00  0.22526669308E+04  0.36763832142E+04  0.29053889991E+04 0.  0.
        3    1    3    3  502    0 -0.69021434785E+03 -0.69833462927E+03 -0.22840966166E+03  0.10080863476E+04  0.10100000352E+00 0.  1.
       -3    1    3    3    0  502  0.69021434785E+03  0.69833462927E+03  0.24810765925E+04  0.26682968666E+04  0.10100000352E+00 0. -1.
</event>
<event>
 5   0  0.8483636E-07  0.2896073E+04  0.7818609E-02  0.8274047E-01
       -1   -1    0    0    0  501  0.00000000000E+00  0.00000000000E+00  0.97647036378E+03  0.97647036379E+03  0.50400001928E-02 0.  1.
        1   -1    0    0  501    0  0.00000000000E+00  0.00000000000E+00 -0.21473353530E+04  0.21473353530E+04  0.50400001928E-02 0. -1.
    10030    2    1    2    0    0  0.00000000000E+00  0.00000000000E+00 -0.11708649893E+04  0.31238057168E+04  0.28960727431E+04 0.  0.
        2    1    3    3  502    0 -0.87271426815E+03 -0.38597330953E+03 -0.17602061381E+04  0.20022315645E+04  0.25500000920E-02 0. -1.
       -2    1    3    3    0  502  0.87271426815E+03  0.38597330953E+03  0.58934114879E+03  0.11215741523E+04  0.25500000920E-02 0.  1.
</event>
<event>
 5   0  0.8263673E-07  0.2909730E+04  0.7818609E-02  0.8269988E-01
       -1   -1    0    0    0  501  0.00000000000E+00  0.00000000000E+00  0.87220045046E+03  0.87220045047E+03  0.50400001928E-02 0.  1.
        1   -1    0    0  501    0  0.00000000000E+00  0.00000000000E+00 -0.24267732559E+04  0.24267732559E+04  0.50400001928E-02 0. -1.
    10030    2    1    2    0    0  0.00000000000E+00  0.00000000000E+00 -0.15545728055E+04  0.32989737064E+04  0.29097303841E+04 0.  0.
        5    1    3    3  502    0 -0.59508659292E+03  0.92049205770E+03 -0.18619089866E+04  0.21605927071E+04  0.46999998093E+01 0. -1.
       -5    1    3    3    0  502  0.59508659292E+03 -0.92049205770E+03  0.30733618117E+03  0.11383809993E+04  0.46999998093E+01 0.  1.
</event>
<event>
 5   0  0.2325590E-06  0.3009585E+04  0.7818609E-02  0.8240999E-01
        2   -1    0    0  501    0  0.00000000000E+00  0.00000000000E+00  0.21341213050E+04  0.21341213050E+04  0.25500000920E-02 0.  1.
       -2   -1    0    0    0  501  0.00000000000E+00  0.00000000000E+00 -0.10610457997E+04  0.10610457997E+04  0.25500000920E-02 0. -1.
    10030    2    1    2    0    0  0.00000000000E+00  0.00000000000E+00  0.10730755053E+04  0.31951671047E+04  0.30095849858E+04 0.  0.
        5    1    3    3  502    0 -0.44933517531E+03 -0.82690370817E+03 -0.71005006540E+03  0.11789253699E+04  0.46999998093E+01 0. -1.
       -5    1    3    3    0  502  0.44933517531E+03  0.82690370817E+03  0.17831255707E+04  0.20162417348E+04  0.46999998093E+01 0.  1.
</event>
<event>
 5   0  0.2325590E-06  0.2760221E+04  0.7818609E-02  0.8315726E-01
        2   -1    0    0  501    0  0.00000000000E+00  0.00000000000E+00  0.16137895070E+04  0.16137895070E+04  0.25500000920E-02 0. -1.
       -2   -1    0    0    0  501  0.00000000000E+00  0.00000000000E+00 -0.11802688028E+04  0.11802688028E+04  0.25500000920E-02 0.  1.
    10030    2    1    2    0    0  0.00000000000E+00  0.00000000000E+00  0.43352070426E+03  0.27940583098E+04  0.27602213023E+04 0.  0.
        5    1    3    3  502    0 -0.30689078597E+03 -0.13433861578E+04  0.13956942356E+03  0.13850523591E+04  0.46999998093E+01 0. -1.
       -5    1    3    3    0  502  0.30689078597E+03  0.13433861578E+04  0.29395128070E+03  0.14090059507E+04  0.46999998093E+01 0.  1.
</event>
<event>
 5   0  0.2325590E-06  0.2907487E+04  0.7818609E-02  0.8270653E-01
       -2   -1    0    0    0  501  0.00000000000E+00  0.00000000000E+00  0.15102128614E+04  0.15102128614E+04  0.25500000920E-02 0. -1.
        2   -1    0    0  501    0  0.00000000000E+00  0.00000000000E+00 -0.13993858674E+04  0.13993858674E+04  0.25500000920E-02 0.  1.
    10030    2    1    2    0    0  0.00000000000E+00  0.00000000000E+00  0.11082699401E+03  0.29095987288E+04  0.29074872553E+04 0.  0.
        5    1    3    3  502    0  0.91421321395E+03  0.93535337743E+03 -0.57961546243E+03  0.14306110287E+04  0.46999998093E+01 0.  1.
       -5    1    3    3    0  502 -0.91421321395E+03 -0.93535337743E+03  0.69044245645E+03  0.14789877000E+04  0.46999998093E+01 0. -1.
</event>
<event>
 5   0  0.8355946E-07  0.2898031E+04  0.7818609E-02  0.8273463E-01
       -1   -1    0    0    0  501  0.00000000000E+00  0.00000000000E+00  0.83134096161E+03  0.83134096162E+03  0.50400001928E-02 0. -1.
        1   -1    0    0  501    0  0.00000000000E+00  0.00000000000E+00 -0.25256137986E+04  0.25256137986E+04  0.50400001928E-02 0.  1.
    10030    2    1    2    0    0  0.00000000000E+00  0.00000000000E+00 -0.16942728370E+04  0.33569547602E+04  0.28980311965E+04 0.  0.
        4    1    3    3  502    0  0.55257460159E+02 -0.14208597083E+04 -0.52414607301E+03  0.15154624430E+04  0.12699999809E+01 0.  1.
       -4    1    3    3    0  502 -0.55257460159E+02  0.14208597083E+04 -0.11701267640E+04  0.18414923172E+04  0.12699999809E+01 0. -1.
</event>
<event>
 5   0  0.2425845E-06  0.2917718E+04  0.7818609E-02  0.8267625E-01
        2   -1    0    0  501    0  0.00000000000E+00  0.00000000000E+00  0.16109558102E+04  0.16109558102E+04  0.25500000920E-02 0. -1.
       -2   -1    0    0    0  501  0.00000000000E+00  0.00000000000E+00 -0.13211223004E+04  0.13211223004E+04  0.25500000920E-02 0.  1.
    10030    2    1    2    0    0  0.00000000000E+00  0.00000000000E+00  0.28983350978E+03  0.29320781106E+04  0.29177180439E+04 0.  0.
        2    1    3    3  502    0 -0.12056259122E+04 -0.69186540238E+03 -0.30004693890E+03  0.14220547601E+04  0.25500000920E-02 0.  1.
       -2    1    3    3    0  502  0.12056259122E+04  0.69186540238E+03  0.58988044868E+03  0.15100233505E+04  0.25500000920E-02 0. -1.
</event>
<event>
 5   0  0.2378690E-06  0.2900991E+04  0.7818609E-02  0.8272583E-01
        2   -1    0    0  501    0  0.00000000000E+00  0.00000000000E+00  0.15389005915E+04  0.15389005915E+04  0.25500000920E-02 0.  1.
       -2   -1    0    0    0  501  0.00000000000E+00  0.00000000000E+00 -0.13671687054E+04  0.13671687054E+04  0.25500000920E-02 0. -1.
    10030    2    1    2    0    0  0.00000000000E+00  0.00000000000E+00  0.17173188618E+03  0.29060692969E+04  0.29009906787E+04 0.  0.
        3    1    3    3  502    0 -0.37470050109E+03  0.13485976561E+04  0.46708519736E+03  0.14755625013E+04  0.10100000352E+00 0.  1.
       -3    1    3    3    0  502  0.37470050109E+03 -0.13485976561E+04 -0.29535331118E+03  0.14305067956E+04  0.10100000352E+00 0. -1.
</event>
<event>
 5   0  0.8947674E-07  0.2882168E+04  0.7818609E-02  0.8278203E-01
       -1   -1    0    0    0  501  0.00000000000E+00  0.00000000000E+00  0.12996525490E+04  0.12996525490E+04  0.50400001928E-02 0.  1.
        1   -1    0    0  501    0  0.00000000000E+00  0.00000000000E+00 -0.15979065518E+04  0.15979065518E+04  0.50400001928E-02 0. -1.
    10030    2    1    2    0    0  0.00000000000E+00  0.00000000000E+00 -0.29825400274E+03  0.28975591008E+04  0.28821681583E+04 0.  0.
        3    1    3    3  502    0  0.15071983186E+03 -0.17959295784E+03 -0.15786036268E+04  0.15959196468E+04  0.10100000352E+00 0. -1.
       -3    1    3    3    0  502 -0.15071983186E+03  0.17959295784E+03  0.12803496241E+04  0.13016394540E+04  0.10100000352E+00 0.  1.
</event>
<event>
 5   0  0.2378690E-06  0.2902472E+04  0.7818609E-02  0.8272142E-01
        2   -1    0    0  501    0  0.00000000000E+00  0.00000000000E+00  0.21062006569E+04  0.21062006569E+04  0.25500000920E-02 0.  1.
       -2   -1    0    0    0  501  0.00000000000E+00  0.00000000000E+00 -0.99994572606E+03  0.99994572606E+03  0.25500000920E-02 0. -1.
    10030    2    1    2    0    0  0.00000000000E+00  0.00000000000E+00  0.11062549309E+04  0.31061463830E+04  0.29024722876E+04 0.  0.
        3    1    3    3  502    0 -0.12309380586E+04 -0.61702883822E+03  0.10437210738E+04  0.17277982467E+04  0.10100000352E+00 0. -1.
       -3    1    3    3    0  502  0.12309380586E+04  0.61702883822E+03  0.62533857017E+02  0.13783481362E+04  0.10100000352E+00 0.  1.
</event>
<event>
 5   0  0.8357118E-07  0.2915346E+04  0.7818609E-02  0.8268326E-01
        1   -1    0    0  501    0  0.00000000000E+00  0.00000000000E+00  0.14491432661E+04  0.14491432661E+04  0.50400001928E-02 0. -1.
       -1   -1    0    0    0  501  0.00000000000E+00  0.00000000000E+00 -0.14662532540E+04  0.14662532540E+04  0.50400001928E-02 0.  1.
    10030    2    1    2    0    0  0.00000000000E+00  0.00000000000E+00 -0.17109987886E+02  0.29153965200E+04  0.29153463117E+04 0.  0.
        1    1    3    3  502    0 -0.29595671701E+02  0.56139370257E+03  0.13363742006E+04  0.14498050894E+04  0.50400001928E-02 0. -1.
       -1    1    3    3    0  502  0.29595671701E+02 -0.56139370257E+03 -0.13534841885E+04  0.14655914307E+04  0.50400001928E-02 0.  1.
</event>
<event>
 5   0  0.2325590E-06  0.2839473E+04  0.7818609E-02  0.8291117E-01
        2   -1    0    0  501    0  0.00000000000E+00  0.00000000000E+00  0.21827213180E+04  0.21827213180E+04  0.25500000920E-02 0. -1.
       -2   -1    0    0    0  501  0.00000000000E+00  0.00000000000E+00 -0.92345791786E+03  0.92345791786E+03  0.25500000920E-02 0.  1.
    10030    2    1    2    0    0  0.00000000000E+00  0.00000000000E+00  0.12592634002E+04  0.31061792359E+04  0.28394726860E+04 0.  0.
        5    1    3    3  502    0  0.15269917416E+03  0.10085117924E+04  0.17099189556E+04  0.19910444490E+04  0.46999998093E+01 0. -1.
       -5    1    3    3    0  502 -0.15269917416E+03 -0.10085117924E+04 -0.45065555545E+03  0.11151347869E+04  0.46999998093E+01 0.  1.
</event>
<event>
 5   0  0.8947674E-07  0.2892388E+04  0.7818609E-02  0.8275146E-01
       -1   -1    0    0    0  501  0.00000000000E+00  0.00000000000E+00  0.14451615904E+04  0.14451615904E+04  0.50400001928E-02 0. -1.
        1   -1    0    0  501    0  0.00000000000E+00  0.00000000000E+00 -0.14472267610E+04  0.14472267610E+04  0.50400001928E-02 0.  1.
    10030    2    1    2    0    0  0.00000000000E+00  0.00000000000E+00 -0.20651705648E+01  0.28923883514E+04  0.28923876142E+04 0.  0.
        3    1    3    3  502    0 -0.81353240409E+03  0.11044505112E+04 -0.45910541825E+03  0.14465212406E+04  0.10100000352E+00 0. -1.
       -3    1    3    3    0  502  0.81353240409E+03 -0.11044505112E+04  0.45704024768E+03  0.14458671109E+04  0.10100000352E+00 0.  1.
</event>
<event>
 5   0  0.2425845E-06  0.2899620E+04  0.7818609E-02  0.8272991E-01
        2   -1    0    0  501    0  0.00000000000E+00  0.00000000000E+00  0.23208176735E+04  0.23208176735E+04  0.25500000920E-02 0.  1.
       -2   -1    0    0    0  501  0.00000000000E+00  0.00000000000E+00 -0.90569314705E+03  0.90569314706E+03  0.25500000920E-02 0. -1.
    10030    2    1    2    0    0  0.00000000000E+00  0.00000000000E+00  0.14151245264E+04  0.32265108205E+04  0.28996197423E+04 0.  0.
        2    1    3    3  502    0 -0.31164368802E+03  0.14020010218E+04  0.48719558639E+03  0.15166041648E+04  0.25500000920E-02 0.  1.
       -2    1    3    3    0  502  0.31164368802E+03 -0.14020010218E+04  0.92792894005E+03  0.17099066557E+04  0.25500000920E-02 0. -1.
</event>
<event>
 5   0  0.8263673E-07  0.2869222E+04  0.7818609E-02  0.8282094E-01
       -1   -1    0    0    0  501  0.00000000000E+00  0.00000000000E+00  0.13674025342E+04  0.13674025342E+04  0.50400001928E-02 0. -1.
        1   -1    0    0  501    0  0.00000000000E+00  0.00000000000E+00 -0.15051227614E+04  0.15051227614E+04  0.50400001928E-02 0.  1.
    10030    2    1    2    0    0  0.00000000000E+00  0.00000000000E+00 -0.13772022720E+03  0.28725252956E+04  0.28692219699E+04 0.  0.
        5    1    3    3  502    0  0.10014866410E+04 -0.10175958321E+04 -0.20905639751E+03  0.14429842123E+04  0.46999998093E+01 0. -1.
       -5    1    3    3    0  502 -0.10014866410E+04  0.10175958321E+04  0.71336170314E+02  0.14295410833E+04  0.46999998093E+01 0.  1.
</event>
<event>
 5   0  0.8483636E-07  0.2880138E+04  0.7818609E-02  0.8278812E-01
       -1   -1    0    0    0  501  0.00000000000E+00  0.00000000000E+00  0.15488525509E+04  0.15488525509E+04  0.50400001928E-02 0. -1.
        1   -1    0    0  501    0  0.00000000000E+00  0.00000000000E+00 -0.13389254023E+04  0.13389254023E+04  0.50400001928E-02 0.  1.
    10030    2    1    2    0    0  0.00000000000E+00  0.00000000000E+00  0.20992714861E+03  0.28877779531E+04  0.28801375139E+04 0.  0.
        2    1    3    3  502    0  0.72031033416E+03 -0.63686938395E+03  0.11798842759E+04  0.15220303855E+04  0.25500000920E-02 0. -1.
       -2    1    3    3    0  502 -0.72031033416E+03  0.63686938395E+03 -0.96995712732E+03  0.13657475677E+04  0.25500000920E-02 0.  1.
</event>
<event>
 5   0  0.8263673E-07  0.2897626E+04  0.7818609E-02  0.8273584E-01
       -1   -1    0    0    0  501  0.00000000000E+00  0.00000000000E+00  0.12033371362E+04  0.12033371362E+04  0.50400001928E-02 0.  1.
        1   -1    0    0  501    0  0.00000000000E+00  0.00000000000E+00 -0.17443645138E+04  0.17443645138E+04  0.50400001928E-02 0. -1.
    10030    2    1    2    0    0  0.00000000000E+00  0.00000000000E+00 -0.54102737760E+03  0.29477016501E+04  0.28976256478E+04 0.  0.
        5    1    3    3  502    0 -0.86160826269E+03  0.82342817310E+03 -0.11085425504E+04  0.16276644097E+04  0.46999998093E+01 0. -1.
       -5    1    3    3    0  502  0.86160826269E+03 -0.82342817310E+03  0.56751517280E+03  0.13200372404E+04  0.46999998093E+01 0.  1.
</event>
<event>
 5   0  0.2325590E-06  0.2905806E+04  0.7818609E-02  0.8271152E-01
        2   -1    0    0  501    0  0.00000000000E+00  0.00000000000E+00  0.15418849558E+04  0.15418849558E+04  0.25500000920E-02 0.  1.
       -2   -1    0    0    0  501  0.00000000000E+00  0.00000000000E+00 -0.13690558691E+04  0.13690558691E+04  0.25500000920E-02 0. -1.
    10030    2    1    2    0    0  0.00000000000E+00  0.00000000000E+00  0.17282908670E+03  0.29109408248E+04  0.29058056701E+04 0.  0.
        5    1    3    3  502    0  0.12432583267E+04 -0.72488432836E+03  0.28615597585E+03  0.14673295093E+04  0.46999998093E+01 0.  1.
       -5    1    3    3    0  502 -0.12432583267E+04  0.72488432836E+03 -0.11332688915E+03  0.14436113155E+04  0.46999998093E+01 0. -1.
</event>
<event>
 5   0  0.8263673E-07  0.2892053E+04  0.7818609E-02  0.8275246E-01
        1   -1    0    0  501    0  0.00000000000E+00  0.00000000000E+00  0.16574639955E+04  0.16574639955E+04  0.50400001928E-02 0. -1.
       -1   -1    0    0    0  501  0.00000000000E+00  0.00000000000E+00 -0.12615616084E+04  0.12615616084E+04  0.50400001928E-02 0.  1.
    10030    2    1    2    0    0  0.00000000000E+00  0.00000000000E+00  0.39590238717E+03  0.29190256039E+04  0.28920532111E+04 0.  0.
        5    1    3    3  502    0 -0.85475248797E+03 -0.28533091267E+03 -0.94350515917E+03  0.13046990537E+04  0.46999998093E+01 0.  1.
       -5    1    3    3    0  502  0.85475248797E+03  0.28533091267E+03  0.13394075463E+04  0.16143265502E+04  0.46999998093E+01 0. -1.
</event>
<event>
 5   0  0.2304435E-06  0.2898982E+04  0.7818609E-02  0.8273180E-01
        2   -1    0    0  501    0  0.00000000000E+00  0.00000000000E+00  0.10130813281E+04  0.10130813281E+04  0.25500000920E-02 0. -1.
       -2   -1    0    0    0  501  0.00000000000E+00  0.00000000000E+00 -0.20738951568E+04  0.20738951568E+04  0.25500000920E-02 0.  1.
    10030    2    1    2    0    0  0.00000000000E+00  0.00000000000E+00 -0.10608138287E+04  0.30869764849E+04  0.28989822075E+04 0.  0.
        1    1    3    3  502    0  0.43325106983E+03  0.38190191576E+03  0.88526840727E+03  0.10570031768E+04  0.50400001928E-02 0. -1.
       -1    1    3    3    0  502 -0.43325106983E+03 -0.38190191576E+03 -0.19460822359E+04  0.20299733082E+04  0.50400001928E-02 0.  1.
</event>
<event>
 5   0  0.2325590E-06  0.2902234E+04  0.7818609E-02  0.8272213E-01
        2   -1    0    0  501    0  0.00000000000E+00  0.00000000000E+00  0.21442857758E+04  0.21442857758E+04  0.25500000920E-02 0.  1.
       -2   -1    0    0    0  501  0.00000000000E+00  0.00000000000E+00 -0.98202390687E+03  0.98202390687E+03  0.25500000920E-02 0. -1.
    10030    2    1    2    0    0  0.00000000000E+00  0.00000000000E+00  0.11622618689E+04  0.31263096826E+04  0.29022335502E+04 0.  0.
        5    1    3    3  502    0 -0.79246646294E+02 -0.20082632277E+03  0.21268801996E+04  0.21378149397E+04  0.46999998093E+01 0.  1.
       -5    1    3    3    0  502  0.79246646294E+02  0.20082632277E+03 -0.96461833072E+03  0.98849474294E+03  0.46999998093E+01 0. -1.
</event>
<event>
 5   0  0.2325590E-06  0.2906544E+04  0.7818609E-02  0.8270933E-01
       -2   -1    0    0    0  501  0.00000000000E+00  0.00000000000E+00  0.11563054885E+04  0.11563054885E+04  0.25500000920E-02 0.  1.
        2   -1    0    0  501    0  0.00000000000E+00  0.00000000000E+00 -0.18265068292E+04  0.18265068292E+04  0.25500000920E-02 0. -1.
    10030    2    1    2    0    0  0.00000000000E+00  0.00000000000E+00 -0.67020134074E+03  0.29828123177E+04  0.29065442514E+04 0.  0.
        5    1    3    3  502    0 -0.22876843266E+03 -0.10606190457E+04  0.65708302317E+03  0.12684746530E+04  0.46999998093E+01 0. -1.
       -5    1    3    3    0  502  0.22876843266E+03  0.10606190457E+04 -0.13272843639E+04  0.17143376647E+04  0.46999998093E+01 0.  1.
</event>
<event>
 5   0  0.8263673E-07  0.2896110E+04  0.7818609E-02  0.8274036E-01
        1   -1    0    0  501    0  0.00000000000E+00  0.00000000000E+00  0.17025404344E+04  0.17025404344E+04  0.50400001928E-02 0.  1.
       -1   -1    0    0    0  501  0.00000000000E+00  0.00000000000E+00 -0.12316088081E+04  0.12316088081E+04  0.50400001928E-02 0. -1.
    10030    2    1    2    0    0  0.00000000000E+00  0.00000000000E+00  0.47093162632E+03  0.29341492425E+04  0.28961103537E+04 0.  0.
        5    1    3    3  502    0 -0.10926542970E+04 -0.31551138748E+03  0.11435649002E+04  0.16128247330E+04  0.46999998093E+01 0.  1.
       -5    1    3    3    0  502  0.10926542970E+04  0.31551138748E+03 -0.67263327391E+03  0.13213245095E+04  0.46999998093E+01 0. -1.
</event>
<event>
 5   0  0.8263673E-07  0.2862663E+04  0.7818609E-02  0.8284074E-01
        1   -1    0    0  501    0  0.00000000000E+00  0.00000000000E+00  0.12457451145E+04  0.12457451145E+04  0.50400001928E-02 0.  1.
       -1   -1    0    0    0  501  0.00000000000E+00  0.00000000000E+00 -0.16445658182E+04  0.16445658182E+04  0.50400001928E-02 0. -1.
    10030    2    1    2    0    0  0.00000000000E+00  0.00000000000E+00 -0.39882070370E+03  0.28903109327E+04  0.28626629795E+04 0.  0.
        5    1    3    3  502    0  0.70439770528E+03  0.12110151087E+04 -0.49542107752E+03  0.14860006241E+04  0.46999998093E+01 0.  1.
       -5    1    3    3    0  502 -0.70439770528E+03 -0.12110151087E+04  0.96600373825E+02  0.14043103086E+04  0.46999998093E+01 0. -1.
</event>
<event>
 5   0  0.2325590E-06  0.2897635E+04  0.7818609E-02  0.8273581E-01
       -2   -1    0    0    0  501  0.00000000000E+00  0.00000000000E+00  0.12158558970E+04  0.12158558970E+04  0.25500000920E-02 0.  1.
        2   -1    0    0  501    0  0.00000000000E+00  0.00000000000E+00 -0.17264157995E+04  0.17264157995E+04  0.25500000920E-02 0. -1.
    10030    2    1    2    0    0  0.00000000000E+00  0.00000000000E+00 -0.51055990255E+03  0.29422716965E+04  0.28976354708E+04 0.  0.
        5    1    3    3  502    0 -0.47381820252E+03 -0.51439988240E+03  0.10330996641E+04  0.12475688093E+04  0.46999998093E+01 0.  1.
       -5    1    3    3    0  502  0.47381820252E+03  0.51439988240E+03 -0.15436595666E+04  0.16947028871E+04  0.46999998093E+01 0. -1.
</event>
<event>
 5   0  0.8355946E-07  0.2906452E+04  0.7818609E-02  0.8270961E-01
       -1   -1    0    0    0  501  0.00000000000E+00  0.00000000000E+00  0.17147312363E+04  0.17147312363E+04  0.50400001928E-02 0.  1.
        1   -1    0    0  501    0  0.00000000000E+00  0.00000000000E+00 -0.12316013222E+04  0.12316013222E+04  0.50400001928E-02 0. -1.
    10030    2    1    2    0    0  0.00000000000E+00  0.00000000000E+00  0.48312991410E+03  0.29463325585E+04  0.29064516220E+04 0.  0.
        4    1    3    3  502    0  0.13320532713E+04 -0.41243849438E+03  0.65631486210E+03  0.15411756034E+04  0.12699999809E+01 0.  1.
       -4    1    3    3    0  502 -0.13320532713E+04  0.41243849438E+03 -0.17318494800E+03  0.14051569551E+04  0.12699999809E+01 0. -1.
</event>
<event>
 5   0  0.2304435E-06  0.2895432E+04  0.7818609E-02  0.8274238E-01
       -2   -1    0    0    0  501  0.00000000000E+00  0.00000000000E+00  0.10066294404E+04  0.10066294404E+04  0.25500000920E-02 0.  1.
        2   -1    0    0  501    0  0.00000000000E+00  0.00000000000E+00 -0.20820786900E+04  0.20820786900E+04  0.25500000920E-02 0. -1.
    10030    2    1    2    0    0  0.00000000000E+00  0.00000000000E+00 -0.10754492496E+04  0.30887081304E+04  0.28954320621E+04 0.  0.
        1    1    3    3  502    0  0.13513513000E+04  0.16123667237E+03 -0.11075163195E+02  0.13609813591E+04  0.50400001928E-02 0.  1.
       -1    1    3    3    0  502 -0.13513513000E+04 -0.16123667237E+03 -0.10643740864E+04  0.17277267713E+04  0.50400001928E-02 0. -1.
</event>
<event>
 5   0  0.8263673E-07  0.2901128E+04  0.7818609E-02  0.8272542E-01
        1   -1    0    0  501    0  0.00000000000E+00  0.00000000000E+00  0.10266024558E+04  0.10266024559E+04  0.50400001928E-02 0.  1.
       -1   -1    0    0    0  501  0.00000000000E+00  0.00000000000E+00 -0.20496105801E+04  0.20496105801E+04  0.50400001928E-02 0. -1.
    10030    2    1    2    0    0  0.00000000000E+00  0.00000000000E+00 -0.10230081243E+04  0.30762130360E+04  0.29011275430E+04 0.  0.
        5    1    3    3  502    0  0.79908605713E+03 -0.69794483963E+03 -0.15603661335E+04  0.18869101957E+04  0.46999998093E+01 0. -1.
       -5    1    3    3    0  502 -0.79908605713E+03  0.69794483963E+03  0.53735800924E+03  0.11893028403E+04  0.46999998093E+01 0.  1.
</event>
<event>
 5   0  0.8357118E-07  0.2904136E+04  0.7818609E-02  0.8271648E-01
       -1   -1    0    0    0  501  0.00000000000E+00  0.00000000000E+00  0.15621271451E+04  0.15621271451E+04  0.50400001928E-02 0.  1.
        1   -1    0    0  501    0  0.00000000000E+00  0.00000000000E+00 -0.13497629415E+04  0.13497629416E+04  0.50400001928E-02 0. -1.
    10030    2    1    2    0    0  0.00000000000E+00  0.00000000000E+00  0.21236420351E+03  0.29118900866E+04  0.29041358993E+04 0.  0.
        1    1    3    3  502    0 -0.42290988027E+02  0.11248894075E+04 -0.81351102260E+03  0.13888718050E+04  0.50400001928E-02 0. -1.
       -1    1    3    3    0  502  0.42290988027E+02 -0.11248894075E+04  0.10258752261E+04  0.15230182817E+04  0.50400001928E-02 0.  1.
</event>
<event>
 5   0  0.8357118E-07  0.2897026E+04  0.7818609E-02  0.8273763E-01
       -1   -1    0    0    0  501  0.00000000000E+00  0.00000000000E+00  0.10129971121E+04  0.10129971121E+04  0.50400001928E-02 0.  1.
        1   -1    0    0  501    0  0.00000000000E+00  0.00000000000E+00 -0.20712687293E+04  0.20712687293E+04  0.50400001928E-02 0. -1.
    10030    2    1    2    0    0  0.00000000000E+00  0.00000000000E+00 -0.10582716172E+04  0.30842658415E+04  0.28970255375E+04 0.  0.
        1    1    3    3  502    0 -0.10144162122E+04  0.12528946327E+03 -0.16218504485E+04  0.19170645734E+04  0.50400001928E-02 0. -1.
       -1    1    3    3    0  502  0.10144162122E+04 -0.12528946327E+03  0.56357883129E+03  0.11672012681E+04  0.50400001928E-02 0.  1.
</event>
<event>
 5   0  0.8355946E-07  0.2879329E+04  0.7818609E-02  0.8279054E-01
       -1   -1    0    0    0  501  0.00000000000E+00  0.00000000000E+00  0.10208912297E+04  0.10208912297E+04  0.50400001928E-02 0.  1.
        1   -1    0    0  501    0  0.00000000000E+00  0.00000000000E+00 -0.20302195736E+04  0.20302195736E+04  0.50400001928E-02 0. -1.
    10030    2    1    2    0    0  0.00000000000E+00  0.00000000000E+00 -0.10093283439E+04  0.30511108033E+04  0.28793286419E+04 0.  0.
        4    1    3    3  502    0 -0.33664169512E+03 -0.39347605614E+03 -0.19281162925E+04  0.19964431091E+04  0.12699999809E+01 0. -1.
       -4    1    3    3    0  502  0.33664169512E+03  0.39347605614E+03  0.91878794861E+03  0.10546676941E+04  0.12699999809E+01 0.  1.
</event>
<event>
 5   0  0.2360103E-06  0.2882901E+04  0.7818609E-02  0.8277983E-01
        2   -1    0    0  501    0  0.00000000000E+00  0.00000000000E+00  0.18036437121E+04  0.18036437121E+04  0.25500000920E-02 0.  1.
       -2   -1    0    0    0  501  0.00000000000E+00  0.00000000000E+00 -0.11519897153E+04  0.11519897153E+04  0.25500000920E-02 0. -1.
    10030    2    1    2    0    0  0.00000000000E+00  0.00000000000E+00  0.65165399678E+03  0.29556334274E+04  0.28829006271E+04 0.  0.
        4    1    3    3  502    0  0.12416096066E+04  0.65495467776E+03  0.66152861175E+03  0.15518317441E+04  0.12699999809E+01 0.  1.
       -4    1    3    3    0  502 -0.12416096066E+04 -0.65495467776E+03 -0.98746149781E+01  0.14038016833E+04  0.12699999809E+01 0. -1.
</event>
<event>
 5   0  0.2378690E-06  0.2890871E+04  0.7818609E-02  0.8275599E-01
       -2   -1    0    0    0  501  0.00000000000E+00  0.00000000000E+00  0.12310037596E+04  0.12310037596E+04  0.25500000920E-02 0.  1.
        2   -1    0    0  501    0  0.00000000000E+00  0.00000000000E+00 -0.16972197988E+04  0.16972197988E+04  0.25500000920E-02 0. -1.
    10030    2    1    2    0    0  0.00000000000E+00  0.00000000000E+00 -0.46621603921E+03  0.29282235584E+04  0.28908711166E+04 0.  0.
        3    1    3    3  502    0 -0.85165072014E+03 -0.11351689864E+04  0.44968480349E+02  0.14198379313E+04  0.10100000352E+00 0.  1.
       -3    1    3    3    0  502  0.85165072014E+03  0.11351689864E+04 -0.51118451955E+03  0.15083856271E+04  0.10100000352E+00 0. -1.
</event>
<event>
 5   0  0.8357118E-07  0.2999422E+04  0.7818609E-02  0.8243896E-01
       -1   -1    0    0    0  501  0.00000000000E+00  0.00000000000E+00  0.13738586695E+04  0.13738586695E+04  0.50400001928E-02 0.  1.
        1   -1    0    0  501    0  0.00000000000E+00  0.00000000000E+00 -0.16370920316E+04  0.16370920316E+04  0.50400001928E-02 0. -1.
    10030    2    1    2    0    0  0.00000000000E+00  0.00000000000E+00 -0.26323336206E+03  0.30109507011E+04  0.29994219980E+04 0.  0.
        1    1    3    3  502    0  0.51137390705E+02  0.49359279805E+03 -0.15522892419E+04  0.16296781196E+04  0.50400001928E-02 0. -1.
       -1    1    3    3    0  502 -0.51137390705E+02 -0.49359279805E+03  0.12890558799E+04  0.13812725815E+04  0.50400001928E-02 0.  1.
</event>
<event>
 5   0  0.2325590E-06  0.2886772E+04  0.7818609E-02  0.8276824E-01
       -2   -1    0    0    0  501  0.00000000000E+00  0.00000000000E+00  0.71181424255E+03  0.71181424255E+03  0.25500000920E-02 0.  1.
        2   -1    0    0  501    0  0.00000000000E+00  0.00000000000E+00 -0.29268363989E+04  0.29268363989E+04  0.25500000920E-02 0. -1.
    10030    2    1    2    0    0  0.00000000000E+00  0.00000000000E+00 -0.22150221563E+04  0.36386506414E+04  0.28867724776E+04 0.  0.
        5    1    3    3  502    0 -0.10163009883E+04  0.96335723042E+03 -0.15485211197E+04  0.20877894052E+04  0.46999998093E+01 0. -1.
       -5    1    3    3    0  502  0.10163009883E+04 -0.96335723042E+03 -0.66650103659E+03  0.15508612362E+04  0.46999998093E+01 0.  1.
</event>
<event>
 5   0  0.2378690E-06  0.2882788E+04  0.7818609E-02  0.8278017E-01
        2   -1    0    0  501    0  0.00000000000E+00  0.00000000000E+00  0.70022894152E+03  0.70022894153E+03  0.25500000920E-02 0. -1.
       -2   -1    0    0    0  501  0.00000000000E+00  0.00000000000E+00 -0.29670542348E+04  0.29670542348E+04  0.25500000920E-02 0.  1.
    10030    2    1    2    0    0  0.00000000000E+00  0.00000000000E+00 -0.22668252933E+04  0.36672831764E+04  0.28827884045E+04 0.  0.
        3    1    3    3  502    0  0.39952514924E+02 -0.30454617672E+03  0.65811243204E+03  0.72626204679E+03  0.10100000352E+00 0. -1.
       -3    1    3    3    0  502 -0.39952514924E+02  0.30454617672E+03 -0.29249377254E+04  0.29410211296E+04  0.10100000352E+00 0.  1.
</event>
<event>
 5   0  0.2360103E-06  0.2900994E+04  0.7818609E-02  0.8272582E-01
       -2   -1    0    0    0  501  0.00000000000E+00  0.00000000000E+00  0.88558098380E+03  0.88558098381E+03  0.25500000920E-02 0. -1.
        2   -1    0    0  501    0  0.00000000000E+00  0.00000000000E+00 -0.23757751455E+04  0.23757751455E+04  0.25500000920E-02 0.  1.
    10030    2    1    2    0    0  0.00000000000E+00  0.00000000000E+00 -0.14901941617E+04  0.32613561293E+04  0.29009938233E+04 0.  0.
        4    1    3    3  502    0 -0.93586360504E+03 -0.47857372602E+03 -0.18687923423E+04  0.21441221817E+04  0.12699999809E+01 0.  1.
       -4    1    3    3    0  502  0.93586360504E+03  0.47857372602E+03  0.37859818060E+03  0.11172339476E+04  0.12699999809E+01 0. -1.
</event>
<event>
 5   0  0.2425845E-06  0.2902229E+04  0.7818609E-02  0.8272215E-01
        2   -1    0    0  501    0  0.00000000000E+00  0.00000000000E+00  0.16137719225E+04  0.16137719225E+04  0.25500000920E-02 0. -1.
       -2   -1    0    0    0  501  0.00000000000E+00  0.00000000000E+00 -0.13048519991E+04  0.13048519991E+04  0.25500000920E-02 0.  1.
    10030    2    1    2    0    0  0.00000000000E+00  0.00000000000E+00  0.30891992335E+03  0.29186239216E+04  0.29022291565E+04 0.  0.
        2    1    3    3  502    0  0.13563039463E+04  0.22303413342E+03 -0.31338726857E+03  0.14097929634E+04  0.25500000920E-02 0. -1.
       -2    1    3    3    0  502 -0.13563039463E+04 -0.22303413342E+03  0.62230719192E+03  0.15088309583E+04  0.25500000920E-02 0.  1.
</event>
<event>
 5   0  0.2425845E-06  0.2898540E+04  0.7818609E-02  0.8273312E-01
       -2   -1    0    0    0  501  0.00000000000E+00  0.00000000000E+00  0.82324310419E+03  0.82324310419E+03  0.25500000920E-02 0. -1.
        2   -1    0    0  501    0  0.00000000000E+00  0.00000000000E+00 -0.25513521820E+04  0.25513521820E+04  0.25500000920E-02 0.  1.
    10030    2    1    2    0    0  0.00000000000E+00  0.00000000000E+00 -0.17281090778E+04  0.33745952862E+04  0.28985396946E+04 0.  0.
        2    1    3    3  502    0  0.48912763419E+03  0.69465185283E+03  0.50292167704E+03  0.98727769772E+03  0.25500000920E-02 0. -1.
       -2    1    3    3    0  502 -0.48912763419E+03 -0.69465185283E+03 -0.22310307549E+04  0.23873175885E+04  0.25500000920E-02 0.  1.
</event>
<event>
 5   0  0.2425845E-06  0.2909297E+04  0.7818609E-02  0.8270117E-01
       -2   -1    0    0    0  501  0.00000000000E+00  0.00000000000E+00  0.22394771308E+04  0.22394771308E+04  0.25500000920E-02 0.  1.
        2   -1    0    0  501    0  0.00000000000E+00  0.00000000000E+00 -0.94486412019E+03  0.94486412019E+03  0.25500000920E-02 0. -1.
    10030    2    1    2    0    0  0.00000000000E+00  0.00000000000E+00  0.12946130107E+04  0.31843412510E+04  0.29092965397E+04 0.  0.
        2    1    3    3  502    0 -0.10194255892E+04  0.88513660850E+03  0.12400847613E+04  0.18331681764E+04  0.25500000920E-02 0.  1.
       -2    1    3    3    0  502  0.10194255892E+04 -0.88513660850E+03  0.54528249370E+02  0.13511730747E+04  0.25500000920E-02 0. -1.
</event>
<event>
 5   0  0.2378690E-06  0.2902488E+04  0.7818609E-02  0.8272138E-01
       -2   -1    0    0    0  501  0.00000000000E+00  0.00000000000E+00  0.20124365735E+04  0.20124365735E+04  0.25500000920E-02 0.  1.
        2   -1    0    0  501    0  0.00000000000E+00  0.00000000000E+00 -0.10465465025E+04  0.10465465025E+04  0.25500000920E-02 0. -1.
    10030    2    1    2    0    0  0.00000000000E+00  0.00000000000E+00  0.96589007104E+03  0.30589830760E+04  0.29024875245E+04 0.  0.
        3    1    3    3  502    0  0.20972613145E+03 -0.13513231565E+03 -0.10237750115E+04  0.10537367211E+04  0.10100000352E+00 0. -1.
       -3    1    3    3    0  502 -0.20972613145E+03  0.13513231565E+03  0.19896650826E+04  0.20052463549E+04  0.10100000352E+00 0.  1.
</event>
<event>
 5   0  0.2360103E-06  0.2900340E+04  0.7818609E-02  0.8272776E-01
       -2   -1    0    0    0  501  0.00000000000E+00  0.00000000000E+00  0.13208101364E+04  0.13208101364E+04  0.25500000920E-02 0.  1.
        2   -1    0    0  501    0  0.00000000000E+00  0.00000000000E+00 -0.15921988865E+04  0.15921988865E+04  0.25500000920E-02 0. -1.
    10030    2    1    2    0    0  0.00000000000E+00  0.00000000000E+00 -0.27138875000E+03  0.29130090229E+04  0.29003395860E+04 0.  0.
        4    1    3    3  502    0 -0.11884181483E+04  0.38732254515E+03  0.60279594002E+03  0.13877035013E+04  0.12699999809E+01 0. -1.
       -4    1    3    3    0  502  0.11884181483E+04 -0.38732254515E+03 -0.87418469003E+03  0.15253055216E+04  0.12699999809E+01 0.  1.
</event>
<event>
 5   0  0.2304435E-06  0.2929704E+04  0.7818609E-02  0.8264094E-01
       -2   -1    0    0    0  501  0.00000000000E+00  0.00000000000E+00  0.12543590961E+04  0.12543590961E+04  0.25500000920E-02 0. -1.
        2   -1    0    0  501    0  0.00000000000E+00  0.00000000000E+00 -0.17106676590E+04  0.17106676590E+04  0.25500000920E-02 0.  1.
    10030    2    1    2    0    0  0.00000000000E+00  0.00000000000E+00 -0.45630856289E+03  0.29650267551E+04  0.29297041069E+04 0.  0.
        1    1    3    3  502    0  0.82246443066E+03 -0.12099221648E+04 -0.30274604660E+03  0.14939928224E+04  0.50400001928E-02 0. -1.
       -1    1    3    3    0  502 -0.82246443066E+03  0.12099221648E+04 -0.15356251628E+03  0.14710339327E+04  0.50400001928E-02 0.  1.
</event>
<event>
 5   0  0.8357118E-07  0.2909758E+04  0.7818609E-02  0.8269980E-01
        1   -1    0    0  501    0  0.00000000000E+00  0.00000000000E+00  0.15724946880E+04  0.15724946880E+04  0.50400001928E-02 0.  1.
       -1   -1    0    0    0  501  0.00000000000E+00  0.00000000000E+00 -0.13460608994E+04  0.13460608994E+04  0.50400001928E-02 0. -1.
    10030    2    1    2    0    0  0.00000000000E+00  0.00000000000E+00  0.22643378859E+03  0.29185555874E+04  0.29097584876E+04 0.  0.
        1    1    3    3  502    0 -0.45076478058E+03  0.63835425462E+03  0.13441143214E+04  0.15547759809E+04  0.50400001928E-02 0.  1.
       -1    1    3    3    0  502  0.45076478058E+03 -0.63835425462E+03 -0.11176805328E+04  0.13637796065E+04  0.50400001928E-02 0. -1.
</event>
<event>
 5   0  0.8947674E-07  0.2902162E+04  0.7818609E-02  0.8272235E-01
       -1   -1    0    0    0  501  0.00000000000E+00  0.00000000000E+00  0.12420551314E+04  0.12420551314E+04  0.50400001928E-02 0. -1.
        1   -1    0    0  501    0  0.00000000000E+00  0.00000000000E+00 -0.16952834804E+04  0.16952834804E+04  0.50400001928E-02 0.  1.
    10030    2    1    2    0    0  0.00000000000E+00  0.00000000000E+00 -0.45322834901E+03  0.29373386118E+04  0.29021616399E+04 0.  0.
        3    1    3    3  502    0  0.19910415138E+03 -0.75244899588E+02  0.12261694790E+04  0.12445062713E+04  0.10100000352E+00 0. -1.
       -3    1    3    3    0  502 -0.19910415138E+03  0.75244899588E+02 -0.16793978280E+04  0.16928323405E+04  0.10100000352E+00 0.  1.
</event>
<event>
 5   0  0.8357118E-07  0.2891754E+04  0.7818609E-02  0.8275335E-01
        1   -1    0    0  501    0  0.00000000000E+00  0.00000000000E+00  0.10825608487E+04  0.10825608487E+04  0.50400001928E-02 0. -1.
       -1   -1    0    0    0  501  0.00000000000E+00  0.00000000000E+00 -0.19311247368E+04  0.19311247368E+04  0.50400001928E-02 0.  1.
    10030    2    1    2    0    0  0.00000000000E+00  0.00000000000E+00 -0.84856388816E+03  0.30136855855E+04  0.28917538166E+04 0.  0.
        1    1    3    3  502    0  0.58669496106E+03 -0.11694471693E+04 -0.10656518413E+04  0.16874334079E+04  0.50400001928E-02 0.  1.
       -1    1    3    3    0  502 -0.58669496106E+03  0.11694471693E+04  0.21708795312E+03  0.13262521776E+04  0.50400001928E-02 0. -1.
</event>
<event>
 5   0  0.2360103E-06  0.2901266E+04  0.7818609E-02  0.8272501E-01
       -2   -1    0    0    0  501  0.00000000000E+00  0.00000000000E+00  0.14841826404E+04  0.14841826404E+04  0.25500000920E-02 0. -1.
        2   -1    0    0  501    0  0.00000000000E+00  0.00000000000E+00 -0.14178416390E+04  0.14178416390E+04  0.25500000920E-02 0.  1.
    10030    2    1    2    0    0  0.00000000000E+00  0.00000000000E+00  0.66341001343E+02  0.29020242794E+04  0.29012658944E+04 0.  0.
        4    1    3    3  502    0 -0.13745414635E+03 -0.36819917354E+03 -0.13635719875E+04  0.14190822569E+04  0.12699999809E+01 0.  1.
       -4    1    3    3    0  502  0.13745414635E+03  0.36819917354E+03  0.14299129888E+04  0.14829420226E+04  0.12699999809E+01 0. -1.
</event>
<event>
 5   0  0.2425845E-06  0.2927223E+04  0.7818609E-02  0.8264824E-01
        2   -1    0    0  501    0  0.00000000000E+00  0.00000000000E+00  0.82338825269E+03  0.82338825270E+03  0.25500000920E-02 0.  1.
       -2   -1    0    0    0  501  0.00000000000E+00  0.00000000000E+00 -0.26016377624E+04  0.26016377624E+04  0.25500000920E-02 0. -1.
    10030    2    1    2    0    0  0.00000000000E+00  0.00000000000E+00 -0.17782495097E+04  0.34250260151E+04  0.29272225548E+04 0.  0.
        2    1    3    3  502    0 -0.85002459231E+03  0.44958322976E+03  0.40191919363E+03  0.10422120352E+04  0.25500000920E-02 0.  1.
       -2    1    3    3    0  502  0.85002459231E+03 -0.44958322976E+03 -0.21801687034E+04  0.23828139800E+04  0.25500000920E-02 0. -1.
</event>
<event>
 5   0  0.2425845E-06  0.2898811E+04  0.7818609E-02  0.8273231E-01
        2   -1    0    0  501    0  0.00000000000E+00  0.00000000000E+00  0.23272496575E+04  0.23272496575E+04  0.25500000920E-02 0.  1.
       -2   -1    0    0    0  501  0.00000000000E+00  0.00000000000E+00 -0.90268655692E+03  0.90268655693E+03  0.25500000920E-02 0. -1.
    10030    2    1    2    0    0  0.00000000000E+00  0.00000000000E+00  0.14245631006E+04  0.32299362144E+04  0.28988114671E+04 0.  0.
        2    1    3    3  502    0 -0.14329183777E+04  0.20687374900E+03  0.63568979483E+03  0.15811873198E+04  0.25500000920E-02 0. -1.
       -2    1    3    3    0  502  0.14329183777E+04 -0.20687374900E+03  0.78887330576E+03  0.16487488946E+04  0.25500000920E-02 0.  1.
</event>
<event>
 5   0  0.2304435E-06  0.2907209E+04  0.7818609E-02  0.8270736E-01
        2   -1    0    0  501    0  0.00000000000E+00  0.00000000000E+00  0.13410986134E+04  0.13410986134E+04  0.25500000920E-02 0. -1.
       -2   -1    0    0    0  501  0.00000000000E+00  0.00000000000E+00 -0.15755489457E+04  0.15755489457E+04  0.25500000920E-02 0.  1.
    10030    2    1    2    0    0  0.00000000000E+00  0.00000000000E+00 -0.23445033231E+03  0.29166475592E+04  0.29072093193E+04 0.  0.
        1    1    3    3  502    0 -0.42791490568E+03  0.52524541109E+03 -0.14074690413E+04  0.15620380951E+04  0.50400001928E-02 0.  1.
       -1    1    3    3    0  502  0.42791490568E+03 -0.52524541109E+03  0.11730187090E+04  0.13546094640E+04  0.50400001928E-02 0. -1.
</event>
<event>
 5   0  0.2325590E-06  0.2903901E+04  0.7818609E-02  0.8271718E-01
       -2   -1    0    0    0  501  0.00000000000E+00  0.00000000000E+00  0.11569241243E+04  0.11569241243E+04  0.25500000920E-02 0. -1.
        2   -1    0    0  501    0  0.00000000000E+00  0.00000000000E+00 -0.18222114295E+04  0.18222114295E+04  0.25500000920E-02 0.  1.
    10030    2    1    2    0    0  0.00000000000E+00  0.00000000000E+00 -0.66528730525E+03  0.29791355538E+04  0.29039010743E+04 0.  0.
        5    1    3    3  502    0  0.39281529658E+03 -0.13740762753E+04 -0.59570217646E+03  0.15483128368E+04  0.46999998093E+01 0. -1.
       -5    1    3    3    0  502 -0.39281529658E+03  0.13740762753E+04 -0.69585128792E+02  0.14308227170E+04  0.46999998093E+01 0.  1.
</event>
<event>
 5   0  0.8483636E-07  0.2898500E+04  0.7818609E-02  0.8273324E-01
       -1   -1    0    0    0  501  0.00000000000E+00  0.00000000000E+00  0.12116380137E+04  0.12116380137E+04  0.50400001928E-02 0. -1.
        1   -1    0    0  501    0  0.00000000000E+00  0.00000000000E+00 -0.17334593605E+04  0.17334593605E+04  0.50400001928E-02 0.  1.
    10030    2    1    2    0    0  0.00000000000E+00  0.00000000000E+00 -0.52182134680E+03  0.29450973742E+04  0.28984997888E+04 0.  0.
        2    1    3    3  502    0 -0.26097568463E+03  0.98164139834E+03 -0.13112590869E+04  0.16586526267E+04  0.25500000920E-02 0.  1.
       -2    1    3    3    0  502  0.26097568463E+03 -0.98164139834E+03  0.78943774012E+03  0.12864447475E+04  0.25500000920E-02 0. -1.
</event>
<event>
 5   0  0.8947674E-07  0.2899971E+04  0.7818609E-02  0.8272886E-01
        1   -1    0    0  501    0  0.00000000000E+00  0.00000000000E+00  0.24896815741E+04  0.24896815741E+04  0.50400001928E-02 0. -1.
       -1   -1    0    0    0  501  0.00000000000E+00  0.00000000000E+00 -0.84446864387E+03  0.84446864388E+03  0.50400001928E-02 0.  1.
    10030    2    1    2    0    0  0.00000000000E+00  0.00000000000E+00  0.16452129303E+04  0.33341502180E+04  0.28999710499E+04 0.  0.
        3    1    3    3  502    0 -0.94783978898E+03 -0.10452297719E+04  0.43860657755E+03  0.14775930704E+04  0.10100000352E+00 0.  1.
       -3    1    3    3    0  502  0.94783978898E+03  0.10452297719E+04  0.12066063527E+04  0.18565571476E+04  0.10100000352E+00 0. -1.
</event>
<event>
 5   0  0.8357118E-07  0.2901486E+04  0.7818609E-02  0.8272435E-01
       -1   -1    0    0    0  501  0.00000000000E+00  0.00000000000E+00  0.19410001096E+04  0.19410001097E+04  0.50400001928E-02 0. -1.
        1   -1    0    0  501    0  0.00000000000E+00  0.00000000000E+00 -0.10843150369E+04  0.10843150369E+04  0.50400001928E-02 0.  1.
    10030    2    1    2    0    0  0.00000000000E+00  0.00000000000E+00  0.85668507273E+03  0.30253151466E+04  0.29014862437E+04 0.  0.
        1    1    3    3  502    0 -0.82288316893E+02 -0.24671018792E+03  0.19164954996E+04  0.19340610859E+04  0.50400001928E-02 0. -1.
       -1    1    3    3    0  502  0.82288316893E+02  0.24671018792E+03 -0.10598104269E+04  0.10912540607E+04  0.50400001928E-02 0.  1.
</event>
<event>
 5   0  0.8483636E-07  0.2904302E+04  0.7818609E-02  0.8271599E-01
        1   -1    0    0  501    0  0.00000000000E+00  0.00000000000E+00  0.16667365454E+04  0.16667365454E+04  0.50400001928E-02 0. -1.
       -1   -1    0    0    0  501  0.00000000000E+00  0.00000000000E+00 -0.12651927478E+04  0.12651927478E+04  0.50400001928E-02 0.  1.
    10030    2    1    2    0    0  0.00000000000E+00  0.00000000000E+00  0.40154379765E+03  0.29319292932E+04  0.29043023188E+04 0.  0.
        2    1    3    3  502    0 -0.87412981504E+03  0.94619154396E+03 -0.47594910863E+03  0.13732839930E+04  0.25500000920E-02 0.  1.
       -2    1    3    3    0  502  0.87412981504E+03 -0.94619154396E+03  0.87749290628E+03  0.15586453002E+04  0.25500000920E-02 0. -1.
</event>
<event>
 5   0  0.2378690E-06  0.2814512E+04  0.7818609E-02  0.8298777E-01
       -2   -1    0    0    0  501  0.00000000000E+00  0.00000000000E+00  0.76790332905E+03  0.76790332906E+03  0.25500000920E-02 0. -1.
        2   -1    0    0  501    0  0.00000000000E+00  0.00000000000E+00 -0.25789314244E+04  0.25789314244E+04  0.25500000920E-02 0.  1.
    10030    2    1    2    0    0  0.00000000000E+00  0.00000000000E+00 -0.18110280954E+04  0.33468347535E+04  0.28145124098E+04 0.  0.
        3    1    3    3  502    0 -0.80649192251E+03  0.79979260639E+03 -0.18934787163E+04  0.22080215338E+04  0.10100000352E+00 0.  1.
       -3    1    3    3    0  502  0.80649192251E+03 -0.79979260639E+03  0.82450620927E+02  0.11388132197E+04  0.10100000352E+00 0. -1.
</event>
<event>
 5   0  0.8483636E-07  0.2894621E+04  0.7818609E-02  0.8274480E-01
        1   -1    0    0  501    0  0.00000000000E+00  0.00000000000E+00  0.18006795112E+04  0.18006795112E+04  0.50400001928E-02 0.  1.
       -1   -1    0    0    0  501  0.00000000000E+00  0.00000000000E+00 -0.11632874819E+04  0.11632874819E+04  0.50400001928E-02 0. -1.
    10030    2    1    2    0    0  0.00000000000E+00  0.00000000000E+00  0.63739202936E+03  0.29639669931E+04  0.28946211733E+04 0.  0.
        2    1    3    3  502    0  0.12311047865E+04 -0.59227967830E+03 -0.17055148234E+03  0.13767723199E+04  0.25500000920E-02 0.  1.
       -2    1    3    3    0  502 -0.12311047865E+04  0.59227967830E+03  0.80794351170E+03  0.15871946732E+04  0.25500000920E-02 0. -1.
</event>
<event>
 5   0  0.2325590E-06  0.2899085E+04  0.7818609E-02  0.8273150E-01
       -2   -1    0    0    0  501  0.00000000000E+00  0.00000000000E+00  0.12343607944E+04  0.12343607944E+04  0.25500000920E-02 0. -1.
        2   -1    0    0  501    0  0.00000000000E+00  0.00000000000E+00 -0.17022355421E+04  0.17022355421E+04  0.25500000920E-02 0.  1.
    10030    2    1    2    0    0  0.00000000000E+00  0.00000000000E+00 -0.46787474776E+03  0.29365963365E+04  0.28990845562E+04 0.  0.
        5    1    3    3  502    0  0.14049711873E+04 -0.93888612988E+02 -0.58247032745E+03  0.15238283634E+04  0.46999998093E+01 0.  1.
       -5    1    3    3    0  502 -0.14049711873E+04  0.93888612988E+02  0.11459557969E+03  0.14127679731E+04  0.46999998093E+01 0. -1.
</event>
<event>
 5   0  0.2304435E-06  0.2899290E+04  0.7818609E-02  0.8273089E-01
        2   -1    0    0  501    0  0.00000000000E+00  0.00000000000E+00  0.19977153970E+04  0.19977153970E+04  0.25500000920E-02 0. -1.
       -2   -1    0    0    0  501  0.00000000000E+00  0.00000000000E+00 -0.10519370535E+04  0.10519370535E+04  0.25500000920E-02 0.  1.
    10030    2    1    2    0    0  0.00000000000E+00  0.00000000000E+00  0.94577834355E+03  0.30496524505E+04  0.28992901535E+04 0.  0.
        1    1    3    3  502    0 -0.97423035837E+02 -0.39112007772E+03 -0.99180885688E+03  0.10705844066E+04  0.50400001928E-02 0.  1.
       -1    1    3    3    0  502  0.97423035837E+02  0.39112007772E+03  0.19375872004E+04  0.19790680439E+04  0.50400001928E-02 0. -1.
</event>
<event>
 5   0  0.8263673E-07  0.2917156E+04  0.7818609E-02  0.8267791E-01
        1   -1    0    0  501    0  0.00000000000E+00  0.00000000000E+00  0.21261064377E+04  0.21261064377E+04  0.50400001928E-02 0. -1.
       -1   -1    0    0    0  501  0.00000000000E+00  0.00000000000E+00 -0.10006317005E+04  0.10006317006E+04  0.50400001928E-02 0.  1.
    10030    2    1    2    0    0  0.00000000000E+00  0.00000000000E+00  0.11254747371E+04  0.31267381382E+04  0.29171558068E+04 0.  0.
        5    1    3    3  502    0  0.71941373490E+02 -0.12462067076E+04 -0.24593429316E+03  0.12722863223E+04  0.46999998093E+01 0.  1.
       -5    1    3    3    0  502 -0.71941373490E+02  0.12462067076E+04  0.13714090303E+04  0.18544518159E+04  0.46999998093E+01 0. -1.
</event>
<event>
 5   0  0.8947674E-07  0.2898127E+04  0.7818609E-02  0.8273435E-01
       -1   -1    0    0    0  501  0.00000000000E+00  0.00000000000E+00  0.13458509485E+04  0.13458509485E+04  0.50400001928E-02 0.  1.
        1   -1    0    0  501    0  0.00000000000E+00  0.00000000000E+00 -0.15601909403E+04  0.15601909403E+04  0.50400001928E-02 0. -1.
    10030    2    1    2    0    0  0.00000000000E+00  0.00000000000E+00 -0.21433999179E+03  0.29060418888E+04  0.28981266065E+04 0.  0.
        3    1    3    3  502    0 -0.15935508085E+03  0.50329929715E+03 -0.14603296956E+04  0.15528255067E+04  0.10100000352E+00 0. -1.
       -3    1    3    3    0  502  0.15935508085E+03 -0.50329929715E+03  0.12459897038E+04  0.13532163820E+04  0.10100000352E+00 0.  1.
</event>
<event>
 5   0  0.8357118E-07  0.2780787E+04  0.7818609E-02  0.8309258E-01
        1   -1    0    0  501    0  0.00000000000E+00  0.00000000000E+00  0.19426276651E+04  0.19426276651E+04  0.50400001928E-02 0. -1.
       -1   -1    0    0    0  501  0.00000000000E+00  0.00000000000E+00 -0.99514356441E+03  0.99514356443E+03  0.50400001928E-02 0.  1.
    10030    2    1    2    0    0  0.00000000000E+00  0.00000000000E+00  0.94748410069E+03  0.29377712295E+04  0.27807865211E+04 0.  0.
        1    1    3    3  502    0 -0.69107499712E+03  0.11946786770E+04  0.29585705752E+03  0.14115145027E+04  0.50400001928E-02 0.  1.
       -1    1    3    3    0  502  0.69107499712E+03 -0.11946786770E+04  0.65162704317E+03  0.15262567268E+04  0.50400001928E-02 0. -1.
</event>
<event>
 5   0  0.8263673E-07  0.2892010E+04  0.7818609E-02  0.8275259E-01
        1   -1    0    0  501    0  0.00000000000E+00  0.00000000000E+00  0.19767234691E+04  0.19767234691E+04  0.50400001928E-02 0.  1.
       -1   -1    0    0    0  501  0.00000000000E+00  0.00000000000E+00 -0.10577761572E+04  0.10577761572E+04  0.50400001928E-02 0. -1.
    10030    2    1    2    0    0  0.00000000000E+00  0.00000000000E+00  0.91894731189E+03  0.30344996264E+04  0.28920103424E+04 0.  0.
        5    1    3    3  502    0  0.10825982330E+04 -0.60012843197E+03  0.12437886083E+04  0.17547664406E+04  0.46999998093E+01 0.  1.
       -5    1    3    3    0  502 -0.10825982330E+04  0.60012843197E+03 -0.32484129638E+03  0.12797331858E+04  0.46999998093E+01 0. -1.
</event>
<event>
 5   0  0.2425845E-06  0.2913263E+04  0.7818609E-02  0.8268942E-01
        2   -1    0    0  501    0  0.00000000000E+00  0.00000000000E+00  0.12630593103E+04  0.12630593103E+04  0.25500000920E-02 0.  1.
       -2   -1    0    0    0  501  0.00000000000E+00  0.00000000000E+00 -0.16798695846E+04  0.16798695846E+04  0.25500000920E-02 0. -1.
    10030    2    1    2    0    0  0.00000000000E+00  0.00000000000E+00 -0.41681027432E+03  0.29429288948E+04  0.29132627199E+04 0.  0.
        2    1    3    3  502    0  0.11885787290E+04  0.81396504672E+01 -0.10589945033E+04  0.15919343601E+04  0.25500000920E-02 0. -1.
       -2    1    3    3    0  502 -0.11885787290E+04 -0.81396504672E+01  0.64218422898E+03  0.13509945347E+04  0.25500000920E-02 0.  1.
</event>
<event>
 5   0  0.8483636E-07  0.2910016E+04  0.7818609E-02  0.8269904E-01
        1   -1    0    0  501    0  0.00000000000E+00  0.00000000000E+00  0.11176635007E+04  0.11176635007E+04  0.50400001928E-02 0. -1.
       -1   -1    0    0    0  501  0.00000000000E+00  0.00000000000E+00 -0.18941731419E+04  0.18941731419E+04  0.50400001928E-02 0.  1.
    10030    2    1    2    0    0  0.00000000000E+00  0.00000000000E+00 -0.77650964119E+03  0.30118366426E+04  0.29100159345E+04 0.  0.
        2    1    3    3  502    0 -0.38898397142E+03  0.30344531011E+03  0.10284569678E+04  0.11406626674E+04  0.25500000920E-02 0. -1.
       -2    1    3    3    0  502  0.38898397142E+03 -0.30344531011E+03 -0.18049666089E+04  0.18711739753E+04  0.25500000920E-02 0.  1.
</event>
<event>
 5   0  0.2325590E-06  0.2896506E+04  0.7818609E-02  0.8273918E-01
        2   -1    0    0  501    0  0.00000000000E+00  0.00000000000E+00  0.17942138784E+04  0.17942138784E+04  0.25500000920E-02 0.  1.
       -2   -1    0    0    0  501  0.00000000000E+00  0.00000000000E+00 -0.11690000068E+04  0.11690000068E+04  0.25500000920E-02 0. -1.
    10030    2    1    2    0    0  0.00000000000E+00  0.00000000000E+00  0.62521387161E+03  0.29632138852E+04  0.28965055057E+04 0.  0.
        5    1    3    3  502    0  0.35224653045E+03  0.12038498161E+04  0.10532146684E+04  0.16378691113E+04  0.46999998093E+01 0.  1.
       -5    1    3    3    0  502 -0.35224653045E+03 -0.12038498161E+04 -0.42800079679E+03  0.13253447740E+04  0.46999998093E+01 0. -1.
</event>
<event>
 5   0  0.8357118E-07  0.2940994E+04  0.7818609E-02  0.8260784E-01
        1   -1    0    0  501    0  0.00000000000E+00  0.00000000000E+00  0.15152743511E+04  0.15152743511E+04  0.50400001928E-02 0. -1.
       -1   -1    0    0    0  501  0.00000000000E+00  0.00000000000E+00 -0.14270426854E+04  0.14270426855E+04  0.50400001928E-02 0.  1.
    10030    2    1    2    0    0  0.00000000000E+00  0.00000000000E+00  0.88231665614E+02  0.29423170365E+04  0.29409938315E+04 0.  0.
        1    1    3    3  502    0  0.65205087495E+03  0.16392562004E+03 -0.12642643025E+04  0.14319239432E+04  0.50400001928E-02 0.  1.
       -1    1    3    3    0  502 -0.65205087495E+03 -0.16392562004E+03  0.13524959682E+04  0.15103930933E+04  0.50400001928E-02 0. -1.
</event>
<event>
 5   0  0.2325590E-06  0.2905037E+04  0.7818609E-02  0.8271380E-01
        2   -1    0    0  501    0  0.00000000000E+00  0.00000000000E+00  0.32131961491E+04  0.32131961491E+04  0.25500000920E-02 0. -1.
       -2   -1    0    0    0  501  0.00000000000E+00  0.00000000000E+00 -0.65660786008E+03  0.65660786008E+03  0.25500000920E-02 0.  1.
    10030    2    1    2    0    0  0.00000000000E+00  0.00000000000E+00  0.25565882890E+04  0.38698040092E+04  0.29050368999E+04 0.  0.
        5    1    3    3  502    0 -0.10789852769E+04 -0.40979348925E+03  0.10358919635E+03  0.11588324914E+04  0.46999998093E+01 0. -1.
       -5    1    3    3    0  502  0.10789852769E+04  0.40979348925E+03  0.24529990927E+04  0.27109715178E+04  0.46999998093E+01 0.  1.
</event>
<event>
 5   0  0.2325590E-06  0.2882199E+04  0.7818609E-02  0.8278194E-01
        2   -1    0    0  501    0  0.00000000000E+00  0.00000000000E+00  0.24299938885E+04  0.24299938885E+04  0.25500000920E-02 0. -1.
       -2   -1    0    0    0  501  0.00000000000E+00  0.00000000000E+00 -0.85463892678E+03  0.85463892679E+03  0.25500000920E-02 0.  1.
    10030    2    1    2    0    0  0.00000000000E+00  0.00000000000E+00  0.15753549618E+04  0.32846328153E+04  0.28821987225E+04 0.  0.
        5    1    3    3  502    0  0.14299595396E+04  0.15871352835E+03  0.69390192733E+03  0.15973403656E+04  0.46999998093E+01 0.  1.
       -5    1    3    3    0  502 -0.14299595396E+04 -0.15871352835E+03  0.88145303442E+03  0.16872924497E+04  0.46999998093E+01 0. -1.
</event>
<event>
 5   0  0.2325590E-06  0.2898171E+04  0.7818609E-02  0.8273422E-01
        2   -1    0    0  501    0  0.00000000000E+00  0.00000000000E+00  0.21130309904E+04  0.21130309904E+04  0.25500000920E-02 0.  1.
       -2   -1    0    0    0  501  0.00000000000E+00  0.00000000000E+00 -0.99376134329E+03  0.99376134329E+03  0.25500000920E-02 0. -1.
    10030    2    1    2    0    0  0.00000000000E+00  0.00000000000E+00  0.11192696471E+04  0.31067923337E+04  0.28981708131E+04 0.  0.
        5    1    3    3  502    0 -0.45617234067E+03  0.19572971423E+03  0.20190388232E+04  0.20791688688E+04  0.46999998093E+01 0.  1.
       -5    1    3    3    0  502  0.45617234067E+03 -0.19572971423E+03 -0.89976917606E+03  0.10276234649E+04  0.46999998093E+01 0. -1.
</event>
<event>
 5   0  0.2378690E-06  0.2914764E+04  0.7818609E-02  0.8268498E-01
        2   -1    0    0  501    0  0.00000000000E+00  0.00000000000E+00  0.18231297850E+04  0.18231297850E+04  0.25500000920E-02 0. -1.
       -2   -1    0    0    0  501  0.00000000000E+00  0.00000000000E+00 -0.11650090648E+04  0.11650090648E+04  0.25500000920E-02 0.  1.
    10030    2    1    2    0    0  0.00000000000E+00  0.00000000000E+00  0.65812072013E+03  0.29881388498E+04  0.29147642964E+04 0.  0.
        3    1    3    3  502    0  0.81170675496E+03 -0.10701342581E+03  0.15650823903E+04  0.17662963024E+04  0.10100000352E+00 0. -1.
       -3    1    3    3    0  502 -0.81170675496E+03  0.10701342581E+03 -0.90696167013E+03  0.12218425474E+04  0.10100000352E+00 0.  1.
</event>
<event>
 5   0  0.8357118E-07  0.2885942E+04  0.7818609E-02  0.8277073E-01
        1   -1    0    0  501    0  0.00000000000E+00  0.00000000000E+00  0.21162419798E+04  0.21162419798E+04  0.50400001928E-02 0. -1.
       -1   -1    0    0    0  501  0.00000000000E+00  0.00000000000E+00 -0.98389732300E+03  0.98389732301E+03  0.50400001928E-02 0.  1.
    10030    2    1    2    0    0  0.00000000000E+00  0.00000000000E+00  0.11323446568E+04  0.31001393028E+04  0.28859416618E+04 0.  0.
        1    1    3    3  502    0  0.29283770538E+03  0.76190308489E+03 -0.71206703978E+03  0.10831849803E+04  0.50400001928E-02 0.  1.
       -1    1    3    3    0  502 -0.29283770538E+03 -0.76190308489E+03  0.18444116966E+04  0.20169543225E+04  0.50400001928E-02 0. -1.
</event>
<event>
 5   0  0.8355946E-07  0.2903595E+04  0.7818609E-02  0.8271809E-01
        1   -1    0    0  501    0  0.00000000000E+00  0.00000000000E+00  0.15099656687E+04  0.15099656687E+04  0.50400001928E-02 0. -1.
       -1   -1    0    0    0  501  0.00000000000E+00  0.00000000000E+00 -0.13958703873E+04  0.13958703873E+04  0.50400001928E-02 0.  1.
    10030    2    1    2    0    0  0.00000000000E+00  0.00000000000E+00  0.11409528140E+03  0.29058360561E+04  0.29035952631E+04 0.  0.
        4    1    3    3  502    0  0.87056466641E+03  0.88773791517E+02  0.12163677751E+04  0.14984377870E+04  0.12699999809E+01 0. -1.
       -4    1    3    3    0  502 -0.87056466641E+03 -0.88773791517E+02 -0.11022724937E+04  0.14073982690E+04  0.12699999809E+01 0.  1.
</event>
<event>
 5   0  0.8263673E-07  0.2900573E+04  0.7818609E-02  0.8272707E-01
       -1   -1    0    0    0  501  0.00000000000E+00  0.00000000000E+00  0.14523060645E+04  0.14523060645E+04  0.50400001928E-02 0.  1.
        1   -1    0    0  501    0  0.00000000000E+00  0.00000000000E+00 -0.14482699750E+04  0.14482699751E+04  0.50400001928E-02 0. -1.
    10030    2    1    2    0    0  0.00000000000E+00  0.00000000000E+00  0.40360894848E+01  0.29005760396E+04  0.29005732315E+04 0.  0.
        5    1    3    3  502    0  0.12512835168E+04 -0.53959280534E+02 -0.72920570342E+03  0.14492705376E+04  0.46999998093E+01 0. -1.
       -5    1    3    3    0  502 -0.12512835168E+04  0.53959280534E+02  0.73324179290E+03  0.14513055020E+04  0.46999998093E+01 0.  1.
</event>
<event>
 5   0  0.2425845E-06  0.2880554E+04  0.7818609E-02  0.8278687E-01
       -2   -1    0    0    0  501  0.00000000000E+00  0.00000000000E+00  0.16883354002E+04  0.16883354002E+04  0.25500000920E-02 0. -1.
        2   -1    0    0  501    0  0.00000000000E+00  0.00000000000E+00 -0.12286645129E+04  0.12286645130E+04  0.25500000920E-02 0.  1.
    10030    2    1    2    0    0  0.00000000000E+00  0.00000000000E+00  0.45967088723E+03  0.29169999131E+04  0.28805539691E+04 0.  0.
        2    1    3    3  502    0  0.79495083662E+02 -0.19537181018E+03 -0.12129395171E+04  0.12311425119E+04  0.25500000920E-02 0.  1.
       -2    1    3    3    0  502 -0.79495083662E+02  0.19537181018E+03  0.16726104043E+04  0.16858574012E+04  0.25500000920E-02 0. -1.
</event>
<event>
 5   0  0.8947674E-07  0.2894587E+04  0.7818609E-02  0.8274490E-01
        1   -1    0    0  501    0  0.00000000000E+00  0.00000000000E+00  0.16554549299E+04  0.16554549299E+04  0.50400001928E-02 0. -1.
       -1   -1    0    0    0  501  0.00000000000E+00  0.00000000000E+00 -0.12653066213E+04  0.12653066213E+04  0.50400001928E-02 0.  1.
    10030    2    1    2    0    0  0.00000000000E+00  0.00000000000E+00  0.39014830856E+03  0.29207615512E+04  0.28945867298E+04 0.  0.
        3    1    3    3  502    0  0.67364822995E+03  0.35093907475E+03 -0.10480147874E+04  0.12943319423E+04  0.10100000352E+00 0.  1.
       -3    1    3    3    0  502 -0.67364822995E+03 -0.35093907475E+03  0.14381630960E+04  0.16264296089E+04  0.10100000352E+00 0. -1.
</event>
<event>
 5   0  0.8355946E-07  0.2892286E+04  0.7818609E-02  0.8275176E-01
        1   -1    0    0  501    0  0.00000000000E+00  0.00000000000E+00  0.81112243808E+03  0.81112243809E+03  0.50400001928E-02 0.  1.
       -1   -1    0    0    0  501  0.00000000000E+00  0.00000000000E+00 -0.25783149805E+04  0.25783149805E+04  0.50400001928E-02 0. -1.
    10030    2    1    2    0    0  0.00000000000E+00  0.00000000000E+00 -0.17671925424E+04  0.33894374186E+04  0.28922856935E+04 0.  0.
        4    1    3    3  502    0 -0.31659870787E+03  0.53131466557E+02  0.76883761004E+03  0.83316899731E+03  0.12699999809E+01 0.  1.
       -4    1    3    3    0  502  0.31659870787E+03 -0.53131466557E+02 -0.25360301525E+04  0.25562684213E+04  0.12699999809E+01 0. -1.
</event>
<event>
 5   0  0.2360103E-06  0.2892766E+04  0.7818609E-02  0.8275033E-01
        2   -1    0    0  501    0  0.00000000000E+00  0.00000000000E+00  0.16748177899E+04  0.16748177899E+04  0.25500000920E-02 0. -1.
       -2   -1    0    0    0  501  0.00000000000E+00  0.00000000000E+00 -0.12491049091E+04  0.12491049091E+04  0.25500000920E-02 0.  1.
    10030    2    1    2    0    0  0.00000000000E+00  0.00000000000E+00  0.42571288074E+03  0.29239226990E+04  0.28927655441E+04 0.  0.
        4    1    3    3  502    0  0.98663554822E+02  0.36952831690E+03  0.16227768255E+04  0.16672408082E+04  0.12699999809E+01 0. -1.
       -4    1    3    3    0  502 -0.98663554822E+02 -0.36952831690E+03 -0.11970639448E+04  0.12566818909E+04  0.12699999809E+01 0.  1.
</event>
<event>
 5   0  0.8355946E-07  0.2904050E+04  0.7818609E-02  0.8271674E-01
        1   -1    0    0  501    0  0.00000000000E+00  0.00000000000E+00  0.14291880591E+04  0.14291880591E+04  0.50400001928E-02 0.  1.
       -1   -1    0    0    0  501  0.00000000000E+00  0.00000000000E+00 -0.14752266509E+04  0.14752266510E+04  0.50400001928E-02 0. -1.
    10030    2    1    2    0    0  0.00000000000E+00  0.00000000000E+00 -0.46038591884E+02  0.29044147100E+04  0.29040498026E+04 0.  0.
        4    1    3    3  502    0  0.11752210338E+04  0.51176890423E+03 -0.70525075133E+03  0.14630215736E+04  0.12699999809E+01 0. -1.
       -4    1    3    3    0  502 -0.11752210338E+04 -0.51176890423E+03  0.65921215945E+03  0.14413931364E+04  0.12699999809E+01 0.  1.
</event>
<event>
 5   0  0.8355946E-07  0.2907154E+04  0.7818609E-02  0.8270752E-01
       -1   -1    0    0    0  501  0.00000000000E+00  0.00000000000E+00  0.92553746285E+03  0.92553746287E+03  0.50400001928E-02 0.  1.
        1   -1    0    0  501    0  0.00000000000E+00  0.00000000000E+00 -0.22828753476E+04  0.22828753476E+04  0.50400001928E-02 0. -1.
    10030    2    1    2    0    0  0.00000000000E+00  0.00000000000E+00 -0.13573378848E+04  0.32084128105E+04  0.29071543869E+04 0.  0.
        4    1    3    3  502    0 -0.10972292136E+04 -0.75014277663E+03 -0.13280844060E+04  0.18789454316E+04  0.12699999809E+01 0. -1.
       -4    1    3    3    0  502  0.10972292136E+04  0.75014277663E+03 -0.29253478751E+02  0.13294673789E+04  0.12699999809E+01 0.  1.
</event>
<event>
 5   0  0.8357118E-07  0.2883643E+04  0.7818609E-02  0.8277761E-01
        1   -1    0    0  501    0  0.00000000000E+00  0.00000000000E+00  0.19647485211E+04  0.19647485211E+04  0.50400001928E-02 0. -1.
       -1   -1    0    0    0  501  0.00000000000E+00  0.00000000000E+00 -0.10580738144E+04  0.10580738145E+04  0.50400001928E-02 0.  1.
    10030    2    1    2    0    0  0.00000000000E+00  0.00000000000E+00  0.90667470661E+03  0.30228223355E+04  0.28836428088E+04 0.  0.
        1    1    3    3  502    0  0.59121774453E+03  0.41133639800E+01 -0.92515870335E+03  0.10979407851E+04  0.50400001928E-02 0.  1.
       -1    1    3    3    0  502 -0.59121774453E+03 -0.41133639800E+01  0.18318334100E+04  0.19248815504E+04  0.50400001928E-02 0. -1.
</event>
<event>
 5   0  0.2304435E-06  0.2900398E+04  0.7818609E-02  0.8272759E-01
        2   -1    0    0  501    0  0.00000000000E+00  0.00000000000E+00  0.19264901410E+04  0.19264901410E+04  0.25500000920E-02 0.  1.
       -2   -1    0    0    0  501  0.00000000000E+00  0.00000000000E+00 -0.10916627316E+04  0.10916627316E+04  0.25500000920E-02 0. -1.
    10030    2    1    2    0    0  0.00000000000E+00  0.00000000000E+00  0.83482740932E+03  0.30181528726E+04  0.29003982415E+04 0.  0.
        1    1    3    3  502    0  0.59474139999E+02  0.88171632892E+03  0.16139296334E+04  0.18400352496E+04  0.50400001928E-02 0.  1.
       -1    1    3    3    0  502 -0.59474139999E+02 -0.88171632892E+03 -0.77910222411E+03  0.11781176230E+04  0.50400001928E-02 0. -1.
</event>
<event>
 5   0  0.8947674E-07  0.2910887E+04  0.7818609E-02  0.8269646E-01
       -1   -1    0    0    0  501  0.00000000000E+00  0.00000000000E+00  0.13016197723E+04  0.13016197723E+04  0.50400001928E-02 0. -1.
        1   -1    0    0  501    0  0.00000000000E+00  0.00000000000E+00 -0.16274459877E+04  0.16274459877E+04  0.50400001928E-02 0.  1.
    10030    2    1    2    0    0  0.00000000000E+00  0.00000000000E+00 -0.32582621538E+03  0.29290657600E+04  0.29108870647E+04 0.  0.
        3    1    3    3  502    0 -0.85669226075E+03  0.68939723555E+03 -0.11223484899E+04  0.15712594696E+04  0.10100000352E+00 0.  1.
       -3    1    3    3    0  502  0.85669226075E+03 -0.68939723555E+03  0.79652227450E+03  0.13578062903E+04  0.10100000352E+00 0. -1.
</event>
<event>
 5   0  0.2425845E-06  0.2894153E+04  0.7818609E-02  0.8274619E-01
        2   -1    0    0  501    0  0.00000000000E+00  0.00000000000E+00  0.14347617433E+04  0.14347617433E+04  0.25500000920E-02 0. -1.
       -2   -1    0    0    0  501  0.00000000000E+00  0.00000000000E+00 -0.14594973413E+04  0.14594973413E+04  0.25500000920E-02 0.  1.
    10030    2    1    2    0    0  0.00000000000E+00  0.00000000000E+00 -0.24735597948E+02  0.28942590846E+04  0.28941533820E+04 0.  0.
        2    1    3    3  502    0 -0.40638837995E+03 -0.24280833694E+03  0.13551336226E+04  0.14354422799E+04  0.25500000920E-02 0. -1.
       -2    1    3    3    0  502  0.40638837995E+03  0.24280833694E+03 -0.13798692205E+04  0.14588168047E+04  0.25500000920E-02 0.  1.
</event>
<event>
 5   0  0.2378690E-06  0.2883925E+04  0.7818609E-02  0.8277676E-01
        2   -1    0    0  501    0  0.00000000000E+00  0.00000000000E+00  0.19308982721E+04  0.19308982721E+04  0.25500000920E-02 0. -1.
       -2   -1    0    0    0  501  0.00000000000E+00  0.00000000000E+00 -0.10768336339E+04  0.10768336339E+04  0.25500000920E-02 0.  1.
    10030    2    1    2    0    0  0.00000000000E+00  0.00000000000E+00  0.85406463820E+03  0.30077319060E+04  0.28839252438E+04 0.  0.
        3    1    3    3  502    0  0.90158960608E+03  0.11180039159E+04  0.56083506077E+03  0.15418600940E+04  0.10100000352E+00 0. -1.
       -3    1    3    3    0  502 -0.90158960608E+03 -0.11180039159E+04  0.29322957742E+03  0.14658718120E+04  0.10100000352E+00 0.  1.
</event>
<event>
 5   0  0.8263673E-07  0.2878399E+04  0.7818609E-02  0.8279333E-01
       -1   -1    0    0    0  501  0.00000000000E+00  0.00000000000E+00  0.15457225936E+04  0.15457225936E+04  0.50400001928E-02 0. -1.
        1   -1    0    0  501    0  0.00000000000E+00  0.00000000000E+00 -0.13400176178E+04  0.13400176178E+04  0.50400001928E-02 0.  1.
    10030    2    1    2    0    0  0.00000000000E+00  0.00000000000E+00  0.20570497583E+03  0.28857402114E+04  0.28783992132E+04 0.  0.
        5    1    3    3  502    0  0.11589451652E+04 -0.77442583175E+03  0.46207365031E+03  0.14684765620E+04  0.46999998093E+01 0. -1.
       -5    1    3    3    0  502 -0.11589451652E+04  0.77442583175E+03 -0.25636867448E+03  0.14172636494E+04  0.46999998093E+01 0.  1.
</event>
<event>
 5   0  0.2360103E-06  0.2889699E+04  0.7818609E-02  0.8275949E-01
       -2   -1    0    0    0  501  0.00000000000E+00  0.00000000000E+00  0.80160032173E+03  0.80160032173E+03  0.25500000920E-02 0.  1.
        2   -1    0    0  501    0  0.00000000000E+00  0.00000000000E+00 -0.26042786688E+04  0.26042786688E+04  0.25500000920E-02 0. -1.
    10030    2    1    2    0    0  0.00000000000E+00  0.00000000000E+00 -0.18026783470E+04  0.34058789905E+04  0.28896993745E+04 0.  0.
        4    1    3    3  502    0  0.58207561997E+03 -0.12766447090E+04 -0.49483183992E+03  0.14877815374E+04  0.12699999809E+01 0. -1.
       -4    1    3    3    0  502 -0.58207561997E+03  0.12766447090E+04 -0.13078465071E+04  0.19180974531E+04  0.12699999809E+01 0.  1.
</event>
<event>
 5   0  0.2360103E-06  0.2898108E+04  0.7818609E-02  0.8273441E-01
       -2   -1    0    0    0  501  0.00000000000E+00  0.00000000000E+00  0.14618705462E+04  0.14618705462E+04  0.25500000920E-02 0.  1.
        2   -1    0    0  501    0  0.00000000000E+00  0.00000000000E+00 -0.14363495538E+04  0.14363495538E+04  0.25500000920E-02 0. -1.
    10030    2    1    2    0    0  0.00000000000E+00  0.00000000000E+00  0.25520992388E+02  0.28982201001E+04  0.28981077322E+04 0.  0.
        4    1    3    3  502    0 -0.18046190856E+03 -0.13963031370E+04 -0.33007424104E+03  0.14460911341E+04  0.12699999809E+01 0. -1.
       -4    1    3    3    0  502  0.18046190856E+03  0.13963031370E+04  0.35559523343E+03  0.14521289659E+04  0.12699999809E+01 0.  1.
</event>
<event>
 5   0  0.2425845E-06  0.2905547E+04  0.7818609E-02  0.8271229E-01
       -2   -1    0    0    0  501  0.00000000000E+00  0.00000000000E+00  0.12940447312E+04  0.12940447312E+04  0.25500000920E-02 0. -1.
        2   -1    0    0  501    0  0.00000000000E+00  0.00000000000E+00 -0.16309720071E+04  0.16309720071E+04  0.25500000920E-02 0.  1.
    10030    2    1    2    0    0  0.00000000000E+00  0.00000000000E+00 -0.33692727594E+03  0.29250167383E+04  0.29055469244E+04 0.  0.
        2    1    3    3  502    0  0.14677549931E+03 -0.30931046119E+03  0.12528521431E+04  0.12987896293E+04  0.25500000920E-02 0. -1.
       -2    1    3    3    0  502 -0.14677549931E+03  0.30931046119E+03 -0.15897794191E+04  0.16262271090E+04  0.25500000920E-02 0.  1.
</event>
<event>
 5   0  0.8263673E-07  0.2902001E+04  0.7818609E-02  0.8272282E-01
        1   -1    0    0  501    0  0.00000000000E+00  0.00000000000E+00  0.14288564259E+04  0.14288564259E+04  0.50400001928E-02 0. -1.
       -1   -1    0    0    0  501  0.00000000000E+00  0.00000000000E+00 -0.14734874110E+04  0.14734874110E+04  0.50400001928E-02 0.  1.
    10030    2    1    2    0    0  0.00000000000E+00  0.00000000000E+00 -0.44630985014E+02  0.29023438369E+04  0.29020006587E+04 0.  0.
        5    1    3    3  502    0  0.31072670626E+03  0.63338049492E+03  0.12457689607E+04  0.14316718656E+04  0.46999998093E+01 0. -1.
       -5    1    3    3    0  502 -0.31072670626E+03 -0.63338049492E+03 -0.12903999457E+04  0.14706719713E+04  0.46999998093E+01 0.  1.
</event>
<event>
 5   0  0.2378690E-06  0.2908850E+04  0.7818609E-02  0.8270249E-01
        2   -1    0    0  501    0  0.00000000000E+00  0.00000000000E+00  0.15120692968E+04  0.15120692968E+04  0.25500000920E-02 0.  1.
       -2   -1    0    0    0  501  0.00000000000E+00  0.00000000000E+00 -0.13989782897E+04  0.13989782897E+04  0.25500000920E-02 0. -1.
    10030    2    1    2    0    0  0.00000000000E+00  0.00000000000E+00  0.11309100709E+03  0.29110475864E+04  0.29088500262E+04 0.  0.
        3    1    3    3  502    0 -0.81203845768E+03 -0.10567596758E+04 -0.52630726807E+03  0.14328806021E+04  0.10100000352E+00 0. -1.
       -3    1    3    3    0  502  0.81203845768E+03  0.10567596758E+04  0.63939827515E+03  0.14781669844E+04  0.10100000352E+00 0.  1.
</event>
<event>
 5   0  0.7621125E-07  0.2915485E+04  0.7818609E-02  0.8268285E-01
       -3   -1    0    0    0  501  0.00000000000E+00  0.00000000000E+00  0.12127730704E+04  0.12127730746E+04  0.10100000352E+00 0.  1.
        3   -1    0    0  501    0  0.00000000000E+00  0.00000000000E+00 -0.17521939973E+04  0.17521940002E+04  0.10100000352E+00 0. -1.
    10030    2    1    2    0    0  0.00000000000E+00  0.00000000000E+00 -0.53942092687E+03  0.29649670749E+04  0.29154853487E+04 0.  0.
        5    1    3    3  502    0 -0.14763879471E+03  0.14497739561E+04 -0.30707470103E+03  0.14892812695E+04  0.46999998093E+01 0. -1.
       -5    1    3    3    0  502  0.14763879471E+03 -0.14497739561E+04 -0.23234622584E+03  0.14756858054E+04  0.46999998093E+01 0.  1.
</event>
<event>
 5   0  0.8947674E-07  0.2954176E+04  0.7818609E-02  0.8256939E-01
       -1   -1    0    0    0  501  0.00000000000E+00  0.00000000000E+00  0.10087035664E+04  0.10087035664E+04  0.50400001928E-02 0.  1.
        1   -1    0    0  501    0  0.00000000000E+00  0.00000000000E+00 -0.21629631674E+04  0.21629631674E+04  0.50400001928E-02 0. -1.
    10030    2    1    2    0    0  0.00000000000E+00  0.00000000000E+00 -0.11542596010E+04  0.31716667338E+04  0.29541757978E+04 0.  0.
        3    1    3    3  502    0 -0.10002341799E+04 -0.55717094384E+03 -0.15790440726E+04  0.19504584253E+04  0.10100000352E+00 0. -1.
       -3    1    3    3    0  502  0.10002341799E+04  0.55717094384E+03  0.42478447158E+03  0.12212083086E+04  0.10100000352E+00 0.  1.
</event>
<event>
 5   0  0.2360103E-06  0.2885823E+04  0.7818609E-02  0.8277108E-01
       -2   -1    0    0    0  501  0.00000000000E+00  0.00000000000E+00  0.11434558536E+04  0.11434558536E+04  0.25500000920E-02 0.  1.
        2   -1    0    0  501    0  0.00000000000E+00  0.00000000000E+00 -0.18207899250E+04  0.18207899250E+04  0.25500000920E-02 0. -1.
    10030    2    1    2    0    0  0.00000000000E+00  0.00000000000E+00 -0.67733407135E+03  0.29642457786E+04  0.28858225156E+04 0.  0.
        4    1    3    3  502    0  0.10794637771E+04  0.92692540077E+03 -0.58510038457E+03  0.15384332347E+04  0.12699999809E+01 0. -1.
       -4    1    3    3    0  502 -0.10794637771E+04 -0.92692540077E+03 -0.92233686774E+02  0.14258125439E+04  0.12699999809E+01 0.  1.
</event>
<event>
 5   0  0.8355946E-07  0.2905491E+04  0.7818609E-02  0.8271246E-01
       -1   -1    0    0    0  501  0.00000000000E+00  0.00000000000E+00  0.83737673738E+03  0.83737673739E+03  0.50400001928E-02 0.  1.
        1   -1    0    0  501    0  0.00000000000E+00  0.00000000000E+00 -0.25203343510E+04  0.25203343510E+04  0.50400001928E-02 0. -1.
    10030    2    1    2    0    0  0.00000000000E+00  0.00000000000E+00 -0.16829576136E+04  0.33577110884E+04  0.29054909093E+04 0.  0.
        4    1    3    3  502    0  0.16544388698E+03 -0.11703778456E+04 -0.18175095481E+04  0.21680633181E+04  0.12699999809E+01 0. -1.
       -4    1    3    3    0  502 -0.16544388698E+03  0.11703778456E+04  0.13455193445E+03  0.11896477702E+04  0.12699999809E+01 0.  1.
</event>
<event>
 5   0  0.8947674E-07  0.2906479E+04  0.7818609E-02  0.8270953E-01
        1   -1    0    0  501    0  0.00000000000E+00  0.00000000000E+00  0.19798324016E+04  0.19798324016E+04  0.50400001928E-02 0. -1.
       -1   -1    0    0    0  501  0.00000000000E+00  0.00000000000E+00 -0.10667086508E+04  0.10667086508E+04  0.50400001928E-02 0.  1.
    10030    2    1    2    0    0  0.00000000000E+00  0.00000000000E+00  0.91312375082E+03  0.30465410525E+04  0.29064785222E+04 0.  0.
        3    1    3    3  502    0 -0.29121696933E+02  0.61533655084E+03 -0.92307933858E+03  0.11097579103E+04  0.10100000352E+00 0.  1.
       -3    1    3    3    0  502  0.29121696933E+02 -0.61533655084E+03  0.18362030894E+04  0.19367831422E+04  0.10100000352E+00 0. -1.
</event>
<event>
 5   0  0.2425845E-06  0.2907153E+04  0.7818609E-02  0.8270752E-01
        2   -1    0    0  501    0  0.00000000000E+00  0.00000000000E+00  0.15387104719E+04  0.15387104719E+04  0.25500000920E-02 0.  1.
       -2   -1    0    0    0  501  0.00000000000E+00  0.00000000000E+00 -0.13731528987E+04  0.13731528987E+04  0.25500000920E-02 0. -1.
    10030    2    1    2    0    0  0.00000000000E+00  0.00000000000E+00  0.16555757326E+03  0.29118633706E+04  0.29071530711E+04 0.  0.
        2    1    3    3  502    0  0.21426168109E+03  0.14314845803E+04 -0.50961234937E+02  0.14483277319E+04  0.25500000920E-02 0. -1.
       -2    1    3    3    0  502 -0.21426168109E+03 -0.14314845803E+04  0.21651880820E+03  0.14635356387E+04  0.25500000920E-02 0.  1.
</event>
<event>
 5   0  0.8947674E-07  0.2894703E+04  0.7818609E-02  0.8274455E-01
        1   -1    0    0  501    0  0.00000000000E+00  0.00000000000E+00  0.15681262828E+04  0.15681262829E+04  0.50400001928E-02 0.  1.
       -1   -1    0    0    0  501  0.00000000000E+00  0.00000000000E+00 -0.13358781829E+04  0.13358781829E+04  0.50400001928E-02 0. -1.
    10030    2    1    2    0    0  0.00000000000E+00  0.00000000000E+00  0.23224809998E+03  0.29040044657E+04  0.28947025334E+04 0.  0.
        3    1    3    3  502    0  0.50242475642E+03 -0.11554135274E+04 -0.59849539368E+03  0.13948504585E+04  0.10100000352E+00 0.  1.
       -3    1    3    3    0  502 -0.50242475642E+03  0.11554135274E+04  0.83074349367E+03  0.15091540072E+04  0.10100000352E+00 0. -1.
</event>
<event>
 5   0  0.2304435E-06  0.2881991E+04  0.7818609E-02  0.8278256E-01
        2   -1    0    0  501    0  0.00000000000E+00  0.00000000000E+00  0.15718689997E+04  0.15718689998E+04  0.25500000920E-02 0. -1.
       -2   -1    0    0    0  501  0.00000000000E+00  0.00000000000E+00 -0.13210184400E+04  0.13210184400E+04  0.25500000920E-02 0.  1.
    10030    2    1    2    0    0  0.00000000000E+00  0.00000000000E+00  0.25085055976E+03  0.28928874397E+04  0.28819909326E+04 0.  0.
        1    1    3    3  502    0 -0.11159059997E+04 -0.85342364159E+03  0.44740248999E+03  0.14743632864E+04  0.50400001928E-02 0. -1.
       -1    1    3    3    0  502  0.11159059997E+04  0.85342364159E+03 -0.19655193023E+03  0.14185241533E+04  0.50400001928E-02 0.  1.
</event>
<event>
 5   0  0.2304435E-06  0.2882445E+04  0.7818609E-02  0.8278120E-01
       -2   -1    0    0    0  501  0.00000000000E+00  0.00000000000E+00  0.19562225650E+04  0.19562225650E+04  0.25500000920E-02 0.  1.
        2   -1    0    0  501    0  0.00000000000E+00  0.00000000000E+00 -0.10618028764E+04  0.10618028764E+04  0.25500000920E-02 0. -1.
    10030    2    1    2    0    0  0.00000000000E+00  0.00000000000E+00  0.89441968856E+03  0.30180254414E+04  0.28824453136E+04 0.  0.
        1    1    3    3  502    0  0.97536153533E+03  0.29156532592E+03 -0.62096357148E+03  0.11924496723E+04  0.50400001928E-02 0. -1.
       -1    1    3    3    0  502 -0.97536153533E+03 -0.29156532592E+03  0.15153832600E+04  0.18255757691E+04  0.50400001928E-02 0.  1.
</event>
<event>
 5   0  0.2378690E-06  0.2893811E+04  0.7818609E-02  0.8274721E-01
        2   -1    0    0  501    0  0.00000000000E+00  0.00000000000E+00  0.19476164922E+04  0.19476164922E+04  0.25500000920E-02 0. -1.
       -2   -1    0    0    0  501  0.00000000000E+00  0.00000000000E+00 -0.10749215782E+04  0.10749215782E+04  0.25500000920E-02 0.  1.
    10030    2    1    2    0    0  0.00000000000E+00  0.00000000000E+00  0.87269491404E+03  0.30225380704E+04  0.28938106320E+04 0.  0.
        3    1    3    3  502    0 -0.60042409419E+03 -0.11887705614E+04 -0.15436366766E+03  0.13407135013E+04  0.10100000352E+00 0. -1.
       -3    1    3    3    0  502  0.60042409419E+03  0.11887705614E+04  0.10270585817E+04  0.16818245690E+04  0.10100000352E+00 0.  1.
</event>
<event>
 5   0  0.2378690E-06  0.2901155E+04  0.7818609E-02  0.8272534E-01
       -2   -1    0    0    0  501  0.00000000000E+00  0.00000000000E+00  0.16203303330E+04  0.16203303330E+04  0.25500000920E-02 0.  1.
        2   -1    0    0  501    0  0.00000000000E+00  0.00000000000E+00 -0.12986086748E+04  0.12986086748E+04  0.25500000920E-02 0. -1.
    10030    2    1    2    0    0  0.00000000000E+00  0.00000000000E+00  0.32172165813E+03  0.29189390078E+04  0.29011549607E+04 0.  0.
        3    1    3    3  502    0  0.78019248306E+03 -0.85615438273E+03  0.10394113106E+04  0.15563021944E+04  0.10100000352E+00 0. -1.
       -3    1    3    3    0  502 -0.78019248306E+03  0.85615438273E+03 -0.71768965244E+03  0.13626368134E+04  0.10100000352E+00 0.  1.
</event>
<event>
 5   0  0.2325590E-06  0.2900998E+04  0.7818609E-02  0.8272581E-01
       -2   -1    0    0    0  501  0.00000000000E+00  0.00000000000E+00  0.21336924652E+04  0.21336924652E+04  0.25500000920E-02 0. -1.
        2   -1    0    0  501    0  0.00000000000E+00  0.00000000000E+00 -0.98605954740E+03  0.98605954740E+03  0.25500000920E-02 0.  1.
    10030    2    1    2    0    0  0.00000000000E+00  0.00000000000E+00  0.11476329178E+04  0.31197520126E+04  0.29009983292E+04 0.  0.
        5    1    3    3  502    0 -0.91663339549E+03  0.85649411916E+03  0.13568177283E+04  0.18479110898E+04  0.46999998093E+01 0. -1.
       -5    1    3    3    0  502  0.91663339549E+03 -0.85649411916E+03 -0.20918481055E+03  0.12718409228E+04  0.46999998093E+01 0.  1.
</event>
<event>
 5   0  0.8947674E-07  0.2893336E+04  0.7818609E-02  0.8274863E-01
        1   -1    0    0  501    0  0.00000000000E+00  0.00000000000E+00  0.23303033308E+04  0.23303033308E+04  0.50400001928E-02 0.  1.
       -1   -1    0    0    0  501  0.00000000000E+00  0.00000000000E+00 -0.89810123867E+03  0.89810123868E+03  0.50400001928E-02 0. -1.
    10030    2    1    2    0    0  0.00000000000E+00  0.00000000000E+00  0.14322020922E+04  0.32284045695E+04  0.28933360039E+04 0.  0.
        3    1    3    3  502    0  0.14132009913E+03  0.13748652450E+04  0.23926815282E+03  0.14026671278E+04  0.10100000352E+00 0.  1.
       -3    1    3    3    0  502 -0.14132009913E+03 -0.13748652450E+04  0.11929339393E+04  0.18257374417E+04  0.10100000352E+00 0. -1.
</event>
<event>
 5   0  0.8355946E-07  0.2898605E+04  0.7818609E-02  0.8273293E-01
        1   -1    0    0  501    0  0.00000000000E+00  0.00000000000E+00  0.18537702144E+04  0.18537702144E+04  0.50400001928E-02 0. -1.
       -1   -1    0    0    0  501  0.00000000000E+00  0.00000000000E+00 -0.11330844941E+04  0.11330844941E+04  0.50400001928E-02 0.  1.
    10030    2    1    2    0    0  0.00000000000E+00  0.00000000000E+00  0.72068572028E+03  0.29868547085E+04  0.28986053789E+04 0.  0.
        4    1    3    3  502    0  0.12000116104E+04 -0.81157527350E+03  0.31669302695E+03  0.14828952680E+04  0.12699999809E+01 0. -1.
       -4    1    3    3    0  502 -0.12000116104E+04  0.81157527350E+03  0.40399269333E+03  0.15039594405E+04  0.12699999809E+01 0.  1.
</event>
<event>
 5   0  0.2360103E-06  0.2898505E+04  0.7818609E-02  0.8273322E-01
        2   -1    0    0  501    0  0.00000000000E+00  0.00000000000E+00  0.12811074654E+04  0.12811074654E+04  0.25500000920E-02 0.  1.
       -2   -1    0    0    0  501  0.00000000000E+00  0.00000000000E+00 -0.16394664633E+04  0.16394664633E+04  0.25500000920E-02 0. -1.
    10030    2    1    2    0    0  0.00000000000E+00  0.00000000000E+00 -0.35835899790E+03  0.29205739288E+04  0.28985049426E+04 0.  0.
        4    1    3    3  502    0 -0.57524390510E+03 -0.49537717464E+03 -0.14230938886E+04  0.16129172093E+04  0.12699999809E+01 0. -1.
       -4    1    3    3    0  502  0.57524390510E+03  0.49537717464E+03  0.10647348907E+04  0.13076567194E+04  0.12699999809E+01 0.  1.
</event>
<event>
 5   0  0.8947674E-07  0.2912108E+04  0.7818609E-02  0.8269284E-01
       -1   -1    0    0    0  501  0.00000000000E+00  0.00000000000E+00  0.75932000269E+03  0.75932000271E+03  0.50400001928E-02 0.  1.
        1   -1    0    0  501    0  0.00000000000E+00  0.00000000000E+00 -0.27920947830E+04  0.27920947830E+04  0.50400001928E-02 0. -1.
    10030    2    1    2    0    0  0.00000000000E+00  0.00000000000E+00 -0.20327747803E+04  0.35514147857E+04  0.29121081149E+04 0.  0.
        3    1    3    3  502    0  0.29774815055E+03 -0.57164612487E+03  0.57586829750E+03  0.86432491547E+03  0.10100000352E+00 0.  1.
       -3    1    3    3    0  502 -0.29774815055E+03  0.57164612487E+03 -0.26086430778E+04  0.26870898702E+04  0.10100000352E+00 0. -1.
</event>
<event>
 5   0  0.8355946E-07  0.2896623E+04  0.7818609E-02  0.8273883E-01
       -1   -1    0    0    0  501  0.00000000000E+00  0.00000000000E+00  0.70477582162E+03  0.70477582163E+03  0.50400001928E-02 0.  1.
        1   -1    0    0  501    0  0.00000000000E+00  0.00000000000E+00 -0.29762741618E+04  0.29762741618E+04  0.50400001928E-02 0. -1.
    10030    2    1    2    0    0  0.00000000000E+00  0.00000000000E+00 -0.22714983402E+04  0.36810499834E+04  0.28966229080E+04 0.  0.
        4    1    3    3  502    0 -0.80626791196E+03  0.77931007466E+03  0.29112286422E+02  0.11217135447E+04  0.12699999809E+01 0.  1.
       -4    1    3    3    0  502  0.80626791196E+03 -0.77931007466E+03 -0.23006106266E+04  0.25593364387E+04  0.12699999809E+01 0. -1.
</event>
<event>
 5   0  0.8263673E-07  0.2897163E+04  0.7818609E-02  0.8273722E-01
       -1   -1    0    0    0  501  0.00000000000E+00  0.00000000000E+00  0.21976109095E+04  0.21976109095E+04  0.50400001928E-02 0.  1.
        1   -1    0    0  501    0  0.00000000000E+00  0.00000000000E+00 -0.95484963827E+03  0.95484963828E+03  0.50400001928E-02 0. -1.
    10030    2    1    2    0    0  0.00000000000E+00  0.00000000000E+00  0.12427612712E+04  0.31524605478E+04  0.28971627376E+04 0.  0.
        5    1    3    3  502    0 -0.11303086654E+04  0.50176001632E+03 -0.19941464081E+03  0.12526568094E+04  0.46999998093E+01 0. -1.
       -5    1    3    3    0  502  0.11303086654E+04 -0.50176001632E+03  0.14421759120E+04  0.18998037384E+04  0.46999998093E+01 0.  1.
</event>
<event>
 5   0  0.8947674E-07  0.2911887E+04  0.7818609E-02  0.8269350E-01
       -1   -1    0    0    0  501  0.00000000000E+00  0.00000000000E+00  0.20550358378E+04  0.20550358378E+04  0.50400001928E-02 0. -1.
        1   -1    0    0  501    0  0.00000000000E+00  0.00000000000E+00 -0.10315010015E+04  0.10315010015E+04  0.50400001928E-02 0.  1.
    10030    2    1    2    0    0  0.00000000000E+00  0.00000000000E+00  0.10235348363E+04  0.30865368394E+04  0.29118870341E+04 0.  0.
        3    1    3    3  502    0 -0.39995193693E+03 -0.11636437235E+04 -0.31320842742E+03  0.12696959464E+04  0.10100000352E+00 0.  1.
       -3    1    3    3    0  502  0.39995193693E+03  0.11636437235E+04  0.13367432637E+04  0.18168408930E+04  0.10100000352E+00 0. -1.
</event>
<event>
 5   0  0.8263673E-07  0.2903340E+04  0.7818609E-02  0.8271884E-01
        1   -1    0    0  501    0  0.00000000000E+00  0.00000000000E+00  0.13424953079E+04  0.13424953079E+04  0.50400001928E-02 0.  1.
       -1   -1    0    0    0  501  0.00000000000E+00  0.00000000000E+00 -0.15697227451E+04  0.15697227451E+04  0.50400001928E-02 0. -1.
    10030    2    1    2    0    0  0.00000000000E+00  0.00000000000E+00 -0.22722743721E+03  0.29122180530E+04  0.29033397459E+04 0.  0.
        5    1    3    3  502    0  0.11512035189E+04  0.56838637520E+02 -0.99882197995E+03  0.15251778946E+04  0.46999998093E+01 0. -1.
       -5    1    3    3    0  502 -0.11512035189E+04 -0.56838637520E+02  0.77159454274E+03  0.13870401584E+04  0.46999998093E+01 0.  1.
</event>
<event>
 5   0  0.8483636E-07  0.2911862E+04  0.7818609E-02  0.8269357E-01
        1   -1    0    0  501    0  0.00000000000E+00  0.00000000000E+00  0.18972046336E+04  0.18972046336E+04  0.50400001928E-02 0. -1.
       -1   -1    0    0    0  501  0.00000000000E+00  0.00000000000E+00 -0.11172937151E+04  0.11172937151E+04  0.50400001928E-02 0.  1.
    10030    2    1    2    0    0  0.00000000000E+00  0.00000000000E+00  0.77991091849E+03  0.30144983487E+04  0.29118618191E+04 0.  0.
        2    1    3    3  502    0 -0.11806141166E+04 -0.55138106546E+03 -0.28244893492E+03  0.13332847305E+04  0.25500000920E-02 0.  1.
       -2    1    3    3    0  502  0.11806141166E+04  0.55138106546E+03  0.10623598534E+04  0.16812136182E+04  0.25500000920E-02 0. -1.
</event>
<event>
 5   0  0.8483636E-07  0.2884436E+04  0.7818609E-02  0.8277523E-01
       -1   -1    0    0    0  501  0.00000000000E+00  0.00000000000E+00  0.12718742274E+04  0.12718742274E+04  0.50400001928E-02 0. -1.
        1   -1    0    0  501    0  0.00000000000E+00  0.00000000000E+00 -0.16353762737E+04  0.16353762737E+04  0.50400001928E-02 0.  1.
    10030    2    1    2    0    0  0.00000000000E+00  0.00000000000E+00 -0.36350204638E+03  0.29072505011E+04  0.28844361214E+04 0.  0.
        2    1    3    3  502    0 -0.55959426648E+03 -0.67056656592E+03  0.97501455595E+03  0.13089914617E+04  0.25500000920E-02 0. -1.
       -2    1    3    3    0  502  0.55959426648E+03  0.67056656592E+03 -0.13385166023E+04  0.15982590394E+04  0.25500000920E-02 0.  1.
</event>
<event>
 5   0  0.2325590E-06  0.2923080E+04  0.7818609E-02  0.8266044E-01
       -2   -1    0    0    0  501  0.00000000000E+00  0.00000000000E+00  0.11450258006E+04  0.11450258006E+04  0.25500000920E-02 0.  1.
        2   -1    0    0  501    0  0.00000000000E+00  0.00000000000E+00 -0.18655463059E+04  0.18655463059E+04  0.25500000920E-02 0. -1.
    10030    2    1    2    0    0  0.00000000000E+00  0.00000000000E+00 -0.72052050531E+03  0.30105721065E+04  0.29230796448E+04 0.  0.
        5    1    3    3  502    0  0.73059936225E+03 -0.70621423463E+03 -0.14422094512E+04  0.17642290567E+04  0.46999998093E+01 0. -1.
       -5    1    3    3    0  502 -0.73059936225E+03  0.70621423463E+03  0.72168894589E+03  0.12463430499E+04  0.46999998093E+01 0.  1.
</event>
<event>
 5   0  0.8947674E-07  0.2923668E+04  0.7818609E-02  0.8265870E-01
        1   -1    0    0  501    0  0.00000000000E+00  0.00000000000E+00  0.15494161554E+04  0.15494161554E+04  0.50400001928E-02 0.  1.
       -1   -1    0    0    0  501  0.00000000000E+00  0.00000000000E+00 -0.13792023517E+04  0.13792023517E+04  0.50400001928E-02 0. -1.
    10030    2    1    2    0    0  0.00000000000E+00  0.00000000000E+00  0.17021380372E+03  0.29286185071E+04  0.29236678370E+04 0.  0.
        3    1    3    3  502    0  0.30032089306E+03  0.14305228472E+04  0.65835300632E+02  0.14631891717E+04  0.10100000352E+00 0. -1.
       -3    1    3    3    0  502 -0.30032089306E+03 -0.14305228472E+04  0.10437850308E+03  0.14654293354E+04  0.10100000352E+00 0.  1.
</event>
<event>
 5   0  0.2325590E-06  0.3076570E+04  0.7818609E-02  0.8222198E-01
        2   -1    0    0  501    0  0.00000000000E+00  0.00000000000E+00  0.17614110446E+04  0.17614110446E+04  0.25500000920E-02 0.  1.
       -2   -1    0    0    0  501  0.00000000000E+00  0.00000000000E+00 -0.13434233170E+04  0.13434233170E+04  0.25500000920E-02 0. -1.
    10030    2    1    2    0    0  0.00000000000E+00  0.00000000000E+00  0.41798772765E+03  0.31048343616E+04  0.30765699525E+04 0.  0.
        5    1    3    3  502    0 -0.14736966004E+04  0.58943880946E+02  0.65009346901E+03  0.16118001302E+04  0.46999998093E+01 0.  1.
       -5    1    3    3    0  502  0.14736966004E+04 -0.58943880946E+02 -0.23210574136E+03  0.14930342315E+04  0.46999998093E+01 0. -1.
</event>
<event>
 5   0  0.8947674E-07  0.2908479E+04  0.7818609E-02  0.8270359E-01
        1   -1    0    0  501    0  0.00000000000E+00  0.00000000000E+00  0.14868721484E+04  0.14868721485E+04  0.50400001928E-02 0. -1.
       -1   -1    0    0    0  501  0.00000000000E+00  0.00000000000E+00 -0.14223231987E+04  0.14223231987E+04  0.50400001928E-02 0.  1.
    10030    2    1    2    0    0  0.00000000000E+00  0.00000000000E+00  0.64548949716E+02  0.29091953472E+04  0.29084791561E+04 0.  0.
        3    1    3    3  502    0  0.13362862634E+04  0.26075398963E+03  0.54343761129E+03  0.14659393127E+04  0.10100000352E+00 0. -1.
       -3    1    3    3    0  502 -0.13362862634E+04 -0.26075398963E+03 -0.47888866157E+03  0.14432560345E+04  0.10100000352E+00 0.  1.
</event>
<event>
 5   0  0.2360103E-06  0.2902987E+04  0.7818609E-02  0.8271989E-01
        2   -1    0    0  501    0  0.00000000000E+00  0.00000000000E+00  0.21674128456E+04  0.21674128456E+04  0.25500000920E-02 0. -1.
       -2   -1    0    0    0  501  0.00000000000E+00  0.00000000000E+00 -0.97204987593E+03  0.97204987594E+03  0.25500000920E-02 0.  1.
    10030    2    1    2    0    0  0.00000000000E+00  0.00000000000E+00  0.11953629696E+04  0.31394627215E+04  0.29029870049E+04 0.  0.
        4    1    3    3  502    0 -0.12122837891E+04 -0.79824644702E+03  0.59600632976E+03  0.15690935388E+04  0.12699999809E+01 0. -1.
       -4    1    3    3    0  502  0.12122837891E+04  0.79824644702E+03  0.59935663988E+03  0.15703691827E+04  0.12699999809E+01 0.  1.
</event>
<event>
 5   0  0.8355946E-07  0.2901984E+04  0.7818609E-02  0.8272288E-01
       -1   -1    0    0    0  501  0.00000000000E+00  0.00000000000E+00  0.10013564625E+04  0.10013564625E+04  0.50400001928E-02 0.  1.
        1   -1    0    0  501    0  0.00000000000E+00  0.00000000000E+00 -0.21025252502E+04  0.21025252502E+04  0.50400001928E-02 0. -1.
    10030    2    1    2    0    0  0.00000000000E+00  0.00000000000E+00 -0.11011687878E+04  0.31038817127E+04  0.29019836297E+04 0.  0.
        4    1    3    3  502    0 -0.13816010219E+04 -0.35728046314E+03 -0.26982433626E+03  0.14523351881E+04  0.12699999809E+01 0. -1.
       -4    1    3    3    0  502  0.13816010219E+04  0.35728046314E+03 -0.83134445149E+03  0.16515465246E+04  0.12699999809E+01 0.  1.
</event>
<event>
 5   0  0.2360103E-06  0.2895665E+04  0.7818609E-02  0.8274168E-01
        2   -1    0    0  501    0  0.00000000000E+00  0.00000000000E+00  0.19204776712E+04  0.19204776712E+04  0.25500000920E-02 0.  1.
       -2   -1    0    0    0  501  0.00000000000E+00  0.00000000000E+00 -0.10915095145E+04  0.10915095145E+04  0.25500000920E-02 0. -1.
    10030    2    1    2    0    0  0.00000000000E+00  0.00000000000E+00  0.82896815676E+03  0.30119871857E+04  0.28956654851E+04 0.  0.
        4    1    3    3  502    0 -0.14408969906E+04 -0.85916929787E+01  0.26752855923E+03  0.14655480536E+04  0.12699999809E+01 0.  1.
       -4    1    3    3    0  502  0.14408969906E+04  0.85916929787E+01  0.56143959753E+03  0.15464391321E+04  0.12699999809E+01 0. -1.
</event>
<event>
 5   0  0.2425845E-06  0.2897362E+04  0.7818609E-02  0.8273663E-01
        2   -1    0    0  501    0  0.00000000000E+00  0.00000000000E+00  0.17288362344E+04  0.17288362344E+04  0.25500000920E-02 0. -1.
       -2   -1    0    0    0  501  0.00000000000E+00  0.00000000000E+00 -0.12139244554E+04  0.12139244554E+04  0.25500000920E-02 0.  1.
    10030    2    1    2    0    0  0.00000000000E+00  0.00000000000E+00  0.51491177900E+03  0.29427606899E+04  0.28973619618E+04 0.  0.
        2    1    3    3  502    0  0.64498602659E+03  0.15077785451E+03  0.15660284755E+04  0.17003488236E+04  0.25500000920E-02 0. -1.
       -2    1    3    3    0  502 -0.64498602659E+03 -0.15077785451E+03 -0.10511166965E+04  0.12424118663E+04  0.25500000920E-02 0.  1.
</event>
<event>
 5   0  0.8357118E-07  0.2897325E+04  0.7818609E-02  0.8273674E-01
        1   -1    0    0  501    0  0.00000000000E+00  0.00000000000E+00  0.13484973920E+04  0.13484973920E+04  0.50400001928E-02 0. -1.
       -1   -1    0    0    0  501  0.00000000000E+00  0.00000000000E+00 -0.15562679904E+04  0.15562679905E+04  0.50400001928E-02 0.  1.
    10030    2    1    2    0    0  0.00000000000E+00  0.00000000000E+00 -0.20777059847E+03  0.29047653824E+04  0.28973251984E+04 0.  0.
        1    1    3    3  502    0 -0.83938932011E+03 -0.11771766563E+04 -0.19524567780E+03  0.14589174705E+04  0.50400001928E-02 0. -1.
       -1    1    3    3    0  502  0.83938932011E+03  0.11771766563E+04 -0.12524920665E+02  0.14458479120E+04  0.50400001928E-02 0.  1.
</event>
<event>
 5   0  0.8357118E-07  0.2908280E+04  0.7818609E-02  0.8270418E-01
        1   -1    0    0  501    0  0.00000000000E+00  0.00000000000E+00  0.19806931128E+04  0.19806931128E+04  0.50400001928E-02 0.  1.
       -1   -1    0    0    0  501  0.00000000000E+00  0.00000000000E+00 -0.10675672655E+04  0.10675672655E+04  0.50400001928E-02 0. -1.
    10030    2    1    2    0    0  0.00000000000E+00  0.00000000000E+00  0.91312584725E+03  0.30482603783E+04  0.29082799936E+04 0.  0.
        1    1    3    3  502    0  0.10290534096E+04  0.11480666683E+03 -0.61355417931E+03  0.12035697826E+04  0.50400001928E-02 0. -1.
       -1    1    3    3    0  502 -0.10290534096E+04 -0.11480666683E+03  0.15266800266E+04  0.18446905957E+04  0.50400001928E-02 0.  1.
</event>
<event>
 5   0  0.2325590E-06  0.2885382E+04  0.7818609E-02  0.8277240E-01
        2   -1    0    0  501    0  0.00000000000E+00  0.00000000000E+00  0.19129058880E+04  0.19129058880E+04  0.25500000920E-02 0.  1.
       -2   -1    0    0    0  501  0.00000000000E+00  0.00000000000E+00 -0.10880602989E+04  0.10880602989E+04  0.25500000920E-02 0. -1.
    10030    2    1    2    0    0  0.00000000000E+00  0.00000000000E+00  0.82484558913E+03  0.30009661869E+04  0.28853817441E+04 0.  0.
        5    1    3    3  502    0 -0.81896025816E+03 -0.97980645960E+03  0.11105944534E+04  0.16923825610E+04  0.46999998093E+01 0.  1.
       -5    1    3    3    0  502  0.81896025816E+03  0.97980645960E+03 -0.28574886429E+03  0.13085836260E+04  0.46999998093E+01 0. -1.
</event>
<event>
 5   0  0.2378690E-06  0.2903294E+04  0.7818609E-02  0.8271898E-01
       -2   -1    0    0    0  501  0.00000000000E+00  0.00000000000E+00  0.10048253837E+04  0.10048253837E+04  0.25500000920E-02 0. -1.
        2   -1    0    0  501    0  0.00000000000E+00  0.00000000000E+00 -0.20971592192E+04  0.20971592192E+04  0.25500000920E-02 0.  1.
    10030    2    1    2    0    0  0.00000000000E+00  0.00000000000E+00 -0.10923338355E+04  0.31019846029E+04  0.29032938653E+04 0.  0.
        3    1    3    3  502    0 -0.11128584969E+04  0.59816792907E+03  0.21761179200E+03  0.12820350259E+04  0.10100000352E+00 0. -1.
       -3    1    3    3    0  502  0.11128584969E+04 -0.59816792907E+03 -0.13099456275E+04  0.18199495769E+04  0.10100000352E+00 0.  1.
</event>
<event>
 5   0  0.2325590E-06  0.2884123E+04  0.7818609E-02  0.8277617E-01
       -2   -1    0    0    0  501  0.00000000000E+00  0.00000000000E+00  0.89837580696E+03  0.89837580696E+03  0.25500000920E-02 0. -1.
        2   -1    0    0  501    0  0.00000000000E+00  0.00000000000E+00 -0.23147794739E+04  0.23147794739E+04  0.25500000920E-02 0.  1.
    10030    2    1    2    0    0  0.00000000000E+00  0.00000000000E+00 -0.14164036669E+04  0.32131552809E+04  0.28841233523E+04 0.  0.
        5    1    3    3  502    0  0.28148251057E+03 -0.69575675637E+03 -0.20800231592E+04  0.22112956159E+04  0.46999998093E+01 0.  1.
       -5    1    3    3    0  502 -0.28148251057E+03  0.69575675637E+03  0.66361949230E+03  0.10018596650E+04  0.46999998093E+01 0. -1.
</event>
<event>
 5   0  0.8483636E-07  0.2907692E+04  0.7818609E-02  0.8270592E-01
       -1   -1    0    0    0  501  0.00000000000E+00  0.00000000000E+00  0.11562135499E+04  0.11562135500E+04  0.50400001928E-02 0. -1.
        1   -1    0    0  501    0  0.00000000000E+00  0.00000000000E+00 -0.18280952900E+04  0.18280952900E+04  0.50400001928E-02 0.  1.
    10030    2    1    2    0    0  0.00000000000E+00  0.00000000000E+00 -0.67188174005E+03  0.29843088400E+04  0.29076922429E+04 0.  0.
        2    1    3    3  502    0  0.21272668231E+03 -0.14059379606E+04 -0.64683224201E+03  0.15621479251E+04  0.25500000920E-02 0.  1.
       -2    1    3    3    0  502 -0.21272668231E+03  0.14059379606E+04 -0.25049498047E+02  0.14221609149E+04  0.25500000920E-02 0. -1.
</event>
<event>
 5   0  0.2360103E-06  0.2777638E+04  0.7818609E-02  0.8310245E-01
        2   -1    0    0  501    0  0.00000000000E+00  0.00000000000E+00  0.95045546225E+03  0.95045546226E+03  0.25500000920E-02 0. -1.
       -2   -1    0    0    0  501  0.00000000000E+00  0.00000000000E+00 -0.20293615710E+04  0.20293615710E+04  0.25500000920E-02 0.  1.
    10030    2    1    2    0    0  0.00000000000E+00  0.00000000000E+00 -0.10789061087E+04  0.29798170332E+04  0.27776376942E+04 0.  0.
        4    1    3    3  502    0  0.10002349489E+04 -0.72329127559E+03 -0.12223364479E+04  0.17371609676E+04  0.12699999809E+01 0.  1.
       -4    1    3    3    0  502 -0.10002349489E+04  0.72329127559E+03  0.14343033920E+03  0.12426560657E+04  0.12699999809E+01 0. -1.
</event>
<event>
 5   0  0.8947674E-07  0.2900542E+04  0.7818609E-02  0.8272716E-01
        1   -1    0    0  501    0  0.00000000000E+00  0.00000000000E+00  0.16331524167E+04  0.16331524167E+04  0.50400001928E-02 0.  1.
       -1   -1    0    0    0  501  0.00000000000E+00  0.00000000000E+00 -0.12878690460E+04  0.12878690460E+04  0.50400001928E-02 0. -1.
    10030    2    1    2    0    0  0.00000000000E+00  0.00000000000E+00  0.34528337073E+03  0.29210214627E+04  0.29005423250E+04 0.  0.
        3    1    3    3  502    0  0.69206595228E+03 -0.12721312395E+04  0.25073441479E+03  0.14697417901E+04  0.10100000352E+00 0.  1.
       -3    1    3    3    0  502 -0.69206595228E+03  0.12721312395E+04  0.94548955944E+02  0.14512796726E+04  0.10100000352E+00 0. -1.
</event>
<event>
 5   0  0.2378690E-06  0.2914715E+04  0.7818609E-02  0.8268513E-01
        2   -1    0    0  501    0  0.00000000000E+00  0.00000000000E+00  0.14001114628E+04  0.14001114628E+04  0.25500000920E-02 0. -1.
       -2   -1    0    0    0  501  0.00000000000E+00  0.00000000000E+00 -0.15169440171E+04  0.15169440171E+04  0.25500000920E-02 0.  1.
    10030    2    1    2    0    0  0.00000000000E+00  0.00000000000E+00 -0.11683255432E+03  0.29170554799E+04  0.29147148793E+04 0.  0.
        3    1    3    3  502    0 -0.81094463869E+03 -0.10255414286E+04  0.58593633219E+03  0.14327204279E+04  0.10100000352E+00 0. -1.
       -3    1    3    3    0  502  0.81094463869E+03  0.10255414286E+04 -0.70276888651E+03  0.14843350521E+04  0.10100000352E+00 0.  1.
</event>
<event>
 5   0  0.8357118E-07  0.2892585E+04  0.7818609E-02  0.8275087E-01
        1   -1    0    0  501    0  0.00000000000E+00  0.00000000000E+00  0.20118316358E+04  0.20118316358E+04  0.50400001928E-02 0. -1.
       -1   -1    0    0    0  501  0.00000000000E+00  0.00000000000E+00 -0.10397299495E+04  0.10397299495E+04  0.50400001928E-02 0.  1.
    10030    2    1    2    0    0  0.00000000000E+00  0.00000000000E+00  0.97210168629E+03  0.30515615853E+04  0.28925847301E+04 0.  0.
        1    1    3    3  502    0  0.65032451253E+03 -0.12502778288E+04  0.14315636518E+03  0.14165487517E+04  0.50400001928E-02 0.  1.
       -1    1    3    3    0  502 -0.65032451253E+03  0.12502778288E+04  0.82894532111E+03  0.16350128337E+04  0.50400001928E-02 0. -1.
</event>
<event>
 5   0  0.2325590E-06  0.2896655E+04  0.7818609E-02  0.8273873E-01
       -2   -1    0    0    0  501  0.00000000000E+00  0.00000000000E+00  0.95930565811E+03  0.95930565811E+03  0.25500000920E-02 0. -1.
        2   -1    0    0  501    0  0.00000000000E+00  0.00000000000E+00 -0.21866367471E+04  0.21866367471E+04  0.25500000920E-02 0.  1.
    10030    2    1    2    0    0  0.00000000000E+00  0.00000000000E+00 -0.12273310890E+04  0.31459424052E+04  0.28966553151E+04 0.  0.
        5    1    3    3  502    0 -0.42647539749E+03 -0.10919093295E+04  0.31011393906E+03  0.12125757683E+04  0.46999998093E+01 0. -1.
       -5    1    3    3    0  502  0.42647539749E+03  0.10919093295E+04 -0.15374450280E+04  0.19333666369E+04  0.46999998093E+01 0.  1.
</event>
<event>
 5   0  0.8355946E-07  0.2804831E+04  0.7818609E-02  0.8301770E-01
       -1   -1    0    0    0  501  0.00000000000E+00  0.00000000000E+00  0.28286616559E+04  0.28286616559E+04  0.50400001928E-02 0. -1.
        1   -1    0    0  501    0  0.00000000000E+00  0.00000000000E+00 -0.69530032162E+03  0.69530032164E+03  0.50400001928E-02 0.  1.
    10030    2    1    2    0    0  0.00000000000E+00  0.00000000000E+00  0.21333613342E+04  0.35239619775E+04  0.28048310888E+04 0.  0.
        4    1    3    3  502    0 -0.61468630419E+03  0.88754777577E+03 -0.57902470776E+02  0.10811727965E+04  0.12699999809E+01 0.  1.
       -4    1    3    3    0  502  0.61468630419E+03 -0.88754777577E+03  0.21912638050E+04  0.24427891810E+04  0.12699999809E+01 0. -1.
</event>
<event>
 5   0  0.2425845E-06  0.2900382E+04  0.7818609E-02  0.8272764E-01
        2   -1    0    0  501    0  0.00000000000E+00  0.00000000000E+00  0.12305596813E+04  0.12305596813E+04  0.25500000920E-02 0.  1.
       -2   -1    0    0    0  501  0.00000000000E+00  0.00000000000E+00 -0.17090218222E+04  0.17090218222E+04  0.25500000920E-02 0. -1.
    10030    2    1    2    0    0  0.00000000000E+00  0.00000000000E+00 -0.47846214096E+03  0.29395815035E+04  0.29003815948E+04 0.  0.
        2    1    3    3  502    0  0.98339474857E+03  0.64557770665E+03 -0.10987600055E+04  0.16096923173E+04  0.25500000920E-02 0. -1.
       -2    1    3    3    0  502 -0.98339474857E+03 -0.64557770665E+03  0.62029786453E+03  0.13298891862E+04  0.25500000920E-02 0.  1.
</event>
<event>
 5   0  0.2378690E-06  0.2923714E+04  0.7818609E-02  0.8265857E-01
        2   -1    0    0  501    0  0.00000000000E+00  0.00000000000E+00  0.24964583590E+04  0.24964583590E+04  0.25500000920E-02 0.  1.
       -2   -1    0    0    0  501  0.00000000000E+00  0.00000000000E+00 -0.85602292413E+03  0.85602292413E+03  0.25500000920E-02 0. -1.
    10030    2    1    2    0    0  0.00000000000E+00  0.00000000000E+00  0.16404354349E+04  0.33524812832E+04  0.29237137921E+04 0.  0.
        3    1    3    3  502    0 -0.11377746652E+04 -0.13231148303E+03  0.18617082734E+04  0.21858625809E+04  0.10100000352E+00 0.  1.
       -3    1    3    3    0  502  0.11377746652E+04  0.13231148303E+03 -0.22127283848E+03  0.11666187023E+04  0.10100000352E+00 0. -1.
</event>
<event>
 5   0  0.8263673E-07  0.2908722E+04  0.7818609E-02  0.8270287E-01
        1   -1    0    0  501    0  0.00000000000E+00  0.00000000000E+00  0.21795871936E+04  0.21795871936E+04  0.50400001928E-02 0.  1.
       -1   -1    0    0    0  501  0.00000000000E+00  0.00000000000E+00 -0.97044326352E+03  0.97044326353E+03  0.50400001928E-02 0. -1.
    10030    2    1    2    0    0  0.00000000000E+00  0.00000000000E+00  0.12091439301E+04  0.31500304572E+04  0.29087218563E+04 0.  0.
        5    1    3    3  502    0  0.94695118844E+03 -0.10005139757E+04  0.99630331885E+02  0.13811926230E+04  0.46999998093E+01 0. -1.
       -5    1    3    3    0  502 -0.94695118844E+03  0.10005139757E+04  0.11095135982E+04  0.17688378341E+04  0.46999998093E+01 0.  1.
</event>
<event>
 5   0  0.8483636E-07  0.2910676E+04  0.7818609E-02  0.8269708E-01
       -1   -1    0    0    0  501  0.00000000000E+00  0.00000000000E+00  0.10976675448E+04  0.10976675448E+04  0.50400001928E-02 0. -1.
        1   -1    0    0  501    0  0.00000000000E+00  0.00000000000E+00 -0.19295542617E+04  0.19295542617E+04  0.50400001928E-02 0.  1.
    10030    2    1    2    0    0  0.00000000000E+00  0.00000000000E+00 -0.83188671691E+03  0.30272218066E+04  0.29106762713E+04 0.  0.
        2    1    3    3  502    0  0.89826763255E+03  0.34107852722E+03  0.72088811517E+03  0.12012072994E+04  0.25500000920E-02 0. -1.
       -2    1    3    3    0  502 -0.89826763255E+03 -0.34107852722E+03 -0.15527748321E+04  0.18260145072E+04  0.25500000920E-02 0.  1.
</event>
<event>
 5   0  0.2304435E-06  0.2923697E+04  0.7818609E-02  0.8265862E-01
       -2   -1    0    0    0  501  0.00000000000E+00  0.00000000000E+00  0.13771578997E+04  0.13771578997E+04  0.25500000920E-02 0. -1.
        2   -1    0    0  501    0  0.00000000000E+00  0.00000000000E+00 -0.15517474388E+04  0.15517474388E+04  0.25500000920E-02 0.  1.
    10030    2    1    2    0    0  0.00000000000E+00  0.00000000000E+00 -0.17458953916E+03  0.29289053385E+04  0.29236971414E+04 0.  0.
        1    1    3    3  502    0  0.14287215077E+04 -0.24870702312E+03 -0.27174476745E+03  0.14754475757E+04  0.50400001928E-02 0.  1.
       -1    1    3    3    0  502 -0.14287215077E+04  0.24870702312E+03  0.97155228288E+02  0.14534577628E+04  0.50400001928E-02 0. -1.
</event>
<event>
 5   0  0.2425845E-06  0.2892503E+04  0.7818609E-02  0.8275112E-01
       -2   -1    0    0    0  501  0.00000000000E+00  0.00000000000E+00  0.10395203560E+04  0.10395203560E+04  0.25500000920E-02 0.  1.
        2   -1    0    0  501    0  0.00000000000E+00  0.00000000000E+00 -0.20121235584E+04  0.20121235584E+04  0.25500000920E-02 0. -1.
    10030    2    1    2    0    0  0.00000000000E+00  0.00000000000E+00 -0.97260320247E+03  0.30516439144E+04  0.28925029976E+04 0.  0.
        2    1    3    3  502    0  0.96703466789E+03  0.79495348037E+03  0.27779420810E+03  0.12822935338E+04  0.25500000920E-02 0.  1.
       -2    1    3    3    0  502 -0.96703466789E+03 -0.79495348037E+03 -0.12503974106E+04  0.17693503806E+04  0.25500000920E-02 0. -1.
</event>
<event>
 5   0  0.8483636E-07  0.2873943E+04  0.7818609E-02  0.8280673E-01
       -1   -1    0    0    0  501  0.00000000000E+00  0.00000000000E+00  0.91994429145E+03  0.91994429147E+03  0.50400001928E-02 0.  1.
        1   -1    0    0  501    0  0.00000000000E+00  0.00000000000E+00 -0.22445782575E+04  0.22445782575E+04  0.50400001928E-02 0. -1.
    10030    2    1    2    0    0  0.00000000000E+00  0.00000000000E+00 -0.13246339661E+04  0.31645225490E+04  0.28739429046E+04 0.  0.
        2    1    3    3  502    0 -0.13793248599E+04  0.38315265272E+03 -0.52503596925E+03  0.15247969680E+04  0.25500000920E-02 0.  1.
       -2    1    3    3    0  502  0.13793248599E+04 -0.38315265272E+03 -0.79959799684E+03  0.16397255810E+04  0.25500000920E-02 0. -1.
</event>
<event>
 5   0  0.2360103E-06  0.2900437E+04  0.7818609E-02  0.8272747E-01
        2   -1    0    0  501    0  0.00000000000E+00  0.00000000000E+00  0.17725414899E+04  0.17725414899E+04  0.25500000920E-02 0. -1.
       -2   -1    0    0    0  501  0.00000000000E+00  0.00000000000E+00 -0.11865077509E+04  0.11865077509E+04  0.25500000920E-02 0.  1.
    10030    2    1    2    0    0  0.00000000000E+00  0.00000000000E+00  0.58603373907E+03  0.29590492408E+04  0.29004373577E+04 0.  0.
        4    1    3    3  502    0 -0.12463762762E+04 -0.22052626881E+03 -0.42913395570E+03  0.13365041047E+04  0.12699999809E+01 0.  1.
       -4    1    3    3    0  502  0.12463762762E+04  0.22052626881E+03  0.10151676948E+04  0.16225451361E+04  0.12699999809E+01 0. -1.
</event>
<event>
 5   0  0.2325590E-06  0.2910989E+04  0.7818609E-02  0.8269616E-01
        2   -1    0    0  501    0  0.00000000000E+00  0.00000000000E+00  0.14748867571E+04  0.14748867571E+04  0.25500000920E-02 0. -1.
       -2   -1    0    0    0  501  0.00000000000E+00  0.00000000000E+00 -0.14363568617E+04  0.14363568617E+04  0.25500000920E-02 0.  1.
    10030    2    1    2    0    0  0.00000000000E+00  0.00000000000E+00  0.38529895379E+02  0.29112436187E+04  0.29109886387E+04 0.  0.
        5    1    3    3  502    0  0.64818472745E+03  0.25724171359E+03  0.12969232819E+04  0.14725314358E+04  0.46999998093E+01 0. -1.
       -5    1    3    3    0  502 -0.64818472745E+03 -0.25724171359E+03 -0.12583933866E+04  0.14387121830E+04  0.46999998093E+01 0.  1.
</event>
<event>
 5   0  0.2360103E-06  0.2892929E+04  0.7818609E-02  0.8274984E-01
       -2   -1    0    0    0  501  0.00000000000E+00  0.00000000000E+00  0.17956711257E+04  0.17956711257E+04  0.25500000920E-02 0.  1.
        2   -1    0    0  501    0  0.00000000000E+00  0.00000000000E+00 -0.11651688661E+04  0.11651688661E+04  0.25500000920E-02 0. -1.
    10030    2    1    2    0    0  0.00000000000E+00  0.00000000000E+00  0.63050225959E+03  0.29608399918E+04  0.28929293731E+04 0.  0.
        4    1    3    3  502    0  0.24823856809E+03 -0.51667252137E+03  0.16744646661E+04  0.17698605629E+04  0.12699999809E+01 0.  1.
       -4    1    3    3    0  502 -0.24823856809E+03  0.51667252137E+03 -0.10439624065E+04  0.11909794289E+04  0.12699999809E+01 0. -1.
</event>
<event>
 5   0  0.2425845E-06  0.2902183E+04  0.7818609E-02  0.8272228E-01
       -2   -1    0    0    0  501  0.00000000000E+00  0.00000000000E+00  0.14636071811E+04  0.14636071811E+04  0.25500000920E-02 0. -1.
        2   -1    0    0  501    0  0.00000000000E+00  0.00000000000E+00 -0.14386829523E+04  0.14386829523E+04  0.25500000920E-02 0.  1.
    10030    2    1    2    0    0  0.00000000000E+00  0.00000000000E+00  0.24924228811E+02  0.29022901335E+04  0.29021831096E+04 0.  0.
        2    1    3    3  502    0  0.32749840890E+03 -0.10423550023E+04  0.96743583126E+03  0.14593461708E+04  0.25500000920E-02 0. -1.
       -2    1    3    3    0  502 -0.32749840890E+03  0.10423550023E+04 -0.94251160245E+03  0.14429439627E+04  0.25500000920E-02 0.  1.
</event>
<event>
 5   0  0.7621125E-07  0.2901373E+04  0.7818609E-02  0.8272469E-01
       -4   -1    0    0    0  501  0.00000000000E+00  0.00000000000E+00  0.18498760376E+04  0.18498764735E+04  0.12699999809E+01 0. -1.
        4   -1    0    0  501    0  0.00000000000E+00  0.00000000000E+00 -0.11376380691E+04  0.11376387780E+04  0.12699999809E+01 0.  1.
    10030    2    1    2    0    0  0.00000000000E+00  0.00000000000E+00  0.71223796849E+03  0.29875152515E+04  0.29013728568E+04 0.  0.
        5    1    3    3  502    0 -0.11811610228E+04 -0.69037593080E+03  0.85284045277E+03  0.16121784069E+04  0.46999998093E+01 0. -1.
       -5    1    3    3    0  502  0.11811610228E+04  0.69037593080E+03 -0.14060248427E+03  0.13753368446E+04  0.46999998093E+01 0.  1.
</event>
<event>
 5   0  0.8357118E-07  0.2915397E+04  0.7818609E-02  0.8268311E-01
        1   -1    0    0  501    0  0.00000000000E+00  0.00000000000E+00  0.19686379009E+04  0.19686379010E+04  0.50400001928E-02 0.  1.
       -1   -1    0    0    0  501  0.00000000000E+00  0.00000000000E+00 -0.10793680742E+04  0.10793680742E+04  0.50400001928E-02 0. -1.
    10030    2    1    2    0    0  0.00000000000E+00  0.00000000000E+00  0.88926982671E+03  0.30480059752E+04  0.29153969884E+04 0.  0.
        1    1    3    3  502    0  0.37374603872E+03 -0.11845137850E+04  0.12423109976E+04  0.17567286709E+04  0.50400001928E-02 0.  1.
       -1    1    3    3    0  502 -0.37374603872E+03  0.11845137850E+04 -0.35304117085E+03  0.12912773043E+04  0.50400001928E-02 0. -1.
</event>
<event>
 5   0  0.2378690E-06  0.2887945E+04  0.7818609E-02  0.8276473E-01
        2   -1    0    0  501    0  0.00000000000E+00  0.00000000000E+00  0.30030470467E+04  0.30030470467E+04  0.25500000920E-02 0.  1.
       -2   -1    0    0    0  501  0.00000000000E+00  0.00000000000E+00 -0.69431368146E+03  0.69431368147E+03  0.25500000920E-02 0. -1.
    10030    2    1    2    0    0  0.00000000000E+00  0.00000000000E+00  0.23087333652E+04  0.36973607281E+04  0.28879450484E+04 0.  0.
        3    1    3    3  502    0 -0.24717723692E+03 -0.33071138485E+03  0.29258652103E+04  0.29548525929E+04  0.10100000352E+00 0.  1.
       -3    1    3    3    0  502  0.24717723692E+03  0.33071138485E+03 -0.61713184509E+03  0.74250813527E+03  0.10100000352E+00 0. -1.
</event>
<event>
 5   0  0.8357118E-07  0.2853984E+04  0.7818609E-02  0.8286702E-01
       -1   -1    0    0    0  501  0.00000000000E+00  0.00000000000E+00  0.17845334774E+04  0.17845334774E+04  0.50400001928E-02 0.  1.
        1   -1    0    0  501    0  0.00000000000E+00  0.00000000000E+00 -0.11410859756E+04  0.11410859757E+04  0.50400001928E-02 0. -1.
    10030    2    1    2    0    0  0.00000000000E+00  0.00000000000E+00  0.64344750173E+03  0.29256194530E+04  0.28539839692E+04 0.  0.
        1    1    3    3  502    0  0.21226948421E+03  0.29839345182E+03 -0.10921005352E+04  0.11518596117E+04  0.50400001928E-02 0. -1.
       -1    1    3    3    0  502 -0.21226948421E+03 -0.29839345182E+03  0.17355480370E+04  0.17737598413E+04  0.50400001928E-02 0.  1.
</event>
<event>
 5   0  0.2425845E-06  0.2876291E+04  0.7818609E-02  0.8279967E-01
        2   -1    0    0  501    0  0.00000000000E+00  0.00000000000E+00  0.16198476753E+04  0.16198476753E+04  0.25500000920E-02 0. -1.
       -2   -1    0    0    0  501  0.00000000000E+00  0.00000000000E+00 -0.12768253162E+04  0.12768253162E+04  0.25500000920E-02 0.  1.
    10030    2    1    2    0    0  0.00000000000E+00  0.00000000000E+00  0.34302235910E+03  0.28966729915E+04  0.28762910286E+04 0.  0.
        2    1    3    3  502    0  0.46410285485E+03  0.90578596402E+03  0.11947934436E+04  0.15695129963E+04  0.25500000920E-02 0. -1.
       -2    1    3    3    0  502 -0.46410285485E+03 -0.90578596402E+03 -0.85177108455E+03  0.13271599952E+04  0.25500000920E-02 0.  1.
</event>
<event>
 5   0  0.2325590E-06  0.2902209E+04  0.7818609E-02  0.8272221E-01
        2   -1    0    0  501    0  0.00000000000E+00  0.00000000000E+00  0.20693223389E+04  0.20693223389E+04  0.25500000920E-02 0. -1.
       -2   -1    0    0    0  501  0.00000000000E+00  0.00000000000E+00 -0.10175813199E+04  0.10175813199E+04  0.25500000920E-02 0.  1.
    10030    2    1    2    0    0  0.00000000000E+00  0.00000000000E+00  0.10517410190E+04  0.30869036587E+04  0.29022086464E+04 0.  0.
        5    1    3    3  502    0  0.25023024291E+02  0.12422502379E+04  0.13231531579E+04  0.18150945360E+04  0.46999998093E+01 0.  1.
       -5    1    3    3    0  502 -0.25023024291E+02 -0.12422502379E+04 -0.27141213891E+03  0.12718091227E+04  0.46999998093E+01 0. -1.
</event>
<event>
 5   0  0.8947674E-07  0.2891322E+04  0.7818609E-02  0.8275464E-01
       -1   -1    0    0    0  501  0.00000000000E+00  0.00000000000E+00  0.13642558806E+04  0.13642558806E+04  0.50400001928E-02 0.  1.
        1   -1    0    0  501    0  0.00000000000E+00  0.00000000000E+00 -0.15319235471E+04  0.15319235471E+04  0.50400001928E-02 0. -1.
    10030    2    1    2    0    0  0.00000000000E+00  0.00000000000E+00 -0.16766766653E+03  0.28961794277E+04  0.28913219868E+04 0.  0.
        3    1    3    3  502    0 -0.12576821792E+04  0.68540044662E+03  0.11244807081E+03  0.14367264231E+04  0.10100000352E+00 0.  1.
       -3    1    3    3    0  502  0.12576821792E+04 -0.68540044662E+03 -0.28011573734E+03  0.14594530046E+04  0.10100000352E+00 0. -1.
</event>
<event>
 5   0  0.8357118E-07  0.2895395E+04  0.7818609E-02  0.8274249E-01
        1   -1    0    0  501    0  0.00000000000E+00  0.00000000000E+00  0.16365691547E+04  0.16365691547E+04  0.50400001928E-02 0.  1.
       -1   -1    0    0    0  501  0.00000000000E+00  0.00000000000E+00 -0.12806234064E+04  0.12806234064E+04  0.50400001928E-02 0. -1.
    10030    2    1    2    0    0  0.00000000000E+00  0.00000000000E+00  0.35594574834E+03  0.29171925611E+04  0.28953954933E+04 0.  0.
        1    1    3    3  502    0  0.81862254864E+03 -0.61970095949E+03 -0.85032630765E+03  0.13331267704E+04  0.50400001928E-02 0. -1.
       -1    1    3    3    0  502 -0.81862254864E+03  0.61970095949E+03  0.12062720560E+04  0.15840657907E+04  0.50400001928E-02 0.  1.
</event>
<event>
 5   0  0.8263673E-07  0.2903477E+04  0.7818609E-02  0.8271844E-01
       -1   -1    0    0    0  501  0.00000000000E+00  0.00000000000E+00  0.93063577567E+03  0.93063577569E+03  0.50400001928E-02 0. -1.
        1   -1    0    0  501    0  0.00000000000E+00  0.00000000000E+00 -0.22646293314E+04  0.22646293314E+04  0.50400001928E-02 0.  1.
    10030    2    1    2    0    0  0.00000000000E+00  0.00000000000E+00 -0.13339935557E+04  0.31952651071E+04  0.29034772770E+04 0.  0.
        5    1    3    3  502    0  0.34645551606E+02  0.53074429864E+03  0.81954201442E+03  0.97701639095E+03  0.46999998093E+01 0. -1.
       -5    1    3    3    0  502 -0.34645551606E+02 -0.53074429864E+03 -0.21535355701E+04  0.22182487161E+04  0.46999998093E+01 0.  1.
</event>
<event>
 5   0  0.7621125E-07  0.2902005E+04  0.7818609E-02  0.8272281E-01
       -3   -1    0    0    0  501  0.00000000000E+00  0.00000000000E+00  0.18862622539E+04  0.18862622566E+04  0.10100000352E+00 0. -1.
        3   -1    0    0  501    0  0.00000000000E+00  0.00000000000E+00 -0.11161798900E+04  0.11161798946E+04  0.10100000352E+00 0.  1.
    10030    2    1    2    0    0  0.00000000000E+00  0.00000000000E+00  0.77008236385E+03  0.30024421512E+04  0.29020048284E+04 0.  0.
        5    1    3    3  502    0 -0.62565928505E+03  0.10990054733E+04  0.11210867508E+04  0.16900059657E+04  0.46999998093E+01 0. -1.
       -5    1    3    3    0  502  0.62565928505E+03 -0.10990054733E+04 -0.35100438691E+03  0.13124361855E+04  0.46999998093E+01 0.  1.
</event>
<event>
 5   0  0.8947674E-07  0.2898370E+04  0.7818609E-02  0.8273363E-01
        1   -1    0    0  501    0  0.00000000000E+00  0.00000000000E+00  0.25034474709E+04  0.25034474710E+04  0.50400001928E-02 0. -1.
       -1   -1    0    0    0  501  0.00000000000E+00  0.00000000000E+00 -0.83889790804E+03  0.83889790806E+03  0.50400001928E-02 0.  1.
    10030    2    1    2    0    0  0.00000000000E+00  0.00000000000E+00  0.16645495629E+04  0.33423453790E+04  0.28983697806E+04 0.  0.
        3    1    3    3  502    0  0.95684111510E+03  0.51916722906E+03 -0.27084247537E+03  0.11217999768E+04  0.10100000352E+00 0.  1.
       -3    1    3    3    0  502 -0.95684111510E+03 -0.51916722906E+03  0.19353920383E+04  0.22205454022E+04  0.10100000352E+00 0. -1.
</event>
<event>
 5   0  0.2325590E-06  0.2920658E+04  0.7818609E-02  0.8266757E-01
        2   -1    0    0  501    0  0.00000000000E+00  0.00000000000E+00  0.20687753711E+04  0.20687753711E+04  0.25500000920E-02 0. -1.
       -2   -1    0    0    0  501  0.00000000000E+00  0.00000000000E+00 -0.10308327097E+04  0.10308327097E+04  0.25500000920E-02 0.  1.
    10030    2    1    2    0    0  0.00000000000E+00  0.00000000000E+00  0.10379426614E+04  0.30996080808E+04  0.29206583652E+04 0.  0.
        5    1    3    3  502    0 -0.73149018300E+03  0.12530458594E+04  0.34350056531E+03  0.14910454527E+04  0.46999998093E+01 0.  1.
       -5    1    3    3    0  502  0.73149018300E+03 -0.12530458594E+04  0.69444209606E+03  0.16085626281E+04  0.46999998093E+01 0. -1.
</event>
<event>
 5   0  0.7621125E-07  0.2931179E+04  0.7818609E-02  0.8263661E-01
        3   -1    0    0  501    0  0.00000000000E+00  0.00000000000E+00  0.11338869575E+04  0.11338869620E+04  0.10100000352E+00 0. -1.
       -3   -1    0    0    0  501  0.00000000000E+00  0.00000000000E+00 -0.18943268789E+04  0.18943268816E+04  0.10100000352E+00 0.  1.
    10030    2    1    2    0    0  0.00000000000E+00  0.00000000000E+00 -0.76043992147E+03  0.30282138436E+04  0.29311789792E+04 0.  0.
        5    1    3    3  502    0 -0.13969850713E+04 -0.43554620505E+03 -0.46454732921E+03  0.15352830675E+04  0.46999998093E+01 0. -1.
       -5    1    3    3    0  502  0.13969850713E+04  0.43554620505E+03 -0.29589259226E+03  0.14929307761E+04  0.46999998093E+01 0.  1.
</event>
<event>
 5   0  0.2325590E-06  0.2903194E+04  0.7818609E-02  0.8271928E-01
        2   -1    0    0  501    0  0.00000000000E+00  0.00000000000E+00  0.20765479635E+04  0.20765479635E+04  0.25500000920E-02 0. -1.
       -2   -1    0    0    0  501  0.00000000000E+00  0.00000000000E+00 -0.10147293863E+04  0.10147293863E+04  0.25500000920E-02 0.  1.
    10030    2    1    2    0    0  0.00000000000E+00  0.00000000000E+00  0.10618185772E+04  0.30912773498E+04  0.29031942688E+04 0.  0.
        5    1    3    3  502    0 -0.13426064723E+04  0.55167756694E+03  0.51694990360E+03  0.15408437851E+04  0.46999998093E+01 0. -1.
       -5    1    3    3    0  502  0.13426064723E+04 -0.55167756694E+03  0.54486867356E+03  0.15504335647E+04  0.46999998093E+01 0.  1.
</event>
<event>
 5   0  0.8357118E-07  0.2891255E+04  0.7818609E-02  0.8275484E-01
        1   -1    0    0  501    0  0.00000000000E+00  0.00000000000E+00  0.14333876106E+04  0.14333876106E+04  0.50400001928E-02 0.  1.
       -1   -1    0    0    0  501  0.00000000000E+00  0.00000000000E+00 -0.14579716196E+04  0.14579716196E+04  0.50400001928E-02 0. -1.
    10030    2    1    2    0    0  0.00000000000E+00  0.00000000000E+00 -0.24584009006E+02  0.28913592302E+04  0.28912547146E+04 0.  0.
        1    1    3    3  502    0 -0.42526874061E+03  0.79724101076E+03 -0.11407793949E+04  0.14552746678E+04  0.50400001928E-02 0.  1.
       -1    1    3    3    0  502  0.42526874061E+03 -0.79724101076E+03  0.11161953859E+04  0.14360845624E+04  0.50400001928E-02 0. -1.
</event>
<event>
 5   0  0.8263673E-07  0.2899298E+04  0.7818609E-02  0.8273086E-01
       -1   -1    0    0    0  501  0.00000000000E+00  0.00000000000E+00  0.33369435266E+04  0.33369435266E+04  0.50400001928E-02 0.  1.
        1   -1    0    0  501    0  0.00000000000E+00  0.00000000000E+00 -0.62976258193E+03  0.62976258195E+03  0.50400001928E-02 0. -1.
    10030    2    1    2    0    0  0.00000000000E+00  0.00000000000E+00  0.27071809446E+04  0.39667061085E+04  0.28992979641E+04 0.  0.
        5    1    3    3  502    0 -0.89891619865E+03 -0.27161407055E+03  0.28645478410E+04  0.30145449008E+04  0.46999998093E+01 0.  1.
       -5    1    3    3    0  502  0.89891619865E+03  0.27161407055E+03 -0.15736689634E+03  0.95216120776E+03  0.46999998093E+01 0. -1.
</event>
<event>
 5   0  0.2378690E-06  0.2891320E+04  0.7818609E-02  0.8275465E-01
       -2   -1    0    0    0  501  0.00000000000E+00  0.00000000000E+00  0.27766516840E+04  0.27766516840E+04  0.25500000920E-02 0.  1.
        2   -1    0    0  501    0  0.00000000000E+00  0.00000000000E+00 -0.75268085935E+03  0.75268085935E+03  0.25500000920E-02 0. -1.
    10030    2    1    2    0    0  0.00000000000E+00  0.00000000000E+00  0.20239708246E+04  0.35293325433E+04  0.28913198202E+04 0.  0.
        3    1    3    3  502    0 -0.18623083896E+03  0.12680147865E+04  0.18284534102E+04  0.22328872133E+04  0.10100000352E+00 0.  1.
       -3    1    3    3    0  502  0.18623083896E+03 -0.12680147865E+04  0.19551741448E+03  0.12964453300E+04  0.10100000352E+00 0. -1.
</event>
<event>
 5   0  0.2325590E-06  0.2836825E+04  0.7818609E-02  0.8291926E-01
       -2   -1    0    0    0  501  0.00000000000E+00  0.00000000000E+00  0.70542668672E+03  0.70542668672E+03  0.25500000920E-02 0.  1.
        2   -1    0    0  501    0  0.00000000000E+00  0.00000000000E+00 -0.28520250213E+04  0.28520250213E+04  0.25500000920E-02 0. -1.
    10030    2    1    2    0    0  0.00000000000E+00  0.00000000000E+00 -0.21465983346E+04  0.35574517080E+04  0.28368253815E+04 0.  0.
        5    1    3    3  502    0 -0.74748152987E+03  0.21876658482E+03 -0.25598803015E+04  0.26757422716E+04  0.46999998093E+01 0. -1.
       -5    1    3    3    0  502  0.74748152987E+03 -0.21876658482E+03  0.41328196689E+03  0.88170943643E+03  0.46999998093E+01 0.  1.
</event>
<event>
 5   0  0.2360103E-06  0.2909010E+04  0.7818609E-02  0.8270202E-01
       -2   -1    0    0    0  501  0.00000000000E+00  0.00000000000E+00  0.83990581381E+03  0.83990581381E+03  0.25500000920E-02 0. -1.
        2   -1    0    0  501    0  0.00000000000E+00  0.00000000000E+00 -0.25188356641E+04  0.25188356641E+04  0.25500000920E-02 0.  1.
    10030    2    1    2    0    0  0.00000000000E+00  0.00000000000E+00 -0.16789298503E+04  0.33587414779E+04  0.29090099473E+04 0.  0.
        4    1    3    3  502    0  0.19856289014E+03 -0.10057175516E+04  0.35189385342E+03  0.10838477346E+04  0.12699999809E+01 0. -1.
       -4    1    3    3    0  502 -0.19856289014E+03  0.10057175516E+04 -0.20308237037E+04  0.22748937433E+04  0.12699999809E+01 0.  1.
</event>
<event>
 5   0  0.8947674E-07  0.2908515E+04  0.7818609E-02  0.8270349E-01
       -1   -1    0    0    0  501  0.00000000000E+00  0.00000000000E+00  0.14427826067E+04  0.14427826067E+04  0.50400001928E-02 0. -1.
        1   -1    0    0  501    0  0.00000000000E+00  0.00000000000E+00 -0.14658235587E+04  0.14658235588E+04  0.50400001928E-02 0.  1.
    10030    2    1    2    0    0  0.00000000000E+00  0.00000000000E+00 -0.23040952024E+02  0.29086061655E+04  0.29085149029E+04 0.  0.
        3    1    3    3  502    0 -0.90102616322E+03 -0.11312876427E+04 -0.16385662989E+03  0.14555098360E+04  0.10100000352E+00 0.  1.
       -3    1    3    3    0  502  0.90102616322E+03  0.11312876427E+04  0.14081567786E+03  0.14530963295E+04  0.10100000352E+00 0. -1.
</event>
<event>
 5   0  0.8355946E-07  0.2870480E+04  0.7818609E-02  0.8281715E-01
        1   -1    0    0  501    0  0.00000000000E+00  0.00000000000E+00  0.17534758406E+04  0.17534758406E+04  0.50400001928E-02 0. -1.
       -1   -1    0    0    0  501  0.00000000000E+00  0.00000000000E+00 -0.11747602971E+04  0.11747602971E+04  0.50400001928E-02 0.  1.
    10030    2    1    2    0    0  0.00000000000E+00  0.00000000000E+00  0.57871554356E+03  0.29282361377E+04  0.28704799595E+04 0.  0.
        4    1    3    3  502    0 -0.95674214660E+03 -0.24367008452E+03 -0.77332288579E+03  0.12540975017E+04  0.12699999809E+01 0.  1.
       -4    1    3    3    0  502  0.95674214660E+03  0.24367008452E+03  0.13520384293E+04  0.16741386360E+04  0.12699999809E+01 0. -1.
</event>
<event>
 5   0  0.8355946E-07  0.2870605E+04  0.7818609E-02  0.8281678E-01
        1   -1    0    0  501    0  0.00000000000E+00  0.00000000000E+00  0.13869187938E+04  0.13869187938E+04  0.50400001928E-02 0. -1.
       -1   -1    0    0    0  501  0.00000000000E+00  0.00000000000E+00 -0.14853736071E+04  0.14853736071E+04  0.50400001928E-02 0.  1.
    10030    2    1    2    0    0  0.00000000000E+00  0.00000000000E+00 -0.98454813328E+02  0.28722924009E+04  0.28706045158E+04 0.  0.
        4    1    3    3  502    0  0.95433699813E+03  0.43075667627E+03  0.93307308566E+03  0.14024754601E+04  0.12699999809E+01 0. -1.
       -4    1    3    3    0  502 -0.95433699813E+03 -0.43075667627E+03 -0.10315278990E+04  0.14698169408E+04  0.12699999809E+01 0.  1.
</event>
<event>
 5   0  0.8355946E-07  0.2902797E+04  0.7818609E-02  0.8272046E-01
        1   -1    0    0  501    0  0.00000000000E+00  0.00000000000E+00  0.24642994204E+04  0.24642994204E+04  0.50400001928E-02 0.  1.
       -1   -1    0    0    0  501  0.00000000000E+00  0.00000000000E+00 -0.85483014386E+03  0.85483014387E+03  0.50400001928E-02 0. -1.
    10030    2    1    2    0    0  0.00000000000E+00  0.00000000000E+00  0.16094692766E+04  0.33191295643E+04  0.29027968776E+04 0.  0.
        4    1    3    3  502    0  0.12567322171E+04 -0.63752130457E+03  0.12020587294E+04  0.18522300292E+04  0.12699999809E+01 0.  1.
       -4    1    3    3    0  502 -0.12567322171E+04  0.63752130457E+03  0.40741054719E+03  0.14668995351E+04  0.12699999809E+01 0. -1.
</event>
<event>
 5   0  0.8357118E-07  0.2897416E+04  0.7818609E-02  0.8273647E-01
        1   -1    0    0  501    0  0.00000000000E+00  0.00000000000E+00  0.19902498515E+04  0.19902498515E+04  0.50400001928E-02 0.  1.
       -1   -1    0    0    0  501  0.00000000000E+00  0.00000000000E+00 -0.10545183422E+04  0.10545183422E+04  0.50400001928E-02 0. -1.
    10030    2    1    2    0    0  0.00000000000E+00  0.00000000000E+00  0.93573150924E+03  0.30447681937E+04  0.28974160723E+04 0.  0.
        1    1    3    3  502    0 -0.10666114087E+04  0.19270841207E+03  0.14779779452E+04  0.18328162035E+04  0.50400001928E-02 0.  1.
       -1    1    3    3    0  502  0.10666114087E+04 -0.19270841207E+03 -0.54224643592E+03  0.12119519902E+04  0.50400001928E-02 0. -1.
</event>
<event>
 5   0  0.8263673E-07  0.2898149E+04  0.7818609E-02  0.8273428E-01
        1   -1    0    0  501    0  0.00000000000E+00  0.00000000000E+00  0.19064974138E+04  0.19064974138E+04  0.50400001928E-02 0. -1.
       -1   -1    0    0    0  501  0.00000000000E+00  0.00000000000E+00 -0.11014001612E+04  0.11014001612E+04  0.50400001928E-02 0.  1.
    10030    2    1    2    0    0  0.00000000000E+00  0.00000000000E+00  0.80509725263E+03  0.30078975751E+04  0.28981487601E+04 0.  0.
        5    1    3    3  502    0  0.10575624127E+04 -0.37652759406E+03  0.13535348712E+04  0.17584908369E+04  0.46999998093E+01 0. -1.
       -5    1    3    3    0  502 -0.10575624127E+04  0.37652759406E+03 -0.54843761858E+03  0.12494067382E+04  0.46999998093E+01 0.  1.
</event>
<event>
 5   0  0.2360103E-06  0.2902452E+04  0.7818609E-02  0.8272148E-01
       -2   -1    0    0    0  501  0.00000000000E+00  0.00000000000E+00  0.12547091236E+04  0.12547091236E+04  0.25500000920E-02 0. -1.
        2   -1    0    0  501    0  0.00000000000E+00  0.00000000000E+00 -0.16785215219E+04  0.16785215219E+04  0.25500000920E-02 0.  1.
    10030    2    1    2    0    0  0.00000000000E+00  0.00000000000E+00 -0.42381239838E+03  0.29332306455E+04  0.29024515622E+04 0.  0.
        4    1    3    3  502    0  0.52964114159E+03 -0.12607740113E+04 -0.70283932330E+03  0.15375485598E+04  0.12699999809E+01 0.  1.
       -4    1    3    3    0  502 -0.52964114159E+03  0.12607740113E+04  0.27902692491E+03  0.13956820857E+04  0.12699999809E+01 0. -1.
</event>
<event>
 5   0  0.8263673E-07  0.2795661E+04  0.7818609E-02  0.8304617E-01
        1   -1    0    0  501    0  0.00000000000E+00  0.00000000000E+00  0.23303549896E+04  0.23303549896E+04  0.50400001928E-02 0.  1.
       -1   -1    0    0    0  501  0.00000000000E+00  0.00000000000E+00 -0.83846911454E+03  0.83846911456E+03  0.50400001928E-02 0. -1.
    10030    2    1    2    0    0  0.00000000000E+00  0.00000000000E+00  0.14918858750E+04  0.31688241042E+04  0.27956614135E+04 0.  0.
        5    1    3    3  502    0 -0.77778249434E+03  0.43581320312E+03  0.19662268028E+04  0.21589230386E+04  0.46999998093E+01 0.  1.
       -5    1    3    3    0  502  0.77778249434E+03 -0.43581320312E+03 -0.47434092774E+03  0.10099010656E+04  0.46999998093E+01 0. -1.
</event>
<event>
 5   0  0.2360103E-06  0.2882490E+04  0.7818609E-02  0.8278106E-01
       -2   -1    0    0    0  501  0.00000000000E+00  0.00000000000E+00  0.17037925433E+04  0.17037925433E+04  0.25500000920E-02 0. -1.
        2   -1    0    0  501    0  0.00000000000E+00  0.00000000000E+00 -0.12191547881E+04  0.12191547882E+04  0.25500000920E-02 0.  1.
    10030    2    1    2    0    0  0.00000000000E+00  0.00000000000E+00  0.48463775519E+03  0.29229473315E+04  0.28824897830E+04 0.  0.
        4    1    3    3  502    0 -0.13170899874E+04  0.48829491717E+03 -0.84740646274E+02  0.14072457323E+04  0.12699999809E+01 0.  1.
       -4    1    3    3    0  502  0.13170899874E+04 -0.48829491717E+03  0.56937840146E+03  0.15157015992E+04  0.12699999809E+01 0. -1.
</event>
<event>
 5   0  0.8357118E-07  0.2901361E+04  0.7818609E-02  0.8272473E-01
        1   -1    0    0  501    0  0.00000000000E+00  0.00000000000E+00  0.16797053008E+04  0.16797053009E+04  0.50400001928E-02 0. -1.
       -1   -1    0    0    0  501  0.00000000000E+00  0.00000000000E+00 -0.12528826553E+04  0.12528826553E+04  0.50400001928E-02 0.  1.
    10030    2    1    2    0    0  0.00000000000E+00  0.00000000000E+00  0.42682264555E+03  0.29325879562E+04  0.29013608100E+04 0.  0.
        1    1    3    3  502    0 -0.91386640498E+03 -0.10936885098E+03 -0.91997815271E+03  0.13013351425E+04  0.50400001928E-02 0.  1.
       -1    1    3    3    0  502  0.91386640498E+03  0.10936885098E+03  0.13468007983E+04  0.16312528136E+04  0.50400001928E-02 0. -1.
</event>
<event>
 5   0  0.2304435E-06  0.2884226E+04  0.7818609E-02  0.8277586E-01
        2   -1    0    0  501    0  0.00000000000E+00  0.00000000000E+00  0.11098669657E+04  0.11098669657E+04  0.25500000920E-02 0. -1.
       -2   -1    0    0    0  501  0.00000000000E+00  0.00000000000E+00 -0.18738188528E+04  0.18738188528E+04  0.25500000920E-02 0.  1.
    10030    2    1    2    0    0  0.00000000000E+00  0.00000000000E+00 -0.76395188715E+03  0.29836858185E+04  0.28842258195E+04 0.  0.
        1    1    3    3  502    0  0.10478471817E+04  0.14042632521E+03  0.63265543769E+03  0.12320536400E+04  0.50400001928E-02 0. -1.
       -1    1    3    3    0  502 -0.10478471817E+04 -0.14042632521E+03 -0.13966073248E+04  0.17516321785E+04  0.50400001928E-02 0.  1.
</event>
<event>
 5   0  0.8947674E-07  0.2897116E+04  0.7818609E-02  0.8273736E-01
        1   -1    0    0  501    0  0.00000000000E+00  0.00000000000E+00  0.17696154454E+04  0.17696154454E+04  0.50400001928E-02 0.  1.
       -1   -1    0    0    0  501  0.00000000000E+00  0.00000000000E+00 -0.11857491597E+04  0.11857491597E+04  0.50400001928E-02 0. -1.
    10030    2    1    2    0    0  0.00000000000E+00  0.00000000000E+00  0.58386628570E+03  0.29553646051E+04  0.28971158260E+04 0.  0.
        3    1    3    3  502    0  0.41954217183E+03  0.11362137954E+04  0.11024664675E+04  0.16378124878E+04  0.10100000352E+00 0.  1.
       -3    1    3    3    0  502 -0.41954217183E+03 -0.11362137954E+04 -0.51860018184E+03  0.13175521173E+04  0.10100000352E+00 0. -1.
</event>
<event>
 5   0  0.2425845E-06  0.2921304E+04  0.7818609E-02  0.8266567E-01
       -2   -1    0    0    0  501  0.00000000000E+00  0.00000000000E+00  0.67184099123E+03  0.67184099124E+03  0.25500000920E-02 0. -1.
        2   -1    0    0  501    0  0.00000000000E+00  0.00000000000E+00 -0.31756085518E+04  0.31756085518E+04  0.25500000920E-02 0.  1.
    10030    2    1    2    0    0  0.00000000000E+00  0.00000000000E+00 -0.25037675606E+04  0.38474495430E+04  0.29213038166E+04 0.  0.
        2    1    3    3  502    0 -0.12219806551E+04  0.64200532192E+02 -0.20143601938E+03  0.12401350328E+04  0.25500000920E-02 0. -1.
       -2    1    3    3    0  502  0.12219806551E+04 -0.64200532192E+02 -0.23023315412E+04  0.26073145102E+04  0.25500000920E-02 0.  1.
</event>
<event>
 5   0  0.8357118E-07  0.2903202E+04  0.7818609E-02  0.8271925E-01
       -1   -1    0    0    0  501  0.00000000000E+00  0.00000000000E+00  0.14808491393E+04  0.14808491393E+04  0.50400001928E-02 0.  1.
        1   -1    0    0  501    0  0.00000000000E+00  0.00000000000E+00 -0.14229307868E+04  0.14229307868E+04  0.50400001928E-02 0. -1.
    10030    2    1    2    0    0  0.00000000000E+00  0.00000000000E+00  0.57918352529E+02  0.29037799261E+04  0.29032022533E+04 0.  0.
        1    1    3    3  502    0  0.25676640336E+03 -0.70154801423E+03  0.12738140843E+04  0.14767196496E+04  0.50400001928E-02 0.  1.
       -1    1    3    3    0  502 -0.25676640336E+03  0.70154801423E+03 -0.12158957318E+04  0.14270602765E+04  0.50400001928E-02 0. -1.
</event>
<event>
 5   0  0.8263673E-07  0.2901213E+04  0.7818609E-02  0.8272517E-01
        1   -1    0    0  501    0  0.00000000000E+00  0.00000000000E+00  0.14682910534E+04  0.14682910534E+04  0.50400001928E-02 0. -1.
       -1   -1    0    0    0  501  0.00000000000E+00  0.00000000000E+00 -0.14331345185E+04  0.14331345185E+04  0.50400001928E-02 0.  1.
    10030    2    1    2    0    0  0.00000000000E+00  0.00000000000E+00  0.35156534943E+02  0.29014255719E+04  0.29012125684E+04 0.  0.
        5    1    3    3  502    0  0.47012915893E+03  0.12301388881E+04 -0.59072077056E+03  0.14433420346E+04  0.46999998093E+01 0.  1.
       -5    1    3    3    0  502 -0.47012915893E+03 -0.12301388881E+04  0.62587730550E+03  0.14580835373E+04  0.46999998093E+01 0. -1.
</event>
<event>
 5   0  0.8357118E-07  0.2896577E+04  0.7818609E-02  0.8273897E-01
       -1   -1    0    0    0  501  0.00000000000E+00  0.00000000000E+00  0.86920680610E+03  0.86920680612E+03  0.50400001928E-02 0.  1.
        1   -1    0    0  501    0  0.00000000000E+00  0.00000000000E+00 -0.24131644158E+04  0.24131644158E+04  0.50400001928E-02 0. -1.
    10030    2    1    2    0    0  0.00000000000E+00  0.00000000000E+00 -0.15439576097E+04  0.32823712219E+04  0.28965765548E+04 0.  0.
        1    1    3    3  502    0  0.10090296897E+04  0.40884284068E+03  0.31034836881E+03  0.11320819286E+04  0.50400001928E-02 0.  1.
       -1    1    3    3    0  502 -0.10090296897E+04 -0.40884284068E+03 -0.18543059785E+04  0.21502892933E+04  0.50400001928E-02 0. -1.
</event>
<event>
 5   0  0.2325590E-06  0.2908586E+04  0.7818609E-02  0.8270328E-01
       -2   -1    0    0    0  501  0.00000000000E+00  0.00000000000E+00  0.84224935098E+03  0.84224935098E+03  0.25500000920E-02 0. -1.
        2   -1    0    0  501    0  0.00000000000E+00  0.00000000000E+00 -0.25110941901E+04  0.25110941901E+04  0.25500000920E-02 0.  1.
    10030    2    1    2    0    0  0.00000000000E+00  0.00000000000E+00 -0.16688448391E+04  0.33533435410E+04  0.29085855338E+04 0.  0.
        5    1    3    3  502    0 -0.57466371085E+03 -0.21586633606E+03 -0.23543912277E+04  0.24331084642E+04  0.46999998093E+01 0.  1.
       -5    1    3    3    0  502  0.57466371085E+03  0.21586633606E+03  0.68554638863E+03  0.92023507680E+03  0.46999998093E+01 0. -1.
</event>
<event>
 5   0  0.2378690E-06  0.2908616E+04  0.7818609E-02  0.8270318E-01
        2   -1    0    0  501    0  0.00000000000E+00  0.00000000000E+00  0.23677986995E+04  0.23677986995E+04  0.25500000920E-02 0.  1.
       -2   -1    0    0    0  501  0.00000000000E+00  0.00000000000E+00 -0.89323985874E+03  0.89323985874E+03  0.25500000920E-02 0. -1.
    10030    2    1    2    0    0  0.00000000000E+00  0.00000000000E+00  0.14745588408E+04  0.32610385583E+04  0.29086162868E+04 0.  0.
        3    1    3    3  502    0  0.76528123322E+02 -0.80978114074E+03  0.20889273753E+04  0.22417001670E+04  0.10100000352E+00 0.  1.
       -3    1    3    3    0  502 -0.76528123322E+02  0.80978114074E+03 -0.61436853445E+03  0.10193383913E+04  0.10100000352E+00 0. -1.
</event>
<event>
 5   0  0.2304435E-06  0.2904888E+04  0.7818609E-02  0.8271425E-01
        2   -1    0    0  501    0  0.00000000000E+00  0.00000000000E+00  0.16470311647E+04  0.16470311647E+04  0.25500000920E-02 0.  1.
       -2   -1    0    0    0  501  0.00000000000E+00  0.00000000000E+00 -0.12808464182E+04  0.12808464182E+04  0.25500000920E-02 0. -1.
    10030    2    1    2    0    0  0.00000000000E+00  0.00000000000E+00  0.36618474645E+03  0.29278775829E+04  0.29048882718E+04 0.  0.
        1    1    3    3  502    0  0.13895889395E+04  0.99481629643E+02 -0.23093822928E+03  0.14121566773E+04  0.50400001928E-02 0.  1.
       -1    1    3    3    0  502 -0.13895889395E+04 -0.99481629643E+02  0.59712297574E+03  0.15157209056E+04  0.50400001928E-02 0. -1.
</event>
<event>
 5   0  0.8483636E-07  0.2891432E+04  0.7818609E-02  0.8275431E-01
        1   -1    0    0  501    0  0.00000000000E+00  0.00000000000E+00  0.10689866580E+04  0.10689866580E+04  0.50400001928E-02 0.  1.
       -1   -1    0    0    0  501  0.00000000000E+00  0.00000000000E+00 -0.19552115385E+04  0.19552115385E+04  0.50400001928E-02 0. -1.
    10030    2    1    2    0    0  0.00000000000E+00  0.00000000000E+00 -0.88622488048E+03  0.30241981966E+04  0.28914322045E+04 0.  0.
        2    1    3    3  502    0  0.10599732843E+04 -0.67466417820E+03 -0.11910564298E+04  0.17312800281E+04  0.25500000920E-02 0. -1.
       -2    1    3    3    0  502 -0.10599732843E+04  0.67466417820E+03  0.30483154930E+03  0.12929181684E+04  0.25500000920E-02 0.  1.
</event>
<event>
 5   0  0.8357118E-07  0.2889672E+04  0.7818609E-02  0.8275957E-01
       -1   -1    0    0    0  501  0.00000000000E+00  0.00000000000E+00  0.13299706010E+04  0.13299706010E+04  0.50400001928E-02 0. -1.
        1   -1    0    0  501    0  0.00000000000E+00  0.00000000000E+00 -0.15696219676E+04  0.15696219676E+04  0.50400001928E-02 0.  1.
    10030    2    1    2    0    0  0.00000000000E+00  0.00000000000E+00 -0.23965136663E+03  0.28995925686E+04  0.28896720032E+04 0.  0.
        1    1    3    3  502    0 -0.10067841579E+04 -0.52899951617E+03  0.77435441247E+03  0.13758922868E+04  0.50400001928E-02 0. -1.
       -1    1    3    3    0  502  0.10067841579E+04  0.52899951617E+03 -0.10140057791E+04  0.15237002818E+04  0.50400001928E-02 0.  1.
</event>
<event>
 5   0  0.2325590E-06  0.2838772E+04  0.7818609E-02  0.8291331E-01
       -2   -1    0    0    0  501  0.00000000000E+00  0.00000000000E+00  0.10869926204E+04  0.10869926204E+04  0.25500000920E-02 0. -1.
        2   -1    0    0  501    0  0.00000000000E+00  0.00000000000E+00 -0.18534229292E+04  0.18534229292E+04  0.25500000920E-02 0.  1.
    10030    2    1    2    0    0  0.00000000000E+00  0.00000000000E+00 -0.76643030882E+03  0.29404155495E+04  0.28387723025E+04 0.  0.
        5    1    3    3  502    0 -0.80816765306E+03 -0.31275115674E+03 -0.15476035308E+04  0.17737099593E+04  0.46999998093E+01 0.  1.
       -5    1    3    3    0  502  0.80816765306E+03  0.31275115674E+03  0.78117322194E+03  0.11667055902E+04  0.46999998093E+01 0. -1.
</event>
<event>
 5   0  0.8263673E-07  0.2892678E+04  0.7818609E-02  0.8275059E-01
        1   -1    0    0  501    0  0.00000000000E+00  0.00000000000E+00  0.19801049002E+04  0.19801049002E+04  0.50400001928E-02 0.  1.
       -1   -1    0    0    0  501  0.00000000000E+00  0.00000000000E+00 -0.10564571361E+04  0.10564571361E+04  0.50400001928E-02 0. -1.
    10030    2    1    2    0    0  0.00000000000E+00  0.00000000000E+00  0.92364776402E+03  0.30365620363E+04  0.28926776192E+04 0.  0.
        5    1    3    3  502    0 -0.78265778164E+03 -0.46530687025E+03  0.16414684141E+04  0.18770999790E+04  0.46999998093E+01 0.  1.
       -5    1    3    3    0  502  0.78265778164E+03  0.46530687025E+03 -0.71782065007E+03  0.11594620573E+04  0.46999998093E+01 0. -1.
</event>
<event>
 5   0  0.8355946E-07  0.2894793E+04  0.7818609E-02  0.8274428E-01
        1   -1    0    0  501    0  0.00000000000E+00  0.00000000000E+00  0.16259092164E+04  0.16259092164E+04  0.50400001928E-02 0.  1.
       -1   -1    0    0    0  501  0.00000000000E+00  0.00000000000E+00 -0.12884831462E+04  0.12884831462E+04  0.50400001928E-02 0. -1.
    10030    2    1    2    0    0  0.00000000000E+00  0.00000000000E+00  0.33742607026E+03  0.29143923626E+04  0.28947929961E+04 0.  0.
        4    1    3    3  502    0  0.76829942276E+03 -0.30424321513E+03 -0.10276536781E+04  0.13186817782E+04  0.12699999809E+01 0. -1.
       -4    1    3    3    0  502 -0.76829942276E+03  0.30424321513E+03  0.13650797484E+04  0.15957105845E+04  0.12699999809E+01 0.  1.
</event>
<event>
 5   0  0.2325590E-06  0.2875208E+04  0.7818609E-02  0.8280292E-01
       -2   -1    0    0    0  501  0.00000000000E+00  0.00000000000E+00  0.87910113414E+03  0.87910113415E+03  0.25500000920E-02 0. -1.
        2   -1    0    0  501    0  0.00000000000E+00  0.00000000000E+00 -0.23509296876E+04  0.23509296876E+04  0.25500000920E-02 0.  1.
    10030    2    1    2    0    0  0.00000000000E+00  0.00000000000E+00 -0.14718285535E+04  0.32300308217E+04  0.28752077870E+04 0.  0.
        5    1    3    3  502    0 -0.55402264193E+03 -0.93718181573E+03 -0.17906213107E+04  0.20956138986E+04  0.46999998093E+01 0.  1.
       -5    1    3    3    0  502  0.55402264193E+03  0.93718181573E+03  0.31879275726E+03  0.11344169232E+04  0.46999998093E+01 0. -1.
</event>
<event>
 5   0  0.7621125E-07  0.2948844E+04  0.7818609E-02  0.8258492E-01
       -3   -1    0    0    0  501  0.00000000000E+00  0.00000000000E+00  0.26868817677E+04  0.26868817696E+04  0.10100000352E+00 0. -1.
        3   -1    0    0  501    0  0.00000000000E+00  0.00000000000E+00 -0.80908666547E+03  0.80908667178E+03  0.10100000352E+00 0.  1.
    10030    2    1    2    0    0  0.00000000000E+00  0.00000000000E+00  0.18777951022E+04  0.34959684414E+04  0.29488439933E+04 0.  0.
        1    1    3    3  502    0 -0.10987532220E+04  0.97675112679E+03  0.10720732669E+04  0.18195171052E+04  0.50400001928E-02 0.  1.
       -1    1    3    3    0  502  0.10987532220E+04 -0.97675112679E+03  0.80572183530E+03  0.16764513361E+04  0.50400001928E-02 0. -1.
</event>
<event>
 5   0  0.2325590E-06  0.2908335E+04  0.7818609E-02  0.8270402E-01
       -2   -1    0    0    0  501  0.00000000000E+00  0.00000000000E+00  0.11953929124E+04  0.11953929124E+04  0.25500000920E-02 0. -1.
        2   -1    0    0  501    0  0.00000000000E+00  0.00000000000E+00 -0.17689613121E+04  0.17689613121E+04  0.25500000920E-02 0.  1.
    10030    2    1    2    0    0  0.00000000000E+00  0.00000000000E+00 -0.57356839971E+03  0.29643542244E+04  0.29083354791E+04 0.  0.
        5    1    3    3  502    0  0.48997681976E+03  0.13638747186E+04 -0.16468453761E+03  0.14585522339E+04  0.46999998093E+01 0. -1.
       -5    1    3    3    0  502 -0.48997681976E+03 -0.13638747186E+04 -0.40888386209E+03  0.15058019906E+04  0.46999998093E+01 0.  1.
</event>
<event>
 5   0  0.2360103E-06  0.2897235E+04  0.7818609E-02  0.8273701E-01
        2   -1    0    0  501    0  0.00000000000E+00  0.00000000000E+00  0.27450366242E+04  0.27450366242E+04  0.25500000920E-02 0.  1.
       -2   -1    0    0    0  501  0.00000000000E+00  0.00000000000E+00 -0.76446774294E+03  0.76446774294E+03  0.25500000920E-02 0. -1.
    10030    2    1    2    0    0  0.00000000000E+00  0.00000000000E+00  0.19805688812E+04  0.35095043671E+04  0.28972345106E+04 0.  0.
        4    1    3    3  502    0 -0.97453115257E+03  0.76566254840E+03  0.18988137290E+04  0.22674755336E+04  0.12699999809E+01 0.  1.
       -4    1    3    3    0  502  0.97453115257E+03 -0.76566254840E+03  0.81755152235E+02  0.12420288335E+04  0.12699999809E+01 0. -1.
</event>
<event>
 5   0  0.2304435E-06  0.2920364E+04  0.7818609E-02  0.8266844E-01
       -2   -1    0    0    0  501  0.00000000000E+00  0.00000000000E+00  0.81804364605E+03  0.81804364605E+03  0.25500000920E-02 0.  1.
        2   -1    0    0  501    0  0.00000000000E+00  0.00000000000E+00 -0.26063794659E+04  0.26063794660E+04  0.25500000920E-02 0. -1.
    10030    2    1    2    0    0  0.00000000000E+00  0.00000000000E+00 -0.17883358199E+04  0.34244231120E+04  0.29203644713E+04 0.  0.
        1    1    3    3  502    0 -0.62127664661E+03 -0.58670373357E+03  0.49422677439E+03  0.98715046835E+03  0.50400001928E-02 0.  1.
       -1    1    3    3    0  502  0.62127664661E+03  0.58670373357E+03 -0.22825625943E+04  0.24372726437E+04  0.50400001928E-02 0. -1.
</event>
<event>
 5   0  0.2304435E-06  0.2880256E+04  0.7818609E-02  0.8278776E-01
        2   -1    0    0  501    0  0.00000000000E+00  0.00000000000E+00  0.22044791591E+04  0.22044791591E+04  0.25500000920E-02 0. -1.
       -2   -1    0    0    0  501  0.00000000000E+00  0.00000000000E+00 -0.94079759139E+03  0.94079759139E+03  0.25500000920E-02 0.  1.
    10030    2    1    2    0    0  0.00000000000E+00  0.00000000000E+00  0.12636815677E+04  0.31452767505E+04  0.28802560186E+04 0.  0.
        1    1    3    3  502    0  0.50853219890E+03  0.13410468854E+04  0.48964016921E+03  0.15155062658E+04  0.50400001928E-02 0. -1.
       -1    1    3    3    0  502 -0.50853219890E+03 -0.13410468854E+04  0.77404139847E+03  0.16297704847E+04  0.50400001928E-02 0.  1.
</event>
<event>
 5   0  0.8483636E-07  0.2903967E+04  0.7818609E-02  0.8271698E-01
        1   -1    0    0  501    0  0.00000000000E+00  0.00000000000E+00  0.12268428883E+04  0.12268428883E+04  0.50400001928E-02 0. -1.
       -1   -1    0    0    0  501  0.00000000000E+00  0.00000000000E+00 -0.17184403956E+04  0.17184403956E+04  0.50400001928E-02 0.  1.
    10030    2    1    2    0    0  0.00000000000E+00  0.00000000000E+00 -0.49159750732E+03  0.29452832839E+04  0.29039672025E+04 0.  0.
        2    1    3    3  502    0 -0.17160948275E+03  0.48900724791E+03 -0.16214436109E+04  0.17022506532E+04  0.25500000920E-02 0.  1.
       -2    1    3    3    0  502  0.17160948275E+03 -0.48900724791E+03  0.11298461036E+04  0.12430326306E+04  0.25500000920E-02 0. -1.
</event>
<event>
 5   0  0.2304435E-06  0.2787679E+04  0.7818609E-02  0.8307104E-01
        2   -1    0    0  501    0  0.00000000000E+00  0.00000000000E+00  0.20078155958E+04  0.20078155958E+04  0.25500000920E-02 0. -1.
       -2   -1    0    0    0  501  0.00000000000E+00  0.00000000000E+00 -0.96761270930E+03  0.96761270931E+03  0.25500000920E-02 0.  1.
    10030    2    1    2    0    0  0.00000000000E+00  0.00000000000E+00  0.10402028865E+04  0.29754283051E+04  0.27876785241E+04 0.  0.
        1    1    3    3  502    0 -0.87659846984E+03  0.10405404126E+04  0.84320829510E+03  0.16006715642E+04  0.50400001928E-02 0.  1.
       -1    1    3    3    0  502  0.87659846984E+03 -0.10405404126E+04  0.19699459138E+03  0.13747567409E+04  0.50400001928E-02 0. -1.
</event>
<event>
 5   0  0.8263673E-07  0.2887523E+04  0.7818609E-02  0.8276599E-01
        1   -1    0    0  501    0  0.00000000000E+00  0.00000000000E+00  0.17159880473E+04  0.17159880473E+04  0.50400001928E-02 0. -1.
       -1   -1    0    0    0  501  0.00000000000E+00  0.00000000000E+00 -0.12147211492E+04  0.12147211492E+04  0.50400001928E-02 0.  1.
    10030    2    1    2    0    0  0.00000000000E+00  0.00000000000E+00  0.50126689809E+03  0.29307091966E+04  0.28875227950E+04 0.  0.
        5    1    3    3  502    0 -0.57346443053E+03  0.11301519064E+04  0.95258416376E+03  0.15854158646E+04  0.46999998093E+01 0. -1.
       -5    1    3    3    0  502  0.57346443053E+03 -0.11301519064E+04 -0.45131726567E+03  0.13452933320E+04  0.46999998093E+01 0.  1.
</event>
<event>
 5   0  0.8947674E-07  0.2895567E+04  0.7818609E-02  0.8274198E-01
       -1   -1    0    0    0  501  0.00000000000E+00  0.00000000000E+00  0.65027116879E+03  0.65027116881E+03  0.50400001928E-02 0. -1.
        1   -1    0    0  501    0  0.00000000000E+00  0.00000000000E+00 -0.32233887507E+04  0.32233887507E+04  0.50400001928E-02 0.  1.
    10030    2    1    2    0    0  0.00000000000E+00  0.00000000000E+00 -0.25731175819E+04  0.38736599196E+04  0.28955667980E+04 0.  0.
        3    1    3    3  502    0  0.12526936491E+04 -0.55749600628E+03 -0.19083556700E+04  0.23498647938E+04  0.10100000352E+00 0.  1.
       -3    1    3    3    0  502 -0.12526936491E+04  0.55749600628E+03 -0.66476191198E+03  0.15237951258E+04  0.10100000352E+00 0. -1.
</event>
<event>
 5   0  0.2360103E-06  0.2886724E+04  0.7818609E-02  0.8276838E-01
       -2   -1    0    0    0  501  0.00000000000E+00  0.00000000000E+00  0.13874792402E+04  0.13874792402E+04  0.25500000920E-02 0.  1.
        2   -1    0    0  501    0  0.00000000000E+00  0.00000000000E+00 -0.15014954146E+04  0.15014954146E+04  0.25500000920E-02 0. -1.
    10030    2    1    2    0    0  0.00000000000E+00  0.00000000000E+00 -0.11401617438E+03  0.28889746548E+04  0.28867238988E+04 0.  0.
        4    1    3    3  502    0  0.70497772780E+03 -0.89136228380E+03  0.83350128630E+03  0.14093425151E+04  0.12699999809E+01 0.  1.
       -4    1    3    3    0  502 -0.70497772780E+03  0.89136228380E+03 -0.94751746068E+03  0.14796321397E+04  0.12699999809E+01 0. -1.
</event>
<event>
 5   0  0.8357118E-07  0.2889849E+04  0.7818609E-02  0.8275904E-01
        1   -1    0    0  501    0  0.00000000000E+00  0.00000000000E+00  0.17977192694E+04  0.17977192694E+04  0.50400001928E-02 0.  1.
       -1   -1    0    0    0  501  0.00000000000E+00  0.00000000000E+00 -0.11613644544E+04  0.11613644544E+04  0.50400001928E-02 0. -1.
    10030    2    1    2    0    0  0.00000000000E+00  0.00000000000E+00  0.63635481498E+03  0.29590837239E+04  0.28898493100E+04 0.  0.
        1    1    3    3  502    0 -0.11469398676E+04 -0.32154487441E+03  0.11556628986E+04  0.16596442093E+04  0.50400001928E-02 0.  1.
       -1    1    3    3    0  502  0.11469398676E+04  0.32154487441E+03 -0.51930808365E+03  0.12994395145E+04  0.50400001928E-02 0. -1.
</event>
<event>
 5   0  0.2378690E-06  0.2934565E+04  0.7818609E-02  0.8262667E-01
        2   -1    0    0  501    0  0.00000000000E+00  0.00000000000E+00  0.90347322062E+03  0.90347322062E+03  0.25500000920E-02 0.  1.
       -2   -1    0    0    0  501  0.00000000000E+00  0.00000000000E+00 -0.23829351862E+04  0.23829351862E+04  0.25500000920E-02 0. -1.
    10030    2    1    2    0    0  0.00000000000E+00  0.00000000000E+00 -0.14794619656E+04  0.32864084068E+04  0.29345651311E+04 0.  0.
        3    1    3    3  502    0 -0.68651325499E+03 -0.57099259008E+03  0.56415968815E+03  0.10562240061E+04  0.10100000352E+00 0.  1.
       -3    1    3    3    0  502  0.68651325499E+03  0.57099259008E+03 -0.20436216537E+04  0.22301844007E+04  0.10100000352E+00 0. -1.
</event>
<event>
 5   0  0.2378690E-06  0.2906329E+04  0.7818609E-02  0.8270997E-01
       -2   -1    0    0    0  501  0.00000000000E+00  0.00000000000E+00  0.76151781634E+03  0.76151781635E+03  0.25500000920E-02 0.  1.
        2   -1    0    0  501    0  0.00000000000E+00  0.00000000000E+00 -0.27729974815E+04  0.27729974816E+04  0.25500000920E-02 0. -1.
    10030    2    1    2    0    0  0.00000000000E+00  0.00000000000E+00 -0.20114796652E+04  0.35345152979E+04  0.29063289469E+04 0.  0.
        3    1    3    3  502    0  0.65816301476E+03 -0.12380282207E+04 -0.14701008342E+04  0.20315237882E+04  0.10100000352E+00 0. -1.
       -3    1    3    3    0  502 -0.65816301476E+03  0.12380282207E+04 -0.54137883103E+03  0.15029915097E+04  0.10100000352E+00 0.  1.
</event>
<event>
 5   0  0.2378690E-06  0.2897759E+04  0.7818609E-02  0.8273544E-01
        2   -1    0    0  501    0  0.00000000000E+00  0.00000000000E+00  0.15384106437E+04  0.15384106437E+04  0.25500000920E-02 0.  1.
       -2   -1    0    0    0  501  0.00000000000E+00  0.00000000000E+00 -0.13645592453E+04  0.13645592453E+04  0.25500000920E-02 0. -1.
    10030    2    1    2    0    0  0.00000000000E+00  0.00000000000E+00  0.17385139840E+03  0.29029698890E+04  0.28977594565E+04 0.  0.
        3    1    3    3  502    0  0.14289085749E+03 -0.14190304093E+04  0.34270293268E+03  0.14668027850E+04  0.10100000352E+00 0.  1.
       -3    1    3    3    0  502 -0.14289085749E+03  0.14190304093E+04 -0.16885153428E+03  0.14361671040E+04  0.10100000352E+00 0. -1.
</event>
<event>
 5   0  0.8483636E-07  0.2874798E+04  0.7818609E-02  0.8280416E-01
       -1   -1    0    0    0  501  0.00000000000E+00  0.00000000000E+00  0.99659949852E+03  0.99659949854E+03  0.50400001928E-02 0. -1.
        1   -1    0    0  501    0  0.00000000000E+00  0.00000000000E+00 -0.20731656439E+04  0.20731656439E+04  0.50400001928E-02 0.  1.
    10030    2    1    2    0    0  0.00000000000E+00  0.00000000000E+00 -0.10765661454E+04  0.30697651424E+04  0.28747979693E+04 0.  0.
        2    1    3    3  502    0  0.30892316517E+03 -0.45528444221E+03 -0.19562726596E+04  0.20321712930E+04  0.25500000920E-02 0.  1.
       -2    1    3    3    0  502 -0.30892316517E+03  0.45528444221E+03  0.87970651421E+03  0.10375938495E+04  0.25500000920E-02 0. -1.
</event>
<event>
 5   0  0.2325590E-06  0.3052332E+04  0.7818609E-02  0.8228943E-01
        2   -1    0    0  501    0  0.00000000000E+00  0.00000000000E+00  0.14176013322E+04  0.14176013322E+04  0.25500000920E-02 0. -1.
       -2   -1    0    0    0  501  0.00000000000E+00  0.00000000000E+00 -0.16430453047E+04  0.16430453047E+04  0.25500000920E-02 0.  1.
    10030    2    1    2    0    0  0.00000000000E+00  0.00000000000E+00 -0.22544397253E+03  0.30606466368E+04  0.30523323625E+04 0.  0.
        5    1    3    3  502    0  0.63235056597E+03  0.13458538346E+04 -0.45712712824E+03  0.15556918345E+04  0.46999998093E+01 0.  1.
       -5    1    3    3    0  502 -0.63235056597E+03 -0.13458538346E+04  0.23168315570E+03  0.15049548024E+04  0.46999998093E+01 0. -1.
</event>
<event>
 5   0  0.2325590E-06  0.2904960E+04  0.7818609E-02  0.8271403E-01
       -2   -1    0    0    0  501  0.00000000000E+00  0.00000000000E+00  0.13940858832E+04  0.13940858832E+04  0.25500000920E-02 0.  1.
        2   -1    0    0  501    0  0.00000000000E+00  0.00000000000E+00 -0.15133202945E+04  0.15133202945E+04  0.25500000920E-02 0. -1.
    10030    2    1    2    0    0  0.00000000000E+00  0.00000000000E+00 -0.11923441129E+03  0.29074061777E+04  0.29049602127E+04 0.  0.
        5    1    3    3  502    0 -0.12486658452E+03  0.28048619156E+03 -0.14804646883E+04  0.15119728671E+04  0.46999998093E+01 0. -1.
       -5    1    3    3    0  502  0.12486658452E+03 -0.28048619156E+03  0.13612302770E+04  0.13954333107E+04  0.46999998093E+01 0.  1.
</event>
<event>
 5   0  0.2360103E-06  0.2899097E+04  0.7818609E-02  0.8273146E-01
       -2   -1    0    0    0  501  0.00000000000E+00  0.00000000000E+00  0.14531354234E+04  0.14531354234E+04  0.25500000920E-02 0. -1.
        2   -1    0    0  501    0  0.00000000000E+00  0.00000000000E+00 -0.14459699776E+04  0.14459699776E+04  0.25500000920E-02 0.  1.
    10030    2    1    2    0    0  0.00000000000E+00  0.00000000000E+00  0.71654458007E+01  0.28991054010E+04  0.28990965459E+04 0.  0.
        4    1    3    3  502    0  0.38333076164E+03  0.13861711265E+04  0.18462392897E+03  0.14500001630E+04  0.12699999809E+01 0.  1.
       -4    1    3    3    0  502 -0.38333076164E+03 -0.13861711265E+04 -0.17745848316E+03  0.14491052380E+04  0.12699999809E+01 0. -1.
</event>
<event>
 5   0  0.2360103E-06  0.2921970E+04  0.7818609E-02  0.8266371E-01
        2   -1    0    0  501    0  0.00000000000E+00  0.00000000000E+00  0.27436982906E+04  0.27436982906E+04  0.25500000920E-02 0. -1.
       -2   -1    0    0    0  501  0.00000000000E+00  0.00000000000E+00 -0.77795644622E+03  0.77795644623E+03  0.25500000920E-02 0.  1.
    10030    2    1    2    0    0  0.00000000000E+00  0.00000000000E+00  0.19657418444E+04  0.35216547368E+04  0.29219704117E+04 0.  0.
        4    1    3    3  502    0  0.32226124186E+03  0.12113322428E+04  0.18874365577E+04  0.22657441344E+04  0.12699999809E+01 0. -1.
       -4    1    3    3    0  502 -0.32226124186E+03 -0.12113322428E+04  0.78305286680E+02  0.12559106024E+04  0.12699999809E+01 0.  1.
</event>
<event>
 5   0  0.8355946E-07  0.2903238E+04  0.7818609E-02  0.8271915E-01
       -1   -1    0    0    0  501  0.00000000000E+00  0.00000000000E+00  0.15800566854E+04  0.15800566854E+04  0.50400001928E-02 0. -1.
        1   -1    0    0  501    0  0.00000000000E+00  0.00000000000E+00 -0.13336217660E+04  0.13336217661E+04  0.50400001928E-02 0.  1.
    10030    2    1    2    0    0  0.00000000000E+00  0.00000000000E+00  0.24643491934E+03  0.29136784515E+04  0.29032381833E+04 0.  0.
        4    1    3    3  502    0 -0.15665767412E+03 -0.10254738240E+04 -0.89584438659E+03  0.13706483752E+04  0.12699999809E+01 0.  1.
       -4    1    3    3    0  502  0.15665767412E+03  0.10254738240E+04  0.11422793059E+04  0.15430300763E+04  0.12699999809E+01 0. -1.
</event>
<event>
 5   0  0.2378690E-06  0.2907679E+04  0.7818609E-02  0.8270596E-01
        2   -1    0    0  501    0  0.00000000000E+00  0.00000000000E+00  0.26366354706E+04  0.26366354706E+04  0.25500000920E-02 0. -1.
       -2   -1    0    0    0  501  0.00000000000E+00  0.00000000000E+00 -0.80164640095E+03  0.80164640095E+03  0.25500000920E-02 0.  1.
    10030    2    1    2    0    0  0.00000000000E+00  0.00000000000E+00  0.18349890697E+04  0.34382818716E+04  0.29076790302E+04 0.  0.
        3    1    3    3  502    0  0.11522368808E+04 -0.57435095707E+03  0.17161046313E+04  0.21453540424E+04  0.10100000352E+00 0. -1.
       -3    1    3    3    0  502 -0.11522368808E+04  0.57435095707E+03  0.11888443831E+03  0.12929278291E+04  0.10100000352E+00 0.  1.
</event>
<event>
 5   0  0.8355946E-07  0.2890221E+04  0.7818609E-02  0.8275793E-01
       -1   -1    0    0    0  501  0.00000000000E+00  0.00000000000E+00  0.11276030908E+04  0.11276030908E+04  0.50400001928E-02 0. -1.
        1   -1    0    0  501    0  0.00000000000E+00  0.00000000000E+00 -0.18520213021E+04  0.18520213021E+04  0.50400001928E-02 0.  1.
    10030    2    1    2    0    0  0.00000000000E+00  0.00000000000E+00 -0.72441821131E+03  0.29796243930E+04  0.28902214064E+04 0.  0.
        4    1    3    3  502    0  0.41656388593E+03 -0.11786507640E+04  0.38519965475E+03  0.13080991864E+04  0.12699999809E+01 0. -1.
       -4    1    3    3    0  502 -0.41656388593E+03  0.11786507640E+04 -0.11096178661E+04  0.16715252065E+04  0.12699999809E+01 0.  1.
</event>
<event>
 5   0  0.2304435E-06  0.2889677E+04  0.7818609E-02  0.8275956E-01
       -2   -1    0    0    0  501  0.00000000000E+00  0.00000000000E+00  0.86865034164E+03  0.86865034164E+03  0.25500000920E-02 0. -1.
        2   -1    0    0  501    0  0.00000000000E+00  0.00000000000E+00 -0.24032198378E+04  0.24032198378E+04  0.25500000920E-02 0.  1.
    10030    2    1    2    0    0  0.00000000000E+00  0.00000000000E+00 -0.15345694961E+04  0.32718701794E+04  0.28896766138E+04 0.  0.
        1    1    3    3  502    0  0.78522450138E+03  0.37772851726E+03  0.53766904075E+03  0.10238868823E+04  0.50400001928E-02 0. -1.
       -1    1    3    3    0  502 -0.78522450138E+03 -0.37772851726E+03 -0.20722385369E+04  0.22479832971E+04  0.50400001928E-02 0.  1.
</event>
<event>
 5   0  0.2425845E-06  0.2908794E+04  0.7818609E-02  0.8270266E-01
        2   -1    0    0  501    0  0.00000000000E+00  0.00000000000E+00  0.17340646842E+04  0.17340646842E+04  0.25500000920E-02 0. -1.
       -2   -1    0    0    0  501  0.00000000000E+00  0.00000000000E+00 -0.12198340623E+04  0.12198340623E+04  0.25500000920E-02 0.  1.
    10030    2    1    2    0    0  0.00000000000E+00  0.00000000000E+00  0.51423062188E+03  0.29538987465E+04  0.29087943675E+04 0.  0.
        2    1    3    3  502    0 -0.91014369565E+03 -0.52762926979E+03  0.12769368734E+04  0.16544854100E+04  0.25500000920E-02 0. -1.
       -2    1    3    3    0  502  0.91014369565E+03  0.52762926979E+03 -0.76270625155E+03  0.12994133366E+04  0.25500000920E-02 0.  1.
</event>
<event>
 5   0  0.8357118E-07  0.2890478E+04  0.7818609E-02  0.8275716E-01
       -1   -1    0    0    0  501  0.00000000000E+00  0.00000000000E+00  0.10549875437E+04  0.10549875437E+04  0.50400001928E-02 0. -1.
        1   -1    0    0  501    0  0.00000000000E+00  0.00000000000E+00 -0.19798494278E+04  0.19798494278E+04  0.50400001928E-02 0.  1.
    10030    2    1    2    0    0  0.00000000000E+00  0.00000000000E+00 -0.92486188411E+03  0.30348369715E+04  0.28904784966E+04 0.  0.
        1    1    3    3  502    0  0.66228875732E+03 -0.11685076466E+04  0.97770311497E+02  0.13466980182E+04  0.50400001928E-02 0.  1.
       -1    1    3    3    0  502 -0.66228875732E+03  0.11685076466E+04 -0.10226321956E+04  0.16881389534E+04  0.50400001928E-02 0. -1.
</event>
<event>
 5   0  0.8483636E-07  0.2918867E+04  0.7818609E-02  0.8267286E-01
       -1   -1    0    0    0  501  0.00000000000E+00  0.00000000000E+00  0.10587533661E+04  0.10587533661E+04  0.50400001928E-02 0. -1.
        1   -1    0    0  501    0  0.00000000000E+00  0.00000000000E+00 -0.20117490835E+04  0.20117490835E+04  0.50400001928E-02 0.  1.
    10030    2    1    2    0    0  0.00000000000E+00  0.00000000000E+00 -0.95299571741E+03  0.30705024496E+04  0.29188669814E+04 0.  0.
        2    1    3    3  502    0  0.12780854985E+04 -0.63075457567E+03 -0.14619182579E+03  0.14327337248E+04  0.25500000920E-02 0. -1.
       -2    1    3    3    0  502 -0.12780854985E+04  0.63075457567E+03 -0.80680389162E+03  0.16377687248E+04  0.25500000920E-02 0.  1.
</event>
<event>
 5   0  0.2360103E-06  0.2915145E+04  0.7818609E-02  0.8268386E-01
       -2   -1    0    0    0  501  0.00000000000E+00  0.00000000000E+00  0.10500297821E+04  0.10500297821E+04  0.25500000920E-02 0. -1.
        2   -1    0    0  501    0  0.00000000000E+00  0.00000000000E+00 -0.20232929116E+04  0.20232929116E+04  0.25500000920E-02 0.  1.
    10030    2    1    2    0    0  0.00000000000E+00  0.00000000000E+00 -0.97326312958E+03  0.30733226937E+04  0.29151451525E+04 0.  0.
        4    1    3    3  502    0  0.12918566577E+04 -0.63884456488E+03 -0.71640282039E+03  0.16094255547E+04  0.12699999809E+01 0.  1.
       -4    1    3    3    0  502 -0.12918566577E+04  0.63884456488E+03 -0.25686030919E+03  0.14638971390E+04  0.12699999809E+01 0. -1.
</event>
<event>
 5   0  0.2360103E-06  0.2898397E+04  0.7818609E-02  0.8273355E-01
        2   -1    0    0  501    0  0.00000000000E+00  0.00000000000E+00  0.23298849470E+04  0.23298849470E+04  0.25500000920E-02 0. -1.
       -2   -1    0    0    0  501  0.00000000000E+00  0.00000000000E+00 -0.90140743289E+03  0.90140743290E+03  0.25500000920E-02 0.  1.
    10030    2    1    2    0    0  0.00000000000E+00  0.00000000000E+00  0.14284775141E+04  0.32312923799E+04  0.28983965285E+04 0.  0.
        4    1    3    3  502    0  0.12305705156E+04  0.76422676373E+03  0.76190003190E+03  0.16367161061E+04  0.12699999809E+01 0. -1.
       -4    1    3    3    0  502 -0.12305705156E+04 -0.76422676373E+03  0.66657748223E+03  0.15945762738E+04  0.12699999809E+01 0.  1.
</event>
<event>
 5   0  0.8355946E-07  0.2902757E+04  0.7818609E-02  0.8272058E-01
       -1   -1    0    0    0  501  0.00000000000E+00  0.00000000000E+00  0.12891082041E+04  0.12891082041E+04  0.50400001928E-02 0.  1.
        1   -1    0    0  501    0  0.00000000000E+00  0.00000000000E+00 -0.16340745957E+04  0.16340745958E+04  0.50400001928E-02 0. -1.
    10030    2    1    2    0    0  0.00000000000E+00  0.00000000000E+00 -0.34496639165E+03  0.29231827999E+04  0.29027565985E+04 0.  0.
        4    1    3    3  502    0  0.18130729705E+03  0.96886346877E+03 -0.12453100189E+04  0.15881962767E+04  0.12699999809E+01 0. -1.
       -4    1    3    3    0  502 -0.18130729705E+03 -0.96886346877E+03  0.90034362726E+03  0.13349865232E+04  0.12699999809E+01 0.  1.
</event>
<event>
 5   0  0.8483636E-07  0.2905803E+04  0.7818609E-02  0.8271153E-01
        1   -1    0    0  501    0  0.00000000000E+00  0.00000000000E+00  0.12161602068E+04  0.12161602068E+04  0.50400001928E-02 0.  1.
       -1   -1    0    0    0  501  0.00000000000E+00  0.00000000000E+00 -0.17357278335E+04  0.17357278335E+04  0.50400001928E-02 0. -1.
    10030    2    1    2    0    0  0.00000000000E+00  0.00000000000E+00 -0.51956762666E+03  0.29518880403E+04  0.29058032425E+04 0.  0.
        2    1    3    3  502    0 -0.75014292247E+03 -0.70452112112E+03 -0.13016510486E+04  0.16593251238E+04  0.25500000920E-02 0. -1.
       -2    1    3    3    0  502  0.75014292247E+03  0.70452112112E+03  0.78208342195E+03  0.12925629165E+04  0.25500000920E-02 0.  1.
</event>
<event>
 5   0  0.2325590E-06  0.2907351E+04  0.7818609E-02  0.8270694E-01
        2   -1    0    0  501    0  0.00000000000E+00  0.00000000000E+00  0.17461456600E+04  0.17461456600E+04  0.25500000920E-02 0.  1.
       -2   -1    0    0    0  501  0.00000000000E+00  0.00000000000E+00 -0.12101928755E+04  0.12101928755E+04  0.25500000920E-02 0. -1.
    10030    2    1    2    0    0  0.00000000000E+00  0.00000000000E+00  0.53595278451E+03  0.29563385356E+04  0.29073513977E+04 0.  0.
        5    1    3    3  502    0  0.56723154380E+03  0.75977183250E+03 -0.85247265173E+03  0.12750437536E+04  0.46999998093E+01 0. -1.
       -5    1    3    3    0  502 -0.56723154380E+03 -0.75977183250E+03  0.13884254362E+04  0.16812947819E+04  0.46999998093E+01 0.  1.
</event>
<event>
 5   0  0.8483636E-07  0.2899897E+04  0.7818609E-02  0.8272908E-01
        1   -1    0    0  501    0  0.00000000000E+00  0.00000000000E+00  0.21906289402E+04  0.21906289402E+04  0.50400001928E-02 0.  1.
       -1   -1    0    0    0  501  0.00000000000E+00  0.00000000000E+00 -0.95970178956E+03  0.95970178957E+03  0.50400001928E-02 0. -1.
    10030    2    1    2    0    0  0.00000000000E+00  0.00000000000E+00  0.12309271507E+04  0.31503307298E+04  0.28998969045E+04 0.  0.
        2    1    3    3  502    0  0.87136661225E+03 -0.11520440323E+04  0.75229869754E+03  0.16286308838E+04  0.25500000920E-02 0.  1.
       -2    1    3    3    0  502 -0.87136661225E+03  0.11520440323E+04  0.47862845313E+03  0.15216998460E+04  0.25500000920E-02 0. -1.
</event>
<event>
 5   0  0.8263673E-07  0.2901784E+04  0.7818609E-02  0.8272347E-01
       -1   -1    0    0    0  501  0.00000000000E+00  0.00000000000E+00  0.16397114157E+04  0.16397114157E+04  0.50400001928E-02 0. -1.
        1   -1    0    0  501    0  0.00000000000E+00  0.00000000000E+00 -0.12838156654E+04  0.12838156654E+04  0.50400001928E-02 0.  1.
    10030    2    1    2    0    0  0.00000000000E+00  0.00000000000E+00  0.35589575031E+03  0.29235270812E+04  0.29017837289E+04 0.  0.
        5    1    3    3  502    0 -0.12681182765E+03 -0.36396588876E+02 -0.12777521106E+04  0.12845538126E+04  0.46999998093E+01 0.  1.
       -5    1    3    3    0  502  0.12681182765E+03  0.36396588876E+02  0.16336478610E+04  0.16389732685E+04  0.46999998093E+01 0. -1.
</event>
<event>
 5   0  0.2425845E-06  0.2892460E+04  0.7818609E-02  0.8275124E-01
       -2   -1    0    0    0  501  0.00000000000E+00  0.00000000000E+00  0.15043562048E+04  0.15043562048E+04  0.25500000920E-02 0. -1.
        2   -1    0    0  501    0  0.00000000000E+00  0.00000000000E+00 -0.13903498035E+04  0.13903498035E+04  0.25500000920E-02 0.  1.
    10030    2    1    2    0    0  0.00000000000E+00  0.00000000000E+00  0.11400640128E+03  0.28947060083E+04  0.28924600973E+04 0.  0.
        2    1    3    3  502    0  0.46844655377E+03 -0.10923708020E+04 -0.76756932996E+03  0.14148776693E+04  0.25500000920E-02 0.  1.
       -2    1    3    3    0  502 -0.46844655377E+03  0.10923708020E+04  0.88157573124E+03  0.14798283389E+04  0.25500000920E-02 0. -1.
</event>
<event>
 5   0  0.8355946E-07  0.2893862E+04  0.7818609E-02  0.8274706E-01
        1   -1    0    0  501    0  0.00000000000E+00  0.00000000000E+00  0.22763866762E+04  0.22763866762E+04  0.50400001928E-02 0.  1.
       -1   -1    0    0    0  501  0.00000000000E+00  0.00000000000E+00 -0.91970716671E+03  0.91970716672E+03  0.50400001928E-02 0. -1.
    10030    2    1    2    0    0  0.00000000000E+00  0.00000000000E+00  0.13566795095E+04  0.31960938429E+04  0.28938618767E+04 0.  0.
        4    1    3    3  502    0 -0.27710461655E+03 -0.13680052490E+04  0.25722802469E+03  0.14192932041E+04  0.12699999809E+01 0. -1.
       -4    1    3    3    0  502  0.27710461655E+03  0.13680052490E+04  0.10994514848E+04  0.17768006388E+04  0.12699999809E+01 0.  1.
</event>
<event>
 5   0  0.2378690E-06  0.2904292E+04  0.7818609E-02  0.8271602E-01
       -2   -1    0    0    0  501  0.00000000000E+00  0.00000000000E+00  0.15447641368E+04  0.15447641368E+04  0.25500000920E-02 0.  1.
        2   -1    0    0  501    0  0.00000000000E+00  0.00000000000E+00 -0.13650805568E+04  0.13650805568E+04  0.25500000920E-02 0. -1.
    10030    2    1    2    0    0  0.00000000000E+00  0.00000000000E+00  0.17968358004E+03  0.29098446936E+04  0.29042916437E+04 0.  0.
        3    1    3    3  502    0  0.62318618538E+03 -0.56796697600E+03  0.12743797731E+04  0.15280678401E+04  0.10100000352E+00 0.  1.
       -3    1    3    3    0  502 -0.62318618538E+03  0.56796697600E+03 -0.10946961931E+04  0.13817768535E+04  0.10100000352E+00 0. -1.
</event>
<event>
 5   0  0.8483636E-07  0.2903034E+04  0.7818609E-02  0.8271975E-01
        1   -1    0    0  501    0  0.00000000000E+00  0.00000000000E+00  0.16873122802E+04  0.16873122802E+04  0.50400001928E-02 0. -1.
       -1   -1    0    0    0  501  0.00000000000E+00  0.00000000000E+00 -0.12486730239E+04  0.12486730239E+04  0.50400001928E-02 0.  1.
    10030    2    1    2    0    0  0.00000000000E+00  0.00000000000E+00  0.43863925628E+03  0.29359853042E+04  0.29030338112E+04 0.  0.
        2    1    3    3  502    0  0.23602290122E+03  0.70746515180E+03  0.14787203478E+04  0.16561484287E+04  0.25500000920E-02 0. -1.
       -2    1    3    3    0  502 -0.23602290122E+03 -0.70746515180E+03 -0.10400810915E+04  0.12798368755E+04  0.25500000920E-02 0.  1.
</event>
<event>
 5   0  0.2425845E-06  0.2906811E+04  0.7818609E-02  0.8270854E-01
        2   -1    0    0  501    0  0.00000000000E+00  0.00000000000E+00  0.15548493615E+04  0.15548493616E+04  0.25500000920E-02 0.  1.
       -2   -1    0    0    0  501  0.00000000000E+00  0.00000000000E+00 -0.13585802551E+04  0.13585802551E+04  0.25500000920E-02 0. -1.
    10030    2    1    2    0    0  0.00000000000E+00  0.00000000000E+00  0.19626910642E+03  0.29134296167E+04  0.29068110653E+04 0.  0.
        2    1    3    3  502    0 -0.24517734321E+03 -0.85050060868E+03 -0.10572800924E+04  0.13788779529E+04  0.25500000920E-02 0. -1.
       -2    1    3    3    0  502  0.24517734321E+03  0.85050060868E+03  0.12535491989E+04  0.15345516638E+04  0.25500000920E-02 0.  1.
</event>
<event>
 5   0  0.8947674E-07  0.2901166E+04  0.7818609E-02  0.8272531E-01
       -1   -1    0    0    0  501  0.00000000000E+00  0.00000000000E+00  0.90055627995E+03  0.90055627997E+03  0.50400001928E-02 0. -1.
        1   -1    0    0  501    0  0.00000000000E+00  0.00000000000E+00 -0.23365456969E+04  0.23365456969E+04  0.50400001928E-02 0.  1.
    10030    2    1    2    0    0  0.00000000000E+00  0.00000000000E+00 -0.14359894170E+04  0.32371019769E+04  0.29011659041E+04 0.  0.
        3    1    3    3  502    0  0.23721341427E+03 -0.10104539313E+04 -0.18486979613E+04  0.21201347867E+04  0.10100000352E+00 0.  1.
       -3    1    3    3    0  502 -0.23721341427E+03  0.10104539313E+04  0.41270854436E+03  0.11169671902E+04  0.10100000352E+00 0. -1.
</event>
<event>
 5   0  0.2425845E-06  0.2898847E+04  0.7818609E-02  0.8273221E-01
       -2   -1    0    0    0  501  0.00000000000E+00  0.00000000000E+00  0.19750427314E+04  0.19750427314E+04  0.25500000920E-02 0. -1.
        2   -1    0    0  501    0  0.00000000000E+00  0.00000000000E+00 -0.10636876255E+04  0.10636876255E+04  0.25500000920E-02 0.  1.
    10030    2    1    2    0    0  0.00000000000E+00  0.00000000000E+00  0.91135510592E+03  0.30387303569E+04  0.28988470213E+04 0.  0.
        2    1    3    3  502    0 -0.11269015305E+04 -0.89162397509E+03  0.65437131811E+03  0.15789560457E+04  0.25500000920E-02 0. -1.
       -2    1    3    3    0  502  0.11269015305E+04  0.89162397509E+03  0.25698378781E+03  0.14597743112E+04  0.25500000920E-02 0.  1.
</event>
<event>
 5   0  0.8263673E-07  0.2897491E+04  0.7818609E-02  0.8273624E-01
       -1   -1    0    0    0  501  0.00000000000E+00  0.00000000000E+00  0.17031239599E+04  0.17031239599E+04  0.50400001928E-02 0. -1.
        1   -1    0    0  501    0  0.00000000000E+00  0.00000000000E+00 -0.12323607925E+04  0.12323607925E+04  0.50400001928E-02 0.  1.
    10030    2    1    2    0    0  0.00000000000E+00  0.00000000000E+00  0.47076316748E+03  0.29354847524E+04  0.28974907716E+04 0.  0.
        5    1    3    3  502    0  0.45264571433E+03  0.98261444222E+03 -0.74079960949E+03  0.13111923719E+04  0.46999998093E+01 0.  1.
       -5    1    3    3    0  502 -0.45264571433E+03 -0.98261444222E+03  0.12115627770E+04  0.16242923805E+04  0.46999998093E+01 0. -1.
</event>
<event>
 5   0  0.8355946E-07  0.2900141E+04  0.7818609E-02  0.8272835E-01
       -1   -1    0    0    0  501  0.00000000000E+00  0.00000000000E+00  0.13874795157E+04  0.13874795157E+04  0.50400001928E-02 0. -1.
        1   -1    0    0  501    0  0.00000000000E+00  0.00000000000E+00 -0.15154854768E+04  0.15154854769E+04  0.50400001928E-02 0.  1.
    10030    2    1    2    0    0  0.00000000000E+00  0.00000000000E+00 -0.12800596116E+03  0.29029649925E+04  0.29001414141E+04 0.  0.
        4    1    3    3  502    0 -0.62878675249E+03  0.91263494618E+03 -0.10000220152E+04  0.14927561653E+04  0.12699999809E+01 0.  1.
       -4    1    3    3    0  502  0.62878675249E+03 -0.91263494618E+03  0.87201605406E+03  0.14102088273E+04  0.12699999809E+01 0. -1.
</event>
<event>
 5   0  0.2378690E-06  0.2803391E+04  0.7818609E-02  0.8302216E-01
        2   -1    0    0  501    0  0.00000000000E+00  0.00000000000E+00  0.12258184398E+04  0.12258184398E+04  0.25500000920E-02 0. -1.
       -2   -1    0    0    0  501  0.00000000000E+00  0.00000000000E+00 -0.16028065194E+04  0.16028065194E+04  0.25500000920E-02 0.  1.
    10030    2    1    2    0    0  0.00000000000E+00  0.00000000000E+00 -0.37698807966E+03  0.28286249592E+04  0.28033906520E+04 0.  0.
        3    1    3    3  502    0 -0.83487012581E+02  0.80945050355E+03  0.96308092224E+03  0.12608350693E+04  0.10100000352E+00 0. -1.
       -3    1    3    3    0  502  0.83487012581E+02 -0.80945050355E+03 -0.13400690019E+04  0.15677898899E+04  0.10100000352E+00 0.  1.
</event>
<event>
 5   0  0.8947674E-07  0.2899199E+04  0.7818609E-02  0.8273116E-01
        1   -1    0    0  501    0  0.00000000000E+00  0.00000000000E+00  0.22013017817E+04  0.22013017817E+04  0.50400001928E-02 0. -1.
       -1   -1    0    0    0  501  0.00000000000E+00  0.00000000000E+00 -0.95458894863E+03  0.95458894864E+03  0.50400001928E-02 0.  1.
    10030    2    1    2    0    0  0.00000000000E+00  0.00000000000E+00  0.12467128331E+04  0.31558907304E+04  0.28991987538E+04 0.  0.
        3    1    3    3  502    0  0.99397524773E+03  0.37034762386E+03 -0.45214770050E+03  0.11530748930E+04  0.10100000352E+00 0.  1.
       -3    1    3    3    0  502 -0.99397524773E+03 -0.37034762386E+03  0.16988605336E+04  0.20028158374E+04  0.10100000352E+00 0. -1.
</event>
<event>
 5   0  0.8483636E-07  0.2869368E+04  0.7818609E-02  0.8282050E-01
       -1   -1    0    0    0  501  0.00000000000E+00  0.00000000000E+00  0.20678549058E+04  0.20678549058E+04  0.50400001928E-02 0. -1.
        1   -1    0    0  501    0  0.00000000000E+00  0.00000000000E+00 -0.99538818808E+03  0.99538818809E+03  0.50400001928E-02 0.  1.
    10030    2    1    2    0    0  0.00000000000E+00  0.00000000000E+00  0.10724667177E+04  0.30632430939E+04  0.28693681171E+04 0.  0.
        2    1    3    3  502    0 -0.12120611430E+04  0.63320040854E+03  0.99946816457E+03  0.16938038800E+04  0.25500000920E-02 0. -1.
       -2    1    3    3    0  502  0.12120611430E+04 -0.63320040854E+03  0.72998553132E+02  0.13694392139E+04  0.25500000920E-02 0.  1.
</event>
<event>
 5   0  0.8483636E-07  0.2933665E+04  0.7818609E-02  0.8262931E-01
       -1   -1    0    0    0  501  0.00000000000E+00  0.00000000000E+00  0.14537131282E+04  0.14537131282E+04  0.50400001928E-02 0. -1.
        1   -1    0    0  501    0  0.00000000000E+00  0.00000000000E+00 -0.14800706987E+04  0.14800706987E+04  0.50400001928E-02 0.  1.
    10030    2    1    2    0    0  0.00000000000E+00  0.00000000000E+00 -0.26357570513E+02  0.29337838270E+04  0.29336654243E+04 0.  0.
        2    1    3    3  502    0 -0.12900214603E+04  0.52514334851E+03 -0.47327050122E+03  0.14710254491E+04  0.25500000920E-02 0.  1.
       -2    1    3    3    0  502  0.12900214603E+04 -0.52514334851E+03  0.44691293071E+03  0.14627583779E+04  0.25500000920E-02 0. -1.
</event>
<event>
 5   0  0.2360103E-06  0.2900089E+04  0.7818609E-02  0.8272851E-01
       -2   -1    0    0    0  501  0.00000000000E+00  0.00000000000E+00  0.16063286788E+04  0.16063286788E+04  0.25500000920E-02 0.  1.
        2   -1    0    0  501    0  0.00000000000E+00  0.00000000000E+00 -0.13089657452E+04  0.13089657452E+04  0.25500000920E-02 0. -1.
    10030    2    1    2    0    0  0.00000000000E+00  0.00000000000E+00  0.29736293361E+03  0.29152944240E+04  0.29000891132E+04 0.  0.
        4    1    3    3  502    0  0.21888912485E+03  0.68618531726E+03  0.14137968640E+04  0.15866902420E+04  0.12699999809E+01 0.  1.
       -4    1    3    3    0  502 -0.21888912485E+03 -0.68618531726E+03 -0.11164339304E+04  0.13286041820E+04  0.12699999809E+01 0. -1.
</event>
<event>
 5   0  0.8357118E-07  0.2898144E+04  0.7818609E-02  0.8273430E-01
        1   -1    0    0  501    0  0.00000000000E+00  0.00000000000E+00  0.14160095053E+04  0.14160095053E+04  0.50400001928E-02 0. -1.
       -1   -1    0    0    0  501  0.00000000000E+00  0.00000000000E+00 -0.14829066304E+04  0.14829066304E+04  0.50400001928E-02 0.  1.
    10030    2    1    2    0    0  0.00000000000E+00  0.00000000000E+00 -0.66897125145E+02  0.28989161357E+04  0.28981441538E+04 0.  0.
        1    1    3    3  502    0  0.29992309532E+03 -0.36396968324E+03  0.13370923469E+04  0.14178306449E+04  0.50400001928E-02 0. -1.
       -1    1    3    3    0  502 -0.29992309532E+03  0.36396968324E+03 -0.14039894720E+04  0.14810854908E+04  0.50400001928E-02 0.  1.
</event>
<event>
 5   0  0.8357118E-07  0.2896544E+04  0.7818609E-02  0.8273906E-01
       -1   -1    0    0    0  501  0.00000000000E+00  0.00000000000E+00  0.17633410092E+04  0.17633410092E+04  0.50400001928E-02 0. -1.
        1   -1    0    0  501    0  0.00000000000E+00  0.00000000000E+00 -0.11894990436E+04  0.11894990436E+04  0.50400001928E-02 0.  1.
    10030    2    1    2    0    0  0.00000000000E+00  0.00000000000E+00  0.57384196558E+03  0.29528400528E+04  0.28965444543E+04 0.  0.
        1    1    3    3  502    0 -0.73006851158E+03  0.76750207726E+03  0.12937563002E+04  0.16720839795E+04  0.50400001928E-02 0. -1.
       -1    1    3    3    0  502  0.73006851158E+03 -0.76750207726E+03 -0.71991433458E+03  0.12807560733E+04  0.50400001928E-02 0.  1.
</event>
<event>
 5   0  0.2325590E-06  0.2898626E+04  0.7818609E-02  0.8273286E-01
        2   -1    0    0  501    0  0.00000000000E+00  0.00000000000E+00  0.18242692670E+04  0.18242692670E+04  0.25500000920E-02 0.  1.
       -2   -1    0    0    0  501  0.00000000000E+00  0.00000000000E+00 -0.11514246928E+04  0.11514246928E+04  0.25500000920E-02 0. -1.
    10030    2    1    2    0    0  0.00000000000E+00  0.00000000000E+00  0.67284457420E+03  0.29756939599E+04  0.28986263508E+04 0.  0.
        5    1    3    3  502    0 -0.98059276949E+03  0.22314745468E+02 -0.75891663100E+03  0.12401760642E+04  0.46999998093E+01 0. -1.
       -5    1    3    3    0  502  0.98059276949E+03 -0.22314745468E+02  0.14317612052E+04  0.17355178957E+04  0.46999998093E+01 0.  1.
</event>
<event>
 5   0  0.2304435E-06  0.2900481E+04  0.7818609E-02  0.8272734E-01
        2   -1    0    0  501    0  0.00000000000E+00  0.00000000000E+00  0.18984108330E+04  0.18984108330E+04  0.25500000920E-02 0.  1.
       -2   -1    0    0    0  501  0.00000000000E+00  0.00000000000E+00 -0.11078727950E+04  0.11078727950E+04  0.25500000920E-02 0. -1.
    10030    2    1    2    0    0  0.00000000000E+00  0.00000000000E+00  0.79053803804E+03  0.30062836280E+04  0.29004811433E+04 0.  0.
        1    1    3    3  502    0  0.89736056390E+03  0.10645094070E+04 -0.25445709788E+02  0.13925098719E+04  0.50400001928E-02 0.  1.
       -1    1    3    3    0  502 -0.89736056390E+03 -0.10645094070E+04  0.81598374783E+03  0.16137737561E+04  0.50400001928E-02 0. -1.
</event>
<event>
 5   0  0.2304435E-06  0.2894902E+04  0.7818609E-02  0.8274396E-01
        2   -1    0    0  501    0  0.00000000000E+00  0.00000000000E+00  0.17158471968E+04  0.17158471968E+04  0.25500000920E-02 0. -1.
       -2   -1    0    0    0  501  0.00000000000E+00  0.00000000000E+00 -0.12210375535E+04  0.12210375535E+04  0.25500000920E-02 0.  1.
    10030    2    1    2    0    0  0.00000000000E+00  0.00000000000E+00  0.49480964329E+03  0.29368847503E+04  0.28949016311E+04 0.  0.
        1    1    3    3  502    0  0.33777134037E+03 -0.13124762408E+04  0.76313789023E+03  0.15553336622E+04  0.50400001928E-02 0. -1.
       -1    1    3    3    0  502 -0.33777134037E+03  0.13124762408E+04 -0.26832824694E+03  0.13815510882E+04  0.50400001928E-02 0.  1.
</event>
<event>
 5   0  0.8947674E-07  0.2901369E+04  0.7818609E-02  0.8272470E-01
        1   -1    0    0  501    0  0.00000000000E+00  0.00000000000E+00  0.22646972605E+04  0.22646972605E+04  0.50400001928E-02 0.  1.
       -1   -1    0    0    0  501  0.00000000000E+00  0.00000000000E+00 -0.92925677543E+03  0.92925677545E+03  0.50400001928E-02 0. -1.
    10030    2    1    2    0    0  0.00000000000E+00  0.00000000000E+00  0.13354404850E+04  0.31939540359E+04  0.29013688312E+04 0.  0.
        3    1    3    3  502    0  0.92223697520E+02  0.12927229271E+03  0.22551007083E+04  0.22606847969E+04  0.10100000352E+00 0.  1.
       -3    1    3    3    0  502 -0.92223697520E+02 -0.12927229271E+03 -0.91966022328E+03  0.93326923903E+03  0.10100000352E+00 0. -1.
</event>
<event>
 5   0  0.2325590E-06  0.2978871E+04  0.7818609E-02  0.8249790E-01
       -2   -1    0    0    0  501  0.00000000000E+00  0.00000000000E+00  0.13945718613E+04  0.13945718613E+04  0.25500000920E-02 0. -1.
        2   -1    0    0  501    0  0.00000000000E+00  0.00000000000E+00 -0.15907516339E+04  0.15907516339E+04  0.25500000920E-02 0.  1.
    10030    2    1    2    0    0  0.00000000000E+00  0.00000000000E+00 -0.19617977255E+03  0.29853234952E+04  0.29788705691E+04 0.  0.
        5    1    3    3  502    0 -0.38976008985E+03  0.10584516999E+04 -0.10729058195E+04  0.15567215282E+04  0.46999998093E+01 0.  1.
       -5    1    3    3    0  502  0.38976008985E+03 -0.10584516999E+04  0.87672604695E+03  0.14286019670E+04  0.46999998093E+01 0. -1.
</event>
<event>
 5   0  0.2425845E-06  0.2923590E+04  0.7818609E-02  0.8265893E-01
        2   -1    0    0  501    0  0.00000000000E+00  0.00000000000E+00  0.15159850960E+04  0.15159850960E+04  0.25500000920E-02 0. -1.
       -2   -1    0    0    0  501  0.00000000000E+00  0.00000000000E+00 -0.14095419290E+04  0.14095419290E+04  0.25500000920E-02 0.  1.
    10030    2    1    2    0    0  0.00000000000E+00  0.00000000000E+00  0.10644316704E+03  0.29255270250E+04  0.29235899553E+04 0.  0.
        2    1    3    3  502    0 -0.11160848666E+04 -0.86422050273E+03  0.43337071049E+03  0.14765949612E+04  0.25500000920E-02 0.  1.
       -2    1    3    3    0  502  0.11160848666E+04  0.86422050273E+03 -0.32692754345E+03  0.14489320638E+04  0.25500000920E-02 0. -1.
</event>
<event>
 5   0  0.8263673E-07  0.2902598E+04  0.7818609E-02  0.8272105E-01
       -1   -1    0    0    0  501  0.00000000000E+00  0.00000000000E+00  0.11809518841E+04  0.11809518841E+04  0.50400001928E-02 0. -1.
        1   -1    0    0  501    0  0.00000000000E+00  0.00000000000E+00 -0.17835353102E+04  0.17835353102E+04  0.50400001928E-02 0.  1.
    10030    2    1    2    0    0  0.00000000000E+00  0.00000000000E+00 -0.60258342606E+03  0.29644871944E+04  0.29025984118E+04 0.  0.
        5    1    3    3  502    0  0.30090610717E+03  0.11571838895E+04 -0.11414046843E+04  0.16530111260E+04  0.46999998093E+01 0.  1.
       -5    1    3    3    0  502 -0.30090610717E+03 -0.11571838895E+04  0.53882125820E+03  0.13114760683E+04  0.46999998093E+01 0. -1.
</event>
<event>
 5   0  0.2304435E-06  0.2918556E+04  0.7818609E-02  0.8267378E-01
        2   -1    0    0  501    0  0.00000000000E+00  0.00000000000E+00  0.10631398473E+04  0.10631398473E+04  0.25500000920E-02 0.  1.
       -2   -1    0    0    0  501  0.00000000000E+00  0.00000000000E+00 -0.20030223191E+04  0.20030223191E+04  0.25500000920E-02 0. -1.
    10030    2    1    2    0    0  0.00000000000E+00  0.00000000000E+00 -0.93988247172E+03  0.30661621664E+04  0.29185563846E+04 0.  0.
        1    1    3    3  502    0  0.12201664737E+03 -0.11460124208E+04  0.47046142302E+03  0.12448158423E+04  0.50400001928E-02 0.  1.
       -1    1    3    3    0  502 -0.12201664737E+03  0.11460124208E+04 -0.14103438947E+04  0.18213463241E+04  0.50400001928E-02 0. -1.
</event>
<event>
 5   0  0.2360103E-06  0.2901478E+04  0.7818609E-02  0.8272438E-01
       -2   -1    0    0    0  501  0.00000000000E+00  0.00000000000E+00  0.13683902250E+04  0.13683902250E+04  0.25500000920E-02 0. -1.
        2   -1    0    0  501    0  0.00000000000E+00  0.00000000000E+00 -0.15380435985E+04  0.15380435985E+04  0.25500000920E-02 0.  1.
    10030    2    1    2    0    0  0.00000000000E+00  0.00000000000E+00 -0.16965337348E+03  0.29064338236E+04  0.29014781239E+04 0.  0.
        4    1    3    3  502    0 -0.47175775566E+03 -0.84848428923E+03 -0.11647037895E+04  0.15162511333E+04  0.12699999809E+01 0.  1.
       -4    1    3    3    0  502  0.47175775566E+03  0.84848428923E+03  0.99505041598E+03  0.13901826903E+04  0.12699999809E+01 0. -1.
</event>
<event>
 5   0  0.2304435E-06  0.2885866E+04  0.7818609E-02  0.8277095E-01
        2   -1    0    0  501    0  0.00000000000E+00  0.00000000000E+00  0.19716831391E+04  0.19716831391E+04  0.25500000920E-02 0.  1.
       -2   -1    0    0    0  501  0.00000000000E+00  0.00000000000E+00 -0.10559791723E+04  0.10559791723E+04  0.25500000920E-02 0. -1.
    10030    2    1    2    0    0  0.00000000000E+00  0.00000000000E+00  0.91570396684E+03  0.30276623114E+04  0.28858664759E+04 0.  0.
        1    1    3    3  502    0  0.14138788889E+04 -0.12039558657E+03  0.73245225127E+03  0.15968828730E+04  0.50400001928E-02 0. -1.
       -1    1    3    3    0  502 -0.14138788889E+04  0.12039558657E+03  0.18325171557E+03  0.14307794383E+04  0.50400001928E-02 0.  1.
</event>
<event>
 5   0  0.2425845E-06  0.2900140E+04  0.7818609E-02  0.8272836E-01
       -2   -1    0    0    0  501  0.00000000000E+00  0.00000000000E+00  0.92196156989E+03  0.92196156990E+03  0.25500000920E-02 0. -1.
        2   -1    0    0  501    0  0.00000000000E+00  0.00000000000E+00 -0.22806837957E+04  0.22806837957E+04  0.25500000920E-02 0.  1.
    10030    2    1    2    0    0  0.00000000000E+00  0.00000000000E+00 -0.13587222258E+04  0.32026453656E+04  0.29001398675E+04 0.  0.
        2    1    3    3  502    0 -0.13749064477E+04 -0.32118611981E+03 -0.31448064913E+03  0.14465221541E+04  0.25500000920E-02 0.  1.
       -2    1    3    3    0  502  0.13749064477E+04  0.32118611981E+03 -0.10442415767E+04  0.17561232115E+04  0.25500000920E-02 0. -1.
</event>
<event>
 5   0  0.8483636E-07  0.2904721E+04  0.7818609E-02  0.8271474E-01
       -1   -1    0    0    0  501  0.00000000000E+00  0.00000000000E+00  0.17076950397E+04  0.17076950397E+04  0.50400001928E-02 0. -1.
        1   -1    0    0  501    0  0.00000000000E+00  0.00000000000E+00 -0.12352037633E+04  0.12352037634E+04  0.50400001928E-02 0.  1.
    10030    2    1    2    0    0  0.00000000000E+00  0.00000000000E+00  0.47249127637E+03  0.29428988031E+04  0.29047212188E+04 0.  0.
        2    1    3    3  502    0 -0.10400814577E+04  0.78631367522E+03  0.88441406666E+03  0.15755147971E+04  0.25500000920E-02 0. -1.
       -2    1    3    3    0  502  0.10400814577E+04 -0.78631367522E+03 -0.41192279029E+03  0.13673840060E+04  0.25500000920E-02 0.  1.
</event>
<event>
 5   0  0.8483636E-07  0.2899828E+04  0.7818609E-02  0.8272929E-01
       -1   -1    0    0    0  501  0.00000000000E+00  0.00000000000E+00  0.99703578581E+03  0.99703578583E+03  0.50400001928E-02 0.  1.
        1   -1    0    0  501    0  0.00000000000E+00  0.00000000000E+00 -0.21084999416E+04  0.21084999416E+04  0.50400001928E-02 0. -1.
    10030    2    1    2    0    0  0.00000000000E+00  0.00000000000E+00 -0.11114641558E+04  0.31055357274E+04  0.28998275095E+04 0.  0.
        2    1    3    3  502    0  0.12518431450E+04 -0.70933874208E+03 -0.36422515276E+03  0.14842279719E+04  0.25500000920E-02 0. -1.
       -2    1    3    3    0  502 -0.12518431450E+04  0.70933874208E+03 -0.74723900302E+03  0.16213077556E+04  0.25500000920E-02 0.  1.
</event>
<event>
 5   0  0.2304435E-06  0.2891702E+04  0.7818609E-02  0.8275351E-01
        2   -1    0    0  501    0  0.00000000000E+00  0.00000000000E+00  0.92241436160E+03  0.92241436161E+03  0.25500000920E-02 0.  1.
       -2   -1    0    0    0  501  0.00000000000E+00  0.00000000000E+00 -0.22663191984E+04  0.22663191984E+04  0.25500000920E-02 0. -1.
    10030    2    1    2    0    0  0.00000000000E+00  0.00000000000E+00 -0.13439048368E+04  0.31887335600E+04  0.28917021815E+04 0.  0.
        1    1    3    3  502    0  0.47509521545E+02  0.37439985460E+03 -0.22110460844E+04  0.22430241178E+04  0.50400001928E-02 0. -1.
       -1    1    3    3    0  502 -0.47509521545E+02 -0.37439985460E+03  0.86714124759E+03  0.94570944220E+03  0.50400001928E-02 0.  1.
</event>
<event>
 5   0  0.8947674E-07  0.2897912E+04  0.7818609E-02  0.8273499E-01
        1   -1    0    0  501    0  0.00000000000E+00  0.00000000000E+00  0.13573156964E+04  0.13573156964E+04  0.50400001928E-02 0.  1.
       -1   -1    0    0    0  501  0.00000000000E+00  0.00000000000E+00 -0.15467834524E+04  0.15467834524E+04  0.50400001928E-02 0. -1.
    10030    2    1    2    0    0  0.00000000000E+00  0.00000000000E+00 -0.18946775598E+03  0.29040991489E+04  0.28979119786E+04 0.  0.
        3    1    3    3  502    0 -0.12676015227E+04 -0.44975362439E+03  0.44528721816E+03  0.14168177934E+04  0.10100000352E+00 0.  1.
       -3    1    3    3    0  502  0.12676015227E+04  0.44975362439E+03 -0.63475497414E+03  0.14872813555E+04  0.10100000352E+00 0. -1.
</event>
<event>
 5   0  0.8263673E-07  0.2900267E+04  0.7818609E-02  0.8272798E-01
       -1   -1    0    0    0  501  0.00000000000E+00  0.00000000000E+00  0.11260486115E+04  0.11260486115E+04  0.50400001928E-02 0.  1.
        1   -1    0    0  501    0  0.00000000000E+00  0.00000000000E+00 -0.18674920355E+04  0.18674920355E+04  0.50400001928E-02 0. -1.
    10030    2    1    2    0    0  0.00000000000E+00  0.00000000000E+00 -0.74144342406E+03  0.29935406470E+04  0.29002667557E+04 0.  0.
        5    1    3    3  502    0 -0.56422974264E+03 -0.83192437662E+03 -0.14495201709E+04  0.17639683066E+04  0.46999998093E+01 0. -1.
       -5    1    3    3    0  502  0.56422974264E+03  0.83192437662E+03  0.70807674684E+03  0.12295723404E+04  0.46999998093E+01 0.  1.
</event>
<event>
 5   0  0.2378690E-06  0.2899824E+04  0.7818609E-02  0.8272930E-01
        2   -1    0    0  501    0  0.00000000000E+00  0.00000000000E+00  0.30473313872E+04  0.30473313872E+04  0.25500000920E-02 0.  1.
       -2   -1    0    0    0  501  0.00000000000E+00  0.00000000000E+00 -0.68986432430E+03  0.68986432431E+03  0.25500000920E-02 0. -1.
    10030    2    1    2    0    0  0.00000000000E+00  0.00000000000E+00  0.23574670629E+04  0.37371957115E+04  0.28998242763E+04 0.  0.
        3    1    3    3  502    0  0.36664317807E+03  0.38552587998E+03 -0.55951921738E+03  0.77208755266E+03  0.10100000352E+00 0. -1.
       -3    1    3    3    0  502 -0.36664317807E+03 -0.38552587998E+03  0.29169862803E+04  0.29651081589E+04  0.10100000352E+00 0.  1.
</event>
<event>
 5   0  0.8355946E-07  0.2879380E+04  0.7818609E-02  0.8279039E-01
        1   -1    0    0  501    0  0.00000000000E+00  0.00000000000E+00  0.17141150480E+04  0.17141150480E+04  0.50400001928E-02 0. -1.
       -1   -1    0    0    0  501  0.00000000000E+00  0.00000000000E+00 -0.12091995438E+04  0.12091995438E+04  0.50400001928E-02 0.  1.
    10030    2    1    2    0    0  0.00000000000E+00  0.00000000000E+00  0.50491550419E+03  0.29233145918E+04  0.28793798875E+04 0.  0.
        4    1    3    3  502    0  0.71665217491E+03  0.73794058643E+03 -0.77016444228E+03  0.12850297778E+04  0.12699999809E+01 0.  1.
       -4    1    3    3    0  502 -0.71665217491E+03 -0.73794058643E+03  0.12750799465E+04  0.16382848140E+04  0.12699999809E+01 0. -1.
</event>
<event>
 5   0  0.2425845E-06  0.2903220E+04  0.7818609E-02  0.8271920E-01
        2   -1    0    0  501    0  0.00000000000E+00  0.00000000000E+00  0.18703436123E+04  0.18703436123E+04  0.25500000920E-02 0.  1.
       -2   -1    0    0    0  501  0.00000000000E+00  0.00000000000E+00 -0.11266229913E+04  0.11266229913E+04  0.25500000920E-02 0. -1.
    10030    2    1    2    0    0  0.00000000000E+00  0.00000000000E+00  0.74372062097E+03  0.29969666036E+04  0.29032203604E+04 0.  0.
        2    1    3    3  502    0 -0.97708425356E+03  0.54755267011E+03  0.13250756141E+04  0.17350311087E+04  0.25500000920E-02 0.  1.
       -2    1    3    3    0  502  0.97708425356E+03 -0.54755267011E+03 -0.58135499314E+03  0.12619354948E+04  0.25500000920E-02 0. -1.
</event>
<event>
 5   0  0.8357118E-07  0.2899073E+04  0.7818609E-02  0.8273153E-01
        1   -1    0    0  501    0  0.00000000000E+00  0.00000000000E+00  0.16852621250E+04  0.16852621250E+04  0.50400001928E-02 0.  1.
       -1   -1    0    0    0  501  0.00000000000E+00  0.00000000000E+00 -0.12467831013E+04  0.12467831013E+04  0.50400001928E-02 0. -1.
    10030    2    1    2    0    0  0.00000000000E+00  0.00000000000E+00  0.43847902373E+03  0.29320452263E+04  0.28990731890E+04 0.  0.
        1    1    3    3  502    0  0.63967964316E+03  0.17703737666E+03 -0.10840687502E+04  0.12711165697E+04  0.50400001928E-02 0. -1.
       -1    1    3    3    0  502 -0.63967964316E+03 -0.17703737666E+03  0.15225477739E+04  0.16609286566E+04  0.50400001928E-02 0.  1.
</event>
<event>
 5   0  0.8357118E-07  0.2911779E+04  0.7818609E-02  0.8269382E-01
        1   -1    0    0  501    0  0.00000000000E+00  0.00000000000E+00  0.11730253960E+04  0.11730253960E+04  0.50400001928E-02 0. -1.
       -1   -1    0    0    0  501  0.00000000000E+00  0.00000000000E+00 -0.18069636045E+04  0.18069636045E+04  0.50400001928E-02 0.  1.
    10030    2    1    2    0    0  0.00000000000E+00  0.00000000000E+00 -0.63393820851E+03  0.29799890005E+04  0.29117789735E+04 0.  0.
        1    1    3    3  502    0 -0.58217773266E+02  0.50870752464E+03 -0.17117751873E+04  0.17867140080E+04  0.50400001928E-02 0.  1.
       -1    1    3    3    0  502  0.58217773266E+02 -0.50870752464E+03  0.10778369788E+04  0.11932749924E+04  0.50400001928E-02 0. -1.
</event>
<event>
 5   0  0.2325590E-06  0.2894256E+04  0.7818609E-02  0.8274589E-01
        2   -1    0    0  501    0  0.00000000000E+00  0.00000000000E+00  0.18753811431E+04  0.18753811431E+04  0.25500000920E-02 0. -1.
       -2   -1    0    0    0  501  0.00000000000E+00  0.00000000000E+00 -0.11166686982E+04  0.11166686982E+04  0.25500000920E-02 0.  1.
    10030    2    1    2    0    0  0.00000000000E+00  0.00000000000E+00  0.75871244487E+03  0.29920498412E+04  0.28942559801E+04 0.  0.
        5    1    3    3  502    0  0.10777587270E+04 -0.95234720516E+03  0.21385873021E+03  0.14540587056E+04  0.46999998093E+01 0.  1.
       -5    1    3    3    0  502 -0.10777587270E+04  0.95234720516E+03  0.54485371466E+03  0.15379911356E+04  0.46999998093E+01 0. -1.
</event>
<event>
 5   0  0.8947674E-07  0.2903510E+04  0.7818609E-02  0.8271834E-01
        1   -1    0    0  501    0  0.00000000000E+00  0.00000000000E+00  0.19333927085E+04  0.19333927085E+04  0.50400001928E-02 0. -1.
       -1   -1    0    0    0  501  0.00000000000E+00  0.00000000000E+00 -0.10901009038E+04  0.10901009038E+04  0.50400001928E-02 0.  1.
    10030    2    1    2    0    0  0.00000000000E+00  0.00000000000E+00  0.84329180466E+03  0.30234936123E+04  0.29035103850E+04 0.  0.
        3    1    3    3  502    0 -0.11247309321E+03  0.56279199035E+03 -0.96695347035E+03  0.11244483292E+04  0.10100000352E+00 0.  1.
       -3    1    3    3    0  502  0.11247309321E+03 -0.56279199035E+03  0.18102452750E+04  0.18990452830E+04  0.10100000352E+00 0. -1.
</event>
<event>
 5   0  0.8263673E-07  0.3094912E+04  0.7818609E-02  0.8217136E-01
       -1   -1    0    0    0  501  0.00000000000E+00  0.00000000000E+00  0.10066513610E+04  0.10066513610E+04  0.50400001928E-02 0.  1.
        1   -1    0    0  501    0  0.00000000000E+00  0.00000000000E+00 -0.23787970765E+04  0.23787970765E+04  0.50400001928E-02 0. -1.
    10030    2    1    2    0    0  0.00000000000E+00  0.00000000000E+00 -0.13721457155E+04  0.33854484375E+04  0.30949115106E+04 0.  0.
        5    1    3    3  502    0 -0.44973083395E+03  0.89808833754E+03 -0.19737725771E+04  0.22146378398E+04  0.46999998093E+01 0. -1.
       -5    1    3    3    0  502  0.44973083395E+03 -0.89808833754E+03  0.60162686164E+03  0.11708105977E+04  0.46999998093E+01 0.  1.
</event>
<event>
 5   0  0.2425845E-06  0.2871504E+04  0.7818609E-02  0.8281407E-01
        2   -1    0    0  501    0  0.00000000000E+00  0.00000000000E+00  0.19913418524E+04  0.19913418524E+04  0.25500000920E-02 0.  1.
       -2   -1    0    0    0  501  0.00000000000E+00  0.00000000000E+00 -0.10351730210E+04  0.10351730210E+04  0.25500000920E-02 0. -1.
    10030    2    1    2    0    0  0.00000000000E+00  0.00000000000E+00  0.95616883136E+03  0.30265148734E+04  0.28715036905E+04 0.  0.
        2    1    3    3  502    0 -0.51908899432E+03 -0.61463589235E+03  0.17314610285E+04  0.19092375330E+04  0.25500000920E-02 0.  1.
       -2    1    3    3    0  502  0.51908899432E+03  0.61463589235E+03 -0.77529219718E+03  0.11172773403E+04  0.25500000920E-02 0. -1.
</event>
<event>
 5   0  0.2360103E-06  0.2899401E+04  0.7818609E-02  0.8273056E-01
        2   -1    0    0  501    0  0.00000000000E+00  0.00000000000E+00  0.18523421017E+04  0.18523421017E+04  0.25500000920E-02 0. -1.
       -2   -1    0    0    0  501  0.00000000000E+00  0.00000000000E+00 -0.11345809536E+04  0.11345809536E+04  0.25500000920E-02 0.  1.
    10030    2    1    2    0    0  0.00000000000E+00  0.00000000000E+00  0.71776114811E+03  0.29869230553E+04  0.28994013645E+04 0.  0.
        4    1    3    3  502    0  0.20725745795E+03  0.14310718404E+04  0.46548462581E+03  0.15190786075E+04  0.12699999809E+01 0. -1.
       -4    1    3    3    0  502 -0.20725745795E+03 -0.14310718404E+04  0.25227652230E+03  0.14678444477E+04  0.12699999809E+01 0.  1.
</event>
<event>
 5   0  0.8947674E-07  0.2882204E+04  0.7818609E-02  0.8278192E-01
        1   -1    0    0  501    0  0.00000000000E+00  0.00000000000E+00  0.16402959335E+04  0.16402959335E+04  0.50400001928E-02 0.  1.
       -1   -1    0    0    0  501  0.00000000000E+00  0.00000000000E+00 -0.12660979798E+04  0.12660979798E+04  0.50400001928E-02 0. -1.
    10030    2    1    2    0    0  0.00000000000E+00  0.00000000000E+00  0.37419795372E+03  0.29063939133E+04  0.28822042729E+04 0.  0.
        3    1    3    3  502    0  0.61836601667E+03  0.10429096685E+04  0.97257042851E+03  0.15543263351E+04  0.10100000352E+00 0.  1.
       -3    1    3    3    0  502 -0.61836601667E+03 -0.10429096685E+04 -0.59837247479E+03  0.13520675782E+04  0.10100000352E+00 0. -1.
</event>
<event>
 5   0  0.2425845E-06  0.2887747E+04  0.7818609E-02  0.8276533E-01
        2   -1    0    0  501    0  0.00000000000E+00  0.00000000000E+00  0.11800570242E+04  0.11800570242E+04  0.25500000920E-02 0. -1.
       -2   -1    0    0    0  501  0.00000000000E+00  0.00000000000E+00 -0.17666688894E+04  0.17666688894E+04  0.25500000920E-02 0.  1.
    10030    2    1    2    0    0  0.00000000000E+00  0.00000000000E+00 -0.58661186519E+03  0.29467259137E+04  0.28877465488E+04 0.  0.
        2    1    3    3  502    0 -0.10214887030E+04  0.30425582690E+03  0.70063066335E+03  0.12754975912E+04  0.25500000920E-02 0. -1.
       -2    1    3    3    0  502  0.10214887030E+04 -0.30425582690E+03 -0.12872425285E+04  0.16712283225E+04  0.25500000920E-02 0.  1.
</event>
<event>
 5   0  0.2360103E-06  0.2880844E+04  0.7818609E-02  0.8278600E-01
       -2   -1    0    0    0  501  0.00000000000E+00  0.00000000000E+00  0.93845814279E+03  0.93845814280E+03  0.25500000920E-02 0. -1.
        2   -1    0    0  501    0  0.00000000000E+00  0.00000000000E+00 -0.22108767032E+04  0.22108767032E+04  0.25500000920E-02 0.  1.
    10030    2    1    2    0    0  0.00000000000E+00  0.00000000000E+00 -0.12724185604E+04  0.31493348460E+04  0.28808437964E+04 0.  0.
        4    1    3    3  502    0 -0.96529902629E+03  0.42852498226E+03  0.43455518784E+03  0.11420489021E+04  0.12699999809E+01 0. -1.
       -4    1    3    3    0  502  0.96529902629E+03 -0.42852498226E+03 -0.17069737483E+04  0.20072859440E+04  0.12699999809E+01 0.  1.
</event>
<event>
 5   0  0.2378690E-06  0.2890132E+04  0.7818609E-02  0.8275820E-01
       -2   -1    0    0    0  501  0.00000000000E+00  0.00000000000E+00  0.12958919517E+04  0.12958919517E+04  0.25500000920E-02 0.  1.
        2   -1    0    0  501    0  0.00000000000E+00  0.00000000000E+00 -0.16114115383E+04  0.16114115383E+04  0.25500000920E-02 0. -1.
    10030    2    1    2    0    0  0.00000000000E+00  0.00000000000E+00 -0.31551958662E+03  0.29073034900E+04  0.28901316533E+04 0.  0.
        3    1    3    3  502    0  0.18767067223E+03  0.10761757613E+04  0.79382085913E+03  0.13503799899E+04  0.10100000352E+00 0.  1.
       -3    1    3    3    0  502 -0.18767067223E+03 -0.10761757613E+04 -0.11093404458E+04  0.15569235001E+04  0.10100000352E+00 0. -1.
</event>
<event>
 5   0  0.8263673E-07  0.2898089E+04  0.7818609E-02  0.8273446E-01
        1   -1    0    0  501    0  0.00000000000E+00  0.00000000000E+00  0.12916095460E+04  0.12916095460E+04  0.50400001928E-02 0.  1.
       -1   -1    0    0    0  501  0.00000000000E+00  0.00000000000E+00 -0.16256690137E+04  0.16256690137E+04  0.50400001928E-02 0. -1.
    10030    2    1    2    0    0  0.00000000000E+00  0.00000000000E+00 -0.33405946768E+03  0.29172785596E+04  0.28980887610E+04 0.  0.
        5    1    3    3  502    0 -0.37580625880E+03 -0.26811141264E+02  0.12414342937E+04  0.12973551468E+04  0.46999998093E+01 0.  1.
       -5    1    3    3    0  502  0.37580625880E+03  0.26811141264E+02 -0.15754937613E+04  0.16199234128E+04  0.46999998093E+01 0. -1.
</event>
<event>
 5   0  0.2425845E-06  0.2900497E+04  0.7818609E-02  0.8272730E-01
       -2   -1    0    0    0  501  0.00000000000E+00  0.00000000000E+00  0.17791967994E+04  0.17791967994E+04  0.25500000920E-02 0. -1.
        2   -1    0    0  501    0  0.00000000000E+00  0.00000000000E+00 -0.11821182641E+04  0.11821182641E+04  0.25500000920E-02 0.  1.
    10030    2    1    2    0    0  0.00000000000E+00  0.00000000000E+00  0.59707853532E+03  0.29613150634E+04  0.29004972208E+04 0.  0.
        2    1    3    3  502    0 -0.93974079220E+03 -0.93743135986E+03 -0.29794617778E+03  0.13603904718E+04  0.25500000920E-02 0.  1.
       -2    1    3    3    0  502  0.93974079220E+03  0.93743135986E+03  0.89502471310E+03  0.16009245916E+04  0.25500000920E-02 0. -1.
</event>
<event>
 5   0  0.7621125E-07  0.2900063E+04  0.7818609E-02  0.8272859E-01
        3   -1    0    0  501    0  0.00000000000E+00  0.00000000000E+00  0.19685412007E+04  0.19685412033E+04  0.10100000352E+00 0. -1.
       -3   -1    0    0    0  501  0.00000000000E+00  0.00000000000E+00 -0.10680958929E+04  0.10680958977E+04  0.10100000352E+00 0.  1.
    10030    2    1    2    0    0  0.00000000000E+00  0.00000000000E+00  0.90044530780E+03  0.30366371009E+04  0.29000626080E+04 0.  0.
        3    1    3    3  502    0  0.63302839218E+02 -0.97178603501E+03  0.15751616116E+04  0.18518934797E+04  0.10100000352E+00 0. -1.
       -3    1    3    3    0  502 -0.63302839218E+02  0.97178603501E+03 -0.67471630378E+03  0.11847436213E+04  0.10100000352E+00 0.  1.
</event>
<event>
 5   0  0.8355946E-07  0.2902150E+04  0.7818609E-02  0.8272238E-01
        1   -1    0    0  501    0  0.00000000000E+00  0.00000000000E+00  0.11682698243E+04  0.11682698243E+04  0.50400001928E-02 0.  1.
       -1   -1    0    0    0  501  0.00000000000E+00  0.00000000000E+00 -0.18023390395E+04  0.18023390395E+04  0.50400001928E-02 0. -1.
    10030    2    1    2    0    0  0.00000000000E+00  0.00000000000E+00 -0.63406921518E+03  0.29706088638E+04  0.29021497639E+04 0.  0.
        4    1    3    3  502    0  0.10597911727E+04 -0.16382399468E+03  0.68358385200E+03  0.12717248627E+04  0.12699999809E+01 0.  1.
       -4    1    3    3    0  502 -0.10597911727E+04  0.16382399468E+03 -0.13176530672E+04  0.16988840011E+04  0.12699999809E+01 0. -1.
</event>
<event>
 5   0  0.2425845E-06  0.2903361E+04  0.7818609E-02  0.8271878E-01
        2   -1    0    0  501    0  0.00000000000E+00  0.00000000000E+00  0.14286500730E+04  0.14286500730E+04  0.25500000920E-02 0. -1.
       -2   -1    0    0    0  501  0.00000000000E+00  0.00000000000E+00 -0.14750826853E+04  0.14750826853E+04  0.25500000920E-02 0.  1.
    10030    2    1    2    0    0  0.00000000000E+00  0.00000000000E+00 -0.46432612300E+02  0.29037327584E+04  0.29033614905E+04 0.  0.
        2    1    3    3  502    0 -0.13468739659E+04 -0.42215502627E+03  0.31608013765E+03  0.14464408041E+04  0.25500000920E-02 0.  1.
       -2    1    3    3    0  502  0.13468739659E+04  0.42215502627E+03 -0.36251274995E+03  0.14572919543E+04  0.25500000920E-02 0. -1.
</event>
<event>
 5   0  0.8263673E-07  0.2947675E+04  0.7818609E-02  0.8258832E-01
       -1   -1    0    0    0  501  0.00000000000E+00  0.00000000000E+00  0.10818302515E+04  0.10818302515E+04  0.50400001928E-02 0. -1.
        1   -1    0    0  501    0  0.00000000000E+00  0.00000000000E+00 -0.20078907281E+04  0.20078907282E+04  0.50400001928E-02 0.  1.
    10030    2    1    2    0    0  0.00000000000E+00  0.00000000000E+00 -0.92606047668E+03  0.30897209796E+04  0.29476749694E+04 0.  0.
        5    1    3    3  502    0  0.31705362875E+03 -0.64146378821E+03 -0.18135991229E+04  0.19496570631E+04  0.46999998093E+01 0.  1.
       -5    1    3    3    0  502 -0.31705362875E+03  0.64146378821E+03  0.88753864626E+03  0.11400639165E+04  0.46999998093E+01 0. -1.
</event>
<event>
 5   0  0.8263673E-07  0.2924636E+04  0.7818609E-02  0.8265585E-01
        1   -1    0    0  501    0  0.00000000000E+00  0.00000000000E+00  0.15860405181E+04  0.15860405181E+04  0.50400001928E-02 0.  1.
       -1   -1    0    0    0  501  0.00000000000E+00  0.00000000000E+00 -0.13482469130E+04  0.13482469130E+04  0.50400001928E-02 0. -1.
    10030    2    1    2    0    0  0.00000000000E+00  0.00000000000E+00  0.23779360514E+03  0.29342874311E+04  0.29246362047E+04 0.  0.
        5    1    3    3  502    0 -0.91713859034E+03 -0.22904310539E+03 -0.10004677652E+04  0.13764308109E+04  0.46999998093E+01 0. -1.
       -5    1    3    3    0  502  0.91713859034E+03  0.22904310539E+03  0.12382613703E+04  0.15578566202E+04  0.46999998093E+01 0.  1.
</event>
<event>
 5   0  0.8947674E-07  0.2793243E+04  0.7818609E-02  0.8305369E-01
       -1   -1    0    0    0  501  0.00000000000E+00  0.00000000000E+00  0.87696161722E+03  0.87696161723E+03  0.50400001928E-02 0.  1.
        1   -1    0    0  501    0  0.00000000000E+00  0.00000000000E+00 -0.22242159720E+04  0.22242159720E+04  0.50400001928E-02 0. -1.
    10030    2    1    2    0    0  0.00000000000E+00  0.00000000000E+00 -0.13472543548E+04  0.31011775892E+04  0.27932433019E+04 0.  0.
        3    1    3    3  502    0  0.34684281757E+03 -0.11054219717E+04  0.19228682437E+03  0.11744070455E+04  0.10100000352E+00 0.  1.
       -3    1    3    3    0  502 -0.34684281757E+03  0.11054219717E+04 -0.15395411791E+04  0.19267705437E+04  0.10100000352E+00 0. -1.
</event>
<event>
 5   0  0.8483636E-07  0.2871374E+04  0.7818609E-02  0.8281446E-01
        1   -1    0    0  501    0  0.00000000000E+00  0.00000000000E+00  0.12020010370E+04  0.12020010370E+04  0.50400001928E-02 0.  1.
       -1   -1    0    0    0  501  0.00000000000E+00  0.00000000000E+00 -0.17148042266E+04  0.17148042266E+04  0.50400001928E-02 0. -1.
    10030    2    1    2    0    0  0.00000000000E+00  0.00000000000E+00 -0.51280318957E+03  0.29168052636E+04  0.28713735101E+04 0.  0.
        2    1    3    3  502    0 -0.26213304988E+03 -0.18494442252E+03 -0.16779280596E+04  0.17083210320E+04  0.25500000920E-02 0. -1.
       -2    1    3    3    0  502  0.26213304988E+03  0.18494442252E+03  0.11651248700E+04  0.12084842316E+04  0.25500000920E-02 0.  1.
</event>
<event>
 5   0  0.2325590E-06  0.2902534E+04  0.7818609E-02  0.8272124E-01
       -2   -1    0    0    0  501  0.00000000000E+00  0.00000000000E+00  0.13684327290E+04  0.13684327290E+04  0.25500000920E-02 0.  1.
        2   -1    0    0  501    0  0.00000000000E+00  0.00000000000E+00 -0.15391155897E+04  0.15391155897E+04  0.25500000920E-02 0. -1.
    10030    2    1    2    0    0  0.00000000000E+00  0.00000000000E+00 -0.17068286064E+03  0.29075483187E+04  0.29025341663E+04 0.  0.
        5    1    3    3  502    0  0.32163329375E+03 -0.10885224098E+04  0.82055761732E+03  0.14005948399E+04  0.46999998093E+01 0.  1.
       -5    1    3    3    0  502 -0.32163329375E+03  0.10885224098E+04 -0.99124047795E+03  0.15069534788E+04  0.46999998093E+01 0. -1.
</event>
<event>
 5   0  0.8355946E-07  0.2936871E+04  0.7818609E-02  0.8261991E-01
        1   -1    0    0  501    0  0.00000000000E+00  0.00000000000E+00  0.21481684477E+04  0.21481684477E+04  0.50400001928E-02 0.  1.
       -1   -1    0    0    0  501  0.00000000000E+00  0.00000000000E+00 -0.10037866005E+04  0.10037866005E+04  0.50400001928E-02 0. -1.
    10030    2    1    2    0    0  0.00000000000E+00  0.00000000000E+00  0.11443818472E+04  0.31519550482E+04  0.29368709222E+04 0.  0.
        4    1    3    3  502    0 -0.92786203438E+03  0.98665499894E+03 -0.36708493233E+02  0.13549041177E+04  0.12699999809E+01 0. -1.
       -4    1    3    3    0  502  0.92786203438E+03 -0.98665499894E+03  0.11810903404E+04  0.17970509305E+04  0.12699999809E+01 0.  1.
</event>
<event>
 5   0  0.8263673E-07  0.2900893E+04  0.7818609E-02  0.8272612E-01
        1   -1    0    0  501    0  0.00000000000E+00  0.00000000000E+00  0.20813143018E+04  0.20813143019E+04  0.50400001928E-02 0.  1.
       -1   -1    0    0    0  501  0.00000000000E+00  0.00000000000E+00 -0.10108010351E+04  0.10108010351E+04  0.50400001928E-02 0. -1.
    10030    2    1    2    0    0  0.00000000000E+00  0.00000000000E+00  0.10705132667E+04  0.30921153370E+04  0.29008927252E+04 0.  0.
        5    1    3    3  502    0  0.58869012222E+03 -0.62589720604E+03  0.17808175383E+04  0.19772800932E+04  0.46999998093E+01 0.  1.
       -5    1    3    3    0  502 -0.58869012222E+03  0.62589720604E+03 -0.71030427152E+03  0.11148352437E+04  0.46999998093E+01 0. -1.
</event>
<event>
 5   0  0.2425845E-06  0.2896681E+04  0.7818609E-02  0.8273866E-01
        2   -1    0    0  501    0  0.00000000000E+00  0.00000000000E+00  0.21294484360E+04  0.21294484360E+04  0.25500000920E-02 0. -1.
       -2   -1    0    0    0  501  0.00000000000E+00  0.00000000000E+00 -0.98508627321E+03  0.98508627321E+03  0.25500000920E-02 0.  1.
    10030    2    1    2    0    0  0.00000000000E+00  0.00000000000E+00  0.11443621628E+04  0.31145347092E+04  0.28966811518E+04 0.  0.
        2    1    3    3  502    0  0.70151142302E+02  0.10240486519E+04  0.16708382618E+04  0.19609429673E+04  0.25500000920E-02 0. -1.
       -2    1    3    3    0  502 -0.70151142302E+02 -0.10240486519E+04 -0.52647609896E+03  0.11535917419E+04  0.25500000920E-02 0.  1.
</event>
<event>
 5   0  0.8483636E-07  0.2900348E+04  0.7818609E-02  0.8272774E-01
        1   -1    0    0  501    0  0.00000000000E+00  0.00000000000E+00  0.25118452568E+04  0.25118452568E+04  0.50400001928E-02 0.  1.
       -1   -1    0    0    0  501  0.00000000000E+00  0.00000000000E+00 -0.83723489501E+03  0.83723489503E+03  0.50400001928E-02 0. -1.
    10030    2    1    2    0    0  0.00000000000E+00  0.00000000000E+00  0.16746103618E+04  0.33490801518E+04  0.29003479101E+04 0.  0.
        2    1    3    3  502    0 -0.31171099269E+03  0.14156989437E+04  0.79058182961E+03  0.16511774197E+04  0.25500000920E-02 0.  1.
       -2    1    3    3    0  502  0.31171099269E+03 -0.14156989437E+04  0.88402853215E+03  0.16979027321E+04  0.25500000920E-02 0. -1.
</event>
<event>
 5   0  0.2325590E-06  0.2896182E+04  0.7818609E-02  0.8274014E-01
       -2   -1    0    0    0  501  0.00000000000E+00  0.00000000000E+00  0.80898484653E+03  0.80898484654E+03  0.25500000920E-02 0. -1.
        2   -1    0    0  501    0  0.00000000000E+00  0.00000000000E+00 -0.25920966969E+04  0.25920966969E+04  0.25500000920E-02 0.  1.
    10030    2    1    2    0    0  0.00000000000E+00  0.00000000000E+00 -0.17831118504E+04  0.34010815434E+04  0.28961815886E+04 0.  0.
        5    1    3    3  502    0  0.38363885707E+03  0.97260231470E+03  0.28501251067E+03  0.10836919564E+04  0.46999998093E+01 0. -1.
       -5    1    3    3    0  502 -0.38363885707E+03 -0.97260231470E+03 -0.20681243610E+04  0.23173895870E+04  0.46999998093E+01 0.  1.
</event>
<event>
 5   0  0.8357118E-07  0.2898664E+04  0.7818609E-02  0.8273275E-01
       -1   -1    0    0    0  501  0.00000000000E+00  0.00000000000E+00  0.11536567062E+04  0.11536567062E+04  0.50400001928E-02 0. -1.
        1   -1    0    0  501    0  0.00000000000E+00  0.00000000000E+00 -0.18207866631E+04  0.18207866631E+04  0.50400001928E-02 0.  1.
    10030    2    1    2    0    0  0.00000000000E+00  0.00000000000E+00 -0.66712995684E+03  0.29744433693E+04  0.28986636538E+04 0.  0.
        1    1    3    3  502    0 -0.10258122595E+04 -0.33995835280E+03  0.65744706265E+03  0.12649502415E+04  0.50400001928E-02 0. -1.
       -1    1    3    3    0  502  0.10258122595E+04  0.33995835280E+03 -0.13245770195E+04  0.17094931278E+04  0.50400001928E-02 0.  1.
</event>
<event>
 5   0  0.2378690E-06  0.2906064E+04  0.7818609E-02  0.8271075E-01
       -2   -1    0    0    0  501  0.00000000000E+00  0.00000000000E+00  0.18262471224E+04  0.18262471224E+04  0.25500000920E-02 0.  1.
        2   -1    0    0  501    0  0.00000000000E+00  0.00000000000E+00 -0.11560880507E+04  0.11560880507E+04  0.25500000920E-02 0. -1.
    10030    2    1    2    0    0  0.00000000000E+00  0.00000000000E+00  0.67015907171E+03  0.29823351732E+04  0.29060643324E+04 0.  0.
        3    1    3    3  502    0 -0.17327922414E+03  0.41303976943E+03 -0.10834704000E+04  0.11724059274E+04  0.10100000352E+00 0. -1.
       -3    1    3    3    0  502  0.17327922414E+03 -0.41303976943E+03  0.17536294717E+04  0.18099292458E+04  0.10100000352E+00 0.  1.
</event>
<event>
 5   0  0.2325590E-06  0.2899340E+04  0.7818609E-02  0.8273074E-01
        2   -1    0    0  501    0  0.00000000000E+00  0.00000000000E+00  0.16356137868E+04  0.16356137868E+04  0.25500000920E-02 0. -1.
       -2   -1    0    0    0  501  0.00000000000E+00  0.00000000000E+00 -0.12848653254E+04  0.12848653254E+04  0.25500000920E-02 0.  1.
    10030    2    1    2    0    0  0.00000000000E+00  0.00000000000E+00  0.35074846144E+03  0.29204791122E+04  0.28993402286E+04 0.  0.
        5    1    3    3  502    0 -0.85672464928E+03 -0.75031583962E+03  0.10788925019E+04  0.15687517663E+04  0.46999998093E+01 0. -1.
       -5    1    3    3    0  502  0.85672464928E+03  0.75031583962E+03 -0.72814404041E+03  0.13517273458E+04  0.46999998093E+01 0.  1.
</event>
<event>
 5   0  0.8357118E-07  0.2879039E+04  0.7818609E-02  0.8279141E-01
       -1   -1    0    0    0  501  0.00000000000E+00  0.00000000000E+00  0.92215460788E+03  0.92215460789E+03  0.50400001928E-02 0. -1.
        1   -1    0    0  501    0  0.00000000000E+00  0.00000000000E+00 -0.22471470465E+04  0.22471470465E+04  0.50400001928E-02 0.  1.
    10030    2    1    2    0    0  0.00000000000E+00  0.00000000000E+00 -0.13249924386E+04  0.31693016544E+04  0.28790394256E+04 0.  0.
        1    1    3    3  502    0 -0.35788454403E+03 -0.77449440352E+03  0.61383416309E+03  0.10510543791E+04  0.50400001928E-02 0. -1.
       -1    1    3    3    0  502  0.35788454403E+03  0.77449440352E+03 -0.19388266017E+04  0.21182472754E+04  0.50400001928E-02 0.  1.
</event>
<event>
 5   0  0.2425845E-06  0.2910985E+04  0.7818609E-02  0.8269617E-01
        2   -1    0    0  501    0  0.00000000000E+00  0.00000000000E+00  0.15546625249E+04  0.15546625249E+04  0.25500000920E-02 0. -1.
       -2   -1    0    0    0  501  0.00000000000E+00  0.00000000000E+00 -0.13626485710E+04  0.13626485710E+04  0.25500000920E-02 0.  1.
    10030    2    1    2    0    0  0.00000000000E+00  0.00000000000E+00  0.19201395391E+03  0.29173110958E+04  0.29109851720E+04 0.  0.
        2    1    3    3  502    0 -0.26061160768E+03  0.79613633020E+03 -0.10968346911E+04  0.13801441251E+04  0.25500000920E-02 0.  1.
       -2    1    3    3    0  502  0.26061160768E+03 -0.79613633020E+03  0.12888486450E+04  0.15371669708E+04  0.25500000920E-02 0. -1.
</event>
<event>
 5   0  0.2325590E-06  0.2905943E+04  0.7818609E-02  0.8271112E-01
       -2   -1    0    0    0  501  0.00000000000E+00  0.00000000000E+00  0.14378979375E+04  0.14378979375E+04  0.25500000920E-02 0.  1.
        2   -1    0    0  501    0  0.00000000000E+00  0.00000000000E+00 -0.14682027619E+04  0.14682027619E+04  0.25500000920E-02 0. -1.
    10030    2    1    2    0    0  0.00000000000E+00  0.00000000000E+00 -0.30304824353E+02  0.29061006994E+04  0.29059426857E+04 0.  0.
        5    1    3    3  502    0 -0.21208487285E+03 -0.13018929378E+04 -0.62444609183E+03  0.14594040655E+04  0.46999998093E+01 0. -1.
       -5    1    3    3    0  502  0.21208487285E+03  0.13018929378E+04  0.59414126747E+03  0.14466966339E+04  0.46999998093E+01 0.  1.
</event>
<event>
 5   0  0.8355946E-07  0.2899301E+04  0.7818609E-02  0.8273086E-01
        1   -1    0    0  501    0  0.00000000000E+00  0.00000000000E+00  0.13432721484E+04  0.13432721484E+04  0.50400001928E-02 0.  1.
       -1   -1    0    0    0  501  0.00000000000E+00  0.00000000000E+00 -0.15644532143E+04  0.15644532143E+04  0.50400001928E-02 0. -1.
    10030    2    1    2    0    0  0.00000000000E+00  0.00000000000E+00 -0.22118106586E+03  0.29077253627E+04  0.28993009021E+04 0.  0.
        4    1    3    3  502    0 -0.49336118123E+03  0.13037401295E+04 -0.50966791127E+03  0.14842191796E+04  0.12699999809E+01 0. -1.
       -4    1    3    3    0  502  0.49336118123E+03 -0.13037401295E+04  0.28848684541E+03  0.14235061831E+04  0.12699999809E+01 0.  1.
</event>
<event>
 5   0  0.2325590E-06  0.3053209E+04  0.7818609E-02  0.8228698E-01
       -2   -1    0    0    0  501  0.00000000000E+00  0.00000000000E+00  0.99698029376E+03  0.99698029377E+03  0.25500000920E-02 0.  1.
        2   -1    0    0  501    0  0.00000000000E+00  0.00000000000E+00 -0.23375798233E+04  0.23375798233E+04  0.25500000920E-02 0. -1.
    10030    2    1    2    0    0  0.00000000000E+00  0.00000000000E+00 -0.13405995296E+04  0.33345601171E+04  0.30532088163E+04 0.  0.
        5    1    3    3  502    0 -0.10334742146E+04 -0.10791122119E+04 -0.10121038062E+04  0.18046961857E+04  0.46999998093E+01 0. -1.
       -5    1    3    3    0  502  0.10334742146E+04  0.10791122119E+04 -0.32849572341E+03  0.15298639314E+04  0.46999998093E+01 0.  1.
</event>
<event>
 5   0  0.8355946E-07  0.2901713E+04  0.7818609E-02  0.8272368E-01
        1   -1    0    0  501    0  0.00000000000E+00  0.00000000000E+00  0.23062858953E+04  0.23062858953E+04  0.50400001928E-02 0. -1.
       -1   -1    0    0    0  501  0.00000000000E+00  0.00000000000E+00 -0.91271632471E+03  0.91271632472E+03  0.50400001928E-02 0.  1.
    10030    2    1    2    0    0  0.00000000000E+00  0.00000000000E+00  0.13935695706E+04  0.32190022200E+04  0.29017131396E+04 0.  0.
        4    1    3    3  502    0  0.17365607127E+03  0.94579884797E+03  0.19019911025E+04  0.21312587030E+04  0.12699999809E+01 0. -1.
       -4    1    3    3    0  502 -0.17365607127E+03 -0.94579884797E+03 -0.50842153193E+03  0.10877435171E+04  0.12699999809E+01 0.  1.
</event>
<event>
 5   0  0.8263673E-07  0.2917219E+04  0.7818609E-02  0.8267773E-01
       -1   -1    0    0    0  501  0.00000000000E+00  0.00000000000E+00  0.18563620170E+04  0.18563620170E+04  0.50400001928E-02 0.  1.
        1   -1    0    0  501    0  0.00000000000E+00  0.00000000000E+00 -0.11460814438E+04  0.11460814438E+04  0.50400001928E-02 0. -1.
    10030    2    1    2    0    0  0.00000000000E+00  0.00000000000E+00  0.71028057320E+03  0.30024434608E+04  0.29172192654E+04 0.  0.
        5    1    3    3  502    0 -0.99515254721E+03  0.32920550726E+03  0.13990776279E+04  0.17481833878E+04  0.46999998093E+01 0.  1.
       -5    1    3    3    0  502  0.99515254721E+03 -0.32920550726E+03 -0.68879705474E+03  0.12542600730E+04  0.46999998093E+01 0. -1.
</event>
<event>
 5   0  0.8263673E-07  0.2907476E+04  0.7818609E-02  0.8270657E-01
        1   -1    0    0  501    0  0.00000000000E+00  0.00000000000E+00  0.25384393537E+04  0.25384393537E+04  0.50400001928E-02 0. -1.
       -1   -1    0    0    0  501  0.00000000000E+00  0.00000000000E+00 -0.83254069671E+03  0.83254069672E+03  0.50400001928E-02 0.  1.
    10030    2    1    2    0    0  0.00000000000E+00  0.00000000000E+00  0.17058986570E+04  0.33709800504E+04  0.29074759281E+04 0.  0.
        5    1    3    3  502    0 -0.11159730444E+04 -0.50992001388E+03 -0.51038236678E+02  0.12280233092E+04  0.46999998093E+01 0. -1.
       -5    1    3    3    0  502  0.11159730444E+04  0.50992001388E+03  0.17569368936E+04  0.21429567412E+04  0.46999998093E+01 0.  1.
</event>
<event>
 5   0  0.7621125E-07  0.2901159E+04  0.7818609E-02  0.8272533E-01
        3   -1    0    0  501    0  0.00000000000E+00  0.00000000000E+00  0.15712917157E+04  0.15712917189E+04  0.10100000352E+00 0.  1.
       -3   -1    0    0    0  501  0.00000000000E+00  0.00000000000E+00 -0.13391412701E+04  0.13391412739E+04  0.10100000352E+00 0. -1.
    10030    2    1    2    0    0  0.00000000000E+00  0.00000000000E+00  0.23215044561E+03  0.29104329928E+04  0.29011594883E+04 0.  0.
        5    1    3    3  502    0 -0.31606991196E+03  0.10778096607E+04  0.10369339955E+04  0.15286687198E+04  0.46999998093E+01 0.  1.
       -5    1    3    3    0  502  0.31606991196E+03 -0.10778096607E+04 -0.80478354990E+03  0.13817642730E+04  0.46999998093E+01 0. -1.
</event>
<event>
 5   0  0.2378690E-06  0.2919238E+04  0.7818609E-02  0.8267176E-01
       -2   -1    0    0    0  501  0.00000000000E+00  0.00000000000E+00  0.98503199090E+03  0.98503199091E+03  0.25500000920E-02 0.  1.
        2   -1    0    0  501    0  0.00000000000E+00  0.00000000000E+00 -0.21628617125E+04  0.21628617125E+04  0.25500000920E-02 0. -1.
    10030    2    1    2    0    0  0.00000000000E+00  0.00000000000E+00 -0.11778297216E+04  0.31478937034E+04  0.29192382422E+04 0.  0.
        3    1    3    3  502    0 -0.12289539328E+04  0.56577045077E+03  0.17722086147E+01  0.13529327858E+04  0.10100000352E+00 0.  1.
       -3    1    3    3    0  502  0.12289539328E+04 -0.56577045077E+03 -0.11796019302E+04  0.17949609176E+04  0.10100000352E+00 0. -1.
</event>
<event>
 5   0  0.8263673E-07  0.2898217E+04  0.7818609E-02  0.8273408E-01
        1   -1    0    0  501    0  0.00000000000E+00  0.00000000000E+00  0.22428673076E+04  0.22428673076E+04  0.50400001928E-02 0.  1.
       -1   -1    0    0    0  501  0.00000000000E+00  0.00000000000E+00 -0.93626365670E+03  0.93626365672E+03  0.50400001928E-02 0. -1.
    10030    2    1    2    0    0  0.00000000000E+00  0.00000000000E+00  0.13066036509E+04  0.31791309644E+04  0.28982167945E+04 0.  0.
        5    1    3    3  502    0 -0.67655221531E+03 -0.12791305457E+04  0.73823542479E+03  0.16244726792E+04  0.46999998093E+01 0.  1.
       -5    1    3    3    0  502  0.67655221531E+03  0.12791305457E+04  0.56836822615E+03  0.15546582852E+04  0.46999998093E+01 0. -1.
</event>
<event>
 5   0  0.8263673E-07  0.2884706E+04  0.7818609E-02  0.8277442E-01
        1   -1    0    0  501    0  0.00000000000E+00  0.00000000000E+00  0.16657988300E+04  0.16657988300E+04  0.50400001928E-02 0. -1.
       -1   -1    0    0    0  501  0.00000000000E+00  0.00000000000E+00 -0.12488796093E+04  0.12488796093E+04  0.50400001928E-02 0.  1.
    10030    2    1    2    0    0  0.00000000000E+00  0.00000000000E+00  0.41691922072E+03  0.29146784393E+04  0.28847060107E+04 0.  0.
        5    1    3    3  502    0  0.58784766184E+03  0.37958859866E+03 -0.10658773633E+04  0.12750564777E+04  0.46999998093E+01 0.  1.
       -5    1    3    3    0  502 -0.58784766184E+03 -0.37958859866E+03  0.14827965840E+04  0.16396219617E+04  0.46999998093E+01 0. -1.
</event>
<event>
 5   0  0.2378690E-06  0.2895769E+04  0.7818609E-02  0.8274137E-01
        2   -1    0    0  501    0  0.00000000000E+00  0.00000000000E+00  0.23495260889E+04  0.23495260889E+04  0.25500000920E-02 0. -1.
       -2   -1    0    0    0  501  0.00000000000E+00  0.00000000000E+00 -0.89225216699E+03  0.89225216699E+03  0.25500000920E-02 0.  1.
    10030    2    1    2    0    0  0.00000000000E+00  0.00000000000E+00  0.14572739219E+04  0.32417782559E+04  0.28957691512E+04 0.  0.
        3    1    3    3  502    0  0.12747579246E+04  0.63850413207E+03  0.10111262191E+04  0.17478762926E+04  0.10100000352E+00 0.  1.
       -3    1    3    3    0  502 -0.12747579246E+04 -0.63850413207E+03  0.44614770280E+03  0.14939019633E+04  0.10100000352E+00 0. -1.
</event>
<event>
 5   0  0.2304435E-06  0.2896559E+04  0.7818609E-02  0.8273902E-01
        2   -1    0    0  501    0  0.00000000000E+00  0.00000000000E+00  0.24470127397E+04  0.24470127397E+04  0.25500000920E-02 0.  1.
       -2   -1    0    0    0  501  0.00000000000E+00  0.00000000000E+00 -0.85717281614E+03  0.85717281614E+03  0.25500000920E-02 0. -1.
    10030    2    1    2    0    0  0.00000000000E+00  0.00000000000E+00  0.15898399235E+04  0.33041855558E+04  0.28965585105E+04 0.  0.
        1    1    3    3  502    0 -0.45994673252E+03 -0.22986424491E+03 -0.74954504205E+03  0.90895893083E+03  0.50400001928E-02 0. -1.
       -1    1    3    3    0  502  0.45994673252E+03  0.22986424491E+03  0.23393849656E+04  0.23952266250E+04  0.50400001928E-02 0.  1.
</event>
<event>
 5   0  0.2360103E-06  0.2924214E+04  0.7818609E-02  0.8265709E-01
       -2   -1    0    0    0  501  0.00000000000E+00  0.00000000000E+00  0.76861335069E+03  0.76861335070E+03  0.25500000920E-02 0. -1.
        2   -1    0    0  501    0  0.00000000000E+00  0.00000000000E+00 -0.27813162247E+04  0.27813162247E+04  0.25500000920E-02 0.  1.
    10030    2    1    2    0    0  0.00000000000E+00  0.00000000000E+00 -0.20127028740E+04  0.35499295754E+04  0.29242139339E+04 0.  0.
        4    1    3    3  502    0 -0.14240343582E+04 -0.11020295859E+03 -0.13858754534E+04  0.19901434447E+04  0.12699999809E+01 0.  1.
       -4    1    3    3    0  502  0.14240343582E+04  0.11020295859E+03 -0.62682742064E+03  0.15597861307E+04  0.12699999809E+01 0. -1.
</event>
<event>
 5   0  0.8483636E-07  0.2897719E+04  0.7818609E-02  0.8273556E-01
       -1   -1    0    0    0  501  0.00000000000E+00  0.00000000000E+00  0.10670808307E+04  0.10670808307E+04  0.50400001928E-02 0. -1.
        1   -1    0    0  501    0  0.00000000000E+00  0.00000000000E+00 -0.19672306932E+04  0.19672306932E+04  0.50400001928E-02 0.  1.
    10030    2    1    2    0    0  0.00000000000E+00  0.00000000000E+00 -0.90014986248E+03  0.30343115238E+04  0.28977192150E+04 0.  0.
        2    1    3    3  502    0 -0.10290939008E+04  0.93310371182E+03 -0.18993097284E+02  0.13892723029E+04  0.25500000920E-02 0.  1.
       -2    1    3    3    0  502  0.10290939008E+04 -0.93310371182E+03 -0.88115676520E+03  0.16450392210E+04  0.25500000920E-02 0. -1.
</event>
<event>
 5   0  0.7621125E-07  0.2892768E+04  0.7818609E-02  0.8275032E-01
       -4   -1    0    0    0  501  0.00000000000E+00  0.00000000000E+00  0.14101601799E+04  0.14101607518E+04  0.12699999809E+01 0. -1.
        4   -1    0    0  501    0  0.00000000000E+00  0.00000000000E+00 -0.14835375589E+04  0.14835381025E+04  0.12699999809E+01 0.  1.
    10030    2    1    2    0    0  0.00000000000E+00  0.00000000000E+00 -0.73377379029E+02  0.28936988543E+04  0.28927683661E+04 0.  0.
        1    1    3    3  502    0  0.54031617583E+03 -0.12480175403E+04  0.45595104587E+03  0.14343572452E+04  0.50400001928E-02 0. -1.
       -1    1    3    3    0  502 -0.54031617583E+03  0.12480175403E+04 -0.52932842490E+03  0.14593416091E+04  0.50400001928E-02 0.  1.
</event>
<event>
 5   0  0.8355946E-07  0.2895457E+04  0.7818609E-02  0.8274231E-01
        1   -1    0    0  501    0  0.00000000000E+00  0.00000000000E+00  0.17894065833E+04  0.17894065833E+04  0.50400001928E-02 0.  1.
       -1   -1    0    0    0  501  0.00000000000E+00  0.00000000000E+00 -0.11712918595E+04  0.11712918595E+04  0.50400001928E-02 0. -1.
    10030    2    1    2    0    0  0.00000000000E+00  0.00000000000E+00  0.61811472383E+03  0.29606984428E+04  0.28954566923E+04 0.  0.
        4    1    3    3  502    0  0.86369893621E+02 -0.10319102946E+04 -0.72547927601E+03  0.12643656146E+04  0.12699999809E+01 0. -1.
       -4    1    3    3    0  502 -0.86369893621E+02  0.10319102946E+04  0.13435939998E+04  0.16963328282E+04  0.12699999809E+01 0.  1.
</event>
<event>
 5   0  0.2304435E-06  0.2729734E+04  0.7818609E-02  0.8325421E-01
        2   -1    0    0  501    0  0.00000000000E+00  0.00000000000E+00  0.13753538973E+04  0.13753538973E+04  0.25500000920E-02 0. -1.
       -2   -1    0    0    0  501  0.00000000000E+00  0.00000000000E+00 -0.13544603957E+04  0.13544603957E+04  0.25500000920E-02 0.  1.
    10030    2    1    2    0    0  0.00000000000E+00  0.00000000000E+00  0.20893501601E+02  0.27298142930E+04  0.27297343343E+04 0.  0.
        1    1    3    3  502    0  0.57195357627E+03 -0.41773810646E+03 -0.11563034845E+04  0.13559770526E+04  0.50400001928E-02 0.  1.
       -1    1    3    3    0  502 -0.57195357627E+03  0.41773810646E+03  0.11771969861E+04  0.13738372404E+04  0.50400001928E-02 0. -1.
</event>
<event>
 5   0  0.7621125E-07  0.2917709E+04  0.7818609E-02  0.8267628E-01
       -4   -1    0    0    0  501  0.00000000000E+00  0.00000000000E+00  0.12132404201E+04  0.12132410848E+04  0.12699999809E+01 0.  1.
        4   -1    0    0  501    0  0.00000000000E+00  0.00000000000E+00 -0.17541909785E+04  0.17541914382E+04  0.12699999809E+01 0. -1.
    10030    2    1    2    0    0  0.00000000000E+00  0.00000000000E+00 -0.54095055833E+03  0.29674325230E+04  0.29177094221E+04 0.  0.
        5    1    3    3  502    0 -0.77218014382E+03  0.11275643216E+04 -0.78963653510E+03  0.15783571907E+04  0.46999998093E+01 0. -1.
       -5    1    3    3    0  502  0.77218014382E+03 -0.11275643216E+04  0.24868597677E+03  0.13890753323E+04  0.46999998093E+01 0.  1.
</event>
<event>
 5   0  0.2425845E-06  0.2918111E+04  0.7818609E-02  0.8267509E-01
        2   -1    0    0  501    0  0.00000000000E+00  0.00000000000E+00  0.16483884477E+04  0.16483884477E+04  0.25500000920E-02 0.  1.
       -2   -1    0    0    0  501  0.00000000000E+00  0.00000000000E+00 -0.12914691738E+04  0.12914691738E+04  0.25500000920E-02 0. -1.
    10030    2    1    2    0    0  0.00000000000E+00  0.00000000000E+00  0.35691927387E+03  0.29398576215E+04  0.29181109415E+04 0.  0.
        2    1    3    3  502    0 -0.19870787750E+03  0.50985228410E+03  0.15410956675E+04  0.16353623539E+04  0.25500000920E-02 0.  1.
       -2    1    3    3    0  502  0.19870787750E+03 -0.50985228410E+03 -0.11841763936E+04  0.13044952676E+04  0.25500000920E-02 0. -1.
</event>
<event>
 5   0  0.8357118E-07  0.2897412E+04  0.7818609E-02  0.8273648E-01
        1   -1    0    0  501    0  0.00000000000E+00  0.00000000000E+00  0.18177557010E+04  0.18177557010E+04  0.50400001928E-02 0. -1.
       -1   -1    0    0    0  501  0.00000000000E+00  0.00000000000E+00 -0.11545823446E+04  0.11545823446E+04  0.50400001928E-02 0.  1.
    10030    2    1    2    0    0  0.00000000000E+00  0.00000000000E+00  0.66317335642E+03  0.29723380456E+04  0.28974116995E+04 0.  0.
        1    1    3    3  502    0  0.84749976660E+03 -0.45551093488E+03 -0.77947322151E+03  0.12382748359E+04  0.50400001928E-02 0.  1.
       -1    1    3    3    0  502 -0.84749976660E+03  0.45551093488E+03  0.14426465779E+04  0.17340632096E+04  0.50400001928E-02 0. -1.
</event>
<event>
 5   0  0.8355946E-07  0.2773199E+04  0.7818609E-02  0.8311638E-01
        1   -1    0    0  501    0  0.00000000000E+00  0.00000000000E+00  0.98580086921E+03  0.98580086923E+03  0.50400001928E-02 0. -1.
       -1   -1    0    0    0  501  0.00000000000E+00  0.00000000000E+00 -0.19503511669E+04  0.19503511669E+04  0.50400001928E-02 0.  1.
    10030    2    1    2    0    0  0.00000000000E+00  0.00000000000E+00 -0.96455029767E+03  0.29361520361E+04  0.27731987852E+04 0.  0.
        4    1    3    3  502    0  0.71635437481E+03  0.18418412219E+03  0.75948783567E+03  0.10601465779E+04  0.12699999809E+01 0. -1.
       -4    1    3    3    0  502 -0.71635437481E+03 -0.18418412219E+03 -0.17240381333E+04  0.18760054582E+04  0.12699999809E+01 0.  1.
</event>
<event>
 5   0  0.2425845E-06  0.2923351E+04  0.7818609E-02  0.8265964E-01
        2   -1    0    0  501    0  0.00000000000E+00  0.00000000000E+00  0.17190819798E+04  0.17190819798E+04  0.25500000920E-02 0.  1.
       -2   -1    0    0    0  501  0.00000000000E+00  0.00000000000E+00 -0.12428118333E+04  0.12428118333E+04  0.25500000920E-02 0. -1.
    10030    2    1    2    0    0  0.00000000000E+00  0.00000000000E+00  0.47627014645E+03  0.29618938131E+04  0.29233511092E+04 0.  0.
        2    1    3    3  502    0  0.34409091305E+03  0.89227164706E+02 -0.11983501382E+04  0.12499612382E+04  0.25500000920E-02 0. -1.
       -2    1    3    3    0  502 -0.34409091305E+03 -0.89227164706E+02  0.16746202846E+04  0.17119325749E+04  0.25500000920E-02 0.  1.
</event>
<event>
 5   0  0.2325590E-06  0.2997044E+04  0.7818609E-02  0.8244575E-01
       -2   -1    0    0    0  501  0.00000000000E+00  0.00000000000E+00  0.96319497385E+03  0.96319497385E+03  0.25500000920E-02 0.  1.
        2   -1    0    0  501    0  0.00000000000E+00  0.00000000000E+00 -0.23313749013E+04  0.23313749013E+04  0.25500000920E-02 0. -1.
    10030    2    1    2    0    0  0.00000000000E+00  0.00000000000E+00 -0.13681799275E+04  0.32945698752E+04  0.29970442687E+04 0.  0.
        5    1    3    3  502    0  0.47629730597E+03  0.12746913151E+04 -0.13739653858E+04  0.19337786957E+04  0.46999998093E+01 0.  1.
       -5    1    3    3    0  502 -0.47629730597E+03 -0.12746913151E+04  0.57854583617E+01  0.13607911795E+04  0.46999998093E+01 0. -1.
</event>
<event>
 5   0  0.8357118E-07  0.2893089E+04  0.7818609E-02  0.8274937E-01
       -1   -1    0    0    0  501  0.00000000000E+00  0.00000000000E+00  0.93631559514E+03  0.93631559516E+03  0.50400001928E-02 0. -1.
        1   -1    0    0  501    0  0.00000000000E+00  0.00000000000E+00 -0.22348138620E+04  0.22348138620E+04  0.50400001928E-02 0.  1.
    10030    2    1    2    0    0  0.00000000000E+00  0.00000000000E+00 -0.12984982669E+04  0.31711294572E+04  0.28930890559E+04 0.  0.
        1    1    3    3  502    0 -0.14318857375E+04  0.20438712582E+03 -0.62678008281E+03  0.15763642139E+04  0.50400001928E-02 0. -1.
       -1    1    3    3    0  502  0.14318857375E+04 -0.20438712582E+03 -0.67171818406E+03  0.15947652433E+04  0.50400001928E-02 0.  1.
</event>
<event>
 5   0  0.8483636E-07  0.2895588E+04  0.7818609E-02  0.8274191E-01
        1   -1    0    0  501    0  0.00000000000E+00  0.00000000000E+00  0.11251435970E+04  0.11251435970E+04  0.50400001928E-02 0. -1.
       -1   -1    0    0    0  501  0.00000000000E+00  0.00000000000E+00 -0.18629692374E+04  0.18629692374E+04  0.50400001928E-02 0.  1.
    10030    2    1    2    0    0  0.00000000000E+00  0.00000000000E+00 -0.73782564037E+03  0.29881128344E+04  0.28955883056E+04 0.  0.
        2    1    3    3  502    0  0.60197943346E+03 -0.29829573052E+03  0.95454439408E+03  0.11672679990E+04  0.25500000920E-02 0. -1.
       -2    1    3    3    0  502 -0.60197943346E+03  0.29829573052E+03 -0.16923700345E+04  0.18208448354E+04  0.25500000920E-02 0.  1.
</event>
<event>
 5   0  0.2360103E-06  0.2895730E+04  0.7818609E-02  0.8274149E-01
        2   -1    0    0  501    0  0.00000000000E+00  0.00000000000E+00  0.16564287665E+04  0.16564287665E+04  0.25500000920E-02 0.  1.
       -2   -1    0    0    0  501  0.00000000000E+00  0.00000000000E+00 -0.12655617118E+04  0.12655617118E+04  0.25500000920E-02 0. -1.
    10030    2    1    2    0    0  0.00000000000E+00  0.00000000000E+00  0.39086705466E+03  0.29219904783E+04  0.28957298390E+04 0.  0.
        4    1    3    3  502    0 -0.57527324204E+03 -0.12598917806E+04  0.62121344232E+03  0.15179507092E+04  0.12699999809E+01 0.  1.
       -4    1    3    3    0  502  0.57527324204E+03  0.12598917806E+04 -0.23034638766E+03  0.14040397690E+04  0.12699999809E+01 0. -1.
</event>
<event>
 5   0  0.7621125E-07  0.2901817E+04  0.7818609E-02  0.8272337E-01
       -3   -1    0    0    0  501  0.00000000000E+00  0.00000000000E+00  0.15881100713E+04  0.15881100745E+04  0.10100000352E+00 0. -1.
        3   -1    0    0  501    0  0.00000000000E+00  0.00000000000E+00 -0.13255604474E+04  0.13255604513E+04  0.10100000352E+00 0.  1.
    10030    2    1    2    0    0  0.00000000000E+00  0.00000000000E+00  0.26254962388E+03  0.29136705258E+04  0.29018172975E+04 0.  0.
        4    1    3    3  502    0 -0.18959887928E+03 -0.91645679167E+03 -0.98198919899E+03  0.13565195118E+04  0.12699999809E+01 0.  1.
       -4    1    3    3    0  502  0.18959887928E+03  0.91645679167E+03  0.12445388229E+04  0.15571510140E+04  0.12699999809E+01 0. -1.
</event>
<event>
 5   0  0.2360103E-06  0.2916081E+04  0.7818609E-02  0.8268109E-01
        2   -1    0    0  501    0  0.00000000000E+00  0.00000000000E+00  0.12907884532E+04  0.12907884532E+04  0.25500000920E-02 0. -1.
       -2   -1    0    0    0  501  0.00000000000E+00  0.00000000000E+00 -0.16469645045E+04  0.16469645045E+04  0.25500000920E-02 0.  1.
    10030    2    1    2    0    0  0.00000000000E+00  0.00000000000E+00 -0.35617605129E+03  0.29377529576E+04  0.29160814564E+04 0.  0.
        4    1    3    3  502    0 -0.13231866778E+04 -0.47987248698E+03 -0.56141621098E+03  0.15153515641E+04  0.12699999809E+01 0.  1.
       -4    1    3    3    0  502  0.13231866778E+04  0.47987248698E+03  0.20524015969E+03  0.14224013935E+04  0.12699999809E+01 0. -1.
</event>
<event>
 5   0  0.2360103E-06  0.2909650E+04  0.7818609E-02  0.8270012E-01
       -2   -1    0    0    0  501  0.00000000000E+00  0.00000000000E+00  0.10984919317E+04  0.10984919318E+04  0.25500000920E-02 0.  1.
        2   -1    0    0  501    0  0.00000000000E+00  0.00000000000E+00 -0.19267464593E+04  0.19267464593E+04  0.25500000920E-02 0. -1.
    10030    2    1    2    0    0  0.00000000000E+00  0.00000000000E+00 -0.82825452758E+03  0.30252383911E+04  0.29096497659E+04 0.  0.
        4    1    3    3  502    0  0.13171225338E+04  0.33065084838E+03 -0.95675273532E+03  0.16611800511E+04  0.12699999809E+01 0.  1.
       -4    1    3    3    0  502 -0.13171225338E+04 -0.33065084838E+03  0.12849820774E+03  0.13640583400E+04  0.12699999809E+01 0. -1.
</event>
<event>
 5   0  0.2325590E-06  0.2892416E+04  0.7818609E-02  0.8275138E-01
       -2   -1    0    0    0  501  0.00000000000E+00  0.00000000000E+00  0.80167987033E+03  0.80167987033E+03  0.25500000920E-02 0.  1.
        2   -1    0    0  501    0  0.00000000000E+00  0.00000000000E+00 -0.26089182238E+04  0.26089182238E+04  0.25500000920E-02 0. -1.
    10030    2    1    2    0    0  0.00000000000E+00  0.00000000000E+00 -0.18072383535E+04  0.34105980942E+04  0.28924157539E+04 0.  0.
        5    1    3    3  502    0 -0.22256123012E+03 -0.30118694824E+03 -0.25507423157E+04  0.25780914511E+04  0.46999998093E+01 0. -1.
       -5    1    3    3    0  502  0.22256123012E+03  0.30118694824E+03  0.74350396222E+03  0.83250664308E+03  0.46999998093E+01 0.  1.
</event>
<event>
 5   0  0.8483636E-07  0.2892258E+04  0.7818609E-02  0.8275185E-01
       -1   -1    0    0    0  501  0.00000000000E+00  0.00000000000E+00  0.12089747113E+04  0.12089747113E+04  0.50400001928E-02 0. -1.
        1   -1    0    0  501    0  0.00000000000E+00  0.00000000000E+00 -0.17298041581E+04  0.17298041581E+04  0.50400001928E-02 0.  1.
    10030    2    1    2    0    0  0.00000000000E+00  0.00000000000E+00 -0.52082944687E+03  0.29387788694E+04  0.28922582752E+04 0.  0.
        2    1    3    3  502    0 -0.99945250584E+03 -0.75164804600E+03 -0.99832534797E+03  0.16001667403E+04  0.25500000920E-02 0. -1.
       -2    1    3    3    0  502  0.99945250584E+03  0.75164804600E+03  0.47749590110E+03  0.13386121291E+04  0.25500000920E-02 0.  1.
</event>
<event>
 5   0  0.8357118E-07  0.2899896E+04  0.7818609E-02  0.8272908E-01
        1   -1    0    0  501    0  0.00000000000E+00  0.00000000000E+00  0.31627398167E+04  0.31627398167E+04  0.50400001928E-02 0. -1.
       -1   -1    0    0    0  501  0.00000000000E+00  0.00000000000E+00 -0.66472395259E+03  0.66472395261E+03  0.50400001928E-02 0.  1.
    10030    2    1    2    0    0  0.00000000000E+00  0.00000000000E+00  0.24980158641E+04  0.38274637693E+04  0.28998957995E+04 0.  0.
        1    1    3    3  502    0  0.12595179046E+04 -0.71432731772E+03  0.13486557434E+04  0.19787675920E+04  0.50400001928E-02 0. -1.
       -1    1    3    3    0  502 -0.12595179046E+04  0.71432731772E+03  0.11493601207E+04  0.18486961773E+04  0.50400001928E-02 0.  1.
</event>
<event>
 5   0  0.8263673E-07  0.2897414E+04  0.7818609E-02  0.8273647E-01
       -1   -1    0    0    0  501  0.00000000000E+00  0.00000000000E+00  0.13940746494E+04  0.13940746494E+04  0.50400001928E-02 0. -1.
        1   -1    0    0  501    0  0.00000000000E+00  0.00000000000E+00 -0.15054807239E+04  0.15054807239E+04  0.50400001928E-02 0.  1.
    10030    2    1    2    0    0  0.00000000000E+00  0.00000000000E+00 -0.11140607444E+03  0.28995553733E+04  0.28974143731E+04 0.  0.
        5    1    3    3  502    0  0.11404531025E+04  0.53440686593E+03  0.66072151741E+03  0.14222513811E+04  0.46999998093E+01 0. -1.
       -5    1    3    3    0  502 -0.11404531025E+04 -0.53440686593E+03 -0.77212759186E+03  0.14773039922E+04  0.46999998093E+01 0.  1.
</event>
<event>
 5   0  0.2304435E-06  0.2896162E+04  0.7818609E-02  0.8274020E-01
       -2   -1    0    0    0  501  0.00000000000E+00  0.00000000000E+00  0.16268341184E+04  0.16268341184E+04  0.25500000920E-02 0.  1.
        2   -1    0    0  501    0  0.00000000000E+00  0.00000000000E+00 -0.12889693329E+04  0.12889693329E+04  0.25500000920E-02 0. -1.
    10030    2    1    2    0    0  0.00000000000E+00  0.00000000000E+00  0.33786478552E+03  0.29158034513E+04  0.28961624874E+04 0.  0.
        1    1    3    3  502    0 -0.89101459464E+03  0.83114641543E+03  0.95668869453E+03  0.15491819228E+04  0.50400001928E-02 0.  1.
       -1    1    3    3    0  502  0.89101459464E+03 -0.83114641543E+03 -0.61882390901E+03  0.13666215285E+04  0.50400001928E-02 0. -1.
</event>
<event>
 5   0  0.7621125E-07  0.2902426E+04  0.7818609E-02  0.8272156E-01
        4   -1    0    0  501    0  0.00000000000E+00  0.00000000000E+00  0.17002291928E+04  0.17002296671E+04  0.12699999809E+01 0. -1.
       -4   -1    0    0    0  501  0.00000000000E+00  0.00000000000E+00 -0.12386668899E+04  0.12386675410E+04  0.12699999809E+01 0.  1.
    10030    2    1    2    0    0  0.00000000000E+00  0.00000000000E+00  0.46156230290E+03  0.29388972081E+04  0.29024260611E+04 0.  0.
        3    1    3    3  502    0  0.16344065396E+03 -0.24388882611E+03 -0.12082827018E+04  0.12434394656E+04  0.10100000352E+00 0.  1.
       -3    1    3    3    0  502 -0.16344065396E+03  0.24388882611E+03  0.16698450047E+04  0.16954577425E+04  0.10100000352E+00 0. -1.
</event>
<event>
 5   0  0.2360103E-06  0.2902296E+04  0.7818609E-02  0.8272195E-01
        2   -1    0    0  501    0  0.00000000000E+00  0.00000000000E+00  0.16490916850E+04  0.16490916850E+04  0.25500000920E-02 0.  1.
       -2   -1    0    0    0  501  0.00000000000E+00  0.00000000000E+00 -0.12769636035E+04  0.12769636035E+04  0.25500000920E-02 0. -1.
    10030    2    1    2    0    0  0.00000000000E+00  0.00000000000E+00  0.37212808143E+03  0.29260552885E+04  0.29022956849E+04 0.  0.
        4    1    3    3  502    0 -0.60987167968E+03  0.79178781540E+03  0.12467974668E+04  0.15979289553E+04  0.12699999809E+01 0.  1.
       -4    1    3    3    0  502  0.60987167968E+03 -0.79178781540E+03 -0.87466938534E+03  0.13281263332E+04  0.12699999809E+01 0. -1.
</event>
<event>
 5   0  0.8263673E-07  0.2872745E+04  0.7818609E-02  0.8281033E-01
        1   -1    0    0  501    0  0.00000000000E+00  0.00000000000E+00  0.29068300144E+04  0.29068300144E+04  0.50400001928E-02 0.  1.
       -1   -1    0    0    0  501  0.00000000000E+00  0.00000000000E+00 -0.70976487138E+03  0.70976487140E+03  0.50400001928E-02 0. -1.
    10030    2    1    2    0    0  0.00000000000E+00  0.00000000000E+00  0.21970651430E+04  0.36165948858E+04  0.28727449113E+04 0.  0.
        5    1    3    3  502    0  0.11692322834E+04 -0.75578780650E+03  0.15433200412E+04  0.20785038322E+04  0.46999998093E+01 0.  1.
       -5    1    3    3    0  502 -0.11692322834E+04  0.75578780650E+03  0.65374510180E+03  0.15380910536E+04  0.46999998093E+01 0. -1.
</event>
<event>
 5   0  0.8947674E-07  0.2901786E+04  0.7818609E-02  0.8272346E-01
       -1   -1    0    0    0  501  0.00000000000E+00  0.00000000000E+00  0.29963292347E+04  0.29963292347E+04  0.50400001928E-02 0. -1.
        1   -1    0    0  501    0  0.00000000000E+00  0.00000000000E+00 -0.70255645914E+03  0.70255645916E+03  0.50400001928E-02 0.  1.
    10030    2    1    2    0    0  0.00000000000E+00  0.00000000000E+00  0.22937727756E+04  0.36988856939E+04  0.29017859725E+04 0.  0.
        3    1    3    3  502    0 -0.18918995257E+03  0.92715943102E+03 -0.25508621583E+03  0.98004409920E+03  0.10100000352E+00 0.  1.
       -3    1    3    3    0  502  0.18918995257E+03 -0.92715943102E+03  0.25488589914E+04  0.27188415947E+04  0.10100000352E+00 0. -1.
</event>
<event>
 5   0  0.8483636E-07  0.2901289E+04  0.7818609E-02  0.8272494E-01
        1   -1    0    0  501    0  0.00000000000E+00  0.00000000000E+00  0.20365189149E+04  0.20365189149E+04  0.50400001928E-02 0.  1.
       -1   -1    0    0    0  501  0.00000000000E+00  0.00000000000E+00 -0.10333167433E+04  0.10333167434E+04  0.50400001928E-02 0. -1.
    10030    2    1    2    0    0  0.00000000000E+00  0.00000000000E+00  0.10032021715E+04  0.30698356582E+04  0.29012887432E+04 0.  0.
        2    1    3    3  502    0 -0.11686763214E+04 -0.44107532626E+03 -0.27882276018E+03  0.12798804316E+04  0.25500000920E-02 0. -1.
       -2    1    3    3    0  502  0.11686763214E+04  0.44107532626E+03  0.12820249317E+04  0.17899552266E+04  0.25500000920E-02 0.  1.
</event>
<event>
 5   0  0.8483636E-07  0.2910545E+04  0.7818609E-02  0.8269747E-01
        1   -1    0    0  501    0  0.00000000000E+00  0.00000000000E+00  0.24911940223E+04  0.24911940223E+04  0.50400001928E-02 0. -1.
       -1   -1    0    0    0  501  0.00000000000E+00  0.00000000000E+00 -0.85012167808E+03  0.85012167810E+03  0.50400001928E-02 0.  1.
    10030    2    1    2    0    0  0.00000000000E+00  0.00000000000E+00  0.16410723442E+04  0.33413157004E+04  0.29105449955E+04 0.  0.
        2    1    3    3  502    0  0.10616734350E+04  0.99520067160E+03  0.83843852723E+03  0.16794505123E+04  0.25500000920E-02 0. -1.
       -2    1    3    3    0  502 -0.10616734350E+04 -0.99520067160E+03  0.80263381694E+03  0.16618651881E+04  0.25500000920E-02 0.  1.
</event>
<event>
 5   0  0.8263673E-07  0.2943621E+04  0.7818609E-02  0.8260016E-01
        1   -1    0    0  501    0  0.00000000000E+00  0.00000000000E+00  0.79408263002E+03  0.79408263004E+03  0.50400001928E-02 0.  1.
       -1   -1    0    0    0  501  0.00000000000E+00  0.00000000000E+00 -0.27279608462E+04  0.27279608462E+04  0.50400001928E-02 0. -1.
    10030    2    1    2    0    0  0.00000000000E+00  0.00000000000E+00 -0.19338782161E+04  0.35220434762E+04  0.29436211192E+04 0.  0.
        5    1    3    3  502    0  0.26745292002E+03 -0.69395407352E+03  0.55271087978E+03  0.92661465950E+03  0.46999998093E+01 0.  1.
       -5    1    3    3    0  502 -0.26745292002E+03  0.69395407352E+03 -0.24865890959E+04  0.25954288167E+04  0.46999998093E+01 0. -1.
</event>
<event>
 5   0  0.2304435E-06  0.2911468E+04  0.7818609E-02  0.8269474E-01
        2   -1    0    0  501    0  0.00000000000E+00  0.00000000000E+00  0.21681301832E+04  0.21681301832E+04  0.25500000920E-02 0.  1.
       -2   -1    0    0    0  501  0.00000000000E+00  0.00000000000E+00 -0.97741420880E+03  0.97741420880E+03  0.25500000920E-02 0. -1.
    10030    2    1    2    0    0  0.00000000000E+00  0.00000000000E+00  0.11907159744E+04  0.31455443920E+04  0.29114678412E+04 0.  0.
        1    1    3    3  502    0 -0.55612798682E+03 -0.41579243438E+03 -0.78696045657E+03  0.10495086691E+04  0.50400001928E-02 0. -1.
       -1    1    3    3    0  502  0.55612798682E+03  0.41579243438E+03  0.19776764310E+04  0.20960357230E+04  0.50400001928E-02 0.  1.
</event>
<event>
 5   0  0.8355946E-07  0.2898287E+04  0.7818609E-02  0.8273387E-01
        1   -1    0    0  501    0  0.00000000000E+00  0.00000000000E+00  0.27889755327E+04  0.27889755327E+04  0.50400001928E-02 0.  1.
       -1   -1    0    0    0  501  0.00000000000E+00  0.00000000000E+00 -0.75297050888E+03  0.75297050889E+03  0.50400001928E-02 0. -1.
    10030    2    1    2    0    0  0.00000000000E+00  0.00000000000E+00  0.20360050239E+04  0.35419460416E+04  0.28982866153E+04 0.  0.
        4    1    3    3  502    0 -0.65640807398E+03  0.12756673450E+04  0.12679056686E+04  0.19146240185E+04  0.12699999809E+01 0.  1.
       -4    1    3    3    0  502  0.65640807398E+03 -0.12756673450E+04  0.76809935524E+03  0.16273220232E+04  0.12699999809E+01 0. -1.
</event>
<event>
 5   0  0.8357118E-07  0.2924688E+04  0.7818609E-02  0.8265570E-01
       -1   -1    0    0    0  501  0.00000000000E+00  0.00000000000E+00  0.85849448186E+03  0.85849448188E+03  0.50400001928E-02 0. -1.
        1   -1    0    0  501    0  0.00000000000E+00  0.00000000000E+00 -0.24909304653E+04  0.24909304653E+04  0.50400001928E-02 0.  1.
    10030    2    1    2    0    0  0.00000000000E+00  0.00000000000E+00 -0.16324359834E+04  0.33494249472E+04  0.29246880580E+04 0.  0.
        1    1    3    3  502    0  0.93939501023E+03 -0.30508186546E+03  0.41877402160E+03  0.10728045540E+04  0.50400001928E-02 0. -1.
       -1    1    3    3    0  502 -0.93939501023E+03  0.30508186546E+03 -0.20512100050E+04  0.22766203932E+04  0.50400001928E-02 0.  1.
</event>
<event>
 5   0  0.2360103E-06  0.2874327E+04  0.7818609E-02  0.8280557E-01
       -2   -1    0    0    0  501  0.00000000000E+00  0.00000000000E+00  0.10096882645E+04  0.10096882645E+04  0.25500000920E-02 0. -1.
        2   -1    0    0  501    0  0.00000000000E+00  0.00000000000E+00 -0.20456200788E+04  0.20456200788E+04  0.25500000920E-02 0.  1.
    10030    2    1    2    0    0  0.00000000000E+00  0.00000000000E+00 -0.10359318142E+04  0.30553083433E+04  0.28743267645E+04 0.  0.
        4    1    3    3  502    0  0.11898428457E+04 -0.55038173364E+03  0.10800301006E+03  0.13154133622E+04  0.12699999809E+01 0.  1.
       -4    1    3    3    0  502 -0.11898428457E+04  0.55038173364E+03 -0.11439348243E+04  0.17398949811E+04  0.12699999809E+01 0. -1.
</event>
<event>
 5   0  0.8263673E-07  0.2903906E+04  0.7818609E-02  0.8271716E-01
       -1   -1    0    0    0  501  0.00000000000E+00  0.00000000000E+00  0.10733551248E+04  0.10733551248E+04  0.50400001928E-02 0. -1.
        1   -1    0    0  501    0  0.00000000000E+00  0.00000000000E+00 -0.19640914811E+04  0.19640914811E+04  0.50400001928E-02 0.  1.
    10030    2    1    2    0    0  0.00000000000E+00  0.00000000000E+00 -0.89073635626E+03  0.30374466059E+04  0.29039060982E+04 0.  0.
        5    1    3    3  502    0  0.11335261034E+04 -0.81837598010E+03 -0.35527097542E+02  0.13985367127E+04  0.46999998093E+01 0. -1.
       -5    1    3    3    0  502 -0.11335261034E+04  0.81837598010E+03 -0.85520925872E+03  0.16389098932E+04  0.46999998093E+01 0.  1.
</event>
<event>
 5   0  0.8263673E-07  0.2904764E+04  0.7818609E-02  0.8271461E-01
       -1   -1    0    0    0  501  0.00000000000E+00  0.00000000000E+00  0.17948269268E+04  0.17948269268E+04  0.50400001928E-02 0.  1.
        1   -1    0    0  501    0  0.00000000000E+00  0.00000000000E+00 -0.11752742672E+04  0.11752742672E+04  0.50400001928E-02 0. -1.
    10030    2    1    2    0    0  0.00000000000E+00  0.00000000000E+00  0.61955265956E+03  0.29701011940E+04  0.29047642942E+04 0.  0.
        5    1    3    3  502    0 -0.13527458181E+04  0.52587394853E+03  0.25445621637E+03  0.14735110160E+04  0.46999998093E+01 0.  1.
       -5    1    3    3    0  502  0.13527458181E+04 -0.52587394853E+03  0.36509644319E+03  0.14965901780E+04  0.46999998093E+01 0. -1.
</event>
<event>
 5   0  0.8355946E-07  0.2905165E+04  0.7818609E-02  0.8271342E-01
        1   -1    0    0  501    0  0.00000000000E+00  0.00000000000E+00  0.18432227050E+04  0.18432227050E+04  0.50400001928E-02 0. -1.
       -1   -1    0    0    0  501  0.00000000000E+00  0.00000000000E+00 -0.11447317652E+04  0.11447317653E+04  0.50400001928E-02 0.  1.
    10030    2    1    2    0    0  0.00000000000E+00  0.00000000000E+00  0.69849093975E+03  0.29879544703E+04  0.29051647670E+04 0.  0.
        4    1    3    3  502    0  0.74128367590E+03  0.10655271152E+04 -0.32136674898E+03  0.13372089297E+04  0.12699999809E+01 0.  1.
       -4    1    3    3    0  502 -0.74128367590E+03 -0.10655271152E+04  0.10198576887E+04  0.16507455405E+04  0.12699999809E+01 0. -1.
</event>
<event>
 5   0  0.2304435E-06  0.2888642E+04  0.7818609E-02  0.8276265E-01
        2   -1    0    0  501    0  0.00000000000E+00  0.00000000000E+00  0.14995788273E+04  0.14995788273E+04  0.25500000920E-02 0. -1.
       -2   -1    0    0    0  501  0.00000000000E+00  0.00000000000E+00 -0.13910994966E+04  0.13910994966E+04  0.25500000920E-02 0.  1.
    10030    2    1    2    0    0  0.00000000000E+00  0.00000000000E+00  0.10847933071E+03  0.28906783239E+04  0.28886421390E+04 0.  0.
        1    1    3    3  502    0  0.23847050412E+01 -0.13015646015E+04  0.68076984516E+03  0.14688511432E+04  0.50400001928E-02 0. -1.
       -1    1    3    3    0  502 -0.23847050412E+01  0.13015646015E+04 -0.57229051445E+03  0.14218271807E+04  0.50400001928E-02 0.  1.
</event>
<event>
 5   0  0.8355946E-07  0.2901930E+04  0.7818609E-02  0.8272304E-01
        1   -1    0    0  501    0  0.00000000000E+00  0.00000000000E+00  0.21225135177E+04  0.21225135177E+04  0.50400001928E-02 0.  1.
       -1   -1    0    0    0  501  0.00000000000E+00  0.00000000000E+00 -0.99188955236E+03  0.99188955237E+03  0.50400001928E-02 0. -1.
    10030    2    1    2    0    0  0.00000000000E+00  0.00000000000E+00  0.11306239653E+04  0.31144030701E+04  0.29019296911E+04 0.  0.
        4    1    3    3  502    0 -0.13081379413E+04  0.50404155266E+02 -0.10622744862E+03  0.13134120969E+04  0.12699999809E+01 0. -1.
       -4    1    3    3    0  502  0.13081379413E+04 -0.50404155266E+02  0.12368514139E+04  0.18009909732E+04  0.12699999809E+01 0.  1.
</event>
<event>
 5   0  0.2304435E-06  0.2863415E+04  0.7818609E-02  0.8283847E-01
        2   -1    0    0  501    0  0.00000000000E+00  0.00000000000E+00  0.19729161953E+04  0.19729161953E+04  0.25500000920E-02 0.  1.
       -2   -1    0    0    0  501  0.00000000000E+00  0.00000000000E+00 -0.10389627515E+04  0.10389627515E+04  0.25500000920E-02 0. -1.
    10030    2    1    2    0    0  0.00000000000E+00  0.00000000000E+00  0.93395344382E+03  0.30118789468E+04  0.28634150511E+04 0.  0.
        1    1    3    3  502    0  0.92779399667E+03  0.10255829159E+04  0.85653635355E+03  0.16267380068E+04  0.50400001928E-02 0.  1.
       -1    1    3    3    0  502 -0.92779399667E+03 -0.10255829159E+04  0.77417090266E+02  0.13851409400E+04  0.50400001928E-02 0. -1.
</event>
<event>
 5   0  0.2378690E-06  0.2900853E+04  0.7818609E-02  0.8272624E-01
       -2   -1    0    0    0  501  0.00000000000E+00  0.00000000000E+00  0.83768354841E+03  0.83768354842E+03  0.25500000920E-02 0.  1.
        2   -1    0    0  501    0  0.00000000000E+00  0.00000000000E+00 -0.25113739889E+04  0.25113739889E+04  0.25500000920E-02 0. -1.
    10030    2    1    2    0    0  0.00000000000E+00  0.00000000000E+00 -0.16736904405E+04  0.33490575373E+04  0.29008527536E+04 0.  0.
        3    1    3    3  502    0 -0.67869688809E+03 -0.12655051219E+04 -0.10723308386E+04  0.17922126317E+04  0.10100000352E+00 0.  1.
       -3    1    3    3    0  502  0.67869688809E+03  0.12655051219E+04 -0.60135960187E+03  0.15568449057E+04  0.10100000352E+00 0. -1.
</event>
<event>
 5   0  0.2378690E-06  0.2893919E+04  0.7818609E-02  0.8274689E-01
        2   -1    0    0  501    0  0.00000000000E+00  0.00000000000E+00  0.18144168631E+04  0.18144168631E+04  0.25500000920E-02 0.  1.
       -2   -1    0    0    0  501  0.00000000000E+00  0.00000000000E+00 -0.11539202465E+04  0.11539202466E+04  0.25500000920E-02 0. -1.
    10030    2    1    2    0    0  0.00000000000E+00  0.00000000000E+00  0.66049661654E+03  0.29683371096E+04  0.28939193866E+04 0.  0.
        3    1    3    3  502    0 -0.91673746425E+02  0.12416713869E+03 -0.11454528233E+04  0.11558043669E+04  0.10100000352E+00 0. -1.
       -3    1    3    3    0  502  0.91673746425E+02 -0.12416713869E+03  0.18059494398E+04  0.18125327427E+04  0.10100000352E+00 0.  1.
</event>
<event>
 5   0  0.8357118E-07  0.2942979E+04  0.7818609E-02  0.8260204E-01
        1   -1    0    0  501    0  0.00000000000E+00  0.00000000000E+00  0.16009150755E+04  0.16009150755E+04  0.50400001928E-02 0. -1.
       -1   -1    0    0    0  501  0.00000000000E+00  0.00000000000E+00 -0.13525272070E+04  0.13525272070E+04  0.50400001928E-02 0.  1.
    10030    2    1    2    0    0  0.00000000000E+00  0.00000000000E+00  0.24838786858E+03  0.29534422825E+04  0.29429788961E+04 0.  0.
        1    1    3    3  502    0  0.11614009115E+04 -0.48568933242E+03  0.88883134224E+03  0.15410280204E+04  0.50400001928E-02 0. -1.
       -1    1    3    3    0  502 -0.11614009115E+04  0.48568933242E+03 -0.64044347367E+03  0.14124142621E+04  0.50400001928E-02 0.  1.
</event>
<event>
 5   0  0.8263673E-07  0.2757892E+04  0.7818609E-02  0.8316462E-01
        1   -1    0    0  501    0  0.00000000000E+00  0.00000000000E+00  0.14100414957E+04  0.14100414957E+04  0.50400001928E-02 0. -1.
       -1   -1    0    0    0  501  0.00000000000E+00  0.00000000000E+00 -0.13485359401E+04  0.13485359401E+04  0.50400001928E-02 0.  1.
    10030    2    1    2    0    0  0.00000000000E+00  0.00000000000E+00  0.61505555668E+02  0.27585774358E+04  0.27578916832E+04 0.  0.
        5    1    3    3  502    0 -0.13462506878E+04  0.25068059206E+03  0.19277413534E+03  0.13829011645E+04  0.46999998093E+01 0. -1.
       -5    1    3    3    0  502  0.13462506878E+04 -0.25068059206E+03 -0.13126857967E+03  0.13756762713E+04  0.46999998093E+01 0.  1.
</event>
<event>
 5   0  0.2378690E-06  0.2901006E+04  0.7818609E-02  0.8272578E-01
       -2   -1    0    0    0  501  0.00000000000E+00  0.00000000000E+00  0.14229516595E+04  0.14229516595E+04  0.25500000920E-02 0.  1.
        2   -1    0    0  501    0  0.00000000000E+00  0.00000000000E+00 -0.14785882432E+04  0.14785882432E+04  0.25500000920E-02 0. -1.
    10030    2    1    2    0    0  0.00000000000E+00  0.00000000000E+00 -0.55636583698E+02  0.29015399027E+04  0.29010064422E+04 0.  0.
        3    1    3    3  502    0  0.84552515440E+03  0.28538562883E+03  0.11158961784E+04  0.14288394014E+04  0.10100000352E+00 0.  1.
       -3    1    3    3    0  502 -0.84552515440E+03 -0.28538562883E+03 -0.11715327620E+04  0.14727005013E+04  0.10100000352E+00 0. -1.
</event>
<event>
 5   0  0.8263673E-07  0.2894355E+04  0.7818609E-02  0.8274559E-01
       -1   -1    0    0    0  501  0.00000000000E+00  0.00000000000E+00  0.14735678003E+04  0.14735678003E+04  0.50400001928E-02 0.  1.
        1   -1    0    0  501    0  0.00000000000E+00  0.00000000000E+00 -0.14212596554E+04  0.14212596555E+04  0.50400001928E-02 0. -1.
    10030    2    1    2    0    0  0.00000000000E+00  0.00000000000E+00  0.52308144828E+02  0.28948274557E+04  0.28943548256E+04 0.  0.
        5    1    3    3  502    0  0.10324209164E+04  0.45768539818E+03 -0.87894204205E+03  0.14310590748E+04  0.46999998093E+01 0. -1.
       -5    1    3    3    0  502 -0.10324209164E+04 -0.45768539818E+03  0.93125018687E+03  0.14637683809E+04  0.46999998093E+01 0.  1.
</event>
<event>
 5   0  0.2425845E-06  0.2893731E+04  0.7818609E-02  0.8274745E-01
       -2   -1    0    0    0  501  0.00000000000E+00  0.00000000000E+00  0.77678380845E+03  0.77678380846E+03  0.25500000920E-02 0. -1.
        2   -1    0    0  501    0  0.00000000000E+00  0.00000000000E+00 -0.26949836812E+04  0.26949836812E+04  0.25500000920E-02 0.  1.
    10030    2    1    2    0    0  0.00000000000E+00  0.00000000000E+00 -0.19181998727E+04  0.34717674896E+04  0.28937309395E+04 0.  0.
        2    1    3    3  502    0 -0.91032406420E+03  0.83385931251E+03 -0.53775106833E+02  0.12356791724E+04  0.25500000920E-02 0. -1.
       -2    1    3    3    0  502  0.91032406420E+03 -0.83385931251E+03 -0.18644247659E+04  0.22360883173E+04  0.25500000920E-02 0.  1.
</event>
<event>
 5   0  0.8947674E-07  0.2900767E+04  0.7818609E-02  0.8272649E-01
        1   -1    0    0  501    0  0.00000000000E+00  0.00000000000E+00  0.11286593184E+04  0.11286593184E+04  0.50400001928E-02 0.  1.
       -1   -1    0    0    0  501  0.00000000000E+00  0.00000000000E+00 -0.18638145686E+04  0.18638145686E+04  0.50400001928E-02 0. -1.
    10030    2    1    2    0    0  0.00000000000E+00  0.00000000000E+00 -0.73515525017E+03  0.29924738870E+04  0.29007665750E+04 0.  0.
        3    1    3    3  502    0  0.46092692223E+03 -0.69182690482E+03 -0.15936524549E+04  0.17974443666E+04  0.10100000352E+00 0. -1.
       -3    1    3    3    0  502 -0.46092692223E+03  0.69182690482E+03  0.85849720475E+03  0.11950295204E+04  0.10100000352E+00 0.  1.
</event>
<event>
 5   0  0.8357118E-07  0.2896196E+04  0.7818609E-02  0.8274010E-01
        1   -1    0    0  501    0  0.00000000000E+00  0.00000000000E+00  0.14908810759E+04  0.14908810759E+04  0.50400001928E-02 0. -1.
       -1   -1    0    0    0  501  0.00000000000E+00  0.00000000000E+00 -0.14065426126E+04  0.14065426126E+04  0.50400001928E-02 0.  1.
    10030    2    1    2    0    0  0.00000000000E+00  0.00000000000E+00  0.84338463284E+02  0.28974236886E+04  0.28961959628E+04 0.  0.
        1    1    3    3  502    0 -0.60326205686E+03  0.34551875415E+03  0.13130145582E+04  0.14857037217E+04  0.50400001928E-02 0. -1.
       -1    1    3    3    0  502  0.60326205686E+03 -0.34551875415E+03 -0.12286760949E+04  0.14117199669E+04  0.50400001928E-02 0.  1.
</event>
<event>
 5   0  0.8355946E-07  0.2900179E+04  0.7818609E-02  0.8272824E-01
        1   -1    0    0  501    0  0.00000000000E+00  0.00000000000E+00  0.16486121911E+04  0.16486121911E+04  0.50400001928E-02 0. -1.
       -1   -1    0    0    0  501  0.00000000000E+00  0.00000000000E+00 -0.12754728673E+04  0.12754728673E+04  0.50400001928E-02 0.  1.
    10030    2    1    2    0    0  0.00000000000E+00  0.00000000000E+00  0.37313932383E+03  0.29240850585E+04  0.29001793865E+04 0.  0.
        4    1    3    3  502    0  0.45310299176E+03  0.57459328889E+03  0.14488070266E+04  0.16231152707E+04  0.12699999809E+01 0. -1.
       -4    1    3    3    0  502 -0.45310299176E+03 -0.57459328889E+03 -0.10756677028E+04  0.13009697877E+04  0.12699999809E+01 0.  1.
</event>
<event>
 5   0  0.2360103E-06  0.2897267E+04  0.7818609E-02  0.8273691E-01
       -2   -1    0    0    0  501  0.00000000000E+00  0.00000000000E+00  0.10131809767E+04  0.10131809767E+04  0.25500000920E-02 0.  1.
        2   -1    0    0  501    0  0.00000000000E+00  0.00000000000E+00 -0.20712381708E+04  0.20712381708E+04  0.25500000920E-02 0. -1.
    10030    2    1    2    0    0  0.00000000000E+00  0.00000000000E+00 -0.10580571941E+04  0.30844191475E+04  0.28972670660E+04 0.  0.
        4    1    3    3  502    0  0.33965843020E+03  0.11774490928E+04  0.29339049930E+03  0.12600927797E+04  0.12699999809E+01 0.  1.
       -4    1    3    3    0  502 -0.33965843020E+03 -0.11774490928E+04 -0.13514476934E+04  0.18243263678E+04  0.12699999809E+01 0. -1.
</event>
<event>
 5   0  0.8947674E-07  0.2893399E+04  0.7818609E-02  0.8274844E-01
       -1   -1    0    0    0  501  0.00000000000E+00  0.00000000000E+00  0.11971463852E+04  0.11971463852E+04  0.50400001928E-02 0.  1.
        1   -1    0    0  501    0  0.00000000000E+00  0.00000000000E+00 -0.17482730897E+04  0.17482730897E+04  0.50400001928E-02 0. -1.
    10030    2    1    2    0    0  0.00000000000E+00  0.00000000000E+00 -0.55112670449E+03  0.29454194749E+04  0.28933985620E+04 0.  0.
        3    1    3    3  502    0 -0.62186538079E+03  0.81520567119E+03  0.76340494377E+03  0.12783051109E+04  0.10100000352E+00 0.  1.
       -3    1    3    3    0  502  0.62186538079E+03 -0.81520567119E+03 -0.13145316483E+04  0.16671143640E+04  0.10100000352E+00 0. -1.
</event>
<event>
 5   0  0.8263673E-07  0.2912219E+04  0.7818609E-02  0.8269251E-01
        1   -1    0    0  501    0  0.00000000000E+00  0.00000000000E+00  0.28118437478E+04  0.28118437478E+04  0.50400001928E-02 0.  1.
       -1   -1    0    0    0  501  0.00000000000E+00  0.00000000000E+00 -0.75404417251E+03  0.75404417253E+03  0.50400001928E-02 0. -1.
    10030    2    1    2    0    0  0.00000000000E+00  0.00000000000E+00  0.20577995753E+04  0.35658879204E+04  0.29122186677E+04 0.  0.
        5    1    3    3  502    0  0.11490863652E+04 -0.82758519996E+03  0.61378240116E+03  0.15433883710E+04  0.46999998093E+01 0. -1.
       -5    1    3    3    0  502 -0.11490863652E+04  0.82758519996E+03  0.14440171742E+04  0.20224995494E+04  0.46999998093E+01 0.  1.
</event>
<event>
 5   0  0.8355946E-07  0.2895081E+04  0.7818609E-02  0.8274342E-01
        1   -1    0    0  501    0  0.00000000000E+00  0.00000000000E+00  0.19522932548E+04  0.19522932548E+04  0.50400001928E-02 0. -1.
       -1   -1    0    0    0  501  0.00000000000E+00  0.00000000000E+00 -0.10732885270E+04  0.10732885270E+04  0.50400001928E-02 0.  1.
    10030    2    1    2    0    0  0.00000000000E+00  0.00000000000E+00  0.87900472777E+03  0.30255817818E+04  0.28950813127E+04 0.  0.
        4    1    3    3  502    0 -0.61877189855E+03 -0.17057738086E+02  0.18069972800E+04  0.19100812579E+04  0.12699999809E+01 0. -1.
       -4    1    3    3    0  502  0.61877189855E+03  0.17057738086E+02 -0.92799255226E+03  0.11155005239E+04  0.12699999809E+01 0.  1.
</event>
<event>
 5   0  0.2425845E-06  0.2905442E+04  0.7818609E-02  0.8271260E-01
        2   -1    0    0  501    0  0.00000000000E+00  0.00000000000E+00  0.15261777963E+04  0.15261777963E+04  0.25500000920E-02 0. -1.
       -2   -1    0    0    0  501  0.00000000000E+00  0.00000000000E+00 -0.13827997950E+04  0.13827997950E+04  0.25500000920E-02 0.  1.
    10030    2    1    2    0    0  0.00000000000E+00  0.00000000000E+00  0.14337800131E+03  0.29089775914E+04  0.29054420276E+04 0.  0.
        2    1    3    3  502    0 -0.51795845690E+02 -0.12391326064E+04  0.82909214247E+03  0.14918197634E+04  0.25500000920E-02 0.  1.
       -2    1    3    3    0  502  0.51795845690E+02  0.12391326064E+04 -0.68571414116E+03  0.14171578279E+04  0.25500000920E-02 0. -1.
</event>
<event>
 5   0  0.2360103E-06  0.2894087E+04  0.7818609E-02  0.8274639E-01
       -2   -1    0    0    0  501  0.00000000000E+00  0.00000000000E+00  0.17243802289E+04  0.17243802289E+04  0.25500000920E-02 0.  1.
        2   -1    0    0  501    0  0.00000000000E+00  0.00000000000E+00 -0.12143112244E+04  0.12143112244E+04  0.25500000920E-02 0. -1.
    10030    2    1    2    0    0  0.00000000000E+00  0.00000000000E+00  0.51006900453E+03  0.29386914534E+04  0.28940865690E+04 0.  0.
        4    1    3    3  502    0 -0.79164511844E+03  0.11147619445E+04  0.73619051296E+03  0.15528600293E+04  0.12699999809E+01 0.  1.
       -4    1    3    3    0  502  0.79164511844E+03 -0.11147619445E+04 -0.22612150843E+03  0.13858314240E+04  0.12699999809E+01 0. -1.
</event>
<event>
 5   0  0.2360103E-06  0.2887214E+04  0.7818609E-02  0.8276692E-01
        2   -1    0    0  501    0  0.00000000000E+00  0.00000000000E+00  0.17752479494E+04  0.17752479494E+04  0.25500000920E-02 0. -1.
       -2   -1    0    0    0  501  0.00000000000E+00  0.00000000000E+00 -0.11739214189E+04  0.11739214190E+04  0.25500000920E-02 0.  1.
    10030    2    1    2    0    0  0.00000000000E+00  0.00000000000E+00  0.60132653044E+03  0.29491693683E+04  0.28872142918E+04 0.  0.
        4    1    3    3  502    0 -0.11579719956E+03 -0.76152143746E+03  0.15477950216E+04  0.17288709995E+04  0.12699999809E+01 0. -1.
       -4    1    3    3    0  502  0.11579719956E+03  0.76152143746E+03 -0.94646849121E+03  0.12202983688E+04  0.12699999809E+01 0.  1.
</event>
<event>
 5   0  0.8355946E-07  0.2885764E+04  0.7818609E-02  0.8277126E-01
        1   -1    0    0  501    0  0.00000000000E+00  0.00000000000E+00  0.15107733199E+04  0.15107733199E+04  0.50400001928E-02 0. -1.
       -1   -1    0    0    0  501  0.00000000000E+00  0.00000000000E+00 -0.13780415083E+04  0.13780415083E+04  0.50400001928E-02 0.  1.
    10030    2    1    2    0    0  0.00000000000E+00  0.00000000000E+00  0.13273181156E+03  0.28888148283E+04  0.28857639159E+04 0.  0.
        4    1    3    3  502    0  0.93667470197E+03 -0.32640651120E+03 -0.98259974569E+03  0.13962107939E+04  0.12699999809E+01 0.  1.
       -4    1    3    3    0  502 -0.93667470197E+03  0.32640651120E+03  0.11153315573E+04  0.14926040344E+04  0.12699999809E+01 0. -1.
</event>
<event>
 5   0  0.2425845E-06  0.2892267E+04  0.7818609E-02  0.8275182E-01
       -2   -1    0    0    0  501  0.00000000000E+00  0.00000000000E+00  0.13685383403E+04  0.13685383403E+04  0.25500000920E-02 0.  1.
        2   -1    0    0  501    0  0.00000000000E+00  0.00000000000E+00 -0.15281284769E+04  0.15281284769E+04  0.25500000920E-02 0. -1.
    10030    2    1    2    0    0  0.00000000000E+00  0.00000000000E+00 -0.15959013655E+03  0.28966668172E+04  0.28922672142E+04 0.  0.
        2    1    3    3  502    0 -0.13006182071E+04  0.17292535476E+03 -0.68882494507E+03  0.14818875477E+04  0.25500000920E-02 0. -1.
       -2    1    3    3    0  502  0.13006182071E+04 -0.17292535476E+03  0.52923480852E+03  0.14147792695E+04  0.25500000920E-02 0.  1.
</event>
<event>
 5   0  0.2360103E-06  0.2903027E+04  0.7818609E-02  0.8271978E-01
       -2   -1    0    0    0  501  0.00000000000E+00  0.00000000000E+00  0.14171080372E+04  0.14171080372E+04  0.25500000920E-02 0.  1.
        2   -1    0    0  501    0  0.00000000000E+00  0.00000000000E+00 -0.14867538665E+04  0.14867538665E+04  0.25500000920E-02 0. -1.
    10030    2    1    2    0    0  0.00000000000E+00  0.00000000000E+00 -0.69645829283E+02  0.29038619037E+04  0.29030265955E+04 0.  0.
        4    1    3    3  502    0 -0.26421478091E+03  0.14269103384E+04 -0.30856215368E+01  0.14511697689E+04  0.12699999809E+01 0.  1.
       -4    1    3    3    0  502  0.26421478091E+03 -0.14269103384E+04 -0.66560207746E+02  0.14526921348E+04  0.12699999809E+01 0. -1.
</event>
<event>
 5   0  0.2325590E-06  0.2947731E+04  0.7818609E-02  0.8258816E-01
       -2   -1    0    0    0  501  0.00000000000E+00  0.00000000000E+00  0.88762842185E+03  0.88762842185E+03  0.25500000920E-02 0. -1.
        2   -1    0    0  501    0  0.00000000000E+00  0.00000000000E+00 -0.24472850931E+04  0.24472850931E+04  0.25500000920E-02 0.  1.
    10030    2    1    2    0    0  0.00000000000E+00  0.00000000000E+00 -0.15596566713E+04  0.33349135150E+04  0.29477311987E+04 0.  0.
        5    1    3    3  502    0 -0.28808150658E+03  0.32050207499E+03  0.81475022672E+03  0.92171175346E+03  0.46999998093E+01 0. -1.
       -5    1    3    3    0  502  0.28808150658E+03 -0.32050207499E+03 -0.23744068980E+04  0.24132017615E+04  0.46999998093E+01 0.  1.
</event>
<event>
 5   0  0.8483636E-07  0.2898825E+04  0.7818609E-02  0.8273227E-01
        1   -1    0    0  501    0  0.00000000000E+00  0.00000000000E+00  0.22687597881E+04  0.22687597881E+04  0.50400001928E-02 0.  1.
       -1   -1    0    0    0  501  0.00000000000E+00  0.00000000000E+00 -0.92596663813E+03  0.92596663815E+03  0.50400001928E-02 0. -1.
    10030    2    1    2    0    0  0.00000000000E+00  0.00000000000E+00  0.13427931499E+04  0.31947264262E+04  0.28988245023E+04 0.  0.
        2    1    3    3  502    0 -0.13857756524E+04  0.72542139874E+02  0.21015503148E+03  0.14034962266E+04  0.25500000920E-02 0.  1.
       -2    1    3    3    0  502  0.13857756524E+04 -0.72542139874E+02  0.11326381185E+04  0.17912301997E+04  0.25500000920E-02 0. -1.
</event>
<event>
 5   0  0.2325590E-06  0.2892060E+04  0.7818609E-02  0.8275244E-01
       -2   -1    0    0    0  501  0.00000000000E+00  0.00000000000E+00  0.24283942518E+04  0.24283942518E+04  0.25500000920E-02 0.  1.
        2   -1    0    0  501    0  0.00000000000E+00  0.00000000000E+00 -0.86106380297E+03  0.86106380298E+03  0.25500000920E-02 0. -1.
    10030    2    1    2    0    0  0.00000000000E+00  0.00000000000E+00  0.15673304488E+04  0.32894580548E+04  0.28920597432E+04 0.  0.
        5    1    3    3  502    0  0.81294646369E+03  0.12325056356E+02 -0.57645399666E+03  0.99667204240E+03  0.46999998093E+01 0. -1.
       -5    1    3    3    0  502 -0.81294646369E+03 -0.12325056356E+02  0.21437844455E+04  0.22927860124E+04  0.46999998093E+01 0.  1.
</event>
<event>
 5   0  0.7621125E-07  0.2893805E+04  0.7818609E-02  0.8274723E-01
        3   -1    0    0  501    0  0.00000000000E+00  0.00000000000E+00  0.12432205194E+04  0.12432205235E+04  0.10100000352E+00 0.  1.
       -3   -1    0    0    0  501  0.00000000000E+00  0.00000000000E+00 -0.16839545988E+04  0.16839546018E+04  0.10100000352E+00 0. -1.
    10030    2    1    2    0    0  0.00000000000E+00  0.00000000000E+00 -0.44073407938E+03  0.29271751253E+04  0.28938050531E+04 0.  0.
        2    1    3    3  502    0 -0.18051357890E+03 -0.24708719626E+03  0.12101151522E+04  0.12482050778E+04  0.25500000920E-02 0.  1.
       -2    1    3    3    0  502  0.18051357890E+03  0.24708719626E+03 -0.16508492316E+04  0.16789700474E+04  0.25500000920E-02 0. -1.
</event>
<event>
 5   0  0.8483636E-07  0.2899674E+04  0.7818609E-02  0.8272975E-01
       -1   -1    0    0    0  501  0.00000000000E+00  0.00000000000E+00  0.97932192004E+03  0.97932192006E+03  0.50400001928E-02 0. -1.
        1   -1    0    0  501    0  0.00000000000E+00  0.00000000000E+00 -0.21464106099E+04  0.21464106099E+04  0.50400001928E-02 0.  1.
    10030    2    1    2    0    0  0.00000000000E+00  0.00000000000E+00 -0.11670886898E+04  0.31257325299E+04  0.28996737470E+04 0.  0.
        2    1    3    3  502    0 -0.13620345723E+04 -0.11202772106E+03 -0.61719723633E+02  0.13680269408E+04  0.25500000920E-02 0. -1.
       -2    1    3    3    0  502  0.13620345723E+04  0.11202772106E+03 -0.11053689662E+04  0.17577055891E+04  0.25500000920E-02 0.  1.
</event>
<event>
 5   0  0.2304435E-06  0.2901788E+04  0.7818609E-02  0.8272346E-01
        2   -1    0    0  501    0  0.00000000000E+00  0.00000000000E+00  0.94324275101E+03  0.94324275102E+03  0.25500000920E-02 0.  1.
       -2   -1    0    0    0  501  0.00000000000E+00  0.00000000000E+00 -0.22317617781E+04  0.22317617781E+04  0.25500000920E-02 0. -1.
    10030    2    1    2    0    0  0.00000000000E+00  0.00000000000E+00 -0.12885190271E+04  0.31750045291E+04  0.29017878070E+04 0.  0.
        1    1    3    3  502    0  0.13749964122E+04  0.24378005096E+03 -0.10750970797E+04  0.17623500156E+04  0.50400001928E-02 0. -1.
       -1    1    3    3    0  502 -0.13749964122E+04 -0.24378005096E+03 -0.21342194737E+03  0.14126545135E+04  0.50400001928E-02 0.  1.
</event>
<event>
 5   0  0.8355946E-07  0.2880364E+04  0.7818609E-02  0.8278744E-01
       -1   -1    0    0    0  501  0.00000000000E+00  0.00000000000E+00  0.12276901154E+04  0.12276901154E+04  0.50400001928E-02 0.  1.
        1   -1    0    0  501    0  0.00000000000E+00  0.00000000000E+00 -0.16894526211E+04  0.16894526211E+04  0.50400001928E-02 0. -1.
    10030    2    1    2    0    0  0.00000000000E+00  0.00000000000E+00 -0.46176250572E+03  0.29171427365E+04  0.28803640627E+04 0.  0.
        4    1    3    3  502    0  0.12153989109E+02 -0.13232866018E+03  0.12214673115E+04  0.12286751401E+04  0.12699999809E+01 0.  1.
       -4    1    3    3    0  502 -0.12153989109E+02  0.13232866018E+03 -0.16832298172E+04  0.16884675965E+04  0.12699999809E+01 0. -1.
</event>
<event>
 5   0  0.2378690E-06  0.2901232E+04  0.7818609E-02  0.8272511E-01
       -2   -1    0    0    0  501  0.00000000000E+00  0.00000000000E+00  0.10050360602E+04  0.10050360602E+04  0.25500000920E-02 0. -1.
        2   -1    0    0  501    0  0.00000000000E+00  0.00000000000E+00 -0.20937419094E+04  0.20937419094E+04  0.25500000920E-02 0.  1.
    10030    2    1    2    0    0  0.00000000000E+00  0.00000000000E+00 -0.10887058492E+04  0.30987779697E+04  0.29012315452E+04 0.  0.
        3    1    3    3  502    0  0.13303595306E+04 -0.56276161408E+03 -0.68656946994E+03  0.15993544829E+04  0.10100000352E+00 0.  1.
       -3    1    3    3    0  502 -0.13303595306E+04  0.56276161408E+03 -0.40213637930E+03  0.14994234867E+04  0.10100000352E+00 0. -1.
</event>
<event>
 5   0  0.8263673E-07  0.2898407E+04  0.7818609E-02  0.8273352E-01
        1   -1    0    0  501    0  0.00000000000E+00  0.00000000000E+00  0.24241741293E+04  0.24241741293E+04  0.50400001928E-02 0.  1.
       -1   -1    0    0    0  501  0.00000000000E+00  0.00000000000E+00 -0.86635321340E+03  0.86635321342E+03  0.50400001928E-02 0. -1.
    10030    2    1    2    0    0  0.00000000000E+00  0.00000000000E+00  0.15578209159E+04  0.32905273427E+04  0.28984071810E+04 0.  0.
        5    1    3    3  502    0 -0.26433685726E+03 -0.14110692003E+04  0.55419596252E+03  0.15388780059E+04  0.46999998093E+01 0. -1.
       -5    1    3    3    0  502  0.26433685726E+03  0.14110692003E+04  0.10036249534E+04  0.17516493368E+04  0.46999998093E+01 0.  1.
</event>
<event>
 5   0  0.8947674E-07  0.2916590E+04  0.7818609E-02  0.8267959E-01
       -1   -1    0    0    0  501  0.00000000000E+00  0.00000000000E+00  0.95123641088E+03  0.95123641090E+03  0.50400001928E-02 0. -1.
        1   -1    0    0  501    0  0.00000000000E+00  0.00000000000E+00 -0.22356416394E+04  0.22356416394E+04  0.50400001928E-02 0.  1.
    10030    2    1    2    0    0  0.00000000000E+00  0.00000000000E+00 -0.12844052286E+04  0.31868780503E+04  0.29165896037E+04 0.  0.
        3    1    3    3  502    0  0.32117988733E+03  0.74523439482E+03  0.68173307665E+03  0.10598541509E+04  0.10100000352E+00 0. -1.
       -3    1    3    3    0  502 -0.32117988733E+03 -0.74523439482E+03 -0.19661383052E+04  0.21270238994E+04  0.10100000352E+00 0.  1.
</event>
<event>
 5   0  0.7621125E-07  0.2891541E+04  0.7818609E-02  0.8275399E-01
        3   -1    0    0  501    0  0.00000000000E+00  0.00000000000E+00  0.16671114195E+04  0.16671114226E+04  0.10100000352E+00 0.  1.
       -3   -1    0    0    0  501  0.00000000000E+00  0.00000000000E+00 -0.12538167824E+04  0.12538167865E+04  0.10100000352E+00 0. -1.
    10030    2    1    2    0    0  0.00000000000E+00  0.00000000000E+00  0.41329463710E+03  0.29209282090E+04  0.28915409638E+04 0.  0.
        5    1    3    3  502    0  0.29740048841E+03  0.12690237850E+04  0.83859443771E+03  0.15498810078E+04  0.46999998093E+01 0. -1.
       -5    1    3    3    0  502 -0.29740048841E+03 -0.12690237850E+04 -0.42529980061E+03  0.13710472012E+04  0.46999998093E+01 0.  1.
</event>
<event>
 5   0  0.2425845E-06  0.2919103E+04  0.7818609E-02  0.8267216E-01
       -2   -1    0    0    0  501  0.00000000000E+00  0.00000000000E+00  0.10556776269E+04  0.10556776269E+04  0.25500000920E-02 0. -1.
        2   -1    0    0  501    0  0.00000000000E+00  0.00000000000E+00 -0.20179363861E+04  0.20179363861E+04  0.25500000920E-02 0.  1.
    10030    2    1    2    0    0  0.00000000000E+00  0.00000000000E+00 -0.96225875921E+03  0.30736140129E+04  0.29191028041E+04 0.  0.
        2    1    3    3  502    0 -0.78505318639E+03 -0.11613819668E+04 -0.53201671044E+02  0.14028353418E+04  0.25500000920E-02 0. -1.
       -2    1    3    3    0  502  0.78505318639E+03  0.11613819668E+04 -0.90905708817E+03  0.16707786711E+04  0.25500000920E-02 0.  1.
</event>
<event>
 5   0  0.2325590E-06  0.2927227E+04  0.7818609E-02  0.8264823E-01
        2   -1    0    0  501    0  0.00000000000E+00  0.00000000000E+00  0.21787351844E+04  0.21787351844E+04  0.25500000920E-02 0.  1.
       -2   -1    0    0    0  501  0.00000000000E+00  0.00000000000E+00 -0.98321456261E+03  0.98321456261E+03  0.25500000920E-02 0. -1.
    10030    2    1    2    0    0  0.00000000000E+00  0.00000000000E+00  0.11955206218E+04  0.31619497470E+04  0.29272267841E+04 0.  0.
        5    1    3    3  502    0  0.24378657171E+03  0.11772261028E+04 -0.30395178772E+03  0.12400411158E+04  0.46999998093E+01 0. -1.
       -5    1    3    3    0  502 -0.24378657171E+03 -0.11772261028E+04  0.14994724095E+04  0.19219086311E+04  0.46999998093E+01 0.  1.
</event>
<event>
 5   0  0.8355946E-07  0.2870849E+04  0.7818609E-02  0.8281604E-01
       -1   -1    0    0    0  501  0.00000000000E+00  0.00000000000E+00  0.10996465341E+04  0.10996465341E+04  0.50400001928E-02 0. -1.
        1   -1    0    0  501    0  0.00000000000E+00  0.00000000000E+00 -0.18737325275E+04  0.18737325275E+04  0.50400001928E-02 0.  1.
    10030    2    1    2    0    0  0.00000000000E+00  0.00000000000E+00 -0.77408599343E+03  0.29733790616E+04  0.28708489892E+04 0.  0.
        4    1    3    3  502    0 -0.10220291760E+04  0.48322427739E+03  0.52907681958E+03  0.12481879797E+04  0.12699999809E+01 0. -1.
       -4    1    3    3    0  502  0.10220291760E+04 -0.48322427739E+03 -0.13031628130E+04  0.17251910819E+04  0.12699999809E+01 0.  1.
</event>
<event>
 5   0  0.2360103E-06  0.2911585E+04  0.7818609E-02  0.8269439E-01
        2   -1    0    0  501    0  0.00000000000E+00  0.00000000000E+00  0.21657751108E+04  0.21657751108E+04  0.25500000920E-02 0. -1.
       -2   -1    0    0    0  501  0.00000000000E+00  0.00000000000E+00 -0.97855587599E+03  0.97855587599E+03  0.25500000920E-02 0.  1.
    10030    2    1    2    0    0  0.00000000000E+00  0.00000000000E+00  0.11872192348E+04  0.31443309868E+04  0.29115851083E+04 0.  0.
        4    1    3    3  502    0  0.27098772250E+02 -0.14466350764E+04  0.76721768222E+03  0.16377154736E+04  0.12699999809E+01 0. -1.
       -4    1    3    3    0  502 -0.27098772250E+02  0.14466350764E+04  0.42000155263E+03  0.15066155132E+04  0.12699999809E+01 0.  1.
</event>
<event>
 5   0  0.8263673E-07  0.2904707E+04  0.7818609E-02  0.8271478E-01
        1   -1    0    0  501    0  0.00000000000E+00  0.00000000000E+00  0.10470661763E+04  0.10470661764E+04  0.50400001928E-02 0. -1.
       -1   -1    0    0    0  501  0.00000000000E+00  0.00000000000E+00 -0.20145156639E+04  0.20145156639E+04  0.50400001928E-02 0.  1.
    10030    2    1    2    0    0  0.00000000000E+00  0.00000000000E+00 -0.96744948758E+03  0.30615818403E+04  0.29047073611E+04 0.  0.
        5    1    3    3  502    0 -0.92305711489E+03 -0.44899668328E+03 -0.15666760981E+04  0.18729998786E+04  0.46999998093E+01 0.  1.
       -5    1    3    3    0  502  0.92305711489E+03  0.44899668328E+03  0.59922661049E+03  0.11885819617E+04  0.46999998093E+01 0. -1.
</event>
<event>
 5   0  0.2425845E-06  0.2905063E+04  0.7818609E-02  0.8271373E-01
       -2   -1    0    0    0  501  0.00000000000E+00  0.00000000000E+00  0.13668790591E+04  0.13668790591E+04  0.25500000920E-02 0.  1.
        2   -1    0    0  501    0  0.00000000000E+00  0.00000000000E+00 -0.15435506450E+04  0.15435506451E+04  0.25500000920E-02 0. -1.
    10030    2    1    2    0    0  0.00000000000E+00  0.00000000000E+00 -0.17667158593E+03  0.29104297042E+04  0.29050625146E+04 0.  0.
        2    1    3    3  502    0 -0.46656794937E+03 -0.35512327242E+03  0.12430471525E+04  0.13743960176E+04  0.25500000920E-02 0.  1.
       -2    1    3    3    0  502  0.46656794937E+03  0.35512327242E+03 -0.14197187384E+04  0.15360336865E+04  0.25500000920E-02 0. -1.
</event>
<event>
 5   0  0.2378690E-06  0.2929916E+04  0.7818609E-02  0.8264032E-01
        2   -1    0    0  501    0  0.00000000000E+00  0.00000000000E+00  0.21234181559E+04  0.21234181559E+04  0.25500000920E-02 0. -1.
       -2   -1    0    0    0  501  0.00000000000E+00  0.00000000000E+00 -0.10106826688E+04  0.10106826688E+04  0.25500000920E-02 0.  1.
    10030    2    1    2    0    0  0.00000000000E+00  0.00000000000E+00  0.11127354871E+04  0.31341008247E+04  0.29299159911E+04 0.  0.
        3    1    3    3  502    0  0.26901196846E+03 -0.87135777426E+03  0.17827705987E+04  0.20024741765E+04  0.10100000352E+00 0. -1.
       -3    1    3    3    0  502 -0.26901196846E+03  0.87135777426E+03 -0.67003511155E+03  0.11316266482E+04  0.10100000352E+00 0.  1.
</event>
<event>
 5   0  0.8355946E-07  0.2918756E+04  0.7818609E-02  0.8267319E-01
       -1   -1    0    0    0  501  0.00000000000E+00  0.00000000000E+00  0.12512076920E+04  0.12512076920E+04  0.50400001928E-02 0.  1.
        1   -1    0    0  501    0  0.00000000000E+00  0.00000000000E+00 -0.17021827974E+04  0.17021827974E+04  0.50400001928E-02 0. -1.
    10030    2    1    2    0    0  0.00000000000E+00  0.00000000000E+00 -0.45097510541E+03  0.29533904894E+04  0.29187560428E+04 0.  0.
        4    1    3    3  502    0 -0.12599860991E+04 -0.37872554936E+03 -0.86447489606E+03  0.15742669629E+04  0.12699999809E+01 0. -1.
       -4    1    3    3    0  502  0.12599860991E+04  0.37872554936E+03  0.41349979064E+03  0.13791235265E+04  0.12699999809E+01 0.  1.
</event>
<event>
 5   0  0.8263673E-07  0.2913418E+04  0.7818609E-02  0.8268897E-01
       -1   -1    0    0    0  501  0.00000000000E+00  0.00000000000E+00  0.11686479273E+04  0.11686479273E+04  0.50400001928E-02 0. -1.
        1   -1    0    0  501    0  0.00000000000E+00  0.00000000000E+00 -0.18157740825E+04  0.18157740825E+04  0.50400001928E-02 0.  1.
    10030    2    1    2    0    0  0.00000000000E+00  0.00000000000E+00 -0.64712615528E+03  0.29844220098E+04  0.29134176617E+04 0.  0.
        5    1    3    3  502    0 -0.80963596686E+02  0.35926380814E+03 -0.17672921245E+04  0.18052615133E+04  0.46999998093E+01 0.  1.
       -5    1    3    3    0  502  0.80963596686E+02 -0.35926380814E+03  0.11201659693E+04  0.11791604965E+04  0.46999998093E+01 0. -1.
</event>
<event>
 5   0  0.2378690E-06  0.2901143E+04  0.7818609E-02  0.8272537E-01
        2   -1    0    0  501    0  0.00000000000E+00  0.00000000000E+00  0.15455065866E+04  0.15455065866E+04  0.25500000920E-02 0.  1.
       -2   -1    0    0    0  501  0.00000000000E+00  0.00000000000E+00 -0.13614679423E+04  0.13614679423E+04  0.25500000920E-02 0. -1.
    10030    2    1    2    0    0  0.00000000000E+00  0.00000000000E+00  0.18403864423E+03  0.29069745289E+04  0.29011429970E+04 0.  0.
        3    1    3    3  502    0  0.11731634606E+04 -0.83858957454E+03  0.24921896839E+03  0.14634394706E+04  0.10100000352E+00 0.  1.
       -3    1    3    3    0  502 -0.11731634606E+04  0.83858957454E+03 -0.65180324161E+02  0.14435350583E+04  0.10100000352E+00 0. -1.
</event>
<event>
 5   0  0.2378690E-06  0.2915979E+04  0.7818609E-02  0.8268139E-01
        2   -1    0    0  501    0  0.00000000000E+00  0.00000000000E+00  0.13970406702E+04  0.13970406702E+04  0.25500000920E-02 0. -1.
       -2   -1    0    0    0  501  0.00000000000E+00  0.00000000000E+00 -0.15215968387E+04  0.15215968387E+04  0.25500000920E-02 0.  1.
    10030    2    1    2    0    0  0.00000000000E+00  0.00000000000E+00 -0.12455616849E+03  0.29186375089E+04  0.29159785097E+04 0.  0.
        3    1    3    3  502    0  0.11136599692E+04 -0.92167487878E+03  0.12765677287E+03  0.14512130688E+04  0.10100000352E+00 0.  1.
       -3    1    3    3    0  502 -0.11136599692E+04  0.92167487878E+03 -0.25221294136E+03  0.14674244400E+04  0.10100000352E+00 0. -1.
</event>
<event>
 5   0  0.2425845E-06  0.2899611E+04  0.7818609E-02  0.8272993E-01
       -2   -1    0    0    0  501  0.00000000000E+00  0.00000000000E+00  0.10530914844E+04  0.10530914844E+04  0.25500000920E-02 0. -1.
        2   -1    0    0  501    0  0.00000000000E+00  0.00000000000E+00 -0.19959677079E+04  0.19959677079E+04  0.25500000920E-02 0.  1.
    10030    2    1    2    0    0  0.00000000000E+00  0.00000000000E+00 -0.94287622348E+03  0.30490591923E+04  0.28996114197E+04 0.  0.
        2    1    3    3  502    0 -0.21619275797E+02  0.14208573689E+04 -0.16916171678E+03  0.14310551151E+04  0.25500000920E-02 0.  1.
       -2    1    3    3    0  502  0.21619275797E+02 -0.14208573689E+04 -0.77371450670E+03  0.16180040772E+04  0.25500000920E-02 0. -1.
</event>
<event>
 5   0  0.8357118E-07  0.2913422E+04  0.7818609E-02  0.8268895E-01
       -1   -1    0    0    0  501  0.00000000000E+00  0.00000000000E+00  0.10009376815E+04  0.10009376816E+04  0.50400001928E-02 0. -1.
        1   -1    0    0  501    0  0.00000000000E+00  0.00000000000E+00 -0.21200192733E+04  0.21200192733E+04  0.50400001928E-02 0.  1.
    10030    2    1    2    0    0  0.00000000000E+00  0.00000000000E+00 -0.11190815917E+04  0.31209569548E+04  0.29134221639E+04 0.  0.
        1    1    3    3  502    0  0.76494687232E+03  0.53066618730E+03 -0.17597326093E+04  0.19908312777E+04  0.50400001928E-02 0.  1.
       -1    1    3    3    0  502 -0.76494687232E+03 -0.53066618730E+03  0.64065101759E+03  0.11301256772E+04  0.50400001928E-02 0. -1.
</event>
<event>
 5   0  0.2360103E-06  0.2900933E+04  0.7818609E-02  0.8272600E-01
       -2   -1    0    0    0  501  0.00000000000E+00  0.00000000000E+00  0.96668802303E+03  0.96668802303E+03  0.25500000920E-02 0. -1.
        2   -1    0    0  501    0  0.00000000000E+00  0.00000000000E+00 -0.21763521922E+04  0.21763521922E+04  0.25500000920E-02 0.  1.
    10030    2    1    2    0    0  0.00000000000E+00  0.00000000000E+00 -0.12096641692E+04  0.31430402152E+04  0.29009333657E+04 0.  0.
        4    1    3    3  502    0  0.57954287586E+03 -0.10007760259E+04 -0.15533559416E+04  0.19365791730E+04  0.12699999809E+01 0.  1.
       -4    1    3    3    0  502 -0.57954287586E+03  0.10007760259E+04  0.34369177246E+03  0.12064610422E+04  0.12699999809E+01 0. -1.
</event>
<event>
 5   0  0.2378690E-06  0.2924366E+04  0.7818609E-02  0.8265664E-01
       -2   -1    0    0    0  501  0.00000000000E+00  0.00000000000E+00  0.29319006514E+04  0.29319006514E+04  0.25500000920E-02 0.  1.
        2   -1    0    0  501    0  0.00000000000E+00  0.00000000000E+00 -0.72921287654E+03  0.72921287654E+03  0.25500000920E-02 0. -1.
    10030    2    1    2    0    0  0.00000000000E+00  0.00000000000E+00  0.22026877749E+04  0.36611135280E+04  0.29243663982E+04 0.  0.
        3    1    3    3  502    0 -0.18354568158E+01 -0.94239467355E+03  0.25009750108E+04  0.26726367326E+04  0.10100000352E+00 0.  1.
       -3    1    3    3    0  502  0.18354568158E+01  0.94239467355E+03 -0.29828723592E+03  0.98847679535E+03  0.10100000352E+00 0. -1.
</event>
<event>
 5   0  0.8483636E-07  0.2883212E+04  0.7818609E-02  0.8277890E-01
        1   -1    0    0  501    0  0.00000000000E+00  0.00000000000E+00  0.16340131971E+04  0.16340131971E+04  0.50400001928E-02 0.  1.
       -1   -1    0    0    0  501  0.00000000000E+00  0.00000000000E+00 -0.12718553364E+04  0.12718553364E+04  0.50400001928E-02 0. -1.
    10030    2    1    2    0    0  0.00000000000E+00  0.00000000000E+00  0.36215786075E+03  0.29058685335E+04  0.28832123782E+04 0.  0.
        2    1    3    3  502    0 -0.10325464186E+04  0.80416005052E+03  0.79031461021E+03  0.15288631975E+04  0.25500000920E-02 0.  1.
       -2    1    3    3    0  502  0.10325464186E+04 -0.80416005052E+03 -0.42815674946E+03  0.13770053361E+04  0.25500000920E-02 0. -1.
</event>
<event>
 5   0  0.8357118E-07  0.2957023E+04  0.7818609E-02  0.8256111E-01
        1   -1    0    0  501    0  0.00000000000E+00  0.00000000000E+00  0.63101883232E+03  0.63101883234E+03  0.50400001928E-02 0.  1.
       -1   -1    0    0    0  501  0.00000000000E+00  0.00000000000E+00 -0.34642323491E+04  0.34642323491E+04  0.50400001928E-02 0. -1.
    10030    2    1    2    0    0  0.00000000000E+00  0.00000000000E+00 -0.28332135168E+04  0.40952511815E+04  0.29570227269E+04 0.  0.
        1    1    3    3  502    0 -0.78479872167E+03 -0.25772834309E+03  0.28164130072E+03  0.87272833955E+03  0.50400001928E-02 0.  1.
       -1    1    3    3    0  502  0.78479872167E+03  0.25772834309E+03 -0.31148548175E+04  0.32225228419E+04  0.50400001928E-02 0. -1.
</event>
<event>
 5   0  0.2304435E-06  0.2910160E+04  0.7818609E-02  0.8269861E-01
        2   -1    0    0  501    0  0.00000000000E+00  0.00000000000E+00  0.18785019668E+04  0.18785019668E+04  0.25500000920E-02 0. -1.
       -2   -1    0    0    0  501  0.00000000000E+00  0.00000000000E+00 -0.11270990345E+04  0.11270990345E+04  0.25500000920E-02 0.  1.
    10030    2    1    2    0    0  0.00000000000E+00  0.00000000000E+00  0.75140293235E+03  0.30056010013E+04  0.29101599634E+04 0.  0.
        1    1    3    3  502    0 -0.84649381896E+03 -0.13280151729E+03 -0.83890755526E+03  0.11991471615E+04  0.50400001928E-02 0.  1.
       -1    1    3    3    0  502  0.84649381896E+03  0.13280151729E+03  0.15903104876E+04  0.18064538399E+04  0.50400001928E-02 0. -1.
</event>
<event>
 5   0  0.8263673E-07  0.2888669E+04  0.7818609E-02  0.8276257E-01
        1   -1    0    0  501    0  0.00000000000E+00  0.00000000000E+00  0.14185037953E+04  0.14185037953E+04  0.50400001928E-02 0. -1.
       -1   -1    0    0    0  501  0.00000000000E+00  0.00000000000E+00 -0.14706354708E+04  0.14706354708E+04  0.50400001928E-02 0.  1.
    10030    2    1    2    0    0  0.00000000000E+00  0.00000000000E+00 -0.52131675509E+02  0.28891392660E+04  0.28886688954E+04 0.  0.
        5    1    3    3  502    0 -0.88989380483E+03  0.83092392866E+03 -0.80319580078E+03  0.14585921786E+04  0.46999998093E+01 0.  1.
       -5    1    3    3    0  502  0.88989380483E+03 -0.83092392866E+03  0.75106412527E+03  0.14305470874E+04  0.46999998093E+01 0. -1.
</event>
<event>
 5   0  0.8357118E-07  0.2884082E+04  0.7818609E-02  0.8277629E-01
        1   -1    0    0  501    0  0.00000000000E+00  0.00000000000E+00  0.17602821982E+04  0.17602821982E+04  0.50400001928E-02 0.  1.
       -1   -1    0    0    0  501  0.00000000000E+00  0.00000000000E+00 -0.11813345308E+04  0.11813345308E+04  0.50400001928E-02 0. -1.
    10030    2    1    2    0    0  0.00000000000E+00  0.00000000000E+00  0.57894766742E+03  0.29416167290E+04  0.28840819299E+04 0.  0.
        1    1    3    3  502    0  0.41734384449E+03 -0.89289303086E+03  0.13631117443E+04  0.16821139903E+04  0.50400001928E-02 0.  1.
       -1    1    3    3    0  502 -0.41734384449E+03  0.89289303086E+03 -0.78416407687E+03  0.12595027386E+04  0.50400001928E-02 0. -1.
</event>
<event>
 5   0  0.2378690E-06  0.2890638E+04  0.7818609E-02  0.8275668E-01
       -2   -1    0    0    0  501  0.00000000000E+00  0.00000000000E+00  0.14879777093E+04  0.14879777093E+04  0.25500000920E-02 0. -1.
        2   -1    0    0  501    0  0.00000000000E+00  0.00000000000E+00 -0.14038831317E+04  0.14038831317E+04  0.25500000920E-02 0.  1.
    10030    2    1    2    0    0  0.00000000000E+00  0.00000000000E+00  0.84094577527E+02  0.28918608410E+04  0.28906378579E+04 0.  0.
        3    1    3    3  502    0 -0.55426084707E+02  0.14431878956E+04 -0.13504965665E+02  0.14443149751E+04  0.10100000352E+00 0.  1.
       -3    1    3    3    0  502  0.55426084707E+02 -0.14431878956E+04  0.97599543193E+02  0.14475458659E+04  0.10100000352E+00 0. -1.
</event>
<event>
 5   0  0.8357118E-07  0.2899762E+04  0.7818609E-02  0.8272948E-01
        1   -1    0    0  501    0  0.00000000000E+00  0.00000000000E+00  0.20757134136E+04  0.20757134136E+04  0.50400001928E-02 0.  1.
       -1   -1    0    0    0  501  0.00000000000E+00  0.00000000000E+00 -0.10127381704E+04  0.10127381704E+04  0.50400001928E-02 0. -1.
    10030    2    1    2    0    0  0.00000000000E+00  0.00000000000E+00  0.10629752433E+04  0.30884515840E+04  0.28997615107E+04 0.  0.
        1    1    3    3  502    0  0.50632986320E+03  0.13533409169E+04  0.40433476306E+03  0.15004626514E+04  0.50400001928E-02 0. -1.
       -1    1    3    3    0  502 -0.50632986320E+03 -0.13533409169E+04  0.65864048020E+03  0.15879889325E+04  0.50400001928E-02 0.  1.
</event>
<event>
 5   0  0.8357118E-07  0.2918285E+04  0.7818609E-02  0.8267458E-01
       -1   -1    0    0    0  501  0.00000000000E+00  0.00000000000E+00  0.20510488020E+04  0.20510488020E+04  0.50400001928E-02 0.  1.
        1   -1    0    0  501    0  0.00000000000E+00  0.00000000000E+00 -0.10380529053E+04  0.10380529053E+04  0.50400001928E-02 0. -1.
    10030    2    1    2    0    0  0.00000000000E+00  0.00000000000E+00  0.10129958966E+04  0.30891017073E+04  0.29182852279E+04 0.  0.
        1    1    3    3  502    0  0.53107225614E+03  0.91362572234E+03  0.15715461681E+04  0.18938075563E+04  0.50400001928E-02 0.  1.
       -1    1    3    3    0  502 -0.53107225614E+03 -0.91362572234E+03 -0.55855027144E+03  0.11952941510E+04  0.50400001928E-02 0. -1.
</event>
<event>
 5   0  0.8483636E-07  0.2907717E+04  0.7818609E-02  0.8270585E-01
       -1   -1    0    0    0  501  0.00000000000E+00  0.00000000000E+00  0.95921150990E+03  0.95921150991E+03  0.50400001928E-02 0. -1.
        1   -1    0    0  501    0  0.00000000000E+00  0.00000000000E+00 -0.22035856195E+04  0.22035856196E+04  0.50400001928E-02 0.  1.
    10030    2    1    2    0    0  0.00000000000E+00  0.00000000000E+00 -0.12443741097E+04  0.31627971295E+04  0.29077171041E+04 0.  0.
        2    1    3    3  502    0  0.63153308549E+03  0.86423199257E+03 -0.16923526060E+04  0.20024455843E+04  0.25500000920E-02 0.  1.
       -2    1    3    3    0  502 -0.63153308549E+03 -0.86423199257E+03  0.44797849639E+03  0.11603515451E+04  0.25500000920E-02 0. -1.
</event>
<event>
 5   0  0.2304435E-06  0.2899916E+04  0.7818609E-02  0.8272903E-01
        2   -1    0    0  501    0  0.00000000000E+00  0.00000000000E+00  0.23101405502E+04  0.23101405502E+04  0.25500000920E-02 0. -1.
       -2   -1    0    0    0  501  0.00000000000E+00  0.00000000000E+00 -0.91006495373E+03  0.91006495374E+03  0.25500000920E-02 0.  1.
    10030    2    1    2    0    0  0.00000000000E+00  0.00000000000E+00  0.14000755964E+04  0.32202055039E+04  0.28999158284E+04 0.  0.
        1    1    3    3  502    0  0.13191318375E+03  0.55456471263E+03  0.21804922162E+04  0.22537722630E+04  0.50400001928E-02 0. -1.
       -1    1    3    3    0  502 -0.13191318375E+03 -0.55456471263E+03 -0.78041661981E+03  0.96643324086E+03  0.50400001928E-02 0.  1.
</event>
<event>
 5   0  0.7621125E-07  0.2900505E+04  0.7818609E-02  0.8272727E-01
       -3   -1    0    0    0  501  0.00000000000E+00  0.00000000000E+00  0.32978942937E+04  0.32978942953E+04  0.10100000352E+00 0.  1.
        3   -1    0    0  501    0  0.00000000000E+00  0.00000000000E+00 -0.63774993980E+03  0.63774994780E+03  0.10100000352E+00 0. -1.
    10030    2    1    2    0    0  0.00000000000E+00  0.00000000000E+00  0.26601443539E+04  0.39356442431E+04  0.29005047189E+04 0.  0.
        5    1    3    3  502    0  0.55192990099E+03  0.60244174346E+03  0.29558684129E+04  0.30667153168E+04  0.46999998093E+01 0.  1.
       -5    1    3    3    0  502 -0.55192990099E+03 -0.60244174346E+03 -0.29572405898E+03  0.86892892628E+03  0.46999998093E+01 0. -1.
</event>
<event>
 5   0  0.2378690E-06  0.2900367E+04  0.7818609E-02  0.8272768E-01
       -2   -1    0    0    0  501  0.00000000000E+00  0.00000000000E+00  0.12069020167E+04  0.12069020167E+04  0.25500000920E-02 0.  1.
        2   -1    0    0  501    0  0.00000000000E+00  0.00000000000E+00 -0.17425045471E+04  0.17425045471E+04  0.25500000920E-02 0. -1.
    10030    2    1    2    0    0  0.00000000000E+00  0.00000000000E+00 -0.53560253036E+03  0.29494065638E+04  0.29003670472E+04 0.  0.
        3    1    3    3  502    0 -0.48884793402E+02  0.75304347956E+03 -0.15271128666E+04  0.17033901264E+04  0.10100000352E+00 0. -1.
       -3    1    3    3    0  502  0.48884793402E+02 -0.75304347956E+03  0.99151033628E+03  0.12460164374E+04  0.10100000352E+00 0.  1.
</event>
<event>
 5   0  0.2425845E-06  0.2905133E+04  0.7818609E-02  0.8271352E-01
        2   -1    0    0  501    0  0.00000000000E+00  0.00000000000E+00  0.18520609142E+04  0.18520609142E+04  0.25500000920E-02 0. -1.
       -2   -1    0    0    0  501  0.00000000000E+00  0.00000000000E+00 -0.11392436906E+04  0.11392436906E+04  0.25500000920E-02 0.  1.
    10030    2    1    2    0    0  0.00000000000E+00  0.00000000000E+00  0.71281722360E+03  0.29913046047E+04  0.29051325002E+04 0.  0.
        2    1    3    3  502    0 -0.61994275356E+02  0.32719123458E+03 -0.10994079845E+04  0.11487363973E+04  0.25500000920E-02 0.  1.
       -2    1    3    3    0  502  0.61994275356E+02 -0.32719123458E+03  0.18122252081E+04  0.18425682074E+04  0.25500000920E-02 0. -1.
</event>
<event>
 5   0  0.2304435E-06  0.2900090E+04  0.7818609E-02  0.8272851E-01
       -2   -1    0    0    0  501  0.00000000000E+00  0.00000000000E+00  0.10751602785E+04  0.10751602785E+04  0.25500000920E-02 0. -1.
        2   -1    0    0  501    0  0.00000000000E+00  0.00000000000E+00 -0.19556442307E+04  0.19556442307E+04  0.25500000920E-02 0.  1.
    10030    2    1    2    0    0  0.00000000000E+00  0.00000000000E+00 -0.88048395216E+03  0.30308045093E+04  0.29000903405E+04 0.  0.
        1    1    3    3  502    0 -0.12005747883E+04 -0.80643102307E+03 -0.54945168921E+03  0.15471289462E+04  0.50400001928E-02 0. -1.
       -1    1    3    3    0  502  0.12005747883E+04  0.80643102307E+03 -0.33103226295E+03  0.14836755631E+04  0.50400001928E-02 0.  1.
</event>
<event>
 5   0  0.2378690E-06  0.2860685E+04  0.7818609E-02  0.8284672E-01
        2   -1    0    0  501    0  0.00000000000E+00  0.00000000000E+00  0.17788930296E+04  0.17788930296E+04  0.25500000920E-02 0. -1.
       -2   -1    0    0    0  501  0.00000000000E+00  0.00000000000E+00 -0.11500857888E+04  0.11500857888E+04  0.25500000920E-02 0.  1.
    10030    2    1    2    0    0  0.00000000000E+00  0.00000000000E+00  0.62880724084E+03  0.29289788184E+04  0.28606849481E+04 0.  0.
        3    1    3    3  502    0  0.44438901679E+03 -0.48115820081E+03 -0.98752068636E+03  0.11849860458E+04  0.10100000352E+00 0.  1.
       -3    1    3    3    0  502 -0.44438901679E+03  0.48115820081E+03  0.16163279272E+04  0.17439927726E+04  0.10100000352E+00 0. -1.
</event>
<event>
 5   0  0.8357118E-07  0.2896979E+04  0.7818609E-02  0.8273777E-01
       -1   -1    0    0    0  501  0.00000000000E+00  0.00000000000E+00  0.21267066183E+04  0.21267066183E+04  0.50400001928E-02 0.  1.
        1   -1    0    0  501    0  0.00000000000E+00  0.00000000000E+00 -0.98655894359E+03  0.98655894361E+03  0.50400001928E-02 0. -1.
    10030    2    1    2    0    0  0.00000000000E+00  0.00000000000E+00  0.11401476747E+04  0.31132655619E+04  0.28969787260E+04 0.  0.
        1    1    3    3  502    0  0.49842732134E+03  0.13392100024E+04  0.31529066726E+03  0.14633254697E+04  0.50400001928E-02 0.  1.
       -1    1    3    3    0  502 -0.49842732134E+03 -0.13392100024E+04  0.82485700743E+03  0.16499400922E+04  0.50400001928E-02 0. -1.
</event>
<event>
 5   0  0.7621125E-07  0.2794263E+04  0.7818609E-02  0.8305052E-01
        3   -1    0    0  501    0  0.00000000000E+00  0.00000000000E+00  0.81456548727E+03  0.81456549353E+03  0.10100000352E+00 0. -1.
       -3   -1    0    0    0  501  0.00000000000E+00  0.00000000000E+00 -0.23963400909E+04  0.23963400930E+04  0.10100000352E+00 0.  1.
    10030    2    1    2    0    0  0.00000000000E+00  0.00000000000E+00 -0.15817746036E+04  0.32109055865E+04  0.27942626557E+04 0.  0.
        3    1    3    3  502    0 -0.42991507424E+03 -0.14701849508E+03 -0.23090717248E+04  0.23533494533E+04  0.10100000352E+00 0.  1.
       -3    1    3    3    0  502  0.42991507424E+03  0.14701849508E+03  0.72729712118E+03  0.85755613323E+03  0.10100000352E+00 0. -1.
</event>
<event>
 5   0  0.2360103E-06  0.2909441E+04  0.7818609E-02  0.8270074E-01
       -2   -1    0    0    0  501  0.00000000000E+00  0.00000000000E+00  0.84224246929E+03  0.84224246930E+03  0.25500000920E-02 0. -1.
        2   -1    0    0  501    0  0.00000000000E+00  0.00000000000E+00 -0.25125914071E+04  0.25125914071E+04  0.25500000920E-02 0.  1.
    10030    2    1    2    0    0  0.00000000000E+00  0.00000000000E+00 -0.16703489378E+04  0.33548338764E+04  0.29094406274E+04 0.  0.
        4    1    3    3  502    0 -0.49640962402E+03 -0.47750159003E+03 -0.23126452738E+04  0.24130395891E+04  0.12699999809E+01 0.  1.
       -4    1    3    3    0  502  0.49640962402E+03  0.47750159003E+03  0.64229633604E+03  0.94179428724E+03  0.12699999809E+01 0. -1.
</event>
<event>
 5   0  0.2425845E-06  0.2893217E+04  0.7818609E-02  0.8274898E-01
       -2   -1    0    0    0  501  0.00000000000E+00  0.00000000000E+00  0.10235106139E+04  0.10235106139E+04  0.25500000920E-02 0. -1.
        2   -1    0    0  501    0  0.00000000000E+00  0.00000000000E+00 -0.20446065995E+04  0.20446065995E+04  0.25500000920E-02 0.  1.
    10030    2    1    2    0    0  0.00000000000E+00  0.00000000000E+00 -0.10210959856E+04  0.30681172134E+04  0.28932172790E+04 0.  0.
        2    1    3    3  502    0  0.34065842984E+02 -0.34842577757E+03 -0.19990065484E+04  0.20294305075E+04  0.25500000920E-02 0.  1.
       -2    1    3    3    0  502 -0.34065842984E+02  0.34842577757E+03  0.97791056285E+03  0.10386867059E+04  0.25500000920E-02 0. -1.
</event>
<event>
 5   0  0.8483636E-07  0.2892426E+04  0.7818609E-02  0.8275135E-01
        1   -1    0    0  501    0  0.00000000000E+00  0.00000000000E+00  0.15641605200E+04  0.15641605200E+04  0.50400001928E-02 0. -1.
       -1   -1    0    0    0  501  0.00000000000E+00  0.00000000000E+00 -0.13371593356E+04  0.13371593356E+04  0.50400001928E-02 0.  1.
    10030    2    1    2    0    0  0.00000000000E+00  0.00000000000E+00  0.22700118441E+03  0.29013198557E+04  0.28924258620E+04 0.  0.
        2    1    3    3  502    0  0.55373632257E+03 -0.11280923989E+04  0.83146366521E+03  0.15068338335E+04  0.25500000920E-02 0. -1.
       -2    1    3    3    0  502 -0.55373632257E+03  0.11280923989E+04 -0.60446248080E+03  0.13944860222E+04  0.25500000920E-02 0.  1.
</event>
<event>
 5   0  0.8483636E-07  0.2853840E+04  0.7818609E-02  0.8286745E-01
       -1   -1    0    0    0  501  0.00000000000E+00  0.00000000000E+00  0.17595713369E+04  0.17595713369E+04  0.50400001928E-02 0.  1.
        1   -1    0    0  501    0  0.00000000000E+00  0.00000000000E+00 -0.11571570764E+04  0.11571570764E+04  0.50400001928E-02 0. -1.
    10030    2    1    2    0    0  0.00000000000E+00  0.00000000000E+00  0.60241426047E+03  0.29167284133E+04  0.28538398161E+04 0.  0.
        2    1    3    3  502    0 -0.24116659954E+03 -0.11119755675E+04  0.11812567670E+04  0.16401275991E+04  0.25500000920E-02 0.  1.
       -2    1    3    3    0  502  0.24116659954E+03  0.11119755675E+04 -0.57884250657E+03  0.12766008142E+04  0.25500000920E-02 0. -1.
</event>
<event>
 5   0  0.2304435E-06  0.2898408E+04  0.7818609E-02  0.8273351E-01
        2   -1    0    0  501    0  0.00000000000E+00  0.00000000000E+00  0.16651692873E+04  0.16651692873E+04  0.25500000920E-02 0. -1.
       -2   -1    0    0    0  501  0.00000000000E+00  0.00000000000E+00 -0.12612481061E+04  0.12612481061E+04  0.25500000920E-02 0.  1.
    10030    2    1    2    0    0  0.00000000000E+00  0.00000000000E+00  0.40392118127E+03  0.29264173934E+04  0.28984075696E+04 0.  0.
        1    1    3    3  502    0 -0.20343474506E+00  0.12612753926E+04  0.92256353651E+03  0.15626705143E+04  0.50400001928E-02 0. -1.
       -1    1    3    3    0  502  0.20343474506E+00 -0.12612753926E+04 -0.51864235524E+03  0.13637468791E+04  0.50400001928E-02 0.  1.
</event>
<event>
 5   0  0.8357118E-07  0.2898056E+04  0.7818609E-02  0.8273456E-01
        1   -1    0    0  501    0  0.00000000000E+00  0.00000000000E+00  0.28991175171E+04  0.28991175171E+04  0.50400001928E-02 0.  1.
       -1   -1    0    0    0  501  0.00000000000E+00  0.00000000000E+00 -0.72424858747E+03  0.72424858748E+03  0.50400001928E-02 0. -1.
    10030    2    1    2    0    0  0.00000000000E+00  0.00000000000E+00  0.21748689297E+04  0.36233661046E+04  0.28980557391E+04 0.  0.
        1    1    3    3  502    0  0.12395338942E+04  0.61671587912E+03  0.55273325360E+03  0.14907369990E+04  0.50400001928E-02 0.  1.
       -1    1    3    3    0  502 -0.12395338942E+04 -0.61671587912E+03  0.16221356761E+04  0.21326291056E+04  0.50400001928E-02 0. -1.
</event>
<event>
 5   0  0.8263673E-07  0.2776080E+04  0.7818609E-02  0.8310733E-01
       -1   -1    0    0    0  501  0.00000000000E+00  0.00000000000E+00  0.65372281283E+03  0.65372281285E+03  0.50400001928E-02 0.  1.
        1   -1    0    0  501    0  0.00000000000E+00  0.00000000000E+00 -0.29472041460E+04  0.29472041460E+04  0.50400001928E-02 0. -1.
    10030    2    1    2    0    0  0.00000000000E+00  0.00000000000E+00 -0.22934813332E+04  0.36009269589E+04  0.27760796706E+04 0.  0.
        5    1    3    3  502    0 -0.10138431606E+04 -0.93980936535E+03 -0.98518252812E+03  0.16975648150E+04  0.46999998093E+01 0. -1.
       -5    1    3    3    0  502  0.10138431606E+04  0.93980936535E+03 -0.13082988051E+04  0.19033621439E+04  0.46999998093E+01 0.  1.
</event>
<event>
 5   0  0.8357118E-07  0.2881353E+04  0.7818609E-02  0.8278447E-01
        1   -1    0    0  501    0  0.00000000000E+00  0.00000000000E+00  0.15792045682E+04  0.15792045682E+04  0.50400001928E-02 0. -1.
       -1   -1    0    0    0  501  0.00000000000E+00  0.00000000000E+00 -0.13142999798E+04  0.13142999798E+04  0.50400001928E-02 0.  1.
    10030    2    1    2    0    0  0.00000000000E+00  0.00000000000E+00  0.26490458835E+03  0.28935045480E+04  0.28813528296E+04 0.  0.
        1    1    3    3  502    0  0.37542965521E+03 -0.86525295263E+03  0.12260530437E+04  0.15468730278E+04  0.50400001928E-02 0. -1.
       -1    1    3    3    0  502 -0.37542965521E+03  0.86525295263E+03 -0.96114845537E+03  0.13466315202E+04  0.50400001928E-02 0.  1.
</event>
<event>
 5   0  0.8947674E-07  0.2848249E+04  0.7818609E-02  0.8288444E-01
        1   -1    0    0  501    0  0.00000000000E+00  0.00000000000E+00  0.16231298661E+04  0.16231298662E+04  0.50400001928E-02 0.  1.
       -1   -1    0    0    0  501  0.00000000000E+00  0.00000000000E+00 -0.12495180368E+04  0.12495180368E+04  0.50400001928E-02 0. -1.
    10030    2    1    2    0    0  0.00000000000E+00  0.00000000000E+00  0.37361182933E+03  0.28726479030E+04  0.28482486155E+04 0.  0.
        3    1    3    3  502    0  0.46094636177E+03  0.10964368756E+04  0.97676820141E+03  0.15390651384E+04  0.10100000352E+00 0.  1.
       -3    1    3    3    0  502 -0.46094636177E+03 -0.10964368756E+04 -0.60315637208E+03  0.13335827646E+04  0.10100000352E+00 0. -1.
</event>
<event>
 5   0  0.2378690E-06  0.2883917E+04  0.7818609E-02  0.8277679E-01
       -2   -1    0    0    0  501  0.00000000000E+00  0.00000000000E+00  0.13157903077E+04  0.13157903077E+04  0.25500000920E-02 0.  1.
        2   -1    0    0  501    0  0.00000000000E+00  0.00000000000E+00 -0.15802247090E+04  0.15802247090E+04  0.25500000920E-02 0. -1.
    10030    2    1    2    0    0  0.00000000000E+00  0.00000000000E+00 -0.26443440130E+03  0.28960150168E+04  0.28839170281E+04 0.  0.
        3    1    3    3  502    0 -0.13806455301E+04 -0.20226314254E+03  0.23283480029E+03  0.14146747022E+04  0.10100000352E+00 0.  1.
       -3    1    3    3    0  502  0.13806455301E+04  0.20226314254E+03 -0.49726920159E+03  0.14813403146E+04  0.10100000352E+00 0. -1.
</event>
<event>
 5   0  0.2304435E-06  0.2895402E+04  0.7818609E-02  0.8274247E-01
       -2   -1    0    0    0  501  0.00000000000E+00  0.00000000000E+00  0.10874933922E+04  0.10874933922E+04  0.25500000920E-02 0.  1.
        2   -1    0    0  501    0  0.00000000000E+00  0.00000000000E+00 -0.19272194592E+04  0.19272194592E+04  0.25500000920E-02 0. -1.
    10030    2    1    2    0    0  0.00000000000E+00  0.00000000000E+00 -0.83972606696E+03  0.30147128514E+04  0.28954021670E+04 0.  0.
        1    1    3    3  502    0 -0.89693325065E+03 -0.43326785244E+03  0.67396346394E+03  0.12026791088E+04  0.50400001928E-02 0.  1.
       -1    1    3    3    0  502  0.89693325065E+03  0.43326785244E+03 -0.15136895309E+04  0.18120337425E+04  0.50400001928E-02 0. -1.
</event>
<event>
 5   0  0.2360103E-06  0.2845170E+04  0.7818609E-02  0.8289380E-01
        2   -1    0    0  501    0  0.00000000000E+00  0.00000000000E+00  0.14509951326E+04  0.14509951326E+04  0.25500000920E-02 0. -1.
       -2   -1    0    0    0  501  0.00000000000E+00  0.00000000000E+00 -0.13947314104E+04  0.13947314104E+04  0.25500000920E-02 0.  1.
    10030    2    1    2    0    0  0.00000000000E+00  0.00000000000E+00  0.56263722121E+02  0.28457265430E+04  0.28451702851E+04 0.  0.
        4    1    3    3  502    0  0.13217414248E+04  0.25859447582E+03  0.48634300375E+03  0.14319227029E+04  0.12699999809E+01 0. -1.
       -4    1    3    3    0  502 -0.13217414248E+04 -0.25859447582E+03 -0.43007928163E+03  0.14138038401E+04  0.12699999809E+01 0.  1.
</event>
<event>
 5   0  0.8483636E-07  0.2881486E+04  0.7818609E-02  0.8278407E-01
       -1   -1    0    0    0  501  0.00000000000E+00  0.00000000000E+00  0.12067634965E+04  0.12067634965E+04  0.50400001928E-02 0.  1.
        1   -1    0    0  501    0  0.00000000000E+00  0.00000000000E+00 -0.17200882306E+04  0.17200882306E+04  0.50400001928E-02 0. -1.
    10030    2    1    2    0    0  0.00000000000E+00  0.00000000000E+00 -0.51332473409E+03  0.29268517271E+04  0.28814855109E+04 0.  0.
        2    1    3    3  502    0 -0.21107408850E+03  0.80731522646E+03 -0.14496447845E+04  0.16726566136E+04  0.25500000920E-02 0. -1.
       -2    1    3    3    0  502  0.21107408850E+03 -0.80731522646E+03  0.93632005045E+03  0.12541951134E+04  0.25500000920E-02 0.  1.
</event>
<event>
 5   0  0.2325590E-06  0.2894504E+04  0.7818609E-02  0.8274515E-01
        2   -1    0    0  501    0  0.00000000000E+00  0.00000000000E+00  0.15804308484E+04  0.15804308484E+04  0.25500000920E-02 0. -1.
       -2   -1    0    0    0  501  0.00000000000E+00  0.00000000000E+00 -0.13252958416E+04  0.13252958416E+04  0.25500000920E-02 0.  1.
    10030    2    1    2    0    0  0.00000000000E+00  0.00000000000E+00  0.25513500677E+03  0.29057266899E+04  0.28945040551E+04 0.  0.
        5    1    3    3  502    0  0.11237240240E+04  0.15234782140E+03  0.10302484089E+04  0.15321225195E+04  0.46999998093E+01 0. -1.
       -5    1    3    3    0  502 -0.11237240240E+04 -0.15234782140E+03 -0.77511340208E+03  0.13736041704E+04  0.46999998093E+01 0.  1.
</event>
<event>
 5   0  0.2325590E-06  0.2905105E+04  0.7818609E-02  0.8271360E-01
       -2   -1    0    0    0  501  0.00000000000E+00  0.00000000000E+00  0.18701473494E+04  0.18701473494E+04  0.25500000920E-02 0.  1.
        2   -1    0    0  501    0  0.00000000000E+00  0.00000000000E+00 -0.11282042001E+04  0.11282042001E+04  0.25500000920E-02 0. -1.
    10030    2    1    2    0    0  0.00000000000E+00  0.00000000000E+00  0.74194314929E+03  0.29983515495E+04  0.29051045381E+04 0.  0.
        5    1    3    3  502    0 -0.54705490902E+03  0.41353789500E+03  0.16925416124E+04  0.18261987471E+04  0.46999998093E+01 0.  1.
       -5    1    3    3    0  502  0.54705490902E+03 -0.41353789500E+03 -0.95059846310E+03  0.11721528024E+04  0.46999998093E+01 0. -1.
</event>
<event>
 5   0  0.2378690E-06  0.2901750E+04  0.7818609E-02  0.8272357E-01
       -2   -1    0    0    0  501  0.00000000000E+00  0.00000000000E+00  0.15088476993E+04  0.15088476993E+04  0.25500000920E-02 0. -1.
        2   -1    0    0  501    0  0.00000000000E+00  0.00000000000E+00 -0.13951296722E+04  0.13951296722E+04  0.25500000920E-02 0.  1.
    10030    2    1    2    0    0  0.00000000000E+00  0.00000000000E+00  0.11371802708E+03  0.29039773716E+04  0.29017499522E+04 0.  0.
        3    1    3    3  502    0  0.28738656727E+03 -0.78333345642E+03  0.12447140354E+04  0.14985043821E+04  0.10100000352E+00 0. -1.
       -3    1    3    3    0  502 -0.28738656727E+03  0.78333345642E+03 -0.11309960084E+04  0.14054729895E+04  0.10100000352E+00 0.  1.
</event>
<event>
 5   0  0.2325590E-06  0.2898405E+04  0.7818609E-02  0.8273352E-01
       -2   -1    0    0    0  501  0.00000000000E+00  0.00000000000E+00  0.13665552380E+04  0.13665552380E+04  0.25500000920E-02 0. -1.
        2   -1    0    0  501    0  0.00000000000E+00  0.00000000000E+00 -0.15368485857E+04  0.15368485857E+04  0.25500000920E-02 0.  1.
    10030    2    1    2    0    0  0.00000000000E+00  0.00000000000E+00 -0.17029334769E+03  0.29034038237E+04  0.28984054132E+04 0.  0.
        5    1    3    3  502    0  0.11202613658E+04 -0.91791146388E+03 -0.33878223825E+02  0.14486948634E+04  0.46999998093E+01 0. -1.
       -5    1    3    3    0  502 -0.11202613658E+04  0.91791146388E+03 -0.13641512386E+03  0.14547089603E+04  0.46999998093E+01 0.  1.
</event>
<event>
 5   0  0.2425845E-06  0.2908482E+04  0.7818609E-02  0.8270358E-01
        2   -1    0    0  501    0  0.00000000000E+00  0.00000000000E+00  0.15684573861E+04  0.15684573861E+04  0.25500000920E-02 0. -1.
       -2   -1    0    0    0  501  0.00000000000E+00  0.00000000000E+00 -0.13483417872E+04  0.13483417872E+04  0.25500000920E-02 0.  1.
    10030    2    1    2    0    0  0.00000000000E+00  0.00000000000E+00  0.22011559892E+03  0.29167991733E+04  0.29084818274E+04 0.  0.
        2    1    3    3  502    0 -0.59358413083E+03  0.72242952855E+03 -0.10069361660E+04  0.13741058862E+04  0.25500000920E-02 0.  1.
       -2    1    3    3    0  502  0.59358413083E+03 -0.72242952855E+03  0.12270517649E+04  0.15426932871E+04  0.25500000920E-02 0. -1.
</event>
<event>
 5   0  0.2325590E-06  0.2902460E+04  0.7818609E-02  0.8272146E-01
       -2   -1    0    0    0  501  0.00000000000E+00  0.00000000000E+00  0.86536084001E+03  0.86536084002E+03  0.25500000920E-02 0. -1.
        2   -1    0    0  501    0  0.00000000000E+00  0.00000000000E+00 -0.24337461365E+04  0.24337461365E+04  0.25500000920E-02 0.  1.
    10030    2    1    2    0    0  0.00000000000E+00  0.00000000000E+00 -0.15683852964E+04  0.32991069765E+04  0.29024600607E+04 0.  0.
        5    1    3    3  502    0 -0.13271144802E+04  0.51451184738E+02 -0.11930409914E+03  0.13334675196E+04  0.46999998093E+01 0.  1.
       -5    1    3    3    0  502  0.13271144802E+04 -0.51451184738E+02 -0.14490811973E+04  0.19656394568E+04  0.46999998093E+01 0. -1.
</event>
<event>
 5   0  0.2425845E-06  0.2900092E+04  0.7818609E-02  0.8272850E-01
       -2   -1    0    0    0  501  0.00000000000E+00  0.00000000000E+00  0.10767340878E+04  0.10767340878E+04  0.25500000920E-02 0.  1.
        2   -1    0    0  501    0  0.00000000000E+00  0.00000000000E+00 -0.19527876296E+04  0.19527876296E+04  0.25500000920E-02 0. -1.
    10030    2    1    2    0    0  0.00000000000E+00  0.00000000000E+00 -0.87605354171E+03  0.30295217174E+04  0.29000917276E+04 0.  0.
        2    1    3    3  502    0 -0.11982921238E+04  0.27701621932E+03  0.36436234993E+03  0.12827322097E+04  0.25500000920E-02 0.  1.
       -2    1    3    3    0  502  0.11982921238E+04 -0.27701621932E+03 -0.12404158916E+04  0.17467895077E+04  0.25500000920E-02 0. -1.
</event>
<event>
 5   0  0.2360103E-06  0.2913394E+04  0.7818609E-02  0.8268903E-01
        2   -1    0    0  501    0  0.00000000000E+00  0.00000000000E+00  0.90147737149E+03  0.90147737150E+03  0.25500000920E-02 0. -1.
       -2   -1    0    0    0  501  0.00000000000E+00  0.00000000000E+00 -0.23538766586E+04  0.23538766586E+04  0.25500000920E-02 0.  1.
    10030    2    1    2    0    0  0.00000000000E+00  0.00000000000E+00 -0.14523992871E+04  0.32553540301E+04  0.29133942699E+04 0.  0.
        4    1    3    3  502    0  0.33427298290E+03 -0.11265729913E+04 -0.16880900464E+04  0.20568312399E+04  0.12699999809E+01 0.  1.
       -4    1    3    3    0  502 -0.33427298290E+03  0.11265729913E+04  0.23569075928E+03  0.11985227902E+04  0.12699999809E+01 0. -1.
</event>
<event>
 5   0  0.2304435E-06  0.2903362E+04  0.7818609E-02  0.8271878E-01
        2   -1    0    0  501    0  0.00000000000E+00  0.00000000000E+00  0.17806964585E+04  0.17806964585E+04  0.25500000920E-02 0. -1.
       -2   -1    0    0    0  501  0.00000000000E+00  0.00000000000E+00 -0.11834572984E+04  0.11834572985E+04  0.25500000920E-02 0.  1.
    10030    2    1    2    0    0  0.00000000000E+00  0.00000000000E+00  0.59723916001E+03  0.29641537569E+04  0.29033623405E+04 0.  0.
        1    1    3    3  502    0  0.54235712731E+03 -0.13277055217E+04  0.52787652600E+03  0.15282692278E+04  0.50400001928E-02 0. -1.
       -1    1    3    3    0  502 -0.54235712731E+03  0.13277055217E+04  0.69362634011E+02  0.14358845291E+04  0.50400001928E-02 0.  1.
</event>
<event>
 5   0  0.8357118E-07  0.2886127E+04  0.7818609E-02  0.8277017E-01
       -1   -1    0    0    0  501  0.00000000000E+00  0.00000000000E+00  0.19589890561E+04  0.19589890561E+04  0.50400001928E-02 0.  1.
        1   -1    0    0  501    0  0.00000000000E+00  0.00000000000E+00 -0.10630134957E+04  0.10630134957E+04  0.50400001928E-02 0. -1.
    10030    2    1    2    0    0  0.00000000000E+00  0.00000000000E+00  0.89597556041E+03  0.30220025518E+04  0.28861266809E+04 0.  0.
        1    1    3    3  502    0 -0.89897436146E+03 -0.63253090666E+03 -0.53100672938E+03  0.12207450172E+04  0.50400001928E-02 0. -1.
       -1    1    3    3    0  502  0.89897436146E+03  0.63253090666E+03  0.14269822898E+04  0.18012575346E+04  0.50400001928E-02 0.  1.
</event>
<event>
 5   0  0.8263673E-07  0.2913119E+04  0.7818609E-02  0.8268985E-01
        1   -1    0    0  501    0  0.00000000000E+00  0.00000000000E+00  0.12797798605E+04  0.12797798605E+04  0.50400001928E-02 0. -1.
       -1   -1    0    0    0  501  0.00000000000E+00  0.00000000000E+00 -0.16577584462E+04  0.16577584462E+04  0.50400001928E-02 0.  1.
    10030    2    1    2    0    0  0.00000000000E+00  0.00000000000E+00 -0.37797858569E+03  0.29375383067E+04  0.29131192032E+04 0.  0.
        5    1    3    3  502    0  0.80853689912E+03  0.55502234695E+03 -0.12749390469E+04  0.16085003532E+04  0.46999998093E+01 0.  1.
       -5    1    3    3    0  502 -0.80853689912E+03 -0.55502234695E+03  0.89696046125E+03  0.13290379535E+04  0.46999998093E+01 0. -1.
</event>
<event>
 5   0  0.8483636E-07  0.2885632E+04  0.7818609E-02  0.8277165E-01
        1   -1    0    0  501    0  0.00000000000E+00  0.00000000000E+00  0.16818476522E+04  0.16818476522E+04  0.50400001928E-02 0.  1.
       -1   -1    0    0    0  501  0.00000000000E+00  0.00000000000E+00 -0.12377567485E+04  0.12377567485E+04  0.50400001928E-02 0. -1.
    10030    2    1    2    0    0  0.00000000000E+00  0.00000000000E+00  0.44409090376E+03  0.29196044007E+04  0.28856321883E+04 0.  0.
        2    1    3    3  502    0  0.11380105037E+04 -0.62973861631E+03 -0.40987103020E+03  0.13636835750E+04  0.25500000920E-02 0. -1.
       -2    1    3    3    0  502 -0.11380105037E+04  0.62973861631E+03  0.85396193396E+03  0.15559208257E+04  0.25500000920E-02 0.  1.
</event>
<event>
 5   0  0.8263673E-07  0.2898315E+04  0.7818609E-02  0.8273379E-01
        1   -1    0    0  501    0  0.00000000000E+00  0.00000000000E+00  0.17520356713E+04  0.17520356713E+04  0.50400001928E-02 0.  1.
       -1   -1    0    0    0  501  0.00000000000E+00  0.00000000000E+00 -0.11986381974E+04  0.11986381974E+04  0.50400001928E-02 0. -1.
    10030    2    1    2    0    0  0.00000000000E+00  0.00000000000E+00  0.55339747394E+03  0.29506738687E+04  0.28983145991E+04 0.  0.
        5    1    3    3  502    0  0.29170465901E+03 -0.11526114536E+04 -0.56677937976E+03  0.13171430167E+04  0.46999998093E+01 0. -1.
       -5    1    3    3    0  502 -0.29170465901E+03  0.11526114536E+04  0.11201768537E+04  0.16335308521E+04  0.46999998093E+01 0.  1.
</event>
<event>
 5   0  0.2378690E-06  0.2906435E+04  0.7818609E-02  0.8270965E-01
        2   -1    0    0  501    0  0.00000000000E+00  0.00000000000E+00  0.16955536499E+04  0.16955536499E+04  0.25500000920E-02 0. -1.
       -2   -1    0    0    0  501  0.00000000000E+00  0.00000000000E+00 -0.12455173995E+04  0.12455173995E+04  0.25500000920E-02 0.  1.
    10030    2    1    2    0    0  0.00000000000E+00  0.00000000000E+00  0.45003625042E+03  0.29410710494E+04  0.29064353238E+04 0.  0.
        3    1    3    3  502    0 -0.44944078305E+03  0.12194080324E+04 -0.43303027814E+03  0.13698423993E+04  0.10100000352E+00 0.  1.
       -3    1    3    3    0  502  0.44944078305E+03 -0.12194080324E+04  0.88306652856E+03  0.15712286501E+04  0.10100000352E+00 0. -1.
</event>
<event>
 5   0  0.2360103E-06  0.2894961E+04  0.7818609E-02  0.8274378E-01
       -2   -1    0    0    0  501  0.00000000000E+00  0.00000000000E+00  0.11233969308E+04  0.11233969308E+04  0.25500000920E-02 0. -1.
        2   -1    0    0  501    0  0.00000000000E+00  0.00000000000E+00 -0.18650576069E+04  0.18650576069E+04  0.25500000920E-02 0.  1.
    10030    2    1    2    0    0  0.00000000000E+00  0.00000000000E+00 -0.74166067610E+03  0.29884545377E+04  0.28949611337E+04 0.  0.
        4    1    3    3  502    0 -0.73059869352E+03  0.50720525595E+03  0.80805204769E+03  0.12016577497E+04  0.12699999809E+01 0. -1.
       -4    1    3    3    0  502  0.73059869352E+03 -0.50720525595E+03 -0.15497127238E+04  0.17867967881E+04  0.12699999809E+01 0.  1.
</event>
<event>
 5   0  0.8355946E-07  0.2894015E+04  0.7818609E-02  0.8274661E-01
        1   -1    0    0  501    0  0.00000000000E+00  0.00000000000E+00  0.25615970476E+04  0.25615970476E+04  0.50400001928E-02 0.  1.
       -1   -1    0    0    0  501  0.00000000000E+00  0.00000000000E+00 -0.81739244539E+03  0.81739244541E+03  0.50400001928E-02 0. -1.
    10030    2    1    2    0    0  0.00000000000E+00  0.00000000000E+00  0.17442046022E+04  0.33789894930E+04  0.28940145645E+04 0.  0.
        4    1    3    3  502    0  0.94778708812E+02 -0.32147083723E+03  0.25156540466E+04  0.25378816753E+04  0.12699999809E+01 0.  1.
       -4    1    3    3    0  502 -0.94778708812E+02  0.32147083723E+03 -0.77144944440E+03  0.84110781770E+03  0.12699999809E+01 0. -1.
</event>
<event>
 5   0  0.8483636E-07  0.2891024E+04  0.7818609E-02  0.8275553E-01
       -1   -1    0    0    0  501  0.00000000000E+00  0.00000000000E+00  0.15710571459E+04  0.15710571459E+04  0.50400001928E-02 0.  1.
        1   -1    0    0  501    0  0.00000000000E+00  0.00000000000E+00 -0.13299989318E+04  0.13299989318E+04  0.50400001928E-02 0. -1.
    10030    2    1    2    0    0  0.00000000000E+00  0.00000000000E+00  0.24105821419E+03  0.29010560777E+04  0.28910235737E+04 0.  0.
        2    1    3    3  502    0  0.34388679156E+03  0.30641799521E+03 -0.12543914382E+04  0.13362814051E+04  0.25500000920E-02 0. -1.
       -2    1    3    3    0  502 -0.34388679156E+03 -0.30641799521E+03  0.14954496524E+04  0.15647746726E+04  0.25500000920E-02 0.  1.
</event>
<event>
 5   0  0.8483636E-07  0.2901912E+04  0.7818609E-02  0.8272309E-01
        1   -1    0    0  501    0  0.00000000000E+00  0.00000000000E+00  0.20371368760E+04  0.20371368760E+04  0.50400001928E-02 0. -1.
       -1   -1    0    0    0  501  0.00000000000E+00  0.00000000000E+00 -0.10334469338E+04  0.10334469338E+04  0.50400001928E-02 0.  1.
    10030    2    1    2    0    0  0.00000000000E+00  0.00000000000E+00  0.10036899422E+04  0.30705838098E+04  0.29019116860E+04 0.  0.
        2    1    3    3  502    0  0.10219496287E+04 -0.69440350865E+03  0.13067818911E+04  0.17984037888E+04  0.25500000920E-02 0. -1.
       -2    1    3    3    0  502 -0.10219496287E+04  0.69440350865E+03 -0.30309194891E+03  0.12721800211E+04  0.25500000920E-02 0.  1.
</event>
<event>
 5   0  0.2425845E-06  0.2894360E+04  0.7818609E-02  0.8274558E-01
        2   -1    0    0  501    0  0.00000000000E+00  0.00000000000E+00  0.16905433698E+04  0.16905433698E+04  0.25500000920E-02 0.  1.
       -2   -1    0    0    0  501  0.00000000000E+00  0.00000000000E+00 -0.12388499205E+04  0.12388499205E+04  0.25500000920E-02 0. -1.
    10030    2    1    2    0    0  0.00000000000E+00  0.00000000000E+00  0.45169344932E+03  0.29293932903E+04  0.28943597007E+04 0.  0.
        2    1    3    3  502    0  0.34517223347E+03 -0.13780811775E+04  0.50500755758E+03  0.15077414353E+04  0.25500000920E-02 0.  1.
       -2    1    3    3    0  502 -0.34517223347E+03  0.13780811775E+04 -0.53314108259E+02  0.14216518549E+04  0.25500000920E-02 0. -1.
</event>
<event>
 5   0  0.8357118E-07  0.2885205E+04  0.7818609E-02  0.8277293E-01
        1   -1    0    0  501    0  0.00000000000E+00  0.00000000000E+00  0.11826398094E+04  0.11826398094E+04  0.50400001928E-02 0.  1.
       -1   -1    0    0    0  501  0.00000000000E+00  0.00000000000E+00 -0.17597094724E+04  0.17597094724E+04  0.50400001928E-02 0. -1.
    10030    2    1    2    0    0  0.00000000000E+00  0.00000000000E+00 -0.57706966302E+03  0.29423492818E+04  0.28852053480E+04 0.  0.
        1    1    3    3  502    0 -0.46124444433E+03 -0.65897792184E+02 -0.16808643359E+04  0.17442459322E+04  0.50400001928E-02 0. -1.
       -1    1    3    3    0  502  0.46124444433E+03  0.65897792184E+02  0.11037946729E+04  0.11981033496E+04  0.50400001928E-02 0.  1.
</event>
<event>
 5   0  0.8355946E-07  0.2883092E+04  0.7818609E-02  0.8277926E-01
       -1   -1    0    0    0  501  0.00000000000E+00  0.00000000000E+00  0.82440721953E+03  0.82440721954E+03  0.50400001928E-02 0.  1.
        1   -1    0    0  501    0  0.00000000000E+00  0.00000000000E+00 -0.25206655688E+04  0.25206655688E+04  0.50400001928E-02 0. -1.
    10030    2    1    2    0    0  0.00000000000E+00  0.00000000000E+00 -0.16962583493E+04  0.33450727884E+04  0.28830920159E+04 0.  0.
        4    1    3    3  502    0 -0.81123161010E+03 -0.58266046401E+03  0.35788409587E+03  0.10609771819E+04  0.12699999809E+01 0.  1.
       -4    1    3    3    0  502  0.81123161010E+03  0.58266046401E+03 -0.20541424451E+04  0.22840956065E+04  0.12699999809E+01 0. -1.
</event>
<event>
 5   0  0.8947674E-07  0.2902023E+04  0.7818609E-02  0.8272276E-01
       -1   -1    0    0    0  501  0.00000000000E+00  0.00000000000E+00  0.78058526027E+03  0.78058526029E+03  0.50400001928E-02 0. -1.
        1   -1    0    0  501    0  0.00000000000E+00  0.00000000000E+00 -0.26972512945E+04  0.26972512945E+04  0.50400001928E-02 0.  1.
    10030    2    1    2    0    0  0.00000000000E+00  0.00000000000E+00 -0.19166660342E+04  0.34778365548E+04  0.29020231589E+04 0.  0.
        3    1    3    3  502    0  0.76369421124E+03 -0.11911643770E+04 -0.13435701794E+04  0.19512258348E+04  0.10100000352E+00 0. -1.
       -3    1    3    3    0  502 -0.76369421124E+03  0.11911643770E+04 -0.57309585485E+03  0.15266107200E+04  0.10100000352E+00 0.  1.
</event>
<event>
 5   0  0.8355946E-07  0.2881353E+04  0.7818609E-02  0.8278447E-01
        1   -1    0    0  501    0  0.00000000000E+00  0.00000000000E+00  0.20314702493E+04  0.20314702493E+04  0.50400001928E-02 0. -1.
       -1   -1    0    0    0  501  0.00000000000E+00  0.00000000000E+00 -0.10216981436E+04  0.10216981436E+04  0.50400001928E-02 0.  1.
    10030    2    1    2    0    0  0.00000000000E+00  0.00000000000E+00  0.10097721057E+04  0.30531683929E+04  0.28813534198E+04 0.  0.
        4    1    3    3  502    0  0.93452895527E+03 -0.90304251876E+03  0.11638341401E+04  0.17445176059E+04  0.12699999809E+01 0. -1.
       -4    1    3    3    0  502 -0.93452895527E+03  0.90304251876E+03 -0.15406203434E+03  0.13086507870E+04  0.12699999809E+01 0.  1.
</event>
<event>
 5   0  0.2360103E-06  0.2905304E+04  0.7818609E-02  0.8271301E-01
        2   -1    0    0  501    0  0.00000000000E+00  0.00000000000E+00  0.23122227439E+04  0.23122227439E+04  0.25500000920E-02 0.  1.
       -2   -1    0    0    0  501  0.00000000000E+00  0.00000000000E+00 -0.91262730268E+03  0.91262730268E+03  0.25500000920E-02 0. -1.
    10030    2    1    2    0    0  0.00000000000E+00  0.00000000000E+00  0.13995954412E+04  0.32248500466E+04  0.29053038436E+04 0.  0.
        4    1    3    3  502    0  0.73115932221E+03 -0.12228191855E+04  0.10143675379E+04  0.17489493503E+04  0.12699999809E+01 0.  1.
       -4    1    3    3    0  502 -0.73115932221E+03  0.12228191855E+04  0.38522790328E+03  0.14759006963E+04  0.12699999809E+01 0. -1.
</event>
<event>
 5   0  0.2425845E-06  0.2896612E+04  0.7818609E-02  0.8273886E-01
        2   -1    0    0  501    0  0.00000000000E+00  0.00000000000E+00  0.17735705917E+04  0.17735705917E+04  0.25500000920E-02 0. -1.
       -2   -1    0    0    0  501  0.00000000000E+00  0.00000000000E+00 -0.11826936360E+04  0.11826936360E+04  0.25500000920E-02 0.  1.
    10030    2    1    2    0    0  0.00000000000E+00  0.00000000000E+00  0.59087695562E+03  0.29562642277E+04  0.28966122639E+04 0.  0.
        2    1    3    3  502    0 -0.28956480585E+03  0.22926728460E+03  0.17246994771E+04  0.17638025827E+04  0.25500000920E-02 0. -1.
       -2    1    3    3    0  502  0.28956480585E+03 -0.22926728460E+03 -0.11338225215E+04  0.11924616450E+04  0.25500000920E-02 0.  1.
</event>
<event>
 5   0  0.2325590E-06  0.2896991E+04  0.7818609E-02  0.8273773E-01
        2   -1    0    0  501    0  0.00000000000E+00  0.00000000000E+00  0.15462353867E+04  0.15462353867E+04  0.25500000920E-02 0. -1.
       -2   -1    0    0    0  501  0.00000000000E+00  0.00000000000E+00 -0.13569335450E+04  0.13569335450E+04  0.25500000920E-02 0.  1.
    10030    2    1    2    0    0  0.00000000000E+00  0.00000000000E+00  0.18930184176E+03  0.29031689317E+04  0.28969906211E+04 0.  0.
        5    1    3    3  502    0  0.66692031455E+02  0.13049773987E+02  0.15446293465E+04  0.15461306645E+04  0.46999998093E+01 0. -1.
       -5    1    3    3    0  502 -0.66692031455E+02 -0.13049773987E+02 -0.13553275047E+04  0.13570382672E+04  0.46999998093E+01 0.  1.
</event>
<event>
 5   0  0.2378690E-06  0.2900315E+04  0.7818609E-02  0.8272784E-01
       -2   -1    0    0    0  501  0.00000000000E+00  0.00000000000E+00  0.16965072128E+04  0.16965072128E+04  0.25500000920E-02 0. -1.
        2   -1    0    0  501    0  0.00000000000E+00  0.00000000000E+00 -0.12395801635E+04  0.12395801635E+04  0.25500000920E-02 0.  1.
    10030    2    1    2    0    0  0.00000000000E+00  0.00000000000E+00  0.45692704933E+03  0.29360873763E+04  0.29003149403E+04 0.  0.
        3    1    3    3  502    0  0.15113440553E+03  0.84064459996E+03 -0.95792613739E+03  0.12834124228E+04  0.10100000352E+00 0.  1.
       -3    1    3    3    0  502 -0.15113440553E+03 -0.84064459996E+03  0.14148531867E+04  0.16526749536E+04  0.10100000352E+00 0. -1.
</event>
<event>
 5   0  0.2304435E-06  0.2900666E+04  0.7818609E-02  0.8272679E-01
        2   -1    0    0  501    0  0.00000000000E+00  0.00000000000E+00  0.16076220358E+04  0.16076220358E+04  0.25500000920E-02 0. -1.
       -2   -1    0    0    0  501  0.00000000000E+00  0.00000000000E+00 -0.13084331508E+04  0.13084331508E+04  0.25500000920E-02 0.  1.
    10030    2    1    2    0    0  0.00000000000E+00  0.00000000000E+00  0.29918888500E+03  0.29160551867E+04  0.29006661067E+04 0.  0.
        1    1    3    3  502    0 -0.11290923341E+04 -0.23360036850E+03  0.10340616959E+04  0.15487744258E+04  0.50400001928E-02 0.  1.
       -1    1    3    3    0  502  0.11290923341E+04  0.23360036850E+03 -0.73487281086E+03  0.13672807609E+04  0.50400001928E-02 0. -1.
</event>
<event>
 5   0  0.8947674E-07  0.2908938E+04  0.7818609E-02  0.8270223E-01
       -1   -1    0    0    0  501  0.00000000000E+00  0.00000000000E+00  0.33874394833E+04  0.33874394833E+04  0.50400001928E-02 0.  1.
        1   -1    0    0  501    0  0.00000000000E+00  0.00000000000E+00 -0.62450720800E+03  0.62450720802E+03  0.50400001928E-02 0. -1.
    10030    2    1    2    0    0  0.00000000000E+00  0.00000000000E+00  0.27629322753E+04  0.40119466913E+04  0.29089382077E+04 0.  0.
        3    1    3    3  502    0  0.12229889370E+04 -0.60779425083E+03  0.69137397530E+03  0.15307232850E+04  0.10100000352E+00 0. -1.
       -3    1    3    3    0  502 -0.12229889370E+04  0.60779425083E+03  0.20715583000E+04  0.24812234063E+04  0.10100000352E+00 0.  1.
</event>
<event>
 5   0  0.8947674E-07  0.2892691E+04  0.7818609E-02  0.8275055E-01
        1   -1    0    0  501    0  0.00000000000E+00  0.00000000000E+00  0.13762219226E+04  0.13762219226E+04  0.50400001928E-02 0.  1.
       -1   -1    0    0    0  501  0.00000000000E+00  0.00000000000E+00 -0.15200420741E+04  0.15200420741E+04  0.50400001928E-02 0. -1.
    10030    2    1    2    0    0  0.00000000000E+00  0.00000000000E+00 -0.14382015149E+03  0.28962639966E+04  0.28926909448E+04 0.  0.
        3    1    3    3  502    0  0.27859688587E+03 -0.48105184812E+02 -0.14921066674E+04  0.15186548820E+04  0.10100000352E+00 0. -1.
       -3    1    3    3    0  502 -0.27859688587E+03  0.48105184812E+02  0.13482865159E+04  0.13776091146E+04  0.10100000352E+00 0.  1.
</event>
<event>
 5   0  0.2325590E-06  0.2889003E+04  0.7818609E-02  0.8276157E-01
        2   -1    0    0  501    0  0.00000000000E+00  0.00000000000E+00  0.12456492597E+04  0.12456492597E+04  0.25500000920E-02 0. -1.
       -2   -1    0    0    0  501  0.00000000000E+00  0.00000000000E+00 -0.16750982498E+04  0.16750982498E+04  0.25500000920E-02 0.  1.
    10030    2    1    2    0    0  0.00000000000E+00  0.00000000000E+00 -0.42944899015E+03  0.29207475095E+04  0.28890032155E+04 0.  0.
        5    1    3    3  502    0  0.49081802793E+03  0.87428304261E+03  0.83655213163E+03  0.13058004189E+04  0.46999998093E+01 0. -1.
       -5    1    3    3    0  502 -0.49081802793E+03 -0.87428304261E+03 -0.12660011218E+04  0.16149470906E+04  0.46999998093E+01 0.  1.
</event>
<event>
 5   0  0.8355946E-07  0.2884080E+04  0.7818609E-02  0.8277630E-01
       -1   -1    0    0    0  501  0.00000000000E+00  0.00000000000E+00  0.91761997040E+03  0.91761997042E+03  0.50400001928E-02 0. -1.
        1   -1    0    0  501    0  0.00000000000E+00  0.00000000000E+00 -0.22661656125E+04  0.22661656125E+04  0.50400001928E-02 0.  1.
    10030    2    1    2    0    0  0.00000000000E+00  0.00000000000E+00 -0.13485456421E+04  0.31837855829E+04  0.28840796260E+04 0.  0.
        4    1    3    3  502    0  0.10552068789E+04  0.97880227667E+03 -0.77277389745E+03  0.16336145701E+04  0.12699999809E+01 0. -1.
       -4    1    3    3    0  502 -0.10552068789E+04 -0.97880227667E+03 -0.57577174461E+03  0.15501710128E+04  0.12699999809E+01 0.  1.
</event>
<event>
 5   0  0.2304435E-06  0.2891692E+04  0.7818609E-02  0.8275354E-01
        2   -1    0    0  501    0  0.00000000000E+00  0.00000000000E+00  0.20183205554E+04  0.20183205554E+04  0.25500000920E-02 0. -1.
       -2   -1    0    0    0  501  0.00000000000E+00  0.00000000000E+00 -0.10357475127E+04  0.10357475127E+04  0.25500000920E-02 0.  1.
    10030    2    1    2    0    0  0.00000000000E+00  0.00000000000E+00  0.98257304276E+03  0.30540680681E+04  0.28916918889E+04 0.  0.
        1    1    3    3  502    0  0.12063088624E+04  0.68971210607E+03  0.69371533539E+02  0.13912930210E+04  0.50400001928E-02 0.  1.
       -1    1    3    3    0  502 -0.12063088624E+04 -0.68971210607E+03  0.91320150922E+03  0.16627750471E+04  0.50400001928E-02 0. -1.
</event>
<event>
 5   0  0.2378690E-06  0.2895051E+04  0.7818609E-02  0.8274352E-01
        2   -1    0    0  501    0  0.00000000000E+00  0.00000000000E+00  0.10446406159E+04  0.10446406159E+04  0.25500000920E-02 0. -1.
       -2   -1    0    0    0  501  0.00000000000E+00  0.00000000000E+00 -0.20057900565E+04  0.20057900565E+04  0.25500000920E-02 0.  1.
    10030    2    1    2    0    0  0.00000000000E+00  0.00000000000E+00 -0.96114944058E+03  0.30504306725E+04  0.28950507837E+04 0.  0.
        3    1    3    3  502    0  0.67577543163E+03  0.11464504462E+04  0.11947089431E+03  0.13361490801E+04  0.10100000352E+00 0. -1.
       -3    1    3    3    0  502 -0.67577543163E+03 -0.11464504462E+04 -0.10806203349E+04  0.17142815923E+04  0.10100000352E+00 0.  1.
</event>
<event>
 5   0  0.8947674E-07  0.2894240E+04  0.7818609E-02  0.8274593E-01
       -1   -1    0    0    0  501  0.00000000000E+00  0.00000000000E+00  0.70819954843E+03  0.70819954845E+03  0.50400001928E-02 0.  1.
        1   -1    0    0  501    0  0.00000000000E+00  0.00000000000E+00 -0.29570147006E+04  0.29570147006E+04  0.50400001928E-02 0. -1.
    10030    2    1    2    0    0  0.00000000000E+00  0.00000000000E+00 -0.22488151521E+04  0.36652142490E+04  0.28942401253E+04 0.  0.
        3    1    3    3  502    0  0.14348061464E+04  0.91653384469E+00 -0.13629684022E+04  0.19789776131E+04  0.10100000352E+00 0.  1.
       -3    1    3    3    0  502 -0.14348061464E+04 -0.91653384469E+00 -0.88584674995E+03  0.16862366359E+04  0.10100000352E+00 0. -1.
</event>
<event>
 5   0  0.2378690E-06  0.2996394E+04  0.7818609E-02  0.8244761E-01
        2   -1    0    0  501    0  0.00000000000E+00  0.00000000000E+00  0.21474549865E+04  0.21474549865E+04  0.25500000920E-02 0. -1.
       -2   -1    0    0    0  501  0.00000000000E+00  0.00000000000E+00 -0.10452349053E+04  0.10452349053E+04  0.25500000920E-02 0.  1.
    10030    2    1    2    0    0  0.00000000000E+00  0.00000000000E+00  0.11022200812E+04  0.31926898917E+04  0.29963944395E+04 0.  0.
        3    1    3    3  502    0 -0.68970686264E+03 -0.37862952672E+03 -0.80737998732E+03  0.11273501359E+04  0.10100000352E+00 0.  1.
       -3    1    3    3    0  502  0.68970686264E+03  0.37862952672E+03  0.19096000685E+04  0.20653397558E+04  0.10100000352E+00 0. -1.
</event>
<event>
 5   0  0.2304435E-06  0.2929304E+04  0.7818609E-02  0.8264212E-01
        2   -1    0    0  501    0  0.00000000000E+00  0.00000000000E+00  0.29268875335E+04  0.29268875335E+04  0.25500000920E-02 0.  1.
       -2   -1    0    0    0  501  0.00000000000E+00  0.00000000000E+00 -0.73293085159E+03  0.73293085159E+03  0.25500000920E-02 0. -1.
    10030    2    1    2    0    0  0.00000000000E+00  0.00000000000E+00  0.21939566819E+04  0.36598183851E+04  0.29293044720E+04 0.  0.
        1    1    3    3  502    0 -0.66229836758E+03  0.11014976425E+04  0.19744586233E+04  0.23559335812E+04  0.50400001928E-02 0.  1.
       -1    1    3    3    0  502  0.66229836758E+03 -0.11014976425E+04  0.21949805868E+03  0.13038848039E+04  0.50400001928E-02 0. -1.
</event>
<event>
 5   0  0.8355946E-07  0.2877770E+04  0.7818609E-02  0.8279522E-01
       -1   -1    0    0    0  501  0.00000000000E+00  0.00000000000E+00  0.12111872761E+04  0.12111872761E+04  0.50400001928E-02 0. -1.
        1   -1    0    0  501    0  0.00000000000E+00  0.00000000000E+00 -0.17093893199E+04  0.17093893199E+04  0.50400001928E-02 0.  1.
    10030    2    1    2    0    0  0.00000000000E+00  0.00000000000E+00 -0.49820204380E+03  0.29205765960E+04  0.28777703829E+04 0.  0.
        4    1    3    3  502    0 -0.30093386275E+03 -0.14064929326E+04 -0.20843730417E+03  0.14533517406E+04  0.12699999809E+01 0.  1.
       -4    1    3    3    0  502  0.30093386275E+03  0.14064929326E+04 -0.28976473963E+03  0.14672248554E+04  0.12699999809E+01 0. -1.
</event>
<event>
 5   0  0.2360103E-06  0.2912060E+04  0.7818609E-02  0.8269298E-01
        2   -1    0    0  501    0  0.00000000000E+00  0.00000000000E+00  0.10016445326E+04  0.10016445326E+04  0.25500000920E-02 0. -1.
       -2   -1    0    0    0  501  0.00000000000E+00  0.00000000000E+00 -0.21165430460E+04  0.21165430460E+04  0.25500000920E-02 0.  1.
    10030    2    1    2    0    0  0.00000000000E+00  0.00000000000E+00 -0.11148985134E+04  0.31181875786E+04  0.29120602810E+04 0.  0.
        4    1    3    3  502    0 -0.81273736832E+03 -0.12077505033E+04 -0.52680819514E+03  0.15481381707E+04  0.12699999809E+01 0. -1.
       -4    1    3    3    0  502  0.81273736832E+03  0.12077505033E+04 -0.58809031822E+03  0.15700494079E+04  0.12699999809E+01 0.  1.
</event>
<event>
 5   0  0.2425845E-06  0.2922598E+04  0.7818609E-02  0.8266185E-01
       -2   -1    0    0    0  501  0.00000000000E+00  0.00000000000E+00  0.12213490710E+04  0.12213490710E+04  0.25500000920E-02 0. -1.
        2   -1    0    0  501    0  0.00000000000E+00  0.00000000000E+00 -0.17483904406E+04  0.17483904406E+04  0.25500000920E-02 0.  1.
    10030    2    1    2    0    0  0.00000000000E+00  0.00000000000E+00 -0.52704136968E+03  0.29697395116E+04  0.29225981868E+04 0.  0.
        2    1    3    3  502    0  0.11570227360E+04  0.64125886284E+03 -0.89440605022E+03  0.15968333424E+04  0.25500000920E-02 0.  1.
       -2    1    3    3    0  502 -0.11570227360E+04 -0.64125886284E+03  0.36736468054E+03  0.13729061692E+04  0.25500000920E-02 0. -1.
</event>
<event>
 5   0  0.8947674E-07  0.2895286E+04  0.7818609E-02  0.8274281E-01
        1   -1    0    0  501    0  0.00000000000E+00  0.00000000000E+00  0.26205325447E+04  0.26205325447E+04  0.50400001928E-02 0. -1.
       -1   -1    0    0    0  501  0.00000000000E+00  0.00000000000E+00 -0.79971150579E+03  0.79971150581E+03  0.50400001928E-02 0.  1.
    10030    2    1    2    0    0  0.00000000000E+00  0.00000000000E+00  0.18208210389E+04  0.34202440505E+04  0.28952858424E+04 0.  0.
        3    1    3    3  502    0  0.41226977810E+03 -0.75248958465E+03 -0.46695547630E+03  0.97685944331E+03  0.10100000352E+00 0.  1.
       -3    1    3    3    0  502 -0.41226977810E+03  0.75248958465E+03  0.22877765152E+04  0.24433846072E+04  0.10100000352E+00 0. -1.
</event>
<event>
 5   0  0.8355946E-07  0.2899966E+04  0.7818609E-02  0.8272888E-01
       -1   -1    0    0    0  501  0.00000000000E+00  0.00000000000E+00  0.10286654703E+04  0.10286654703E+04  0.50400001928E-02 0. -1.
        1   -1    0    0  501    0  0.00000000000E+00  0.00000000000E+00 -0.20438625304E+04  0.20438625304E+04  0.50400001928E-02 0.  1.
    10030    2    1    2    0    0  0.00000000000E+00  0.00000000000E+00 -0.10151970601E+04  0.30725280007E+04  0.28999660764E+04 0.  0.
        4    1    3    3  502    0  0.29321606768E+03 -0.10802191915E+04 -0.14841838517E+04  0.18589385365E+04  0.12699999809E+01 0. -1.
       -4    1    3    3    0  502 -0.29321606768E+03  0.10802191915E+04  0.46898679155E+03  0.12135894642E+04  0.12699999809E+01 0.  1.
</event>
<event>
 5   0  0.8263673E-07  0.2893334E+04  0.7818609E-02  0.8274864E-01
       -1   -1    0    0    0  501  0.00000000000E+00  0.00000000000E+00  0.93344525372E+03  0.93344525373E+03  0.50400001928E-02 0.  1.
        1   -1    0    0  501    0  0.00000000000E+00  0.00000000000E+00 -0.22420649728E+04  0.22420649728E+04  0.50400001928E-02 0. -1.
    10030    2    1    2    0    0  0.00000000000E+00  0.00000000000E+00 -0.13086197190E+04  0.31755102265E+04  0.28933336533E+04 0.  0.
        5    1    3    3  502    0 -0.54984086328E+03 -0.93208105557E+03 -0.17080054200E+04  0.20219803841E+04  0.46999998093E+01 0. -1.
       -5    1    3    3    0  502  0.54984086328E+03  0.93208105557E+03  0.39938570097E+03  0.11535298424E+04  0.46999998093E+01 0.  1.
</event>
<event>
 5   0  0.8355946E-07  0.2932878E+04  0.7818609E-02  0.8263162E-01
        1   -1    0    0  501    0  0.00000000000E+00  0.00000000000E+00  0.14321822520E+04  0.14321822520E+04  0.50400001928E-02 0.  1.
       -1   -1    0    0    0  501  0.00000000000E+00  0.00000000000E+00 -0.15015152166E+04  0.15015152166E+04  0.50400001928E-02 0. -1.
    10030    2    1    2    0    0  0.00000000000E+00  0.00000000000E+00 -0.69332964568E+02  0.29336974686E+04  0.29328780707E+04 0.  0.
        4    1    3    3  502    0 -0.99692605226E+03 -0.88515197113E+03 -0.64564501158E+03  0.14812881757E+04  0.12699999809E+01 0. -1.
       -4    1    3    3    0  502  0.99692605226E+03  0.88515197113E+03  0.57631204701E+03  0.14524092929E+04  0.12699999809E+01 0.  1.
</event>
<event>
 5   0  0.8357118E-07  0.2888842E+04  0.7818609E-02  0.8276205E-01
       -1   -1    0    0    0  501  0.00000000000E+00  0.00000000000E+00  0.12784651150E+04  0.12784651150E+04  0.50400001928E-02 0. -1.
        1   -1    0    0  501    0  0.00000000000E+00  0.00000000000E+00 -0.16319192675E+04  0.16319192675E+04  0.50400001928E-02 0.  1.
    10030    2    1    2    0    0  0.00000000000E+00  0.00000000000E+00 -0.35345415252E+03  0.29103843825E+04  0.28888418814E+04 0.  0.
        1    1    3    3  502    0 -0.11313658107E+04  0.46232994179E+03 -0.95228213706E+03  0.15493801474E+04  0.50400001928E-02 0.  1.
       -1    1    3    3    0  502  0.11313658107E+04 -0.46232994179E+03  0.59882798454E+03  0.13610042350E+04  0.50400001928E-02 0. -1.
</event>
<event>
 5   0  0.2325590E-06  0.2902092E+04  0.7818609E-02  0.8272255E-01
        2   -1    0    0  501    0  0.00000000000E+00  0.00000000000E+00  0.19505990321E+04  0.19505990321E+04  0.25500000920E-02 0.  1.
       -2   -1    0    0    0  501  0.00000000000E+00  0.00000000000E+00 -0.10794300297E+04  0.10794300297E+04  0.25500000920E-02 0. -1.
    10030    2    1    2    0    0  0.00000000000E+00  0.00000000000E+00  0.87116900242E+03  0.30300290619E+04  0.29020924667E+04 0.  0.
        5    1    3    3  502    0  0.67465916669E+03 -0.10608196074E+04  0.11921025158E+04  0.17325223603E+04  0.46999998093E+01 0. -1.
       -5    1    3    3    0  502 -0.67465916669E+03  0.10608196074E+04 -0.32093351339E+03  0.12975067016E+04  0.46999998093E+01 0.  1.
</event>
<event>
 5   0  0.8355946E-07  0.2728531E+04  0.7818609E-02  0.8325807E-01
       -1   -1    0    0    0  501  0.00000000000E+00  0.00000000000E+00  0.12906712303E+04  0.12906712303E+04  0.50400001928E-02 0. -1.
        1   -1    0    0  501    0  0.00000000000E+00  0.00000000000E+00 -0.14420562441E+04  0.14420562441E+04  0.50400001928E-02 0.  1.
    10030    2    1    2    0    0  0.00000000000E+00  0.00000000000E+00 -0.15138501377E+03  0.27327274744E+04  0.27285311115E+04 0.  0.
        4    1    3    3  502    0  0.60488841637E+03 -0.12172000934E+04  0.41760314215E+02  0.13598571985E+04  0.12699999809E+01 0. -1.
       -4    1    3    3    0  502 -0.60488841637E+03  0.12172000934E+04 -0.19314532799E+03  0.13728702758E+04  0.12699999809E+01 0.  1.
</event>
<event>
 5   0  0.8483636E-07  0.2895813E+04  0.7818609E-02  0.8274124E-01
        1   -1    0    0  501    0  0.00000000000E+00  0.00000000000E+00  0.19025396294E+04  0.19025396294E+04  0.50400001928E-02 0. -1.
       -1   -1    0    0    0  501  0.00000000000E+00  0.00000000000E+00 -0.11019131725E+04  0.11019131725E+04  0.50400001928E-02 0.  1.
    10030    2    1    2    0    0  0.00000000000E+00  0.00000000000E+00  0.80062645697E+03  0.30044528019E+04  0.28958131700E+04 0.  0.
        2    1    3    3  502    0  0.59017667771E+03 -0.20960665447E+03  0.17547347799E+04  0.18631525993E+04  0.25500000920E-02 0. -1.
       -2    1    3    3    0  502 -0.59017667771E+03  0.20960665447E+03 -0.95410832294E+03  0.11413002026E+04  0.25500000920E-02 0.  1.
</event>
<event>
 5   0  0.2378690E-06  0.2920766E+04  0.7818609E-02  0.8266726E-01
       -2   -1    0    0    0  501  0.00000000000E+00  0.00000000000E+00  0.12297776133E+04  0.12297776133E+04  0.25500000920E-02 0. -1.
        2   -1    0    0  501    0  0.00000000000E+00  0.00000000000E+00 -0.17342305672E+04  0.17342305672E+04  0.25500000920E-02 0.  1.
    10030    2    1    2    0    0  0.00000000000E+00  0.00000000000E+00 -0.50445295394E+03  0.29640081805E+04  0.29207656037E+04 0.  0.
        3    1    3    3  502    0 -0.18775284924E+03 -0.94680498083E+03 -0.13643655479E+04  0.16712821912E+04  0.10100000352E+00 0.  1.
       -3    1    3    3    0  502  0.18775284924E+03  0.94680498083E+03  0.85991259394E+03  0.12927259894E+04  0.10100000352E+00 0. -1.
</event>
<event>
 5   0  0.2378690E-06  0.2903589E+04  0.7818609E-02  0.8271811E-01
        2   -1    0    0  501    0  0.00000000000E+00  0.00000000000E+00  0.15653896023E+04  0.15653896023E+04  0.25500000920E-02 0.  1.
       -2   -1    0    0    0  501  0.00000000000E+00  0.00000000000E+00 -0.13464424369E+04  0.13464424369E+04  0.25500000920E-02 0. -1.
    10030    2    1    2    0    0  0.00000000000E+00  0.00000000000E+00  0.21894716547E+03  0.29118320392E+04  0.29035888076E+04 0.  0.
        3    1    3    3  502    0  0.10561862059E+03 -0.28139568374E+02 -0.13423102806E+04  0.13467531429E+04  0.10100000352E+00 0. -1.
       -3    1    3    3    0  502 -0.10561862059E+03  0.28139568374E+02  0.15612574461E+04  0.15650788963E+04  0.10100000352E+00 0.  1.
</event>
<event>
 5   0  0.8263673E-07  0.2901719E+04  0.7818609E-02  0.8272366E-01
        1   -1    0    0  501    0  0.00000000000E+00  0.00000000000E+00  0.11800991689E+04  0.11800991689E+04  0.50400001928E-02 0.  1.
       -1   -1    0    0    0  501  0.00000000000E+00  0.00000000000E+00 -0.17837422574E+04  0.17837422574E+04  0.50400001928E-02 0. -1.
    10030    2    1    2    0    0  0.00000000000E+00  0.00000000000E+00 -0.60364308850E+03  0.29638414263E+04  0.29017186325E+04 0.  0.
        5    1    3    3  502    0  0.53078874677E+03 -0.40797012910E+03 -0.16165436566E+04  0.17496890591E+04  0.46999998093E+01 0. -1.
       -5    1    3    3    0  502 -0.53078874677E+03  0.40797012910E+03  0.10129005681E+04  0.12141523672E+04  0.46999998093E+01 0.  1.
</event>
<event>
 5   0  0.2325590E-06  0.2915134E+04  0.7818609E-02  0.8268389E-01
       -2   -1    0    0    0  501  0.00000000000E+00  0.00000000000E+00  0.19125949741E+04  0.19125949741E+04  0.25500000920E-02 0.  1.
        2   -1    0    0  501    0  0.00000000000E+00  0.00000000000E+00 -0.11107954856E+04  0.11107954856E+04  0.25500000920E-02 0. -1.
    10030    2    1    2    0    0  0.00000000000E+00  0.00000000000E+00  0.80179948853E+03  0.30233904597E+04  0.29151342083E+04 0.  0.
        5    1    3    3  502    0  0.66660734440E+02  0.70737999649E+03 -0.91901605282E+03  0.11616551589E+04  0.46999998093E+01 0. -1.
       -5    1    3    3    0  502 -0.66660734440E+02 -0.70737999649E+03  0.17208155414E+04  0.18617353008E+04  0.46999998093E+01 0.  1.
</event>
<event>
 5   0  0.2378690E-06  0.2902531E+04  0.7818609E-02  0.8272125E-01
        2   -1    0    0  501    0  0.00000000000E+00  0.00000000000E+00  0.20364631213E+04  0.20364631213E+04  0.25500000920E-02 0. -1.
       -2   -1    0    0    0  501  0.00000000000E+00  0.00000000000E+00 -0.10342303822E+04  0.10342303822E+04  0.25500000920E-02 0.  1.
    10030    2    1    2    0    0  0.00000000000E+00  0.00000000000E+00  0.10022327391E+04  0.30706935035E+04  0.29025313313E+04 0.  0.
        3    1    3    3  502    0 -0.76035101218E+03 -0.56628762181E+03 -0.66134184336E+03  0.11559361472E+04  0.10100000352E+00 0.  1.
       -3    1    3    3    0  502  0.76035101218E+03  0.56628762181E+03  0.16635745824E+04  0.19147573564E+04  0.10100000352E+00 0. -1.
</event>
<event>
 5   0  0.8947674E-07  0.2841781E+04  0.7818609E-02  0.8290413E-01
        1   -1    0    0  501    0  0.00000000000E+00  0.00000000000E+00  0.12653983311E+04  0.12653983311E+04  0.50400001928E-02 0.  1.
       -1   -1    0    0    0  501  0.00000000000E+00  0.00000000000E+00 -0.15954898254E+04  0.15954898254E+04  0.50400001928E-02 0. -1.
    10030    2    1    2    0    0  0.00000000000E+00  0.00000000000E+00 -0.33009149436E+03  0.28608881565E+04  0.28417812459E+04 0.  0.
        3    1    3    3  502    0  0.40319594746E+03  0.65596482104E+03  0.10371665488E+04  0.12917318911E+04  0.10100000352E+00 0.  1.
       -3    1    3    3    0  502 -0.40319594746E+03 -0.65596482104E+03 -0.13672580431E+04  0.15691562654E+04  0.10100000352E+00 0. -1.
</event>
<event>
 5   0  0.8947674E-07  0.2896147E+04  0.7818609E-02  0.8274025E-01
       -1   -1    0    0    0  501  0.00000000000E+00  0.00000000000E+00  0.10074285145E+04  0.10074285145E+04  0.50400001928E-02 0. -1.
        1   -1    0    0  501    0  0.00000000000E+00  0.00000000000E+00 -0.20814550761E+04  0.20814550761E+04  0.50400001928E-02 0.  1.
    10030    2    1    2    0    0  0.00000000000E+00  0.00000000000E+00 -0.10740265616E+04  0.30888835906E+04  0.28961472306E+04 0.  0.
        3    1    3    3  502    0 -0.13566035245E+04  0.50275882446E+03 -0.60256595744E+03  0.15672349223E+04  0.10100000352E+00 0.  1.
       -3    1    3    3    0  502  0.13566035245E+04 -0.50275882446E+03 -0.47146060418E+03  0.15216486683E+04  0.10100000352E+00 0. -1.
</event>
<event>
 5   0  0.8355946E-07  0.2896724E+04  0.7818609E-02  0.8273853E-01
       -1   -1    0    0    0  501  0.00000000000E+00  0.00000000000E+00  0.12641214726E+04  0.12641214726E+04  0.50400001928E-02 0.  1.
        1   -1    0    0  501    0  0.00000000000E+00  0.00000000000E+00 -0.16594549394E+04  0.16594549394E+04  0.50400001928E-02 0. -1.
    10030    2    1    2    0    0  0.00000000000E+00  0.00000000000E+00 -0.39533346682E+03  0.29235764120E+04  0.28967240957E+04 0.  0.
        4    1    3    3  502    0  0.98260359637E+03 -0.10621494790E+04 -0.26213108137E+03  0.14705052397E+04  0.12699999809E+01 0.  1.
       -4    1    3    3    0  502 -0.98260359637E+03  0.10621494790E+04 -0.13320238545E+03  0.14530711723E+04  0.12699999809E+01 0. -1.
</event>
<event>
 5   0  0.2304435E-06  0.2902184E+04  0.7818609E-02  0.8272228E-01
        2   -1    0    0  501    0  0.00000000000E+00  0.00000000000E+00  0.16927124802E+04  0.16927124802E+04  0.25500000920E-02 0. -1.
       -2   -1    0    0    0  501  0.00000000000E+00  0.00000000000E+00 -0.12439609865E+04  0.12439609865E+04  0.25500000920E-02 0.  1.
    10030    2    1    2    0    0  0.00000000000E+00  0.00000000000E+00  0.44875149367E+03  0.29366734667E+04  0.29021842028E+04 0.  0.
        1    1    3    3  502    0  0.74555799168E+02  0.12813209287E+04  0.90941920127E+03  0.15730178553E+04  0.50400001928E-02 0. -1.
       -1    1    3    3    0  502 -0.74555799168E+02 -0.12813209287E+04 -0.46066770760E+03  0.13636556113E+04  0.50400001928E-02 0.  1.
</event>
<event>
 5   0  0.8483636E-07  0.2908710E+04  0.7818609E-02  0.8270291E-01
       -1   -1    0    0    0  501  0.00000000000E+00  0.00000000000E+00  0.14350154653E+04  0.14350154653E+04  0.50400001928E-02 0.  1.
        1   -1    0    0  501    0  0.00000000000E+00  0.00000000000E+00 -0.14739552274E+04  0.14739552274E+04  0.50400001928E-02 0. -1.
    10030    2    1    2    0    0  0.00000000000E+00  0.00000000000E+00 -0.38939762138E+02  0.29089706927E+04  0.29087100553E+04 0.  0.
        2    1    3    3  502    0  0.88069753951E+03  0.35733856886E+03 -0.11203998158E+04  0.14692225006E+04  0.25500000920E-02 0. -1.
       -2    1    3    3    0  502 -0.88069753951E+03 -0.35733856886E+03  0.10814600537E+04  0.14397481921E+04  0.25500000920E-02 0.  1.
</event>
<event>
 5   0  0.2425845E-06  0.2895599E+04  0.7818609E-02  0.8274188E-01
        2   -1    0    0  501    0  0.00000000000E+00  0.00000000000E+00  0.18440701195E+04  0.18440701195E+04  0.25500000920E-02 0. -1.
       -2   -1    0    0    0  501  0.00000000000E+00  0.00000000000E+00 -0.11366835111E+04  0.11366835111E+04  0.25500000920E-02 0.  1.
    10030    2    1    2    0    0  0.00000000000E+00  0.00000000000E+00  0.70738660840E+03  0.29807536307E+04  0.28955994877E+04 0.  0.
        2    1    3    3  502    0  0.97098782381E+03 -0.67816807416E+03  0.12108848578E+04  0.16938038345E+04  0.25500000920E-02 0. -1.
       -2    1    3    3    0  502 -0.97098782381E+03  0.67816807416E+03 -0.50349824940E+03  0.12869497962E+04  0.25500000920E-02 0.  1.
</event>
<event>
 5   0  0.2378690E-06  0.2928472E+04  0.7818609E-02  0.8264456E-01
       -2   -1    0    0    0  501  0.00000000000E+00  0.00000000000E+00  0.11343267743E+04  0.11343267743E+04  0.25500000920E-02 0.  1.
        2   -1    0    0  501    0  0.00000000000E+00  0.00000000000E+00 -0.18900958748E+04  0.18900958748E+04  0.25500000920E-02 0. -1.
    10030    2    1    2    0    0  0.00000000000E+00  0.00000000000E+00 -0.75576910050E+03  0.30244226492E+04  0.29284715173E+04 0.  0.
        3    1    3    3  502    0 -0.20894503652E+03 -0.59401038596E+03  0.98735097853E+03  0.11710543676E+04  0.10100000352E+00 0.  1.
       -3    1    3    3    0  502  0.20894503652E+03  0.59401038596E+03 -0.17431200790E+04  0.18533682815E+04  0.10100000352E+00 0. -1.
</event>
<event>
 5   0  0.8355946E-07  0.2893420E+04  0.7818609E-02  0.8274838E-01
       -1   -1    0    0    0  501  0.00000000000E+00  0.00000000000E+00  0.10601735798E+04  0.10601735799E+04  0.50400001928E-02 0. -1.
        1   -1    0    0  501    0  0.00000000000E+00  0.00000000000E+00 -0.19741764657E+04  0.19741764657E+04  0.50400001928E-02 0.  1.
    10030    2    1    2    0    0  0.00000000000E+00  0.00000000000E+00 -0.91400288582E+03  0.30343500455E+04  0.28934199356E+04 0.  0.
        4    1    3    3  502    0 -0.84353529188E+03 -0.30601229544E+03 -0.16470750814E+04  0.18756474217E+04  0.12699999809E+01 0.  1.
       -4    1    3    3    0  502  0.84353529188E+03  0.30601229544E+03  0.73307219563E+03  0.11587026238E+04  0.12699999809E+01 0. -1.
</event>
<event>
 5   0  0.8357118E-07  0.2888953E+04  0.7818609E-02  0.8276172E-01
        1   -1    0    0  501    0  0.00000000000E+00  0.00000000000E+00  0.80146186527E+03  0.80146186529E+03  0.50400001928E-02 0.  1.
       -1   -1    0    0    0  501  0.00000000000E+00  0.00000000000E+00 -0.26033839961E+04  0.26033839961E+04  0.50400001928E-02 0. -1.
    10030    2    1    2    0    0  0.00000000000E+00  0.00000000000E+00 -0.18019221308E+04  0.34048458614E+04  0.28889534393E+04 0.  0.
        1    1    3    3  502    0  0.13034605383E+04 -0.54793753671E+03 -0.55279646664E+03  0.15181662797E+04  0.50400001928E-02 0.  1.
       -1    1    3    3    0  502 -0.13034605383E+04  0.54793753671E+03 -0.12491256642E+04  0.18866795817E+04  0.50400001928E-02 0. -1.
</event>
<event>
 5   0  0.2378690E-06  0.2902298E+04  0.7818609E-02  0.8272194E-01
        2   -1    0    0  501    0  0.00000000000E+00  0.00000000000E+00  0.13908063205E+04  0.13908063205E+04  0.25500000920E-02 0.  1.
       -2   -1    0    0    0  501  0.00000000000E+00  0.00000000000E+00 -0.15141094477E+04  0.15141094477E+04  0.25500000920E-02 0. -1.
    10030    2    1    2    0    0  0.00000000000E+00  0.00000000000E+00 -0.12330312719E+03  0.29049157682E+04  0.29022977034E+04 0.  0.
        3    1    3    3  502    0 -0.63952510821E+03  0.82407555523E+03  0.94808952249E+03  0.14095980411E+04  0.10100000352E+00 0.  1.
       -3    1    3    3    0  502  0.63952510821E+03 -0.82407555523E+03 -0.10713926497E+04  0.14953177270E+04  0.10100000352E+00 0. -1.
</event>
<event>
 5   0  0.2325590E-06  0.2899927E+04  0.7818609E-02  0.8272899E-01
       -2   -1    0    0    0  501  0.00000000000E+00  0.00000000000E+00  0.34553274936E+04  0.34553274936E+04  0.25500000920E-02 0.  1.
        2   -1    0    0  501    0  0.00000000000E+00  0.00000000000E+00 -0.60845024261E+03  0.60845024261E+03  0.25500000920E-02 0. -1.
    10030    2    1    2    0    0  0.00000000000E+00  0.00000000000E+00  0.28468772510E+04  0.40637777362E+04  0.28999274831E+04 0.  0.
        5    1    3    3  502    0  0.86950515419E+02 -0.80029747883E+03 -0.26651673535E+03  0.84799157247E+03  0.46999998093E+01 0. -1.
       -5    1    3    3    0  502 -0.86950515419E+02  0.80029747883E+03  0.31133939864E+04  0.32157861638E+04  0.46999998093E+01 0.  1.
</event>
<event>
 5   0  0.8947674E-07  0.2862559E+04  0.7818609E-02  0.8284105E-01
        1   -1    0    0  501    0  0.00000000000E+00  0.00000000000E+00  0.17345318599E+04  0.17345318599E+04  0.50400001928E-02 0.  1.
       -1   -1    0    0    0  501  0.00000000000E+00  0.00000000000E+00 -0.11810455795E+04  0.11810455795E+04  0.50400001928E-02 0. -1.
    10030    2    1    2    0    0  0.00000000000E+00  0.00000000000E+00  0.55348628032E+03  0.29155774394E+04  0.28625591248E+04 0.  0.
        3    1    3    3  502    0  0.42645297652E+03  0.11396205548E+03 -0.11099846186E+04  0.11945356232E+04  0.10100000352E+00 0. -1.
       -3    1    3    3    0  502 -0.42645297652E+03 -0.11396205548E+03  0.16634708990E+04  0.17210418162E+04  0.10100000352E+00 0.  1.
</event>
<event>
 5   0  0.8355946E-07  0.2830715E+04  0.7818609E-02  0.8293796E-01
       -1   -1    0    0    0  501  0.00000000000E+00  0.00000000000E+00  0.10047449885E+04  0.10047449885E+04  0.50400001928E-02 0. -1.
        1   -1    0    0  501    0  0.00000000000E+00  0.00000000000E+00 -0.19937757405E+04  0.19937757405E+04  0.50400001928E-02 0.  1.
    10030    2    1    2    0    0  0.00000000000E+00  0.00000000000E+00 -0.98903075200E+03  0.29985207290E+04  0.28307145271E+04 0.  0.
        4    1    3    3  502    0 -0.24126003240E+03 -0.65784240466E+03 -0.17971597588E+04  0.19289240120E+04  0.12699999809E+01 0.  1.
       -4    1    3    3    0  502  0.24126003240E+03  0.65784240466E+03  0.80812900676E+03  0.10695967170E+04  0.12699999809E+01 0. -1.
</event>
<event>
 5   0  0.8483636E-07  0.2903944E+04  0.7818609E-02  0.8271705E-01
        1   -1    0    0  501    0  0.00000000000E+00  0.00000000000E+00  0.19334528428E+04  0.19334528428E+04  0.50400001928E-02 0.  1.
       -1   -1    0    0    0  501  0.00000000000E+00  0.00000000000E+00 -0.10903927690E+04  0.10903927690E+04  0.50400001928E-02 0. -1.
    10030    2    1    2    0    0  0.00000000000E+00  0.00000000000E+00  0.84306007382E+03  0.30238456118E+04  0.29039442136E+04 0.  0.
        2    1    3    3  502    0 -0.13413133062E+04  0.25668372333E+03  0.93506095216E+03  0.16550972489E+04  0.25500000920E-02 0.  1.
       -2    1    3    3    0  502  0.13413133062E+04 -0.25668372333E+03 -0.92000878339E+02  0.13687483629E+04  0.25500000920E-02 0. -1.
</event>
<event>
 5   0  0.2360103E-06  0.2831599E+04  0.7818609E-02  0.8293525E-01
       -2   -1    0    0    0  501  0.00000000000E+00  0.00000000000E+00  0.98596094042E+03  0.98596094043E+03  0.25500000920E-02 0.  1.
        2   -1    0    0  501    0  0.00000000000E+00  0.00000000000E+00 -0.20330300088E+04  0.20330300088E+04  0.25500000920E-02 0. -1.
    10030    2    1    2    0    0  0.00000000000E+00  0.00000000000E+00 -0.10470690684E+04  0.30189909493E+04  0.28315989684E+04 0.  0.
        4    1    3    3  502    0 -0.33226230243E+03 -0.12854136968E+04 -0.10478083589E+04  0.16913280519E+04  0.12699999809E+01 0. -1.
       -4    1    3    3    0  502  0.33226230243E+03  0.12854136968E+04  0.73929048062E+00  0.13276628973E+04  0.12699999809E+01 0.  1.
</event>
<event>
 5   0  0.8263673E-07  0.2896886E+04  0.7818609E-02  0.8273805E-01
        1   -1    0    0  501    0  0.00000000000E+00  0.00000000000E+00  0.98448267715E+03  0.98448267716E+03  0.50400001928E-02 0.  1.
       -1   -1    0    0    0  501  0.00000000000E+00  0.00000000000E+00 -0.21310553735E+04  0.21310553735E+04  0.50400001928E-02 0. -1.
    10030    2    1    2    0    0  0.00000000000E+00  0.00000000000E+00 -0.11465726964E+04  0.31155380507E+04  0.28968859828E+04 0.  0.
        5    1    3    3  502    0  0.38813387564E+02 -0.36163110522E+03 -0.20811366585E+04  0.21126844101E+04  0.46999998093E+01 0. -1.
       -5    1    3    3    0  502 -0.38813387564E+02  0.36163110522E+03  0.93456396208E+03  0.10028536406E+04  0.46999998093E+01 0.  1.
</event>
<event>
 5   0  0.2325590E-06  0.2883915E+04  0.7818609E-02  0.8277679E-01
        2   -1    0    0  501    0  0.00000000000E+00  0.00000000000E+00  0.19303369092E+04  0.19303369092E+04  0.25500000920E-02 0.  1.
       -2   -1    0    0    0  501  0.00000000000E+00  0.00000000000E+00 -0.10771392744E+04  0.10771392744E+04  0.25500000920E-02 0. -1.
    10030    2    1    2    0    0  0.00000000000E+00  0.00000000000E+00  0.85319763487E+03  0.30074761836E+04  0.28839151844E+04 0.  0.
        5    1    3    3  502    0  0.55000320052E+03 -0.82955984492E+03 -0.66143705976E+03  0.11950707640E+04  0.46999998093E+01 0. -1.
       -5    1    3    3    0  502 -0.55000320052E+03  0.82955984492E+03  0.15146346946E+04  0.18124054196E+04  0.46999998093E+01 0.  1.
</event>
<event>
 5   0  0.8483636E-07  0.2902269E+04  0.7818609E-02  0.8272203E-01
        1   -1    0    0  501    0  0.00000000000E+00  0.00000000000E+00  0.76567831882E+03  0.76567831884E+03  0.50400001928E-02 0. -1.
       -1   -1    0    0    0  501  0.00000000000E+00  0.00000000000E+00 -0.27502300798E+04  0.27502300798E+04  0.50400001928E-02 0.  1.
    10030    2    1    2    0    0  0.00000000000E+00  0.00000000000E+00 -0.19845517610E+04  0.35159083987E+04  0.29022691425E+04 0.  0.
        2    1    3    3  502    0  0.51853552283E+03  0.10060592158E+04 -0.20924538749E+04  0.23789488126E+04  0.25500000920E-02 0.  1.
       -2    1    3    3    0  502 -0.51853552283E+03 -0.10060592158E+04  0.10790211392E+03  0.11369595861E+04  0.25500000920E-02 0. -1.
</event>
<event>
 5   0  0.2304435E-06  0.2903257E+04  0.7818609E-02  0.8271909E-01
        2   -1    0    0  501    0  0.00000000000E+00  0.00000000000E+00  0.12820505664E+04  0.12820505664E+04  0.25500000920E-02 0. -1.
       -2   -1    0    0    0  501  0.00000000000E+00  0.00000000000E+00 -0.16436368448E+04  0.16436368448E+04  0.25500000920E-02 0.  1.
    10030    2    1    2    0    0  0.00000000000E+00  0.00000000000E+00 -0.36158627833E+03  0.29256874112E+04  0.29032571693E+04 0.  0.
        1    1    3    3  502    0  0.80830552109E+02  0.11347660683E+04  0.72783700034E+03  0.13505459293E+04  0.50400001928E-02 0. -1.
       -1    1    3    3    0  502 -0.80830552109E+02 -0.11347660683E+04 -0.10894232787E+04  0.15751414819E+04  0.50400001928E-02 0.  1.
</event>
<event>
 5   0  0.8263673E-07  0.2884291E+04  0.7818609E-02  0.8277567E-01
       -1   -1    0    0    0  501  0.00000000000E+00  0.00000000000E+00  0.21121336498E+04  0.21121336498E+04  0.50400001928E-02 0.  1.
        1   -1    0    0  501    0  0.00000000000E+00  0.00000000000E+00 -0.98468373103E+03  0.98468373104E+03  0.50400001928E-02 0. -1.
    10030    2    1    2    0    0  0.00000000000E+00  0.00000000000E+00  0.11274499188E+04  0.30968173809E+04  0.28842909997E+04 0.  0.
        5    1    3    3  502    0 -0.83155852354E+03  0.97812197959E+03 -0.14160407777E+03  0.12916214577E+04  0.46999998093E+01 0. -1.
       -5    1    3    3    0  502  0.83155852354E+03 -0.97812197959E+03  0.12690539966E+04  0.18051959232E+04  0.46999998093E+01 0.  1.
</event>
<event>
 5   0  0.8483636E-07  0.2902893E+04  0.7818609E-02  0.8272017E-01
       -1   -1    0    0    0  501  0.00000000000E+00  0.00000000000E+00  0.97104677135E+03  0.97104677136E+03  0.50400001928E-02 0. -1.
        1   -1    0    0  501    0  0.00000000000E+00  0.00000000000E+00 -0.21695115476E+04  0.21695115476E+04  0.50400001928E-02 0.  1.
    10030    2    1    2    0    0  0.00000000000E+00  0.00000000000E+00 -0.11984647762E+04  0.31405583189E+04  0.29028931663E+04 0.  0.
        2    1    3    3  502    0  0.12485178934E+04  0.31377820040E+03  0.12606039955E+03  0.12935010295E+04  0.25500000920E-02 0. -1.
       -2    1    3    3    0  502 -0.12485178934E+04 -0.31377820040E+03 -0.13245251758E+04  0.18470572894E+04  0.25500000920E-02 0.  1.
</event>
<event>
 5   0  0.2425845E-06  0.2905933E+04  0.7818609E-02  0.8271114E-01
        2   -1    0    0  501    0  0.00000000000E+00  0.00000000000E+00  0.18776384604E+04  0.18776384604E+04  0.25500000920E-02 0. -1.
       -2   -1    0    0    0  501  0.00000000000E+00  0.00000000000E+00 -0.11243441231E+04  0.11243441231E+04  0.25500000920E-02 0.  1.
    10030    2    1    2    0    0  0.00000000000E+00  0.00000000000E+00  0.75329433736E+03  0.30019825835E+04  0.29059330813E+04 0.  0.
        2    1    3    3  502    0 -0.62414652691E+03 -0.21363099825E+03 -0.96071339208E+03  0.11654043557E+04  0.25500000920E-02 0.  1.
       -2    1    3    3    0  502  0.62414652691E+03  0.21363099825E+03  0.17140077294E+04  0.18365782279E+04  0.25500000920E-02 0. -1.
</event>
<event>
 5   0  0.2425845E-06  0.2902699E+04  0.7818609E-02  0.8272075E-01
        2   -1    0    0  501    0  0.00000000000E+00  0.00000000000E+00  0.15087759123E+04  0.15087759123E+04  0.25500000920E-02 0. -1.
       -2   -1    0    0    0  501  0.00000000000E+00  0.00000000000E+00 -0.13961083888E+04  0.13961083888E+04  0.25500000920E-02 0.  1.
    10030    2    1    2    0    0  0.00000000000E+00  0.00000000000E+00  0.11266752350E+03  0.29048843011E+04  0.29026985431E+04 0.  0.
        2    1    3    3  502    0 -0.40660530085E+03  0.51735726528E+03 -0.12382509050E+04  0.14022309775E+04  0.25500000920E-02 0.  1.
       -2    1    3    3    0  502  0.40660530085E+03 -0.51735726528E+03  0.13509184285E+04  0.15026533236E+04  0.25500000920E-02 0. -1.
</event>
<event>
 5   0  0.2360103E-06  0.2904440E+04  0.7818609E-02  0.8271558E-01
       -2   -1    0    0    0  501  0.00000000000E+00  0.00000000000E+00  0.88996205565E+03  0.88996205566E+03  0.25500000920E-02 0. -1.
        2   -1    0    0  501    0  0.00000000000E+00  0.00000000000E+00 -0.23697002964E+04  0.23697002964E+04  0.25500000920E-02 0.  1.
    10030    2    1    2    0    0  0.00000000000E+00  0.00000000000E+00 -0.14797382408E+04  0.32596623521E+04  0.29044402883E+04 0.  0.
        4    1    3    3  502    0  0.10383845380E+04  0.31053706233E+03 -0.18246585397E+04  0.21222761638E+04  0.12699999809E+01 0.  1.
       -4    1    3    3    0  502 -0.10383845380E+04 -0.31053706233E+03  0.34492029889E+03  0.11373861883E+04  0.12699999809E+01 0. -1.
</event>
<event>
 5   0  0.2425845E-06  0.2900355E+04  0.7818609E-02  0.8272772E-01
       -2   -1    0    0    0  501  0.00000000000E+00  0.00000000000E+00  0.85667205412E+03  0.85667205413E+03  0.25500000920E-02 0. -1.
        2   -1    0    0  501    0  0.00000000000E+00  0.00000000000E+00 -0.24548648383E+04  0.24548648383E+04  0.25500000920E-02 0.  1.
    10030    2    1    2    0    0  0.00000000000E+00  0.00000000000E+00 -0.15981927841E+04  0.33115368924E+04  0.29003545325E+04 0.  0.
        2    1    3    3  502    0  0.13568189220E+04  0.45278665188E+03 -0.10717876263E+04  0.17873729480E+04  0.25500000920E-02 0.  1.
       -2    1    3    3    0  502 -0.13568189220E+04 -0.45278665188E+03 -0.52640515788E+03  0.15241639444E+04  0.25500000920E-02 0. -1.
</event>
<event>
 5   0  0.2425845E-06  0.2901807E+04  0.7818609E-02  0.8272340E-01
       -2   -1    0    0    0  501  0.00000000000E+00  0.00000000000E+00  0.10482124341E+04  0.10482124341E+04  0.25500000920E-02 0.  1.
        2   -1    0    0  501    0  0.00000000000E+00  0.00000000000E+00 -0.20082955494E+04  0.20082955494E+04  0.25500000920E-02 0. -1.
    10030    2    1    2    0    0  0.00000000000E+00  0.00000000000E+00 -0.96008311523E+03  0.30565079835E+04  0.29018065864E+04 0.  0.
        2    1    3    3  502    0 -0.10649785502E+04  0.20821856969E+03  0.53441670548E+03  0.12096013807E+04  0.25500000920E-02 0. -1.
       -2    1    3    3    0  502  0.10649785502E+04 -0.20821856969E+03 -0.14944998207E+04  0.18469066027E+04  0.25500000920E-02 0.  1.
</event>
<event>
 5   0  0.2378690E-06  0.2969488E+04  0.7818609E-02  0.8252498E-01
        2   -1    0    0  501    0  0.00000000000E+00  0.00000000000E+00  0.11305043954E+04  0.11305043954E+04  0.25500000920E-02 0. -1.
       -2   -1    0    0    0  501  0.00000000000E+00  0.00000000000E+00 -0.19499836233E+04  0.19499836233E+04  0.25500000920E-02 0.  1.
    10030    2    1    2    0    0  0.00000000000E+00  0.00000000000E+00 -0.81947922791E+03  0.30804880188E+04  0.29694882099E+04 0.  0.
        3    1    3    3  502    0  0.12818889265E+04 -0.74880351266E+03 -0.43337564290E+03  0.15465317257E+04  0.10100000352E+00 0.  1.
       -3    1    3    3    0  502 -0.12818889265E+04  0.74880351266E+03 -0.38610358501E+03  0.15339562931E+04  0.10100000352E+00 0. -1.
</event>
<event>
 5   0  0.8355946E-07  0.2890823E+04  0.7818609E-02  0.8275613E-01
        1   -1    0    0  501    0  0.00000000000E+00  0.00000000000E+00  0.83481838626E+03  0.83481838628E+03  0.50400001928E-02 0. -1.
       -1   -1    0    0    0  501  0.00000000000E+00  0.00000000000E+00 -0.25025980818E+04  0.25025980818E+04  0.50400001928E-02 0.  1.
    10030    2    1    2    0    0  0.00000000000E+00  0.00000000000E+00 -0.16677796955E+04  0.33374164680E+04  0.28908233375E+04 0.  0.
        4    1    3    3  502    0 -0.44682821028E+03 -0.94814822818E+03  0.31514194274E+03  0.10945120233E+04  0.12699999809E+01 0. -1.
       -4    1    3    3    0  502  0.44682821028E+03  0.94814822818E+03 -0.19829216382E+04  0.22429044448E+04  0.12699999809E+01 0.  1.
</event>
<event>
 5   0  0.8357118E-07  0.2899670E+04  0.7818609E-02  0.8272976E-01
       -1   -1    0    0    0  501  0.00000000000E+00  0.00000000000E+00  0.10254184518E+04  0.10254184518E+04  0.50400001928E-02 0.  1.
        1   -1    0    0  501    0  0.00000000000E+00  0.00000000000E+00 -0.20499157660E+04  0.20499157660E+04  0.50400001928E-02 0. -1.
    10030    2    1    2    0    0  0.00000000000E+00  0.00000000000E+00 -0.10244973142E+04  0.30753342178E+04  0.28996699475E+04 0.  0.
        1    1    3    3  502    0 -0.40171695368E+03  0.41389038765E+03 -0.19229963948E+04  0.20076346526E+04  0.50400001928E-02 0. -1.
       -1    1    3    3    0  502  0.40171695368E+03 -0.41389038765E+03  0.89849908054E+03  0.10676995652E+04  0.50400001928E-02 0.  1.
</event>
<event>
 5   0  0.8947674E-07  0.2763520E+04  0.7818609E-02  0.8314684E-01
       -1   -1    0    0    0  501  0.00000000000E+00  0.00000000000E+00  0.11824766304E+04  0.11824766304E+04  0.50400001928E-02 0.  1.
        1   -1    0    0  501    0  0.00000000000E+00  0.00000000000E+00 -0.16146287014E+04  0.16146287014E+04  0.50400001928E-02 0. -1.
    10030    2    1    2    0    0  0.00000000000E+00  0.00000000000E+00 -0.43215207101E+03  0.27971053317E+04  0.27635200062E+04 0.  0.
        3    1    3    3  502    0  0.10819397497E+04 -0.10237080954E+03 -0.10797856534E+04  0.15319955848E+04  0.10100000352E+00 0. -1.
       -3    1    3    3    0  502 -0.10819397497E+04  0.10237080954E+03  0.64763358235E+03  0.12651097469E+04  0.10100000352E+00 0.  1.
</event>
<event>
 5   0  0.8483636E-07  0.2899109E+04  0.7818609E-02  0.8273143E-01
        1   -1    0    0  501    0  0.00000000000E+00  0.00000000000E+00  0.19115169527E+04  0.19115169527E+04  0.50400001928E-02 0. -1.
       -1   -1    0    0    0  501  0.00000000000E+00  0.00000000000E+00 -0.10992361597E+04  0.10992361597E+04  0.50400001928E-02 0.  1.
    10030    2    1    2    0    0  0.00000000000E+00  0.00000000000E+00  0.81228079298E+03  0.30107531124E+04  0.28991092110E+04 0.  0.
        2    1    3    3  502    0  0.11158200918E+04 -0.89747132367E+03  0.17230430125E+03  0.14422891619E+04  0.25500000920E-02 0.  1.
       -2    1    3    3    0  502 -0.11158200918E+04  0.89747132367E+03  0.63997649173E+03  0.15684639505E+04  0.25500000920E-02 0. -1.
</event>
<event>
 5   0  0.8947674E-07  0.2892482E+04  0.7818609E-02  0.8275118E-01
        1   -1    0    0  501    0  0.00000000000E+00  0.00000000000E+00  0.25425288805E+04  0.25425288805E+04  0.50400001928E-02 0. -1.
       -1   -1    0    0    0  501  0.00000000000E+00  0.00000000000E+00 -0.82265045306E+03  0.82265045308E+03  0.50400001928E-02 0.  1.
    10030    2    1    2    0    0  0.00000000000E+00  0.00000000000E+00  0.17198784274E+04  0.33651793335E+04  0.28924816580E+04 0.  0.
        3    1    3    3  502    0 -0.11550717233E+04 -0.33399280548E+02  0.18717200896E+04  0.21996914106E+04  0.10100000352E+00 0. -1.
       -3    1    3    3    0  502  0.11550717233E+04  0.33399280548E+02 -0.15184166225E+03  0.11654879229E+04  0.10100000352E+00 0.  1.
</event>
<event>
 5   0  0.2360103E-06  0.2905176E+04  0.7818609E-02  0.8271339E-01
        2   -1    0    0  501    0  0.00000000000E+00  0.00000000000E+00  0.17474584797E+04  0.17474584797E+04  0.25500000920E-02 0.  1.
       -2   -1    0    0    0  501  0.00000000000E+00  0.00000000000E+00 -0.12074746004E+04  0.12074746004E+04  0.25500000920E-02 0. -1.
    10030    2    1    2    0    0  0.00000000000E+00  0.00000000000E+00  0.53998387932E+03  0.29549330801E+04  0.29051758842E+04 0.  0.
        4    1    3    3  502    0 -0.79381483164E+03 -0.44491484635E+03 -0.88161824317E+03  0.12670215259E+04  0.12699999809E+01 0. -1.
       -4    1    3    3    0  502  0.79381483164E+03  0.44491484635E+03  0.14216021225E+04  0.16879115543E+04  0.12699999809E+01 0.  1.
</event>
<event>
 5   0  0.2360103E-06  0.2963288E+04  0.7818609E-02  0.8254293E-01
        2   -1    0    0  501    0  0.00000000000E+00  0.00000000000E+00  0.24933229674E+04  0.24933229674E+04  0.25500000920E-02 0.  1.
       -2   -1    0    0    0  501  0.00000000000E+00  0.00000000000E+00 -0.88045887796E+03  0.88045887797E+03  0.25500000920E-02 0. -1.
    10030    2    1    2    0    0  0.00000000000E+00  0.00000000000E+00  0.16128640894E+04  0.33737818454E+04  0.29632875947E+04 0.  0.
        4    1    3    3  502    0  0.49352627329E+03  0.97777917800E+03 -0.32961355420E+03  0.11437950041E+04  0.12699999809E+01 0. -1.
       -4    1    3    3    0  502 -0.49352627329E+03 -0.97777917800E+03  0.19424776436E+04  0.22299868413E+04  0.12699999809E+01 0.  1.
</event>
<event>
 5   0  0.2425845E-06  0.2893552E+04  0.7818609E-02  0.8274799E-01
        2   -1    0    0  501    0  0.00000000000E+00  0.00000000000E+00  0.16849624034E+04  0.16849624034E+04  0.25500000920E-02 0. -1.
       -2   -1    0    0    0  501  0.00000000000E+00  0.00000000000E+00 -0.12422592527E+04  0.12422592527E+04  0.25500000920E-02 0.  1.
    10030    2    1    2    0    0  0.00000000000E+00  0.00000000000E+00  0.44270315073E+03  0.29272216561E+04  0.28935515451E+04 0.  0.
        2    1    3    3  502    0 -0.48174060153E+02  0.34416788965E+03  0.16421110033E+04  0.16784817019E+04  0.25500000920E-02 0. -1.
       -2    1    3    3    0  502  0.48174060153E+02 -0.34416788965E+03 -0.11994078526E+04  0.12487399542E+04  0.25500000920E-02 0.  1.
</event>
<event>
 5   0  0.7621125E-07  0.2907863E+04  0.7818609E-02  0.8270542E-01
        3   -1    0    0  501    0  0.00000000000E+00  0.00000000000E+00  0.11648919338E+04  0.11648919382E+04  0.10100000352E+00 0.  1.
       -3   -1    0    0    0  501  0.00000000000E+00  0.00000000000E+00 -0.18146897560E+04  0.18146897589E+04  0.10100000352E+00 0. -1.
    10030    2    1    2    0    0  0.00000000000E+00  0.00000000000E+00 -0.64979782221E+03  0.29795816971E+04  0.29078634562E+04 0.  0.
        3    1    3    3  502    0 -0.11380354754E+04 -0.60667550127E+03  0.36302936287E+03  0.13397649926E+04  0.10100000352E+00 0.  1.
       -3    1    3    3    0  502  0.11380354754E+04  0.60667550127E+03 -0.10128271851E+04  0.16398167044E+04  0.10100000352E+00 0. -1.
</event>
<event>
 5   0  0.8355946E-07  0.2903534E+04  0.7818609E-02  0.8271827E-01
        1   -1    0    0  501    0  0.00000000000E+00  0.00000000000E+00  0.12877469990E+04  0.12877469990E+04  0.50400001928E-02 0.  1.
       -1   -1    0    0    0  501  0.00000000000E+00  0.00000000000E+00 -0.16366781841E+04  0.16366781841E+04  0.50400001928E-02 0. -1.
    10030    2    1    2    0    0  0.00000000000E+00  0.00000000000E+00 -0.34893118505E+03  0.29244251831E+04  0.29035339984E+04 0.  0.
        4    1    3    3  502    0 -0.40081226074E+03 -0.11051920276E+04  0.68344112004E+03  0.13598504564E+04  0.12699999809E+01 0.  1.
       -4    1    3    3    0  502  0.40081226074E+03  0.11051920276E+04 -0.10323723051E+04  0.15645747267E+04  0.12699999809E+01 0. -1.
</event>
<event>
 5   0  0.8947674E-07  0.2966339E+04  0.7818609E-02  0.8253409E-01
       -1   -1    0    0    0  501  0.00000000000E+00  0.00000000000E+00  0.13433352742E+04  0.13433352742E+04  0.50400001928E-02 0.  1.
        1   -1    0    0  501    0  0.00000000000E+00  0.00000000000E+00 -0.16375592678E+04  0.16375592678E+04  0.50400001928E-02 0. -1.
    10030    2    1    2    0    0  0.00000000000E+00  0.00000000000E+00 -0.29422399357E+03  0.29808945420E+04  0.29663385700E+04 0.  0.
        3    1    3    3  502    0 -0.77986130950E+03 -0.96101404322E+03  0.67424782286E+03  0.14093763834E+04  0.10100000352E+00 0.  1.
       -3    1    3    3    0  502  0.77986130950E+03  0.96101404322E+03 -0.96847181643E+03  0.15715181586E+04  0.10100000352E+00 0. -1.
</event>
<event>
 5   0  0.8355946E-07  0.2910657E+04  0.7818609E-02  0.8269714E-01
       -1   -1    0    0    0  501  0.00000000000E+00  0.00000000000E+00  0.90815293062E+03  0.90815293064E+03  0.50400001928E-02 0. -1.
        1   -1    0    0  501    0  0.00000000000E+00  0.00000000000E+00 -0.23321861485E+04  0.23321861485E+04  0.50400001928E-02 0.  1.
    10030    2    1    2    0    0  0.00000000000E+00  0.00000000000E+00 -0.14240332179E+04  0.32403390792E+04  0.29106574416E+04 0.  0.
        4    1    3    3  502    0 -0.74970776014E+03 -0.11902903086E+04 -0.29677048692E+03  0.14376811466E+04  0.12699999809E+01 0. -1.
       -4    1    3    3    0  502  0.74970776014E+03  0.11902903086E+04 -0.11272627310E+04  0.18026579326E+04  0.12699999809E+01 0.  1.
</event>
<event>
 5   0  0.8355946E-07  0.2907697E+04  0.7818609E-02  0.8270591E-01
        1   -1    0    0  501    0  0.00000000000E+00  0.00000000000E+00  0.13246624832E+04  0.13246624832E+04  0.50400001928E-02 0.  1.
       -1   -1    0    0    0  501  0.00000000000E+00  0.00000000000E+00 -0.15956327782E+04  0.15956327782E+04  0.50400001928E-02 0. -1.
    10030    2    1    2    0    0  0.00000000000E+00  0.00000000000E+00 -0.27097029503E+03  0.29202952614E+04  0.29076965992E+04 0.  0.
        4    1    3    3  502    0  0.91732702754E+03 -0.10210422453E+04  0.34581681821E+03  0.14154882645E+04  0.12699999809E+01 0.  1.
       -4    1    3    3    0  502 -0.91732702754E+03  0.10210422453E+04 -0.61678711324E+03  0.15048069970E+04  0.12699999809E+01 0. -1.
</event>
<event>
 5   0  0.2304435E-06  0.2896256E+04  0.7818609E-02  0.8273992E-01
       -2   -1    0    0    0  501  0.00000000000E+00  0.00000000000E+00  0.10622946327E+04  0.10622946327E+04  0.25500000920E-02 0. -1.
        2   -1    0    0  501    0  0.00000000000E+00  0.00000000000E+00 -0.19740989381E+04  0.19740989381E+04  0.25500000920E-02 0.  1.
    10030    2    1    2    0    0  0.00000000000E+00  0.00000000000E+00 -0.91180430541E+03  0.30363935708E+04  0.28962560014E+04 0.  0.
        1    1    3    3  502    0  0.23731256538E+03 -0.93251261022E+03  0.67867102137E+03  0.11774936846E+04  0.50400001928E-02 0. -1.
       -1    1    3    3    0  502 -0.23731256538E+03  0.93251261022E+03 -0.15904753268E+04  0.18588998862E+04  0.50400001928E-02 0.  1.
</event>
<event>
 5   0  0.2425845E-06  0.2908148E+04  0.7818609E-02  0.8270457E-01
       -2   -1    0    0    0  501  0.00000000000E+00  0.00000000000E+00  0.16715747107E+04  0.16715747107E+04  0.25500000920E-02 0.  1.
        2   -1    0    0  501    0  0.00000000000E+00  0.00000000000E+00 -0.12648737352E+04  0.12648737352E+04  0.25500000920E-02 0. -1.
    10030    2    1    2    0    0  0.00000000000E+00  0.00000000000E+00  0.40670097550E+03  0.29364484459E+04  0.29081478284E+04 0.  0.
        2    1    3    3  502    0  0.17143432514E+03 -0.23699242007E+03  0.16415625630E+04  0.16674179989E+04  0.25500000920E-02 0.  1.
       -2    1    3    3    0  502 -0.17143432514E+03  0.23699242007E+03 -0.12348615875E+04  0.12690304469E+04  0.25500000920E-02 0. -1.
</event>
<event>
 5   0  0.2378690E-06  0.2905153E+04  0.7818609E-02  0.8271346E-01
        2   -1    0    0  501    0  0.00000000000E+00  0.00000000000E+00  0.14578564793E+04  0.14578564793E+04  0.25500000920E-02 0. -1.
       -2   -1    0    0    0  501  0.00000000000E+00  0.00000000000E+00 -0.14473156094E+04  0.14473156094E+04  0.25500000920E-02 0.  1.
    10030    2    1    2    0    0  0.00000000000E+00  0.00000000000E+00  0.10540869825E+02  0.29051720887E+04  0.29051529659E+04 0.  0.
        3    1    3    3  502    0  0.13841976238E+04  0.43459514659E+03  0.76702169213E+02  0.14528452210E+04  0.10100000352E+00 0.  1.
       -3    1    3    3    0  502 -0.13841976238E+04 -0.43459514659E+03 -0.66161299389E+02  0.14523268678E+04  0.10100000352E+00 0. -1.
</event>
<event>
 5   0  0.2325590E-06  0.2900281E+04  0.7818609E-02  0.8272794E-01
        2   -1    0    0  501    0  0.00000000000E+00  0.00000000000E+00  0.17108331826E+04  0.17108331826E+04  0.25500000920E-02 0. -1.
       -2   -1    0    0    0  501  0.00000000000E+00  0.00000000000E+00 -0.12291716163E+04  0.12291716163E+04  0.25500000920E-02 0.  1.
    10030    2    1    2    0    0  0.00000000000E+00  0.00000000000E+00  0.48166156636E+03  0.29400047989E+04  0.29002810818E+04 0.  0.
        5    1    3    3  502    0  0.47522698973E+03 -0.10218322713E+04 -0.68430466777E+03  0.13184372760E+04  0.46999998093E+01 0.  1.
       -5    1    3    3    0  502 -0.47522698973E+03  0.10218322713E+04  0.11659662341E+04  0.16215675229E+04  0.46999998093E+01 0. -1.
</event>
<event>
 5   0  0.8263673E-07  0.2925359E+04  0.7818609E-02  0.8265372E-01
        1   -1    0    0  501    0  0.00000000000E+00  0.00000000000E+00  0.21095525266E+04  0.21095525266E+04  0.50400001928E-02 0.  1.
       -1   -1    0    0    0  501  0.00000000000E+00  0.00000000000E+00 -0.10141633004E+04  0.10141633004E+04  0.50400001928E-02 0. -1.
    10030    2    1    2    0    0  0.00000000000E+00  0.00000000000E+00  0.10953892261E+04  0.31237158270E+04  0.29253586124E+04 0.  0.
        5    1    3    3  502    0 -0.61914540288E+02 -0.61604807483E+03  0.19627130003E+04  0.20580605075E+04  0.46999998093E+01 0.  1.
       -5    1    3    3    0  502  0.61914540288E+02  0.61604807483E+03 -0.86732377419E+03  0.10656553195E+04  0.46999998093E+01 0. -1.
</event>
<event>
 5   0  0.8483636E-07  0.2897028E+04  0.7818609E-02  0.8273762E-01
        1   -1    0    0  501    0  0.00000000000E+00  0.00000000000E+00  0.18198161525E+04  0.18198161525E+04  0.50400001928E-02 0.  1.
       -1   -1    0    0    0  501  0.00000000000E+00  0.00000000000E+00 -0.11529697762E+04  0.11529697762E+04  0.50400001928E-02 0. -1.
    10030    2    1    2    0    0  0.00000000000E+00  0.00000000000E+00  0.66684637626E+03  0.29727859287E+04  0.28970281477E+04 0.  0.
        2    1    3    3  502    0  0.28864960592E+03 -0.20695084925E+03  0.17744412268E+04  0.18096377860E+04  0.25500000920E-02 0.  1.
       -2    1    3    3    0  502 -0.28864960592E+03  0.20695084925E+03 -0.11075948506E+04  0.11631481428E+04  0.25500000920E-02 0. -1.
</event>
<event>
 5   0  0.8263673E-07  0.2894039E+04  0.7818609E-02  0.8274653E-01
        1   -1    0    0  501    0  0.00000000000E+00  0.00000000000E+00  0.24232002476E+04  0.24232002476E+04  0.50400001928E-02 0.  1.
       -1   -1    0    0    0  501  0.00000000000E+00  0.00000000000E+00 -0.86409100592E+03  0.86409100594E+03  0.50400001928E-02 0. -1.
    10030    2    1    2    0    0  0.00000000000E+00  0.00000000000E+00  0.15591092416E+04  0.32872912535E+04  0.28940390733E+04 0.  0.
        5    1    3    3  502    0  0.27636334784E+03  0.14025836914E+04  0.52499063741E+03  0.15229100337E+04  0.46999998093E+01 0.  1.
       -5    1    3    3    0  502 -0.27636334784E+03 -0.14025836914E+04  0.10341186042E+04  0.17643812198E+04  0.46999998093E+01 0. -1.
</event>
<event>
 5   0  0.2425845E-06  0.2903193E+04  0.7818609E-02  0.8271928E-01
        2   -1    0    0  501    0  0.00000000000E+00  0.00000000000E+00  0.22387680098E+04  0.22387680098E+04  0.25500000920E-02 0.  1.
       -2   -1    0    0    0  501  0.00000000000E+00  0.00000000000E+00 -0.94120189644E+03  0.94120189644E+03  0.25500000920E-02 0. -1.
    10030    2    1    2    0    0  0.00000000000E+00  0.00000000000E+00  0.12975661134E+04  0.31799699063E+04  0.29031932051E+04 0.  0.
        2    1    3    3  502    0 -0.11844654265E+04 -0.83612897281E+03  0.57084711709E+03  0.15581836980E+04  0.25500000920E-02 0. -1.
       -2    1    3    3    0  502  0.11844654265E+04  0.83612897281E+03  0.72671899628E+03  0.16217862082E+04  0.25500000920E-02 0.  1.
</event>
<event>
 5   0  0.2304435E-06  0.2894402E+04  0.7818609E-02  0.8274545E-01
        2   -1    0    0  501    0  0.00000000000E+00  0.00000000000E+00  0.13245356219E+04  0.13245356219E+04  0.25500000920E-02 0. -1.
       -2   -1    0    0    0  501  0.00000000000E+00  0.00000000000E+00 -0.15812262860E+04  0.15812262860E+04  0.25500000920E-02 0.  1.
    10030    2    1    2    0    0  0.00000000000E+00  0.00000000000E+00 -0.25669066408E+03  0.29057619078E+04  0.28944018670E+04 0.  0.
        1    1    3    3  502    0 -0.66289920733E+03  0.92630725688E+03 -0.10245472069E+04  0.15320500881E+04  0.50400001928E-02 0.  1.
       -1    1    3    3    0  502  0.66289920733E+03 -0.92630725688E+03  0.76785654283E+03  0.13737118197E+04  0.50400001928E-02 0. -1.
</event>
<event>
 5   0  0.2304435E-06  0.2893278E+04  0.7818609E-02  0.8274880E-01
        2   -1    0    0  501    0  0.00000000000E+00  0.00000000000E+00  0.20744068946E+04  0.20744068946E+04  0.25500000920E-02 0. -1.
       -2   -1    0    0    0  501  0.00000000000E+00  0.00000000000E+00 -0.10088494360E+04  0.10088494360E+04  0.25500000920E-02 0.  1.
    10030    2    1    2    0    0  0.00000000000E+00  0.00000000000E+00  0.10655574586E+04  0.30832563305E+04  0.28932778819E+04 0.  0.
        1    1    3    3  502    0  0.18711082858E+03  0.20024665975E+03  0.20464896459E+04  0.20647588376E+04  0.50400001928E-02 0. -1.
       -1    1    3    3    0  502 -0.18711082858E+03 -0.20024665975E+03 -0.98093218729E+03  0.10184974929E+04  0.50400001928E-02 0.  1.
</event>
<event>
 5   0  0.2378690E-06  0.2884285E+04  0.7818609E-02  0.8277569E-01
       -2   -1    0    0    0  501  0.00000000000E+00  0.00000000000E+00  0.14193936612E+04  0.14193936612E+04  0.25500000920E-02 0.  1.
        2   -1    0    0  501    0  0.00000000000E+00  0.00000000000E+00 -0.14652555581E+04  0.14652555581E+04  0.25500000920E-02 0. -1.
    10030    2    1    2    0    0  0.00000000000E+00  0.00000000000E+00 -0.45861896840E+02  0.28846492193E+04  0.28842846262E+04 0.  0.
        3    1    3    3  502    0 -0.22861272431E+03  0.49315389986E+03  0.13130185344E+04  0.14210848773E+04  0.10100000352E+00 0.  1.
       -3    1    3    3    0  502  0.22861272431E+03 -0.49315389986E+03 -0.13588804312E+04  0.14635643420E+04  0.10100000352E+00 0. -1.
</event>
<event>
 5   0  0.8355946E-07  0.2932906E+04  0.7818609E-02  0.8263154E-01
        1   -1    0    0  501    0  0.00000000000E+00  0.00000000000E+00  0.24586253584E+04  0.24586253584E+04  0.50400001928E-02 0. -1.
       -1   -1    0    0    0  501  0.00000000000E+00  0.00000000000E+00 -0.87466911593E+03  0.87466911594E+03  0.50400001928E-02 0.  1.
    10030    2    1    2    0    0  0.00000000000E+00  0.00000000000E+00  0.15839562424E+04  0.33332944743E+04  0.29329055004E+04 0.  0.
        4    1    3    3  502    0  0.11213580410E+04 -0.43145676079E+03 -0.16356317688E+03  0.12125812626E+04  0.12699999809E+01 0.  1.
       -4    1    3    3    0  502 -0.11213580410E+04  0.43145676079E+03  0.17475194193E+04  0.21207132117E+04  0.12699999809E+01 0. -1.
</event>
<event>
 5   0  0.2378690E-06  0.2912919E+04  0.7818609E-02  0.8269044E-01
        2   -1    0    0  501    0  0.00000000000E+00  0.00000000000E+00  0.18322689244E+04  0.18322689244E+04  0.25500000920E-02 0. -1.
       -2   -1    0    0    0  501  0.00000000000E+00  0.00000000000E+00 -0.11577309263E+04  0.11577309263E+04  0.25500000920E-02 0.  1.
    10030    2    1    2    0    0  0.00000000000E+00  0.00000000000E+00  0.67453799808E+03  0.29899998507E+04  0.29129190851E+04 0.  0.
        3    1    3    3  502    0 -0.11228286851E+04  0.64022719772E+03  0.10263293517E+04  0.16504505655E+04  0.10100000352E+00 0. -1.
       -3    1    3    3    0  502  0.11228286851E+04 -0.64022719772E+03 -0.35179135358E+03  0.13395492852E+04  0.10100000352E+00 0.  1.
</event>
<event>
 5   0  0.8483636E-07  0.2909196E+04  0.7818609E-02  0.8270147E-01
        1   -1    0    0  501    0  0.00000000000E+00  0.00000000000E+00  0.12366543800E+04  0.12366543800E+04  0.50400001928E-02 0.  1.
       -1   -1    0    0    0  501  0.00000000000E+00  0.00000000000E+00 -0.17109518249E+04  0.17109518249E+04  0.50400001928E-02 0. -1.
    10030    2    1    2    0    0  0.00000000000E+00  0.00000000000E+00 -0.47429744488E+03  0.29476062049E+04  0.29091964995E+04 0.  0.
        2    1    3    3  502    0  0.95017335940E+03  0.86878798459E+03 -0.92301603381E+03  0.15841655765E+04  0.25500000920E-02 0.  1.
       -2    1    3    3    0  502 -0.95017335940E+03 -0.86878798459E+03  0.44871858893E+03  0.13634406284E+04  0.25500000920E-02 0. -1.
</event>
<event>
 5   0  0.8483636E-07  0.2929465E+04  0.7818609E-02  0.8264164E-01
        1   -1    0    0  501    0  0.00000000000E+00  0.00000000000E+00  0.17478909666E+04  0.17478909666E+04  0.50400001928E-02 0. -1.
       -1   -1    0    0    0  501  0.00000000000E+00  0.00000000000E+00 -0.12274459427E+04  0.12274459428E+04  0.50400001928E-02 0.  1.
    10030    2    1    2    0    0  0.00000000000E+00  0.00000000000E+00  0.52044502381E+03  0.29753369093E+04  0.29294652586E+04 0.  0.
        2    1    3    3  502    0 -0.36568982104E+03  0.79294981397E+03 -0.93417797831E+03  0.12787442856E+04  0.25500000920E-02 0.  1.
       -2    1    3    3    0  502  0.36568982104E+03 -0.79294981397E+03  0.14546230021E+04  0.16965926238E+04  0.25500000920E-02 0. -1.
</event>
<event>
 5   0  0.2378690E-06  0.2888713E+04  0.7818609E-02  0.8276244E-01
        2   -1    0    0  501    0  0.00000000000E+00  0.00000000000E+00  0.11372401384E+04  0.11372401384E+04  0.25500000920E-02 0. -1.
       -2   -1    0    0    0  501  0.00000000000E+00  0.00000000000E+00 -0.18344108426E+04  0.18344108426E+04  0.25500000920E-02 0.  1.
    10030    2    1    2    0    0  0.00000000000E+00  0.00000000000E+00 -0.69717070417E+03  0.29716509810E+04  0.28887129595E+04 0.  0.
        3    1    3    3  502    0  0.61561441454E+03  0.24819206211E+03  0.97104896268E+03  0.11762297842E+04  0.10100000352E+00 0. -1.
       -3    1    3    3    0  502 -0.61561441454E+03 -0.24819206211E+03 -0.16682196668E+04  0.17954211969E+04  0.10100000352E+00 0.  1.
</event>
<event>
 5   0  0.8483636E-07  0.2889930E+04  0.7818609E-02  0.8275880E-01
        1   -1    0    0  501    0  0.00000000000E+00  0.00000000000E+00  0.16808391087E+04  0.16808391088E+04  0.50400001928E-02 0. -1.
       -1   -1    0    0    0  501  0.00000000000E+00  0.00000000000E+00 -0.12421912253E+04  0.12421912254E+04  0.50400001928E-02 0.  1.
    10030    2    1    2    0    0  0.00000000000E+00  0.00000000000E+00  0.43864788341E+03  0.29230303341E+04  0.28899298207E+04 0.  0.
        2    1    3    3  502    0 -0.10255577771E+04 -0.12867580334E+03  0.12406405172E+04  0.16147802047E+04  0.25500000920E-02 0. -1.
       -2    1    3    3    0  502  0.10255577771E+04  0.12867580334E+03 -0.80199263382E+03  0.13082501294E+04  0.25500000920E-02 0.  1.
</event>
<event>
 5   0  0.8483636E-07  0.2866385E+04  0.7818609E-02  0.8282950E-01
       -1   -1    0    0    0  501  0.00000000000E+00  0.00000000000E+00  0.10828697283E+04  0.10828697283E+04  0.50400001928E-02 0. -1.
        1   -1    0    0  501    0  0.00000000000E+00  0.00000000000E+00 -0.18968494610E+04  0.18968494610E+04  0.50400001928E-02 0.  1.
    10030    2    1    2    0    0  0.00000000000E+00  0.00000000000E+00 -0.81397973273E+03  0.29797191893E+04  0.28663850826E+04 0.  0.
        2    1    3    3  502    0 -0.60671145908E+02  0.38908365229E+03 -0.18395085251E+04  0.18811854481E+04  0.25500000920E-02 0.  1.
       -2    1    3    3    0  502  0.60671145908E+02 -0.38908365229E+03  0.10255287923E+04  0.10985337411E+04  0.25500000920E-02 0. -1.
</event>
<event>
 5   0  0.7621125E-07  0.2937619E+04  0.7818609E-02  0.8261772E-01
        3   -1    0    0  501    0  0.00000000000E+00  0.00000000000E+00  0.18845990984E+04  0.18845991011E+04  0.10100000352E+00 0.  1.
       -3   -1    0    0    0  501  0.00000000000E+00  0.00000000000E+00 -0.11447536393E+04  0.11447536438E+04  0.10100000352E+00 0. -1.
    10030    2    1    2    0    0  0.00000000000E+00  0.00000000000E+00  0.73984545905E+03  0.30293527448E+04  0.29376192315E+04 0.  0.
        2    1    3    3  502    0  0.76892815668E+03 -0.19660733099E+03 -0.90459091452E+03  0.12034075267E+04  0.25500000920E-02 0. -1.
       -2    1    3    3    0  502 -0.76892815668E+03  0.19660733099E+03  0.16444363736E+04  0.18259452181E+04  0.25500000920E-02 0.  1.
</event>
<event>
 5   0  0.2425845E-06  0.2899980E+04  0.7818609E-02  0.8272883E-01
        2   -1    0    0  501    0  0.00000000000E+00  0.00000000000E+00  0.81826881099E+03  0.81826881099E+03  0.25500000920E-02 0.  1.
       -2   -1    0    0    0  501  0.00000000000E+00  0.00000000000E+00 -0.25694142656E+04  0.25694142656E+04  0.25500000920E-02 0. -1.
    10030    2    1    2    0    0  0.00000000000E+00  0.00000000000E+00 -0.17511454546E+04  0.33876830766E+04  0.28999803834E+04 0.  0.
        2    1    3    3  502    0 -0.82864413816E+03  0.89303262770E+03 -0.17941421074E+04  0.21686641703E+04  0.25500000920E-02 0. -1.
       -2    1    3    3    0  502  0.82864413816E+03 -0.89303262770E+03  0.42996652786E+02  0.12190189063E+04  0.25500000920E-02 0.  1.
</event>
<event>
 5   0  0.2425845E-06  0.2875818E+04  0.7818609E-02  0.8280109E-01
       -2   -1    0    0    0  501  0.00000000000E+00  0.00000000000E+00  0.14126178381E+04  0.14126178381E+04  0.25500000920E-02 0. -1.
        2   -1    0    0  501    0  0.00000000000E+00  0.00000000000E+00 -0.14636532930E+04  0.14636532930E+04  0.25500000920E-02 0.  1.
    10030    2    1    2    0    0  0.00000000000E+00  0.00000000000E+00 -0.51035454867E+02  0.28762711310E+04  0.28758183186E+04 0.  0.
        2    1    3    3  502    0 -0.46997525678E+03 -0.22771484639E+02 -0.13844764822E+04  0.14622484099E+04  0.25500000920E-02 0.  1.
       -2    1    3    3    0  502  0.46997525678E+03  0.22771484639E+02  0.13334410273E+04  0.14140227211E+04  0.25500000920E-02 0. -1.
</event>
<event>
 5   0  0.8947674E-07  0.2899502E+04  0.7818609E-02  0.8273026E-01
       -1   -1    0    0    0  501  0.00000000000E+00  0.00000000000E+00  0.13984652778E+04  0.13984652778E+04  0.50400001928E-02 0. -1.
        1   -1    0    0  501    0  0.00000000000E+00  0.00000000000E+00 -0.15029176218E+04  0.15029176218E+04  0.50400001928E-02 0.  1.
    10030    2    1    2    0    0  0.00000000000E+00  0.00000000000E+00 -0.10445234400E+03  0.29013828996E+04  0.28995021017E+04 0.  0.
        3    1    3    3  502    0 -0.60155072854E+03 -0.11221075829E+04  0.64161338789E+03  0.14257126135E+04  0.10100000352E+00 0. -1.
       -3    1    3    3    0  502  0.60155072854E+03  0.11221075829E+04 -0.74606573189E+03  0.14756702861E+04  0.10100000352E+00 0.  1.
</event>
<event>
 5   0  0.2360103E-06  0.2892649E+04  0.7818609E-02  0.8275068E-01
        2   -1    0    0  501    0  0.00000000000E+00  0.00000000000E+00  0.24087957323E+04  0.24087957323E+04  0.25500000920E-02 0.  1.
       -2   -1    0    0    0  501  0.00000000000E+00  0.00000000000E+00 -0.86842325585E+03  0.86842325586E+03  0.25500000920E-02 0. -1.
    10030    2    1    2    0    0  0.00000000000E+00  0.00000000000E+00  0.15403724764E+04  0.32772189881E+04  0.28926487740E+04 0.  0.
        4    1    3    3  502    0  0.69520971551E+03  0.36933391564E+03  0.21448061245E+04  0.22847142085E+04  0.12699999809E+01 0.  1.
       -4    1    3    3    0  502 -0.69520971551E+03 -0.36933391564E+03 -0.60443364809E+03  0.99250477965E+03  0.12699999809E+01 0. -1.
</event>
<event>
 5   0  0.8357118E-07  0.2904789E+04  0.7818609E-02  0.8271454E-01
        1   -1    0    0  501    0  0.00000000000E+00  0.00000000000E+00  0.19332906030E+04  0.19332906030E+04  0.50400001928E-02 0.  1.
       -1   -1    0    0    0  501  0.00000000000E+00  0.00000000000E+00 -0.10911189363E+04  0.10911189363E+04  0.50400001928E-02 0. -1.
    10030    2    1    2    0    0  0.00000000000E+00  0.00000000000E+00  0.84217166662E+03  0.30244095393E+04  0.29047891396E+04 0.  0.
        1    1    3    3  502    0 -0.71437243058E+03 -0.37471663499E+02  0.17371468841E+04  0.18786727741E+04  0.50400001928E-02 0.  1.
       -1    1    3    3    0  502  0.71437243058E+03  0.37471663499E+02 -0.89497521751E+03  0.11457367652E+04  0.50400001928E-02 0. -1.
</event>
<event>
 5   0  0.2425845E-06  0.2906050E+04  0.7818609E-02  0.8271080E-01
       -2   -1    0    0    0  501  0.00000000000E+00  0.00000000000E+00  0.14962357913E+04  0.14962357913E+04  0.25500000920E-02 0.  1.
        2   -1    0    0  501    0  0.00000000000E+00  0.00000000000E+00 -0.14110625478E+04  0.14110625478E+04  0.25500000920E-02 0. -1.
    10030    2    1    2    0    0  0.00000000000E+00  0.00000000000E+00  0.85173243523E+02  0.29072983391E+04  0.29060504385E+04 0.  0.
        2    1    3    3  502    0 -0.90835596890E+03 -0.37819624535E+03 -0.10270494350E+04  0.14223127322E+04  0.25500000920E-02 0. -1.
       -2    1    3    3    0  502  0.90835596890E+03  0.37819624535E+03  0.11122226785E+04  0.14849856069E+04  0.25500000920E-02 0.  1.
</event>
<event>
 5   0  0.8263673E-07  0.2889368E+04  0.7818609E-02  0.8276048E-01
       -1   -1    0    0    0  501  0.00000000000E+00  0.00000000000E+00  0.13492782249E+04  0.13492782249E+04  0.50400001928E-02 0. -1.
        1   -1    0    0  501    0  0.00000000000E+00  0.00000000000E+00 -0.15468359712E+04  0.15468359712E+04  0.50400001928E-02 0.  1.
    10030    2    1    2    0    0  0.00000000000E+00  0.00000000000E+00 -0.19755774627E+03  0.28961141961E+04  0.28893681617E+04 0.  0.
        5    1    3    3  502    0 -0.87553103581E+03  0.18866113866E+02 -0.12504521463E+04  0.15266182185E+04  0.46999998093E+01 0.  1.
       -5    1    3    3    0  502  0.87553103581E+03 -0.18866113866E+02  0.10528944001E+04  0.13694959776E+04  0.46999998093E+01 0. -1.
</event>
<event>
 5   0  0.2304435E-06  0.2928091E+04  0.7818609E-02  0.8264568E-01
        2   -1    0    0  501    0  0.00000000000E+00  0.00000000000E+00  0.17591292527E+04  0.17591292527E+04  0.25500000920E-02 0. -1.
       -2   -1    0    0    0  501  0.00000000000E+00  0.00000000000E+00 -0.12184605298E+04  0.12184605298E+04  0.25500000920E-02 0.  1.
    10030    2    1    2    0    0  0.00000000000E+00  0.00000000000E+00  0.54066872283E+03  0.29775897825E+04  0.29280912289E+04 0.  0.
        1    1    3    3  502    0  0.34001719485E+03  0.12480768822E+04 -0.42691083836E+03  0.13621895832E+04  0.50400001928E-02 0.  1.
       -1    1    3    3    0  502 -0.34001719485E+03 -0.12480768822E+04  0.96757956119E+03  0.16154001993E+04  0.50400001928E-02 0. -1.
</event>
<event>
 5   0  0.8483636E-07  0.2902033E+04  0.7818609E-02  0.8272273E-01
       -1   -1    0    0    0  501  0.00000000000E+00  0.00000000000E+00  0.15784290654E+04  0.15784290654E+04  0.50400001928E-02 0.  1.
        1   -1    0    0  501    0  0.00000000000E+00  0.00000000000E+00 -0.13338888755E+04  0.13338888755E+04  0.50400001928E-02 0. -1.
    10030    2    1    2    0    0  0.00000000000E+00  0.00000000000E+00  0.24454018991E+03  0.29123179409E+04  0.29020330605E+04 0.  0.
        2    1    3    3  502    0 -0.12856353468E+04 -0.66346978313E+03  0.23401359838E+03  0.14655417982E+04  0.25500000920E-02 0. -1.
       -2    1    3    3    0  502  0.12856353468E+04  0.66346978313E+03  0.10526591528E+02  0.14467761427E+04  0.25500000920E-02 0.  1.
</event>
<event>
 5   0  0.8357118E-07  0.2847688E+04  0.7818609E-02  0.8288614E-01
       -1   -1    0    0    0  501  0.00000000000E+00  0.00000000000E+00  0.10071891951E+04  0.10071891951E+04  0.50400001928E-02 0.  1.
        1   -1    0    0  501    0  0.00000000000E+00  0.00000000000E+00 -0.20128610053E+04  0.20128610053E+04  0.50400001928E-02 0. -1.
    10030    2    1    2    0    0  0.00000000000E+00  0.00000000000E+00 -0.10056718101E+04  0.30200502004E+04  0.28476880839E+04 0.  0.
        1    1    3    3  502    0 -0.75599039411E+03  0.35973403168E+03 -0.17242397882E+04  0.19167506089E+04  0.50400001928E-02 0. -1.
       -1    1    3    3    0  502  0.75599039411E+03 -0.35973403168E+03  0.71856797805E+03  0.11032995915E+04  0.50400001928E-02 0.  1.
</event>
<event>
 5   0  0.8355946E-07  0.2901043E+04  0.7818609E-02  0.8272567E-01
        1   -1    0    0  501    0  0.00000000000E+00  0.00000000000E+00  0.20326646452E+04  0.20326646453E+04  0.50400001928E-02 0. -1.
       -1   -1    0    0    0  501  0.00000000000E+00  0.00000000000E+00 -0.10351004655E+04  0.10351004655E+04  0.50400001928E-02 0.  1.
    10030    2    1    2    0    0  0.00000000000E+00  0.00000000000E+00  0.99756417973E+03  0.30677651108E+04  0.29010426543E+04 0.  0.
        4    1    3    3  502    0 -0.78770269867E+03  0.76651858845E+03  0.14997454257E+04  0.18593720023E+04  0.12699999809E+01 0. -1.
       -4    1    3    3    0  502  0.78770269867E+03 -0.76651858845E+03 -0.50218124601E+03  0.12083931085E+04  0.12699999809E+01 0.  1.
</event>
<event>
 5   0  0.8355946E-07  0.2893941E+04  0.7818609E-02  0.8274682E-01
       -1   -1    0    0    0  501  0.00000000000E+00  0.00000000000E+00  0.16839232596E+04  0.16839232596E+04  0.50400001928E-02 0. -1.
        1   -1    0    0  501    0  0.00000000000E+00  0.00000000000E+00 -0.12433607301E+04  0.12433607301E+04  0.50400001928E-02 0.  1.
    10030    2    1    2    0    0  0.00000000000E+00  0.00000000000E+00  0.44056252948E+03  0.29272839897E+04  0.28939412942E+04 0.  0.
        4    1    3    3  502    0  0.63018178820E+03 -0.73377270435E+03 -0.86830156175E+03  0.12998079408E+04  0.12699999809E+01 0.  1.
       -4    1    3    3    0  502 -0.63018178820E+03  0.73377270435E+03  0.13088640912E+04  0.16274760490E+04  0.12699999809E+01 0. -1.
</event>
<event>
 5   0  0.2425845E-06  0.2901561E+04  0.7818609E-02  0.8272413E-01
        2   -1    0    0  501    0  0.00000000000E+00  0.00000000000E+00  0.20049020357E+04  0.20049020357E+04  0.25500000920E-02 0. -1.
       -2   -1    0    0    0  501  0.00000000000E+00  0.00000000000E+00 -0.10498087152E+04  0.10498087152E+04  0.25500000920E-02 0.  1.
    10030    2    1    2    0    0  0.00000000000E+00  0.00000000000E+00  0.95509332041E+03  0.30547107509E+04  0.29015607043E+04 0.  0.
        2    1    3    3  502    0  0.12968353661E+04 -0.64097931758E+03  0.59348265927E+03  0.15636042079E+04  0.25500000920E-02 0.  1.
       -2    1    3    3    0  502 -0.12968353661E+04  0.64097931758E+03  0.36161066114E+03  0.14911065430E+04  0.25500000920E-02 0. -1.
</event>
<event>
 5   0  0.2425845E-06  0.2885671E+04  0.7818609E-02  0.8277154E-01
       -2   -1    0    0    0  501  0.00000000000E+00  0.00000000000E+00  0.14787487976E+04  0.14787487976E+04  0.25500000920E-02 0.  1.
        2   -1    0    0  501    0  0.00000000000E+00  0.00000000000E+00 -0.14077942732E+04  0.14077942732E+04  0.25500000920E-02 0. -1.
    10030    2    1    2    0    0  0.00000000000E+00  0.00000000000E+00  0.70954524373E+02  0.28865430708E+04  0.28856708674E+04 0.  0.
        2    1    3    3  502    0  0.11899307796E+04 -0.38737261496E+02 -0.77983857274E+03  0.14232301413E+04  0.25500000920E-02 0. -1.
       -2    1    3    3    0  502 -0.11899307796E+04  0.38737261496E+02  0.85079309711E+03  0.14633129295E+04  0.25500000920E-02 0.  1.
</event>
<event>
 5   0  0.2360103E-06  0.2701214E+04  0.7818609E-02  0.8334611E-01
       -2   -1    0    0    0  501  0.00000000000E+00  0.00000000000E+00  0.14882637887E+04  0.14882637887E+04  0.25500000920E-02 0.  1.
        2   -1    0    0  501    0  0.00000000000E+00  0.00000000000E+00 -0.12256829551E+04  0.12256829551E+04  0.25500000920E-02 0. -1.
    10030    2    1    2    0    0  0.00000000000E+00  0.00000000000E+00  0.26258083363E+03  0.27139467438E+04  0.27012142148E+04 0.  0.
        4    1    3    3  502    0  0.10677371718E+04  0.62883965690E+03  0.67107132041E+03  0.14091984644E+04  0.12699999809E+01 0.  1.
       -4    1    3    3    0  502 -0.10677371718E+04 -0.62883965690E+03 -0.40849048678E+03  0.13047482795E+04  0.12699999809E+01 0. -1.
</event>
<event>
 5   0  0.2325590E-06  0.2903734E+04  0.7818609E-02  0.8271767E-01
        2   -1    0    0  501    0  0.00000000000E+00  0.00000000000E+00  0.14466419576E+04  0.14466419576E+04  0.25500000920E-02 0. -1.
       -2   -1    0    0    0  501  0.00000000000E+00  0.00000000000E+00 -0.14571113409E+04  0.14571113409E+04  0.25500000920E-02 0.  1.
    10030    2    1    2    0    0  0.00000000000E+00  0.00000000000E+00 -0.10469383355E+02  0.29037532985E+04  0.29037344249E+04 0.  0.
        5    1    3    3  502    0  0.58075193511E+02 -0.65780810597E+03 -0.12982288189E+04  0.14565384954E+04  0.46999998093E+01 0.  1.
       -5    1    3    3    0  502 -0.58075193511E+02  0.65780810597E+03  0.12877594356E+04  0.14472148031E+04  0.46999998093E+01 0. -1.
</event>
<event>
 5   0  0.2425845E-06  0.2901599E+04  0.7818609E-02  0.8272402E-01
       -2   -1    0    0    0  501  0.00000000000E+00  0.00000000000E+00  0.96379362295E+03  0.96379362296E+03  0.25500000920E-02 0. -1.
        2   -1    0    0  501    0  0.00000000000E+00  0.00000000000E+00 -0.21838905043E+04  0.21838905043E+04  0.25500000920E-02 0.  1.
    10030    2    1    2    0    0  0.00000000000E+00  0.00000000000E+00 -0.12200968813E+04  0.31476841272E+04  0.29015993805E+04 0.  0.
        2    1    3    3  502    0  0.13582670648E+04 -0.20363939661E+03 -0.10300990347E+03  0.13773051454E+04  0.25500000920E-02 0. -1.
       -2    1    3    3    0  502 -0.13582670648E+04  0.20363939661E+03 -0.11170869778E+04  0.17703789818E+04  0.25500000920E-02 0.  1.
</event>
<event>
 5   0  0.2304435E-06  0.2902857E+04  0.7818609E-02  0.8272028E-01
        2   -1    0    0  501    0  0.00000000000E+00  0.00000000000E+00  0.16557170906E+04  0.16557170906E+04  0.25500000920E-02 0. -1.
       -2   -1    0    0    0  501  0.00000000000E+00  0.00000000000E+00 -0.12723458441E+04  0.12723458441E+04  0.25500000920E-02 0.  1.
    10030    2    1    2    0    0  0.00000000000E+00  0.00000000000E+00  0.38337124651E+03  0.29280629347E+04  0.29028570473E+04 0.  0.
        1    1    3    3  502    0 -0.43492243820E+03 -0.10635799493E+04 -0.70274102910E+03  0.13469241960E+04  0.50400001928E-02 0. -1.
       -1    1    3    3    0  502  0.43492243820E+03  0.10635799493E+04  0.10861122756E+04  0.15811387387E+04  0.50400001928E-02 0.  1.
</event>
<event>
 5   0  0.2360103E-06  0.2905920E+04  0.7818609E-02  0.8271118E-01
        2   -1    0    0  501    0  0.00000000000E+00  0.00000000000E+00  0.16025101469E+04  0.16025101469E+04  0.25500000920E-02 0. -1.
       -2   -1    0    0    0  501  0.00000000000E+00  0.00000000000E+00 -0.13173664885E+04  0.13173664885E+04  0.25500000920E-02 0.  1.
    10030    2    1    2    0    0  0.00000000000E+00  0.00000000000E+00  0.28514365840E+03  0.29198766353E+04  0.29059202776E+04 0.  0.
        4    1    3    3  502    0  0.10328072758E+04 -0.57438707392E+03  0.99190072135E+03  0.15428804340E+04  0.12699999809E+01 0. -1.
       -4    1    3    3    0  502 -0.10328072758E+04  0.57438707392E+03 -0.70675706295E+03  0.13769962013E+04  0.12699999809E+01 0.  1.
</event>
<event>
 5   0  0.2360103E-06  0.2916149E+04  0.7818609E-02  0.8268089E-01
       -2   -1    0    0    0  501  0.00000000000E+00  0.00000000000E+00  0.11619033632E+04  0.11619033632E+04  0.25500000920E-02 0. -1.
        2   -1    0    0  501    0  0.00000000000E+00  0.00000000000E+00 -0.18297396640E+04  0.18297396640E+04  0.25500000920E-02 0.  1.
    10030    2    1    2    0    0  0.00000000000E+00  0.00000000000E+00 -0.66783630081E+03  0.29916430272E+04  0.29161486034E+04 0.  0.
        4    1    3    3  502    0 -0.13214711399E+04  0.14943323493E+03  0.27935617757E+03  0.13589178607E+04  0.12699999809E+01 0.  1.
       -4    1    3    3    0  502  0.13214711399E+04 -0.14943323493E+03 -0.94719247837E+03  0.16327251665E+04  0.12699999809E+01 0. -1.
</event>
<event>
 5   0  0.2325590E-06  0.3008201E+04  0.7818609E-02  0.8241393E-01
       -2   -1    0    0    0  501  0.00000000000E+00  0.00000000000E+00  0.11134581515E+04  0.11134581515E+04  0.25500000920E-02 0. -1.
        2   -1    0    0  501    0  0.00000000000E+00  0.00000000000E+00 -0.20317952820E+04  0.20317952820E+04  0.25500000920E-02 0.  1.
    10030    2    1    2    0    0  0.00000000000E+00  0.00000000000E+00 -0.91833713050E+03  0.31452534336E+04  0.30082014687E+04 0.  0.
        5    1    3    3  502    0  0.46797507809E+03 -0.12772255732E+04  0.21193977840E+03  0.13766794828E+04  0.46999998093E+01 0.  1.
       -5    1    3    3    0  502 -0.46797507809E+03  0.12772255732E+04 -0.11302769089E+04  0.17685739508E+04  0.46999998093E+01 0. -1.
</event>
<event>
 5   0  0.8355946E-07  0.2899102E+04  0.7818609E-02  0.8273145E-01
       -1   -1    0    0    0  501  0.00000000000E+00  0.00000000000E+00  0.26261618378E+04  0.26261618378E+04  0.50400001928E-02 0.  1.
        1   -1    0    0  501    0  0.00000000000E+00  0.00000000000E+00 -0.80010248888E+03  0.80010248889E+03  0.50400001928E-02 0. -1.
    10030    2    1    2    0    0  0.00000000000E+00  0.00000000000E+00  0.18260593489E+04  0.34262643267E+04  0.28991023595E+04 0.  0.
        4    1    3    3  502    0  0.13326888301E+04  0.35695034990E+03  0.14385468839E+04  0.19932114339E+04  0.12699999809E+01 0. -1.
       -4    1    3    3    0  502 -0.13326888301E+04 -0.35695034990E+03  0.38751246504E+03  0.14330528928E+04  0.12699999809E+01 0.  1.
</event>
<event>
 5   0  0.2325590E-06  0.2910391E+04  0.7818609E-02  0.8269793E-01
        2   -1    0    0  501    0  0.00000000000E+00  0.00000000000E+00  0.17820390089E+04  0.17820390089E+04  0.25500000920E-02 0.  1.
       -2   -1    0    0    0  501  0.00000000000E+00  0.00000000000E+00 -0.11882982960E+04  0.11882982960E+04  0.25500000920E-02 0. -1.
    10030    2    1    2    0    0  0.00000000000E+00  0.00000000000E+00  0.59374071290E+03  0.29703373049E+04  0.29103909825E+04 0.  0.
        5    1    3    3  502    0  0.52476096280E+03  0.11047325721E+04 -0.50789100472E+03  0.13243049069E+04  0.46999998093E+01 0. -1.
       -5    1    3    3    0  502 -0.52476096280E+03 -0.11047325721E+04  0.11016317176E+04  0.16460323980E+04  0.46999998093E+01 0.  1.
</event>
<event>
 5   0  0.2378690E-06  0.2899258E+04  0.7818609E-02  0.8273098E-01
       -2   -1    0    0    0  501  0.00000000000E+00  0.00000000000E+00  0.68485033064E+03  0.68485033064E+03  0.25500000920E-02 0. -1.
        2   -1    0    0  501    0  0.00000000000E+00  0.00000000000E+00 -0.30684428276E+04  0.30684428276E+04  0.25500000920E-02 0.  1.
    10030    2    1    2    0    0  0.00000000000E+00  0.00000000000E+00 -0.23835924970E+04  0.37532931583E+04  0.28992578947E+04 0.  0.
        3    1    3    3  502    0  0.63782109987E+03  0.85138150562E+03  0.83048475423E+02  0.10670348087E+04  0.10100000352E+00 0. -1.
       -3    1    3    3    0  502 -0.63782109987E+03 -0.85138150562E+03 -0.24666409724E+04  0.26862583496E+04  0.10100000352E+00 0.  1.
</event>
<event>
 5   0  0.8483636E-07  0.2905099E+04  0.7818609E-02  0.8271362E-01
        1   -1    0    0  501    0  0.00000000000E+00  0.00000000000E+00  0.19377526834E+04  0.19377526834E+04  0.50400001928E-02 0. -1.
       -1   -1    0    0    0  501  0.00000000000E+00  0.00000000000E+00 -0.10888389739E+04  0.10888389739E+04  0.50400001928E-02 0.  1.
    10030    2    1    2    0    0  0.00000000000E+00  0.00000000000E+00  0.84891370945E+03  0.30265916573E+04  0.29050994086E+04 0.  0.
        2    1    3    3  502    0 -0.33696792990E+03  0.11557507150E+04 -0.42230248311E+03  0.12757924942E+04  0.25500000920E-02 0.  1.
       -2    1    3    3    0  502  0.33696792990E+03 -0.11557507150E+04  0.12712161926E+04  0.17507991630E+04  0.25500000920E-02 0. -1.
</event>
<event>
 5   0  0.8357118E-07  0.2904772E+04  0.7818609E-02  0.8271459E-01
       -1   -1    0    0    0  501  0.00000000000E+00  0.00000000000E+00  0.89415492412E+03  0.89415492413E+03  0.50400001928E-02 0.  1.
        1   -1    0    0  501    0  0.00000000000E+00  0.00000000000E+00 -0.23591263840E+04  0.23591263841E+04  0.50400001928E-02 0. -1.
    10030    2    1    2    0    0  0.00000000000E+00  0.00000000000E+00 -0.14649714599E+04  0.32532813082E+04  0.29047715731E+04 0.  0.
        1    1    3    3  502    0 -0.12122554683E+04  0.14833392275E+03 -0.16128330359E+04  0.20230661568E+04  0.50400001928E-02 0. -1.
       -1    1    3    3    0  502  0.12122554683E+04 -0.14833392275E+03  0.14786157598E+03  0.12302151514E+04  0.50400001928E-02 0.  1.
</event>
<event>
 5   0  0.8263673E-07  0.2916577E+04  0.7818609E-02  0.8267962E-01
       -1   -1    0    0    0  501  0.00000000000E+00  0.00000000000E+00  0.10155905574E+04  0.10155905574E+04  0.50400001928E-02 0. -1.
        1   -1    0    0  501    0  0.00000000000E+00  0.00000000000E+00 -0.20939590227E+04  0.20939590227E+04  0.50400001928E-02 0.  1.
    10030    2    1    2    0    0  0.00000000000E+00  0.00000000000E+00 -0.10783684653E+04  0.31095495801E+04  0.29165767681E+04 0.  0.
        5    1    3    3  502    0  0.53375233611E+03 -0.55263793756E+03 -0.18606613281E+04  0.20130531325E+04  0.46999998093E+01 0.  1.
       -5    1    3    3    0  502 -0.53375233611E+03  0.55263793756E+03  0.78229286284E+03  0.10964964476E+04  0.46999998093E+01 0. -1.
</event>
<event>
 5   0  0.8263673E-07  0.2894732E+04  0.7818609E-02  0.8274447E-01
       -1   -1    0    0    0  501  0.00000000000E+00  0.00000000000E+00  0.16708569267E+04  0.16708569267E+04  0.50400001928E-02 0. -1.
        1   -1    0    0  501    0  0.00000000000E+00  0.00000000000E+00 -0.12537687856E+04  0.12537687856E+04  0.50400001928E-02 0.  1.
    10030    2    1    2    0    0  0.00000000000E+00  0.00000000000E+00  0.41708814116E+03  0.29246257123E+04  0.28947319461E+04 0.  0.
        5    1    3    3  502    0  0.23924030327E+03 -0.23983190779E+03 -0.12131446052E+04  0.12595623009E+04  0.46999998093E+01 0.  1.
       -5    1    3    3    0  502 -0.23924030327E+03  0.23983190779E+03  0.16302327464E+04  0.16650634114E+04  0.46999998093E+01 0. -1.
</event>
<event>
 5   0  0.2304435E-06  0.2894264E+04  0.7818609E-02  0.8274586E-01
       -2   -1    0    0    0  501  0.00000000000E+00  0.00000000000E+00  0.21378129836E+04  0.21378129836E+04  0.25500000920E-02 0.  1.
        2   -1    0    0  501    0  0.00000000000E+00  0.00000000000E+00 -0.97959510915E+03  0.97959510915E+03  0.25500000920E-02 0. -1.
    10030    2    1    2    0    0  0.00000000000E+00  0.00000000000E+00  0.11582178745E+04  0.31174080928E+04  0.28942640813E+04 0.  0.
        1    1    3    3  502    0 -0.53330960994E+03  0.10763249471E+04 -0.29014149005E+03  0.12357494147E+04  0.50400001928E-02 0. -1.
       -1    1    3    3    0  502  0.53330960994E+03 -0.10763249471E+04  0.14483593645E+04  0.18816586780E+04  0.50400001928E-02 0.  1.
</event>
<event>
 5   0  0.2304435E-06  0.2911904E+04  0.7818609E-02  0.8269345E-01
        2   -1    0    0  501    0  0.00000000000E+00  0.00000000000E+00  0.13407185128E+04  0.13407185128E+04  0.25500000920E-02 0. -1.
       -2   -1    0    0    0  501  0.00000000000E+00  0.00000000000E+00 -0.15810892973E+04  0.15810892973E+04  0.25500000920E-02 0.  1.
    10030    2    1    2    0    0  0.00000000000E+00  0.00000000000E+00 -0.24037078449E+03  0.29218078101E+04  0.29119036325E+04 0.  0.
        1    1    3    3  502    0 -0.14236769461E+04 -0.28603344647E+03 -0.14353849069E+02  0.14521973738E+04  0.50400001928E-02 0. -1.
       -1    1    3    3    0  502  0.14236769461E+04  0.28603344647E+03 -0.22601693542E+03  0.14696104363E+04  0.50400001928E-02 0.  1.
</event>
<event>
 5   0  0.8357118E-07  0.2903052E+04  0.7818609E-02  0.8271970E-01
        1   -1    0    0  501    0  0.00000000000E+00  0.00000000000E+00  0.22259954967E+04  0.22259954967E+04  0.50400001928E-02 0.  1.
       -1   -1    0    0    0  501  0.00000000000E+00  0.00000000000E+00 -0.94651009846E+03  0.94651009848E+03  0.50400001928E-02 0. -1.
    10030    2    1    2    0    0  0.00000000000E+00  0.00000000000E+00  0.12794853983E+04  0.31725055952E+04  0.29030516474E+04 0.  0.
        1    1    3    3  502    0  0.34819499142E+03  0.14495868952E+03 -0.89202508859E+03  0.96848414154E+03  0.50400001928E-02 0. -1.
       -1    1    3    3    0  502 -0.34819499142E+03 -0.14495868952E+03  0.21715104868E+04  0.22040214537E+04  0.50400001928E-02 0.  1.
</event>
<event>
 5   0  0.2425845E-06  0.2905950E+04  0.7818609E-02  0.8271109E-01
        2   -1    0    0  501    0  0.00000000000E+00  0.00000000000E+00  0.17282462297E+04  0.17282462297E+04  0.25500000920E-02 0. -1.
       -2   -1    0    0    0  501  0.00000000000E+00  0.00000000000E+00 -0.12215481746E+04  0.12215481746E+04  0.25500000920E-02 0.  1.
    10030    2    1    2    0    0  0.00000000000E+00  0.00000000000E+00  0.50669805515E+03  0.29497944043E+04  0.29059497774E+04 0.  0.
        2    1    3    3  502    0 -0.98522006980E+02  0.13128808595E+04  0.87725517875E+03  0.15820680724E+04  0.25500000920E-02 0. -1.
       -2    1    3    3    0  502  0.98522006980E+02 -0.13128808595E+04 -0.37055712360E+03  0.13677263319E+04  0.25500000920E-02 0.  1.
</event>
<event>
 5   0  0.2325590E-06  0.2875215E+04  0.7818609E-02  0.8280290E-01
        2   -1    0    0  501    0  0.00000000000E+00  0.00000000000E+00  0.19105094569E+04  0.19105094569E+04  0.25500000920E-02 0. -1.
       -2   -1    0    0    0  501  0.00000000000E+00  0.00000000000E+00 -0.10817610375E+04  0.10817610375E+04  0.25500000920E-02 0.  1.
    10030    2    1    2    0    0  0.00000000000E+00  0.00000000000E+00  0.82874841943E+03  0.29922704944E+04  0.28752145605E+04 0.  0.
        5    1    3    3  502    0 -0.97750986033E+03 -0.10180093261E+04  0.12969791496E+03  0.14172904269E+04  0.46999998093E+01 0.  1.
       -5    1    3    3    0  502  0.97750986033E+03  0.10180093261E+04  0.69905050446E+03  0.15749800675E+04  0.46999998093E+01 0. -1.
</event>
<event>
 5   0  0.2325590E-06  0.2872829E+04  0.7818609E-02  0.8281008E-01
        2   -1    0    0  501    0  0.00000000000E+00  0.00000000000E+00  0.15447145902E+04  0.15447145902E+04  0.25500000920E-02 0. -1.
       -2   -1    0    0    0  501  0.00000000000E+00  0.00000000000E+00 -0.13357070311E+04  0.13357070311E+04  0.25500000920E-02 0.  1.
    10030    2    1    2    0    0  0.00000000000E+00  0.00000000000E+00  0.20900755917E+03  0.28804216213E+04  0.28728286682E+04 0.  0.
        5    1    3    3  502    0 -0.11514323273E+04 -0.70717499670E+03  0.59299900170E+03  0.14756567305E+04  0.46999998093E+01 0. -1.
       -5    1    3    3    0  502  0.11514323273E+04  0.70717499670E+03 -0.38399144252E+03  0.14047648908E+04  0.46999998093E+01 0.  1.
</event>
<event>
 5   0  0.8357118E-07  0.2902148E+04  0.7818609E-02  0.8272239E-01
        1   -1    0    0  501    0  0.00000000000E+00  0.00000000000E+00  0.21832558460E+04  0.21832558460E+04  0.50400001928E-02 0.  1.
       -1   -1    0    0    0  501  0.00000000000E+00  0.00000000000E+00 -0.96443870084E+03  0.96443870085E+03  0.50400001928E-02 0. -1.
    10030    2    1    2    0    0  0.00000000000E+00  0.00000000000E+00  0.12188171451E+04  0.31476945468E+04  0.29021484674E+04 0.  0.
        1    1    3    3  502    0 -0.10907425408E+03 -0.14174684990E+04  0.29412074625E+03  0.14517648405E+04  0.50400001928E-02 0. -1.
       -1    1    3    3    0  502  0.10907425408E+03  0.14174684990E+04  0.92469639889E+03  0.16959297063E+04  0.50400001928E-02 0.  1.
</event>
<event>
 5   0  0.8355946E-07  0.2959339E+04  0.7818609E-02  0.8255438E-01
        1   -1    0    0  501    0  0.00000000000E+00  0.00000000000E+00  0.16658664845E+04  0.16658664846E+04  0.50400001928E-02 0. -1.
       -1   -1    0    0    0  501  0.00000000000E+00  0.00000000000E+00 -0.13142839677E+04  0.13142839678E+04  0.50400001928E-02 0.  1.
    10030    2    1    2    0    0  0.00000000000E+00  0.00000000000E+00  0.35158251681E+03  0.29801504523E+04  0.29593388539E+04 0.  0.
        4    1    3    3  502    0  0.95014658591E+03 -0.41784454109E+03 -0.88616137021E+03  0.13647916259E+04  0.12699999809E+01 0.  1.
       -4    1    3    3    0  502 -0.95014658591E+03  0.41784454109E+03  0.12377438870E+04  0.16153588264E+04  0.12699999809E+01 0. -1.
</event>
<event>
 5   0  0.2378690E-06  0.2883646E+04  0.7818609E-02  0.8277760E-01
       -2   -1    0    0    0  501  0.00000000000E+00  0.00000000000E+00  0.84787507191E+03  0.84787507191E+03  0.25500000920E-02 0.  1.
        2   -1    0    0  501    0  0.00000000000E+00  0.00000000000E+00 -0.24518390186E+04  0.24518390186E+04  0.25500000920E-02 0. -1.
    10030    2    1    2    0    0  0.00000000000E+00  0.00000000000E+00 -0.16039639467E+04  0.32997140906E+04  0.28836457371E+04 0.  0.
        3    1    3    3  502    0  0.12723080989E+04 -0.53021368295E+03 -0.12860549577E+04  0.18851609513E+04  0.10100000352E+00 0.  1.
       -3    1    3    3    0  502 -0.12723080989E+04  0.53021368295E+03 -0.31790898906E+03  0.14145531392E+04  0.10100000352E+00 0. -1.
</event>
<event>
 5   0  0.2304435E-06  0.2885775E+04  0.7818609E-02  0.8277122E-01
       -2   -1    0    0    0  501  0.00000000000E+00  0.00000000000E+00  0.17522894188E+04  0.17522894188E+04  0.25500000920E-02 0. -1.
        2   -1    0    0  501    0  0.00000000000E+00  0.00000000000E+00 -0.11881168941E+04  0.11881168941E+04  0.25500000920E-02 0.  1.
    10030    2    1    2    0    0  0.00000000000E+00  0.00000000000E+00  0.56417252477E+03  0.29404063129E+04  0.28857752247E+04 0.  0.
        1    1    3    3  502    0 -0.68909709345E+03 -0.12207157029E+04 -0.66327159554E+02  0.14033534564E+04  0.50400001928E-02 0. -1.
       -1    1    3    3    0  502  0.68909709345E+03  0.12207157029E+04  0.63049968432E+03  0.15370528565E+04  0.50400001928E-02 0.  1.
</event>
<event>
 5   0  0.2325590E-06  0.2903305E+04  0.7818609E-02  0.8271895E-01
       -2   -1    0    0    0  501  0.00000000000E+00  0.00000000000E+00  0.15408290757E+04  0.15408290757E+04  0.25500000920E-02 0. -1.
        2   -1    0    0  501    0  0.00000000000E+00  0.00000000000E+00 -0.13676370196E+04  0.13676370196E+04  0.25500000920E-02 0.  1.
    10030    2    1    2    0    0  0.00000000000E+00  0.00000000000E+00  0.17319205608E+03  0.29084660953E+04  0.29033049339E+04 0.  0.
        5    1    3    3  502    0  0.47172985616E+03 -0.13275799022E+04 -0.26370450208E+03  0.14333735062E+04  0.46999998093E+01 0. -1.
       -5    1    3    3    0  502 -0.47172985616E+03  0.13275799022E+04  0.43689655815E+03  0.14750925891E+04  0.46999998093E+01 0.  1.
</event>
<event>
 5   0  0.8483636E-07  0.2897677E+04  0.7818609E-02  0.8273569E-01
        1   -1    0    0  501    0  0.00000000000E+00  0.00000000000E+00  0.21260588083E+04  0.21260588083E+04  0.50400001928E-02 0.  1.
       -1   -1    0    0    0  501  0.00000000000E+00  0.00000000000E+00 -0.98733534415E+03  0.98733534416E+03  0.50400001928E-02 0. -1.
    10030    2    1    2    0    0  0.00000000000E+00  0.00000000000E+00  0.11387234642E+04  0.31133941525E+04  0.28976770042E+04 0.  0.
        2    1    3    3  502    0  0.14206928546E+04 -0.44197056971E+01  0.87467291739E+03  0.16683645984E+04  0.25500000920E-02 0.  1.
       -2    1    3    3    0  502 -0.14206928546E+04  0.44197056971E+01  0.26405054678E+03  0.14450295541E+04  0.25500000920E-02 0. -1.
</event>
<event>
 5   0  0.2378690E-06  0.2771525E+04  0.7818609E-02  0.8312164E-01
       -2   -1    0    0    0  501  0.00000000000E+00  0.00000000000E+00  0.16275041707E+04  0.16275041707E+04  0.25500000920E-02 0. -1.
        2   -1    0    0  501    0  0.00000000000E+00  0.00000000000E+00 -0.11799276695E+04  0.11799276695E+04  0.25500000920E-02 0.  1.
    10030    2    1    2    0    0  0.00000000000E+00  0.00000000000E+00  0.44757650124E+03  0.28074318402E+04  0.27715246369E+04 0.  0.
        3    1    3    3  502    0 -0.99950450442E+03 -0.19554596115E+03 -0.72811517814E+03  0.12519581463E+04  0.10100000352E+00 0. -1.
       -3    1    3    3    0  502  0.99950450442E+03  0.19554596115E+03  0.11756916794E+04  0.15554736939E+04  0.10100000352E+00 0.  1.
</event>
<event>
 5   0  0.2360103E-06  0.2892016E+04  0.7818609E-02  0.8275257E-01
       -2   -1    0    0    0  501  0.00000000000E+00  0.00000000000E+00  0.15725605813E+04  0.15725605813E+04  0.25500000920E-02 0.  1.
        2   -1    0    0  501    0  0.00000000000E+00  0.00000000000E+00 -0.13296397996E+04  0.13296397996E+04  0.25500000920E-02 0. -1.
    10030    2    1    2    0    0  0.00000000000E+00  0.00000000000E+00  0.24292078167E+03  0.29022003808E+04  0.28920160000E+04 0.  0.
        4    1    3    3  502    0  0.37184153467E+03 -0.13971695968E+04  0.97115653597E+02  0.14490624805E+04  0.12699999809E+01 0. -1.
       -4    1    3    3    0  502 -0.37184153467E+03  0.13971695968E+04  0.14580512807E+03  0.14531379004E+04  0.12699999809E+01 0.  1.
</event>
<event>
 5   0  0.7621125E-07  0.2901104E+04  0.7818609E-02  0.8272549E-01
       -3   -1    0    0    0  501  0.00000000000E+00  0.00000000000E+00  0.13357311596E+04  0.13357311635E+04  0.10100000352E+00 0. -1.
        3   -1    0    0  501    0  0.00000000000E+00  0.00000000000E+00 -0.15752431673E+04  0.15752431705E+04  0.10100000352E+00 0.  1.
    10030    2    1    2    0    0  0.00000000000E+00  0.00000000000E+00 -0.23951200767E+03  0.29109743340E+04  0.29011041987E+04 0.  0.
        3    1    3    3  502    0 -0.94998035789E+03 -0.18390788106E+03  0.96457623360E+03  0.13662694133E+04  0.10100000352E+00 0. -1.
       -3    1    3    3    0  502  0.94998035789E+03  0.18390788106E+03 -0.12040882413E+04  0.15447049207E+04  0.10100000352E+00 0.  1.
</event>
<event>
 5   0  0.2378690E-06  0.2906253E+04  0.7818609E-02  0.8271020E-01
       -2   -1    0    0    0  501  0.00000000000E+00  0.00000000000E+00  0.82754667849E+03  0.82754667850E+03  0.25500000920E-02 0.  1.
        2   -1    0    0  501    0  0.00000000000E+00  0.00000000000E+00 -0.25516098867E+04  0.25516098867E+04  0.25500000920E-02 0. -1.
    10030    2    1    2    0    0  0.00000000000E+00  0.00000000000E+00 -0.17240632082E+04  0.33791565651E+04  0.29062527671E+04 0.  0.
        3    1    3    3  502    0 -0.67087955156E+03  0.12087316800E+04 -0.13826191908E+04  0.19551847697E+04  0.10100000352E+00 0. -1.
       -3    1    3    3    0  502  0.67087955156E+03 -0.12087316800E+04 -0.34144401738E+03  0.14239717954E+04  0.10100000352E+00 0.  1.
</event>
<event>
 5   0  0.2360103E-06  0.2918174E+04  0.7818609E-02  0.8267491E-01
       -2   -1    0    0    0  501  0.00000000000E+00  0.00000000000E+00  0.12589131790E+04  0.12589131790E+04  0.25500000920E-02 0. -1.
        2   -1    0    0  501    0  0.00000000000E+00  0.00000000000E+00 -0.16910900486E+04  0.16910900486E+04  0.25500000920E-02 0.  1.
    10030    2    1    2    0    0  0.00000000000E+00  0.00000000000E+00 -0.43217686968E+03  0.29500032276E+04  0.29181744630E+04 0.  0.
        4    1    3    3  502    0 -0.12753124635E+04 -0.10911349382E+03 -0.92416105245E+03  0.15787345876E+04  0.12699999809E+01 0.  1.
       -4    1    3    3    0  502  0.12753124635E+04  0.10911349382E+03  0.49198418277E+03  0.13712686401E+04  0.12699999809E+01 0. -1.
</event>
<event>
 5   0  0.2304435E-06  0.2739995E+04  0.7818609E-02  0.8322143E-01
       -2   -1    0    0    0  501  0.00000000000E+00  0.00000000000E+00  0.11750399240E+04  0.11750399240E+04  0.25500000920E-02 0.  1.
        2   -1    0    0  501    0  0.00000000000E+00  0.00000000000E+00 -0.15973014062E+04  0.15973014062E+04  0.25500000920E-02 0. -1.
    10030    2    1    2    0    0  0.00000000000E+00  0.00000000000E+00 -0.42226148225E+03  0.27723413302E+04  0.27399948343E+04 0.  0.
        1    1    3    3  502    0  0.18475630364E+03  0.73012072550E+03  0.94679269642E+03  0.12098047675E+04  0.50400001928E-02 0.  1.
       -1    1    3    3    0  502 -0.18475630364E+03 -0.73012072550E+03 -0.13690541787E+04  0.15625365627E+04  0.50400001928E-02 0. -1.
</event>
<event>
 5   0  0.8355946E-07  0.2887281E+04  0.7818609E-02  0.8276672E-01
       -1   -1    0    0    0  501  0.00000000000E+00  0.00000000000E+00  0.17700797178E+04  0.17700797179E+04  0.50400001928E-02 0.  1.
        1   -1    0    0  501    0  0.00000000000E+00  0.00000000000E+00 -0.11774034813E+04  0.11774034813E+04  0.50400001928E-02 0. -1.
    10030    2    1    2    0    0  0.00000000000E+00  0.00000000000E+00  0.59267623658E+03  0.29474831991E+04  0.28872810891E+04 0.  0.
        4    1    3    3  502    0 -0.60584941030E+03 -0.64828812811E+03  0.14588381668E+04  0.17074956559E+04  0.12699999809E+01 0.  1.
       -4    1    3    3    0  502  0.60584941030E+03  0.64828812811E+03 -0.86616193026E+03  0.12399875432E+04  0.12699999809E+01 0. -1.
</event>
<event>
 5   0  0.2378690E-06  0.2895702E+04  0.7818609E-02  0.8274157E-01
       -2   -1    0    0    0  501  0.00000000000E+00  0.00000000000E+00  0.11861649905E+04  0.11861649905E+04  0.25500000920E-02 0.  1.
        2   -1    0    0  501    0  0.00000000000E+00  0.00000000000E+00 -0.17672685692E+04  0.17672685692E+04  0.25500000920E-02 0. -1.
    10030    2    1    2    0    0  0.00000000000E+00  0.00000000000E+00 -0.58110357874E+03  0.29534335597E+04  0.28957017150E+04 0.  0.
        3    1    3    3  502    0  0.14039220321E+04  0.28578555222E+02  0.69268207620E+02  0.14059203039E+04  0.10100000352E+00 0.  1.
       -3    1    3    3    0  502 -0.14039220321E+04 -0.28578555222E+02 -0.65037178636E+03  0.15475132558E+04  0.10100000352E+00 0. -1.
</event>
<event>
 5   0  0.2325590E-06  0.2907538E+04  0.7818609E-02  0.8270638E-01
       -2   -1    0    0    0  501  0.00000000000E+00  0.00000000000E+00  0.81298293343E+03  0.81298293344E+03  0.25500000920E-02 0. -1.
        2   -1    0    0  501    0  0.00000000000E+00  0.00000000000E+00 -0.25996175772E+04  0.25996175772E+04  0.25500000920E-02 0.  1.
    10030    2    1    2    0    0  0.00000000000E+00  0.00000000000E+00 -0.17866346438E+04  0.34126005106E+04  0.29075382878E+04 0.  0.
        5    1    3    3  502    0  0.57388979580E+03  0.68676326312E+03 -0.22379324002E+04  0.24102607318E+04  0.46999998093E+01 0.  1.
       -5    1    3    3    0  502 -0.57388979580E+03 -0.68676326312E+03  0.45129775644E+03  0.10023397789E+04  0.46999998093E+01 0. -1.
</event>
<event>
 5   0  0.8947674E-07  0.2898645E+04  0.7818609E-02  0.8273281E-01
        1   -1    0    0  501    0  0.00000000000E+00  0.00000000000E+00  0.15699628245E+04  0.15699628245E+04  0.50400001928E-02 0.  1.
       -1   -1    0    0    0  501  0.00000000000E+00  0.00000000000E+00 -0.13379526302E+04  0.13379526302E+04  0.50400001928E-02 0. -1.
    10030    2    1    2    0    0  0.00000000000E+00  0.00000000000E+00  0.23201019430E+03  0.29079154548E+04  0.28986451252E+04 0.  0.
        3    1    3    3  502    0  0.30268253638E+03 -0.11286449268E+04 -0.74410484651E+03  0.13853332167E+04  0.10100000352E+00 0. -1.
       -3    1    3    3    0  502 -0.30268253638E+03  0.11286449268E+04  0.97611504081E+03  0.15225822381E+04  0.10100000352E+00 0.  1.
</event>
<event>
 5   0  0.8355946E-07  0.2899046E+04  0.7818609E-02  0.8273161E-01
        1   -1    0    0  501    0  0.00000000000E+00  0.00000000000E+00  0.10738502293E+04  0.10738502293E+04  0.50400001928E-02 0.  1.
       -1   -1    0    0    0  501  0.00000000000E+00  0.00000000000E+00 -0.19566196392E+04  0.19566196392E+04  0.50400001928E-02 0. -1.
    10030    2    1    2    0    0  0.00000000000E+00  0.00000000000E+00 -0.88276940996E+03  0.30304698685E+04  0.28990456693E+04 0.  0.
        4    1    3    3  502    0  0.12893006580E+04  0.95725092356E+01 -0.11337768020E+04  0.17169272755E+04  0.12699999809E+01 0. -1.
       -4    1    3    3    0  502 -0.12893006580E+04 -0.95725092356E+01  0.25100739208E+03  0.13135425930E+04  0.12699999809E+01 0.  1.
</event>
<event>
 5   0  0.2360103E-06  0.2879561E+04  0.7818609E-02  0.8278985E-01
        2   -1    0    0  501    0  0.00000000000E+00  0.00000000000E+00  0.12473839769E+04  0.12473839769E+04  0.25500000920E-02 0.  1.
       -2   -1    0    0    0  501  0.00000000000E+00  0.00000000000E+00 -0.16618525100E+04  0.16618525100E+04  0.25500000920E-02 0. -1.
    10030    2    1    2    0    0  0.00000000000E+00  0.00000000000E+00 -0.41446853306E+03  0.29092364869E+04  0.28795612117E+04 0.  0.
        4    1    3    3  502    0  0.79796182965E+03 -0.55489145566E+03  0.86593606039E+03  0.13017274994E+04  0.12699999809E+01 0.  1.
       -4    1    3    3    0  502 -0.79796182965E+03  0.55489145566E+03 -0.12804045935E+04  0.16075089875E+04  0.12699999809E+01 0. -1.
</event>
<event>
 5   0  0.8947674E-07  0.2904534E+04  0.7818609E-02  0.8271530E-01
       -1   -1    0    0    0  501  0.00000000000E+00  0.00000000000E+00  0.11663246993E+04  0.11663246993E+04  0.50400001928E-02 0.  1.
        1   -1    0    0  501    0  0.00000000000E+00  0.00000000000E+00 -0.18083122539E+04  0.18083122539E+04  0.50400001928E-02 0. -1.
    10030    2    1    2    0    0  0.00000000000E+00  0.00000000000E+00 -0.64198755459E+03  0.29746369532E+04  0.29045338667E+04 0.  0.
        3    1    3    3  502    0  0.78724648466E+03 -0.11007130446E+04  0.21874908067E+03  0.13708309176E+04  0.10100000352E+00 0. -1.
       -3    1    3    3    0  502 -0.78724648466E+03  0.11007130446E+04 -0.86073663526E+03  0.16038060355E+04  0.10100000352E+00 0.  1.
</event>
<event>
 5   0  0.2325590E-06  0.2906037E+04  0.7818609E-02  0.8271083E-01
        2   -1    0    0  501    0  0.00000000000E+00  0.00000000000E+00  0.16690068440E+04  0.16690068440E+04  0.25500000920E-02 0. -1.
       -2   -1    0    0    0  501  0.00000000000E+00  0.00000000000E+00 -0.12649816730E+04  0.12649816730E+04  0.25500000920E-02 0.  1.
    10030    2    1    2    0    0  0.00000000000E+00  0.00000000000E+00  0.40402517102E+03  0.29339885170E+04  0.29060372122E+04 0.  0.
        5    1    3    3  502    0  0.10921446105E+03 -0.10607461577E+04  0.11984863512E+04  0.16042137743E+04  0.46999998093E+01 0. -1.
       -5    1    3    3    0  502 -0.10921446105E+03  0.10607461577E+04 -0.79446118021E+03  0.13297747427E+04  0.46999998093E+01 0.  1.
</event>
<event>
 5   0  0.2425845E-06  0.2938104E+04  0.7818609E-02  0.8261630E-01
       -2   -1    0    0    0  501  0.00000000000E+00  0.00000000000E+00  0.83637469921E+03  0.83637469922E+03  0.25500000920E-02 0.  1.
        2   -1    0    0  501    0  0.00000000000E+00  0.00000000000E+00 -0.25803195192E+04  0.25803195192E+04  0.25500000920E-02 0. -1.
    10030    2    1    2    0    0  0.00000000000E+00  0.00000000000E+00 -0.17439448199E+04  0.34166942184E+04  0.29381041246E+04 0.  0.
        2    1    3    3  502    0  0.43853244361E+03  0.11501231325E+04  0.60532620231E+02  0.12323790497E+04  0.25500000920E-02 0.  1.
       -2    1    3    3    0  502 -0.43853244361E+03 -0.11501231325E+04 -0.18044774402E+04  0.21843151687E+04  0.25500000920E-02 0. -1.
</event>
<event>
 5   0  0.2325590E-06  0.2916810E+04  0.7818609E-02  0.8267893E-01
       -2   -1    0    0    0  501  0.00000000000E+00  0.00000000000E+00  0.14928980835E+04  0.14928980835E+04  0.25500000920E-02 0.  1.
        2   -1    0    0  501    0  0.00000000000E+00  0.00000000000E+00 -0.14247091870E+04  0.14247091870E+04  0.25500000920E-02 0. -1.
    10030    2    1    2    0    0  0.00000000000E+00  0.00000000000E+00  0.68188896541E+02  0.29176072705E+04  0.29168103228E+04 0.  0.
        5    1    3    3  502    0 -0.28140051855E+02  0.13919561146E+04  0.46848241603E+03  0.14689559393E+04  0.46999998093E+01 0.  1.
       -5    1    3    3    0  502  0.28140051855E+02 -0.13919561146E+04 -0.40029351949E+03  0.14486513312E+04  0.46999998093E+01 0. -1.
</event>
<event>
 5   0  0.8263673E-07  0.2915934E+04  0.7818609E-02  0.8268152E-01
        1   -1    0    0  501    0  0.00000000000E+00  0.00000000000E+00  0.10688103990E+04  0.10688103990E+04  0.50400001928E-02 0. -1.
       -1   -1    0    0    0  501  0.00000000000E+00  0.00000000000E+00 -0.19888168929E+04  0.19888168929E+04  0.50400001928E-02 0.  1.
    10030    2    1    2    0    0  0.00000000000E+00  0.00000000000E+00 -0.92000649388E+03  0.30576272920E+04  0.29159342770E+04 0.  0.
        5    1    3    3  502    0  0.76093282901E+02 -0.86497663159E+03 -0.16880979131E+04  0.18983338524E+04  0.46999998093E+01 0.  1.
       -5    1    3    3    0  502 -0.76093282901E+02  0.86497663159E+03  0.76809141919E+03  0.11592934396E+04  0.46999998093E+01 0. -1.
</event>
<event>
 5   0  0.8355946E-07  0.2928120E+04  0.7818609E-02  0.8264560E-01
       -1   -1    0    0    0  501  0.00000000000E+00  0.00000000000E+00  0.10447692209E+04  0.10447692209E+04  0.50400001928E-02 0.  1.
        1   -1    0    0  501    0  0.00000000000E+00  0.00000000000E+00 -0.20516217098E+04  0.20516217098E+04  0.50400001928E-02 0. -1.
    10030    2    1    2    0    0  0.00000000000E+00  0.00000000000E+00 -0.10068524889E+04  0.30963909307E+04  0.29281196801E+04 0.  0.
        4    1    3    3  502    0  0.35081365277E+03  0.48596596515E+02  0.99878706919E+03  0.10597212231E+04  0.12699999809E+01 0.  1.
       -4    1    3    3    0  502 -0.35081365277E+03 -0.48596596515E+02 -0.20056395580E+04  0.20366697076E+04  0.12699999809E+01 0. -1.
</event>
<event>
 5   0  0.2378690E-06  0.2906919E+04  0.7818609E-02  0.8270822E-01
       -2   -1    0    0    0  501  0.00000000000E+00  0.00000000000E+00  0.14588695996E+04  0.14588695996E+04  0.25500000920E-02 0.  1.
        2   -1    0    0  501    0  0.00000000000E+00  0.00000000000E+00 -0.14480694726E+04  0.14480694726E+04  0.25500000920E-02 0. -1.
    10030    2    1    2    0    0  0.00000000000E+00  0.00000000000E+00  0.10800127041E+02  0.29069390722E+04  0.29069190094E+04 0.  0.
        3    1    3    3  502    0  0.79984260593E+03  0.77589445336E+03 -0.92776452244E+03  0.14500025573E+04  0.10100000352E+00 0. -1.
       -3    1    3    3    0  502 -0.79984260593E+03 -0.77589445336E+03  0.93856464948E+03  0.14569365149E+04  0.10100000352E+00 0.  1.
</event>
<event>
 5   0  0.8483636E-07  0.2882067E+04  0.7818609E-02  0.8278233E-01
        1   -1    0    0  501    0  0.00000000000E+00  0.00000000000E+00  0.15040199038E+04  0.15040199038E+04  0.50400001928E-02 0. -1.
       -1   -1    0    0    0  501  0.00000000000E+00  0.00000000000E+00 -0.13806844468E+04  0.13806844468E+04  0.50400001928E-02 0.  1.
    10030    2    1    2    0    0  0.00000000000E+00  0.00000000000E+00  0.12333545702E+03  0.28847043506E+04  0.28820665425E+04 0.  0.
        2    1    3    3  502    0  0.12336587572E+04  0.72346681285E+03 -0.11529547525E+03  0.14347861183E+04  0.25500000920E-02 0. -1.
       -2    1    3    3    0  502 -0.12336587572E+04 -0.72346681285E+03  0.23863093227E+03  0.14499182323E+04  0.25500000920E-02 0.  1.
</event>
<event>
 5   0  0.2360103E-06  0.2880287E+04  0.7818609E-02  0.8278767E-01
       -2   -1    0    0    0  501  0.00000000000E+00  0.00000000000E+00  0.10960714322E+04  0.10960714322E+04  0.25500000920E-02 0. -1.
        2   -1    0    0  501    0  0.00000000000E+00  0.00000000000E+00 -0.18922240293E+04  0.18922240293E+04  0.25500000920E-02 0.  1.
    10030    2    1    2    0    0  0.00000000000E+00  0.00000000000E+00 -0.79615259710E+03  0.29882954615E+04  0.28802865842E+04 0.  0.
        4    1    3    3  502    0 -0.70392009554E+03 -0.10887497772E+04 -0.10485904688E+04  0.16674600932E+04  0.12699999809E+01 0.  1.
       -4    1    3    3    0  502  0.70392009554E+03  0.10887497772E+04  0.25243787172E+03  0.13208353683E+04  0.12699999809E+01 0. -1.
</event>
<event>
 5   0  0.8355946E-07  0.2894531E+04  0.7818609E-02  0.8274507E-01
        1   -1    0    0  501    0  0.00000000000E+00  0.00000000000E+00  0.93091486528E+03  0.93091486529E+03  0.50400001928E-02 0. -1.
       -1   -1    0    0    0  501  0.00000000000E+00  0.00000000000E+00 -0.22500203305E+04  0.22500203305E+04  0.50400001928E-02 0.  1.
    10030    2    1    2    0    0  0.00000000000E+00  0.00000000000E+00 -0.13191054652E+04  0.31809351958E+04  0.28945309623E+04 0.  0.
        4    1    3    3  502    0 -0.15163044336E+03  0.10847634674E+04 -0.16991308456E+04  0.20215713727E+04  0.12699999809E+01 0. -1.
       -4    1    3    3    0  502  0.15163044336E+03 -0.10847634674E+04  0.38002538037E+03  0.11593638231E+04  0.12699999809E+01 0.  1.
</event>
<event>
 5   0  0.8357118E-07  0.2889938E+04  0.7818609E-02  0.8275877E-01
       -1   -1    0    0    0  501  0.00000000000E+00  0.00000000000E+00  0.10537979132E+04  0.10537979132E+04  0.50400001928E-02 0.  1.
        1   -1    0    0  501    0  0.00000000000E+00  0.00000000000E+00 -0.19813437910E+04  0.19813437910E+04  0.50400001928E-02 0. -1.
    10030    2    1    2    0    0  0.00000000000E+00  0.00000000000E+00 -0.92754587780E+03  0.30351417042E+04  0.28899383746E+04 0.  0.
        1    1    3    3  502    0 -0.83103556336E+03 -0.13703410357E+03  0.76933099258E+03  0.11407316202E+04  0.50400001928E-02 0.  1.
       -1    1    3    3    0  502  0.83103556336E+03  0.13703410357E+03 -0.16968768704E+04  0.18944100840E+04  0.50400001928E-02 0. -1.
</event>
<event>
 5   0  0.8263673E-07  0.2934587E+04  0.7818609E-02  0.8262660E-01
        1   -1    0    0  501    0  0.00000000000E+00  0.00000000000E+00  0.18532053130E+04  0.18532053130E+04  0.50400001928E-02 0.  1.
       -1   -1    0    0    0  501  0.00000000000E+00  0.00000000000E+00 -0.11617444187E+04  0.11617444187E+04  0.50400001928E-02 0. -1.
    10030    2    1    2    0    0  0.00000000000E+00  0.00000000000E+00  0.69146089425E+03  0.30149497317E+04  0.29345874866E+04 0.  0.
        5    1    3    3  502    0 -0.18416632532E+03 -0.78159361607E+03  0.16074167816E+04  0.17968351666E+04  0.46999998093E+01 0.  1.
       -5    1    3    3    0  502  0.18416632532E+03  0.78159361607E+03 -0.91595588740E+03  0.12181145651E+04  0.46999998093E+01 0. -1.
</event>
<event>
 5   0  0.8947674E-07  0.2881201E+04  0.7818609E-02  0.8278493E-01
       -1   -1    0    0    0  501  0.00000000000E+00  0.00000000000E+00  0.14595127939E+04  0.14595127939E+04  0.50400001928E-02 0.  1.
        1   -1    0    0  501    0  0.00000000000E+00  0.00000000000E+00 -0.14219331101E+04  0.14219331101E+04  0.50400001928E-02 0. -1.
    10030    2    1    2    0    0  0.00000000000E+00  0.00000000000E+00  0.37579683764E+02  0.28814459040E+04  0.28812008373E+04 0.  0.
        3    1    3    3  502    0  0.91155791700E+03 -0.44517636927E+03  0.10417207794E+04  0.14540639698E+04  0.10100000352E+00 0.  1.
       -3    1    3    3    0  502 -0.91155791700E+03  0.44517636927E+03 -0.10041410957E+04  0.14273819342E+04  0.10100000352E+00 0. -1.
</event>
<event>
 5   0  0.2425845E-06  0.2920740E+04  0.7818609E-02  0.8266733E-01
       -2   -1    0    0    0  501  0.00000000000E+00  0.00000000000E+00  0.11202279214E+04  0.11202279214E+04  0.25500000920E-02 0.  1.
        2   -1    0    0  501    0  0.00000000000E+00  0.00000000000E+00 -0.19037919669E+04  0.19037919669E+04  0.25500000920E-02 0. -1.
    10030    2    1    2    0    0  0.00000000000E+00  0.00000000000E+00 -0.78356404556E+03  0.30240198883E+04  0.29207402608E+04 0.  0.
        2    1    3    3  502    0 -0.18044028288E+03  0.16685529329E+03 -0.18822274685E+04  0.18982043166E+04  0.25500000920E-02 0. -1.
       -2    1    3    3    0  502  0.18044028288E+03 -0.16685529329E+03  0.10986634229E+04  0.11258155717E+04  0.25500000920E-02 0.  1.
</event>
<event>
 5   0  0.8355946E-07  0.2863614E+04  0.7818609E-02  0.8283786E-01
        1   -1    0    0  501    0  0.00000000000E+00  0.00000000000E+00  0.13591518067E+04  0.13591518068E+04  0.50400001928E-02 0. -1.
       -1   -1    0    0    0  501  0.00000000000E+00  0.00000000000E+00 -0.15083457720E+04  0.15083457721E+04  0.50400001928E-02 0.  1.
    10030    2    1    2    0    0  0.00000000000E+00  0.00000000000E+00 -0.14919396530E+03  0.28674975788E+04  0.28636137179E+04 0.  0.
        4    1    3    3  502    0 -0.23548822583E+03 -0.65028989915E+03  0.11807929701E+04  0.13684316967E+04  0.12699999809E+01 0. -1.
       -4    1    3    3    0  502  0.23548822583E+03  0.65028989915E+03 -0.13299869354E+04  0.14990658821E+04  0.12699999809E+01 0.  1.
</event>
<event>
 5   0  0.2325590E-06  0.2910215E+04  0.7818609E-02  0.8269845E-01
       -2   -1    0    0    0  501  0.00000000000E+00  0.00000000000E+00  0.15337089132E+04  0.15337089132E+04  0.25500000920E-02 0.  1.
        2   -1    0    0  501    0  0.00000000000E+00  0.00000000000E+00 -0.13805340554E+04  0.13805340554E+04  0.25500000920E-02 0. -1.
    10030    2    1    2    0    0  0.00000000000E+00  0.00000000000E+00  0.15317485778E+03  0.29142429686E+04  0.29102146902E+04 0.  0.
        5    1    3    3  502    0 -0.58476999111E+03  0.92925641931E+03  0.10328133044E+04  0.15073814537E+04  0.46999998093E+01 0.  1.
       -5    1    3    3    0  502  0.58476999111E+03 -0.92925641931E+03 -0.87963844658E+03  0.14068615149E+04  0.46999998093E+01 0. -1.
</event>
<event>
 5   0  0.2360103E-06  0.2898760E+04  0.7818609E-02  0.8273246E-01
        2   -1    0    0  501    0  0.00000000000E+00  0.00000000000E+00  0.10511361353E+04  0.10511361353E+04  0.25500000920E-02 0.  1.
       -2   -1    0    0    0  501  0.00000000000E+00  0.00000000000E+00 -0.19985069315E+04  0.19985069315E+04  0.25500000920E-02 0. -1.
    10030    2    1    2    0    0  0.00000000000E+00  0.00000000000E+00 -0.94737079624E+03  0.30496430668E+04  0.28987603228E+04 0.  0.
        4    1    3    3  502    0 -0.18069921837E+03 -0.14362181649E+04 -0.55046647379E+03  0.15486735538E+04  0.12699999809E+01 0. -1.
       -4    1    3    3    0  502  0.18069921837E+03  0.14362181649E+04 -0.39690432244E+03  0.15009695129E+04  0.12699999809E+01 0.  1.
</event>
<event>
 5   0  0.8357118E-07  0.2845394E+04  0.7818609E-02  0.8289312E-01
       -1   -1    0    0    0  501  0.00000000000E+00  0.00000000000E+00  0.11218297371E+04  0.11218297371E+04  0.50400001928E-02 0. -1.
        1   -1    0    0  501    0  0.00000000000E+00  0.00000000000E+00 -0.18042543500E+04  0.18042543500E+04  0.50400001928E-02 0.  1.
    10030    2    1    2    0    0  0.00000000000E+00  0.00000000000E+00 -0.68242461299E+03  0.29260840871E+04  0.28453935989E+04 0.  0.
        1    1    3    3  502    0 -0.28273431681E+03  0.93597508655E+03  0.72157403091E+03  0.12151778218E+04  0.50400001928E-02 0. -1.
       -1    1    3    3    0  502  0.28273431681E+03 -0.93597508655E+03 -0.14039986439E+04  0.17109062653E+04  0.50400001928E-02 0.  1.
</event>
<event>
 5   0  0.2325590E-06  0.2897045E+04  0.7818609E-02  0.8273757E-01
       -2   -1    0    0    0  501  0.00000000000E+00  0.00000000000E+00  0.16395544871E+04  0.16395544871E+04  0.25500000920E-02 0. -1.
        2   -1    0    0  501    0  0.00000000000E+00  0.00000000000E+00 -0.12797487154E+04  0.12797487154E+04  0.25500000920E-02 0.  1.
    10030    2    1    2    0    0  0.00000000000E+00  0.00000000000E+00  0.35980577174E+03  0.29193032025E+04  0.28970452179E+04 0.  0.
        5    1    3    3  502    0 -0.46579646994E+03  0.13456960041E+04 -0.87335654671E+02  0.14267142999E+04  0.46999998093E+01 0.  1.
       -5    1    3    3    0  502  0.46579646994E+03 -0.13456960041E+04  0.44714142641E+03  0.14925889026E+04  0.46999998093E+01 0. -1.
</event>
<event>
 5   0  0.2304435E-06  0.2895852E+04  0.7818609E-02  0.8274113E-01
       -2   -1    0    0    0  501  0.00000000000E+00  0.00000000000E+00  0.12997725411E+04  0.12997725411E+04  0.25500000920E-02 0. -1.
        2   -1    0    0  501    0  0.00000000000E+00  0.00000000000E+00 -0.16129660888E+04  0.16129660888E+04  0.25500000920E-02 0.  1.
    10030    2    1    2    0    0  0.00000000000E+00  0.00000000000E+00 -0.31319354774E+03  0.29127386299E+04  0.28958515376E+04 0.  0.
        1    1    3    3  502    0 -0.12636822308E+04 -0.60926353753E+03  0.20381412386E+03  0.14176159690E+04  0.50400001928E-02 0.  1.
       -1    1    3    3    0  502  0.12636822308E+04  0.60926353753E+03 -0.51700767160E+03  0.14951226609E+04  0.50400001928E-02 0. -1.
</event>
<event>
 5   0  0.2378690E-06  0.2919439E+04  0.7818609E-02  0.8267117E-01
        2   -1    0    0  501    0  0.00000000000E+00  0.00000000000E+00  0.24211398209E+04  0.24211398209E+04  0.25500000920E-02 0. -1.
       -2   -1    0    0    0  501  0.00000000000E+00  0.00000000000E+00 -0.88007361366E+03  0.88007361366E+03  0.25500000920E-02 0.  1.
    10030    2    1    2    0    0  0.00000000000E+00  0.00000000000E+00  0.15410662072E+04  0.33012134345E+04  0.29194391731E+04 0.  0.
        3    1    3    3  502    0 -0.20503191488E+02  0.10928932064E+03  0.24163437637E+04  0.24189009346E+04  0.10100000352E+00 0. -1.
       -3    1    3    3    0  502  0.20503191488E+02 -0.10928932064E+03 -0.87527755652E+03  0.88231249998E+03  0.10100000352E+00 0.  1.
</event>
<event>
 5   0  0.8357118E-07  0.2888688E+04  0.7818609E-02  0.8276251E-01
       -1   -1    0    0    0  501  0.00000000000E+00  0.00000000000E+00  0.11947893487E+04  0.11947893488E+04  0.50400001928E-02 0. -1.
        1   -1    0    0  501    0  0.00000000000E+00  0.00000000000E+00 -0.17460234511E+04  0.17460234511E+04  0.50400001928E-02 0.  1.
    10030    2    1    2    0    0  0.00000000000E+00  0.00000000000E+00 -0.55123410234E+03  0.29408127999E+04  0.28886884374E+04 0.  0.
        1    1    3    3  502    0  0.55899239479E+03 -0.10337925446E+04 -0.11303685855E+04  0.16306233967E+04  0.50400001928E-02 0.  1.
       -1    1    3    3    0  502 -0.55899239479E+03  0.10337925446E+04  0.57913448314E+03  0.13101894032E+04  0.50400001928E-02 0. -1.
</event>
<event>
 5   0  0.8483636E-07  0.2889249E+04  0.7818609E-02  0.8276084E-01
        1   -1    0    0  501    0  0.00000000000E+00  0.00000000000E+00  0.12427717194E+04  0.12427717195E+04  0.50400001928E-02 0. -1.
       -1   -1    0    0    0  501  0.00000000000E+00  0.00000000000E+00 -0.16792620819E+04  0.16792620819E+04  0.50400001928E-02 0.  1.
    10030    2    1    2    0    0  0.00000000000E+00  0.00000000000E+00 -0.43649036243E+03  0.29220338013E+04  0.28892486393E+04 0.  0.
        2    1    3    3  502    0 -0.11968154886E+04 -0.47905367712E+02 -0.10350464671E+04  0.15830298251E+04  0.25500000920E-02 0.  1.
       -2    1    3    3    0  502  0.11968154886E+04  0.47905367712E+02  0.59855610471E+03  0.13390039763E+04  0.25500000920E-02 0. -1.
</event>
<event>
 5   0  0.2304435E-06  0.2900984E+04  0.7818609E-02  0.8272585E-01
       -2   -1    0    0    0  501  0.00000000000E+00  0.00000000000E+00  0.16597870197E+04  0.16597870197E+04  0.25500000920E-02 0. -1.
        2   -1    0    0  501    0  0.00000000000E+00  0.00000000000E+00 -0.12675887393E+04  0.12675887393E+04  0.25500000920E-02 0.  1.
    10030    2    1    2    0    0  0.00000000000E+00  0.00000000000E+00  0.39219828036E+03  0.29273757591E+04  0.29009842026E+04 0.  0.
        1    1    3    3  502    0  0.37136248225E+03 -0.12977876987E+04  0.73174298182E+03  0.15354513328E+04  0.50400001928E-02 0. -1.
       -1    1    3    3    0  502 -0.37136248225E+03  0.12977876987E+04 -0.33954470146E+03  0.13919244262E+04  0.50400001928E-02 0.  1.
</event>
<event>
 5   0  0.2378690E-06  0.2909004E+04  0.7818609E-02  0.8270204E-01
       -2   -1    0    0    0  501  0.00000000000E+00  0.00000000000E+00  0.92993490794E+03  0.92993490795E+03  0.25500000920E-02 0.  1.
        2   -1    0    0  501    0  0.00000000000E+00  0.00000000000E+00 -0.22749724435E+04  0.22749724435E+04  0.25500000920E-02 0. -1.
    10030    2    1    2    0    0  0.00000000000E+00  0.00000000000E+00 -0.13450375356E+04  0.32049073515E+04  0.29090041525E+04 0.  0.
        3    1    3    3  502    0  0.29151422549E+03  0.11525040099E+04  0.25077907981E+03  0.12149634536E+04  0.10100000352E+00 0.  1.
       -3    1    3    3    0  502 -0.29151422549E+03 -0.11525040099E+04 -0.15958166154E+04  0.19899438979E+04  0.10100000352E+00 0. -1.
</event>
<event>
 5   0  0.8263673E-07  0.2915444E+04  0.7818609E-02  0.8268297E-01
       -1   -1    0    0    0  501  0.00000000000E+00  0.00000000000E+00  0.97061186301E+03  0.97061186303E+03  0.50400001928E-02 0.  1.
        1   -1    0    0  501    0  0.00000000000E+00  0.00000000000E+00 -0.21892921578E+04  0.21892921578E+04  0.50400001928E-02 0. -1.
    10030    2    1    2    0    0  0.00000000000E+00  0.00000000000E+00 -0.12186802948E+04  0.31599040208E+04  0.29154436643E+04 0.  0.
        5    1    3    3  502    0 -0.69974006124E+03  0.11772315785E+04 -0.68043525610E+02  0.13711901233E+04  0.46999998093E+01 0. -1.
       -5    1    3    3    0  502  0.69974006124E+03 -0.11772315785E+04 -0.11506367692E+04  0.17887138976E+04  0.46999998093E+01 0.  1.
</event>
<event>
 5   0  0.2378690E-06  0.2893879E+04  0.7818609E-02  0.8274701E-01
        2   -1    0    0  501    0  0.00000000000E+00  0.00000000000E+00  0.15108199926E+04  0.15108199926E+04  0.25500000920E-02 0.  1.
       -2   -1    0    0    0  501  0.00000000000E+00  0.00000000000E+00 -0.13857601726E+04  0.13857601726E+04  0.25500000920E-02 0. -1.
    10030    2    1    2    0    0  0.00000000000E+00  0.00000000000E+00  0.12505982005E+03  0.28965801652E+04  0.28938791776E+04 0.  0.
        3    1    3    3  502    0  0.52356770894E+03  0.10244278795E+04 -0.81581892079E+03  0.14103673805E+04  0.10100000352E+00 0. -1.
       -3    1    3    3    0  502 -0.52356770894E+03 -0.10244278795E+04  0.94087874084E+03  0.14862127847E+04  0.10100000352E+00 0.  1.
</event>
<event>
 5   0  0.8355946E-07  0.2900291E+04  0.7818609E-02  0.8272791E-01
        1   -1    0    0  501    0  0.00000000000E+00  0.00000000000E+00  0.78860143285E+03  0.78860143286E+03  0.50400001928E-02 0. -1.
       -1   -1    0    0    0  501  0.00000000000E+00  0.00000000000E+00 -0.26666474130E+04  0.26666474130E+04  0.50400001928E-02 0.  1.
    10030    2    1    2    0    0  0.00000000000E+00  0.00000000000E+00 -0.18780459802E+04  0.34552488459E+04  0.29002909998E+04 0.  0.
        4    1    3    3  502    0 -0.36925658226E+03  0.83522122812E+03 -0.22810595996E+04  0.24570672423E+04  0.12699999809E+01 0.  1.
       -4    1    3    3    0  502  0.36925658226E+03 -0.83522122812E+03  0.40301361939E+03  0.99818160360E+03  0.12699999809E+01 0. -1.
</event>
<event>
 5   0  0.8355946E-07  0.2890438E+04  0.7818609E-02  0.8275728E-01
        1   -1    0    0  501    0  0.00000000000E+00  0.00000000000E+00  0.16106773199E+04  0.16106773199E+04  0.50400001928E-02 0. -1.
       -1   -1    0    0    0  501  0.00000000000E+00  0.00000000000E+00 -0.12967572184E+04  0.12967572184E+04  0.50400001928E-02 0.  1.
    10030    2    1    2    0    0  0.00000000000E+00  0.00000000000E+00  0.31392010156E+03  0.29074345383E+04  0.28904376424E+04 0.  0.
        4    1    3    3  502    0  0.26150830029E+03  0.44463327486E+03  0.15149248350E+04  0.16003387794E+04  0.12699999809E+01 0. -1.
       -4    1    3    3    0  502 -0.26150830029E+03 -0.44463327486E+03 -0.12010047335E+04  0.13070957589E+04  0.12699999809E+01 0.  1.
</event>
<event>
 5   0  0.2378690E-06  0.2862275E+04  0.7818609E-02  0.8284191E-01
       -2   -1    0    0    0  501  0.00000000000E+00  0.00000000000E+00  0.10107583275E+04  0.10107583275E+04  0.25500000920E-02 0. -1.
        2   -1    0    0  501    0  0.00000000000E+00  0.00000000000E+00 -0.20263536673E+04  0.20263536673E+04  0.25500000920E-02 0.  1.
    10030    2    1    2    0    0  0.00000000000E+00  0.00000000000E+00 -0.10155953398E+04  0.30371119948E+04  0.28622745107E+04 0.  0.
        3    1    3    3  502    0  0.76908867492E+03  0.11959809860E+04 -0.33576491129E+03  0.14610290875E+04  0.10100000352E+00 0.  1.
       -3    1    3    3    0  502 -0.76908867492E+03 -0.11959809860E+04 -0.67983042854E+03  0.15760829072E+04  0.10100000352E+00 0. -1.
</event>
<event>
 5   0  0.8263673E-07  0.2901378E+04  0.7818609E-02  0.8272468E-01
        1   -1    0    0  501    0  0.00000000000E+00  0.00000000000E+00  0.13841657552E+04  0.13841657553E+04  0.50400001928E-02 0. -1.
       -1   -1    0    0    0  501  0.00000000000E+00  0.00000000000E+00 -0.15204088545E+04  0.15204088546E+04  0.50400001928E-02 0.  1.
    10030    2    1    2    0    0  0.00000000000E+00  0.00000000000E+00 -0.13624309930E+03  0.29045746098E+04  0.29013775145E+04 0.  0.
        5    1    3    3  502    0 -0.11456072086E+03  0.37769000539E+03 -0.14656189155E+04  0.15178388565E+04  0.46999998093E+01 0.  1.
       -5    1    3    3    0  502  0.11456072086E+03 -0.37769000539E+03  0.13293758162E+04  0.13867357533E+04  0.46999998093E+01 0. -1.
</event>
<event>
 5   0  0.8357118E-07  0.2909209E+04  0.7818609E-02  0.8270143E-01
        1   -1    0    0  501    0  0.00000000000E+00  0.00000000000E+00  0.17995991338E+04  0.17995991338E+04  0.50400001928E-02 0. -1.
       -1   -1    0    0    0  501  0.00000000000E+00  0.00000000000E+00 -0.11757474164E+04  0.11757474164E+04  0.50400001928E-02 0.  1.
    10030    2    1    2    0    0  0.00000000000E+00  0.00000000000E+00  0.62385171737E+03  0.29753465502E+04  0.29092088492E+04 0.  0.
        1    1    3    3  502    0 -0.11517655927E+04 -0.12045146796E+03  0.12121649805E+04  0.16764296814E+04  0.50400001928E-02 0. -1.
       -1    1    3    3    0  502  0.11517655927E+04  0.12045146796E+03 -0.58831326310E+03  0.12989168689E+04  0.50400001928E-02 0.  1.
</event>
<event>
 5   0  0.8355946E-07  0.2884091E+04  0.7818609E-02  0.8277627E-01
       -1   -1    0    0    0  501  0.00000000000E+00  0.00000000000E+00  0.13602980783E+04  0.13602980783E+04  0.50400001928E-02 0.  1.
        1   -1    0    0  501    0  0.00000000000E+00  0.00000000000E+00 -0.15287052845E+04  0.15287052845E+04  0.50400001928E-02 0. -1.
    10030    2    1    2    0    0  0.00000000000E+00  0.00000000000E+00 -0.16840720618E+03  0.28890033628E+04  0.28840907481E+04 0.  0.
        4    1    3    3  502    0 -0.65157258682E+03 -0.21736754537E+03 -0.13543135863E+04  0.15185395578E+04  0.12699999809E+01 0. -1.
       -4    1    3    3    0  502  0.65157258682E+03  0.21736754537E+03  0.11859063801E+04  0.13704638050E+04  0.12699999809E+01 0.  1.
</event>
<event>
 5   0  0.2425845E-06  0.2891896E+04  0.7818609E-02  0.8275293E-01
        2   -1    0    0  501    0  0.00000000000E+00  0.00000000000E+00  0.20849780571E+04  0.20849780571E+04  0.25500000920E-02 0.  1.
       -2   -1    0    0    0  501  0.00000000000E+00  0.00000000000E+00 -0.10027761820E+04  0.10027761820E+04  0.25500000920E-02 0. -1.
    10030    2    1    2    0    0  0.00000000000E+00  0.00000000000E+00  0.10822018751E+04  0.30877542390E+04  0.28918964958E+04 0.  0.
        2    1    3    3  502    0  0.12722702367E+04  0.61307866836E+03  0.87231876591E+03  0.16599629629E+04  0.25500000920E-02 0.  1.
       -2    1    3    3    0  502 -0.12722702367E+04 -0.61307866836E+03  0.20988310919E+03  0.14277912762E+04  0.25500000920E-02 0. -1.
</event>
<event>
 5   0  0.2425845E-06  0.2902371E+04  0.7818609E-02  0.8272172E-01
        2   -1    0    0  501    0  0.00000000000E+00  0.00000000000E+00  0.27873488563E+04  0.27873488563E+04  0.25500000920E-02 0.  1.
       -2   -1    0    0    0  501  0.00000000000E+00  0.00000000000E+00 -0.75553513570E+03  0.75553513571E+03  0.25500000920E-02 0. -1.
    10030    2    1    2    0    0  0.00000000000E+00  0.00000000000E+00  0.20318137206E+04  0.35428839920E+04  0.29023714417E+04 0.  0.
        2    1    3    3  502    0 -0.11683141294E+04  0.11973662988E+03 -0.24648411309E+02  0.11746924319E+04  0.25500000920E-02 0. -1.
       -2    1    3    3    0  502  0.11683141294E+04 -0.11973662988E+03  0.20564621319E+04  0.23681915601E+04  0.25500000920E-02 0.  1.
</event>
<event>
 5   0  0.2425845E-06  0.2907701E+04  0.7818609E-02  0.8270590E-01
        2   -1    0    0  501    0  0.00000000000E+00  0.00000000000E+00  0.11233128973E+04  0.11233128973E+04  0.25500000920E-02 0.  1.
       -2   -1    0    0    0  501  0.00000000000E+00  0.00000000000E+00 -0.18816494237E+04  0.18816494237E+04  0.25500000920E-02 0. -1.
    10030    2    1    2    0    0  0.00000000000E+00  0.00000000000E+00 -0.75833652643E+03  0.30049623210E+04  0.29077008552E+04 0.  0.
        2    1    3    3  502    0 -0.12245800931E+04 -0.76943597142E+03 -0.22569857012E+03  0.14637513324E+04  0.25500000920E-02 0.  1.
       -2    1    3    3    0  502  0.12245800931E+04  0.76943597142E+03 -0.53263795631E+03  0.15412109885E+04  0.25500000920E-02 0. -1.
</event>
<event>
 5   0  0.8483636E-07  0.2893822E+04  0.7818609E-02  0.8274718E-01
        1   -1    0    0  501    0  0.00000000000E+00  0.00000000000E+00  0.23319104756E+04  0.23319104756E+04  0.50400001928E-02 0.  1.
       -1   -1    0    0    0  501  0.00000000000E+00  0.00000000000E+00 -0.89778358795E+03  0.89778358796E+03  0.50400001928E-02 0. -1.
    10030    2    1    2    0    0  0.00000000000E+00  0.00000000000E+00  0.14341268877E+04  0.32296940636E+04  0.28938216625E+04 0.  0.
        2    1    3    3  502    0 -0.43681337390E+03 -0.49499037514E+03 -0.71990245732E+03  0.97677067071E+03  0.25500000920E-02 0. -1.
       -2    1    3    3    0  502  0.43681337390E+03  0.49499037514E+03  0.21540293450E+04  0.22529233929E+04  0.25500000920E-02 0.  1.
</event>
<event>
 5   0  0.8355946E-07  0.2895607E+04  0.7818609E-02  0.8274186E-01
       -1   -1    0    0    0  501  0.00000000000E+00  0.00000000000E+00  0.16006360801E+04  0.16006360801E+04  0.50400001928E-02 0. -1.
        1   -1    0    0  501    0  0.00000000000E+00  0.00000000000E+00 -0.13095637609E+04  0.13095637609E+04  0.50400001928E-02 0.  1.
    10030    2    1    2    0    0  0.00000000000E+00  0.00000000000E+00  0.29107231925E+03  0.29101998410E+04  0.28956070209E+04 0.  0.
        4    1    3    3  502    0  0.13702737936E+04  0.41891240631E+03 -0.62862435221E+02  0.14342563133E+04  0.12699999809E+01 0.  1.
       -4    1    3    3    0  502 -0.13702737936E+04 -0.41891240631E+03  0.35393475447E+03  0.14759435277E+04  0.12699999809E+01 0. -1.
</event>
<event>
 5   0  0.8947674E-07  0.2894026E+04  0.7818609E-02  0.8274657E-01
        1   -1    0    0  501    0  0.00000000000E+00  0.00000000000E+00  0.25163684945E+04  0.25163684945E+04  0.50400001928E-02 0. -1.
       -1   -1    0    0    0  501  0.00000000000E+00  0.00000000000E+00 -0.83209072200E+03  0.83209072202E+03  0.50400001928E-02 0.  1.
    10030    2    1    2    0    0  0.00000000000E+00  0.00000000000E+00  0.16842777725E+04  0.33484592165E+04  0.28940261764E+04 0.  0.
        3    1    3    3  502    0 -0.54860139244E+03  0.12150377013E+04  0.19114753769E+03  0.13467804182E+04  0.10100000352E+00 0. -1.
       -3    1    3    3    0  502  0.54860139244E+03 -0.12150377013E+04  0.14931302348E+04  0.20016787983E+04  0.10100000352E+00 0.  1.
</event>
<event>
 5   0  0.2325590E-06  0.2876353E+04  0.7818609E-02  0.8279948E-01
        2   -1    0    0  501    0  0.00000000000E+00  0.00000000000E+00  0.15114323395E+04  0.15114323395E+04  0.25500000920E-02 0. -1.
       -2   -1    0    0    0  501  0.00000000000E+00  0.00000000000E+00 -0.13684711708E+04  0.13684711708E+04  0.25500000920E-02 0.  1.
    10030    2    1    2    0    0  0.00000000000E+00  0.00000000000E+00  0.14296116870E+03  0.28799035103E+04  0.28763529569E+04 0.  0.
        5    1    3    3  502    0  0.49051273324E+03 -0.31278020969E+03  0.13883589665E+04  0.15053228594E+04  0.46999998093E+01 0. -1.
       -5    1    3    3    0  502 -0.49051273324E+03  0.31278020969E+03 -0.12453977978E+04  0.13745806509E+04  0.46999998093E+01 0.  1.
</event>
<event>
 5   0  0.8355946E-07  0.2913849E+04  0.7818609E-02  0.8268769E-01
       -1   -1    0    0    0  501  0.00000000000E+00  0.00000000000E+00  0.88069540632E+03  0.88069540634E+03  0.50400001928E-02 0.  1.
        1   -1    0    0  501    0  0.00000000000E+00  0.00000000000E+00 -0.24101739263E+04  0.24101739263E+04  0.50400001928E-02 0. -1.
    10030    2    1    2    0    0  0.00000000000E+00  0.00000000000E+00 -0.15294785200E+04  0.32908693327E+04  0.29138490732E+04 0.  0.
        4    1    3    3  502    0 -0.11033644488E+04  0.64076255497E+03  0.29565577057E+02  0.12762701497E+04  0.12699999809E+01 0.  1.
       -4    1    3    3    0  502  0.11033644488E+04 -0.64076255497E+03 -0.15590440971E+04  0.20145991830E+04  0.12699999809E+01 0. -1.
</event>
<event>
 5   0  0.2325590E-06  0.2901588E+04  0.7818609E-02  0.8272405E-01
        2   -1    0    0  501    0  0.00000000000E+00  0.00000000000E+00  0.17584387742E+04  0.17584387742E+04  0.25500000920E-02 0.  1.
       -2   -1    0    0    0  501  0.00000000000E+00  0.00000000000E+00 -0.11969726424E+04  0.11969726424E+04  0.25500000920E-02 0. -1.
    10030    2    1    2    0    0  0.00000000000E+00  0.00000000000E+00  0.56146613183E+03  0.29554114165E+04  0.29015879142E+04 0.  0.
        5    1    3    3  502    0  0.11130050953E+04  0.52248684212E+03  0.10650878551E+04  0.16267166538E+04  0.46999998093E+01 0.  1.
       -5    1    3    3    0  502 -0.11130050953E+04 -0.52248684212E+03 -0.50362172332E+03  0.13286947628E+04  0.46999998093E+01 0. -1.
</event>
<event>
 5   0  0.8355946E-07  0.2895793E+04  0.7818609E-02  0.8274130E-01
       -1   -1    0    0    0  501  0.00000000000E+00  0.00000000000E+00  0.13942868583E+04  0.13942868583E+04  0.50400001928E-02 0. -1.
        1   -1    0    0  501    0  0.00000000000E+00  0.00000000000E+00 -0.15035677906E+04  0.15035677906E+04  0.50400001928E-02 0.  1.
    10030    2    1    2    0    0  0.00000000000E+00  0.00000000000E+00 -0.10928093228E+03  0.28978546490E+04  0.28957933705E+04 0.  0.
        4    1    3    3  502    0  0.11007886574E+04  0.88453070398E+03 -0.37466955089E+03  0.14609959342E+04  0.12699999809E+01 0. -1.
       -4    1    3    3    0  502 -0.11007886574E+04 -0.88453070398E+03  0.26538861861E+03  0.14368587148E+04  0.12699999809E+01 0.  1.
</event>
<event>
 5   0  0.7621125E-07  0.2891330E+04  0.7818609E-02  0.8275462E-01
       -3   -1    0    0    0  501  0.00000000000E+00  0.00000000000E+00  0.17334378274E+04  0.17334378304E+04  0.10100000352E+00 0.  1.
        3   -1    0    0  501    0  0.00000000000E+00  0.00000000000E+00 -0.12056660984E+04  0.12056661026E+04  0.10100000352E+00 0. -1.
    10030    2    1    2    0    0  0.00000000000E+00  0.00000000000E+00  0.52777172905E+03  0.29391039330E+04  0.28913299589E+04 0.  0.
        2    1    3    3  502    0 -0.17626477089E+03 -0.71531001161E+02  0.17206601556E+04  0.17311433576E+04  0.25500000920E-02 0.  1.
       -2    1    3    3    0  502  0.17626477089E+03  0.71531001161E+02 -0.11928884265E+04  0.12079605754E+04  0.25500000920E-02 0. -1.
</event>
<event>
 5   0  0.8947674E-07  0.2911416E+04  0.7818609E-02  0.8269489E-01
        1   -1    0    0  501    0  0.00000000000E+00  0.00000000000E+00  0.29420591518E+04  0.29420591518E+04  0.50400001928E-02 0. -1.
       -1   -1    0    0    0  501  0.00000000000E+00  0.00000000000E+00 -0.72027313836E+03  0.72027313838E+03  0.50400001928E-02 0.  1.
    10030    2    1    2    0    0  0.00000000000E+00  0.00000000000E+00  0.22217860134E+04  0.36623322902E+04  0.29114162729E+04 0.  0.
        3    1    3    3  502    0 -0.56952918790E+03  0.47449045999E+02  0.27950382445E+04  0.28528676286E+04  0.10100000352E+00 0. -1.
       -3    1    3    3    0  502  0.56952918790E+03 -0.47449045999E+02 -0.57325223103E+03  0.80946466162E+03  0.10100000352E+00 0.  1.
</event>
<event>
 5   0  0.8947674E-07  0.2900610E+04  0.7818609E-02  0.8272696E-01
        1   -1    0    0  501    0  0.00000000000E+00  0.00000000000E+00  0.13514397539E+04  0.13514397539E+04  0.50400001928E-02 0. -1.
       -1   -1    0    0    0  501  0.00000000000E+00  0.00000000000E+00 -0.15564025445E+04  0.15564025445E+04  0.50400001928E-02 0.  1.
    10030    2    1    2    0    0  0.00000000000E+00  0.00000000000E+00 -0.20496279064E+03  0.29078422984E+04  0.29006097785E+04 0.  0.
        3    1    3    3  502    0 -0.43446710543E+03 -0.22767477908E+03 -0.14707240261E+04  0.15503633903E+04  0.10100000352E+00 0.  1.
       -3    1    3    3    0  502  0.43446710543E+03  0.22767477908E+03  0.12657612355E+04  0.13574789082E+04  0.10100000352E+00 0. -1.
</event>
<event>
 5   0  0.2360103E-06  0.2900690E+04  0.7818609E-02  0.8272672E-01
       -2   -1    0    0    0  501  0.00000000000E+00  0.00000000000E+00  0.10759477142E+04  0.10759477142E+04  0.25500000920E-02 0. -1.
        2   -1    0    0  501    0  0.00000000000E+00  0.00000000000E+00 -0.19550212335E+04  0.19550212335E+04  0.25500000920E-02 0.  1.
    10030    2    1    2    0    0  0.00000000000E+00  0.00000000000E+00 -0.87907351928E+03  0.30309689477E+04  0.29006900058E+04 0.  0.
        4    1    3    3  502    0 -0.65882498711E+03 -0.11129083105E+04  0.24636232452E+03  0.13165528015E+04  0.12699999809E+01 0. -1.
       -4    1    3    3    0  502  0.65882498711E+03  0.11129083105E+04 -0.11254358438E+04  0.17144161463E+04  0.12699999809E+01 0.  1.
</event>
<event>
 5   0  0.2425845E-06  0.2896691E+04  0.7818609E-02  0.8273863E-01
       -2   -1    0    0    0  501  0.00000000000E+00  0.00000000000E+00  0.16796992737E+04  0.16796992737E+04  0.25500000920E-02 0. -1.
        2   -1    0    0  501    0  0.00000000000E+00  0.00000000000E+00 -0.12488568683E+04  0.12488568683E+04  0.25500000920E-02 0.  1.
    10030    2    1    2    0    0  0.00000000000E+00  0.00000000000E+00  0.43084240536E+03  0.29285561420E+04  0.28966905079E+04 0.  0.
        2    1    3    3  502    0  0.13978123713E+04  0.26316710478E+03  0.49149590391E+03  0.15048935424E+04  0.25500000920E-02 0.  1.
       -2    1    3    3    0  502 -0.13978123713E+04 -0.26316710478E+03 -0.60653498546E+02  0.14236625996E+04  0.25500000920E-02 0. -1.
</event>
<event>
 5   0  0.8947674E-07  0.2993445E+04  0.7818609E-02  0.8245605E-01
        1   -1    0    0  501    0  0.00000000000E+00  0.00000000000E+00  0.12907455623E+04  0.12907455623E+04  0.50400001928E-02 0. -1.
       -1   -1    0    0    0  501  0.00000000000E+00  0.00000000000E+00 -0.17355694458E+04  0.17355694458E+04  0.50400001928E-02 0.  1.
    10030    2    1    2    0    0  0.00000000000E+00  0.00000000000E+00 -0.44482388356E+03  0.30263150081E+04  0.29934452126E+04 0.  0.
        3    1    3    3  502    0  0.50557067386E+03  0.10121089329E+04 -0.12130761254E+04  0.16587705973E+04  0.10100000352E+00 0.  1.
       -3    1    3    3    0  502 -0.50557067386E+03 -0.10121089329E+04  0.76825224182E+03  0.13675444108E+04  0.10100000352E+00 0. -1.
</event>
<event>
 5   0  0.2378690E-06  0.2899521E+04  0.7818609E-02  0.8273020E-01
        2   -1    0    0  501    0  0.00000000000E+00  0.00000000000E+00  0.17022532233E+04  0.17022532233E+04  0.25500000920E-02 0.  1.
       -2   -1    0    0    0  501  0.00000000000E+00  0.00000000000E+00 -0.12347194590E+04  0.12347194590E+04  0.25500000920E-02 0. -1.
    10030    2    1    2    0    0  0.00000000000E+00  0.00000000000E+00  0.46753376435E+03  0.29369726823E+04  0.28995207734E+04 0.  0.
        3    1    3    3  502    0  0.68785485523E+03  0.85350092145E+03  0.11948091163E+04  0.16214736999E+04  0.10100000352E+00 0.  1.
       -3    1    3    3    0  502 -0.68785485523E+03 -0.85350092145E+03 -0.72727535199E+03  0.13154989824E+04  0.10100000352E+00 0. -1.
</event>
<event>
 5   0  0.8357118E-07  0.2892281E+04  0.7818609E-02  0.8275178E-01
        1   -1    0    0  501    0  0.00000000000E+00  0.00000000000E+00  0.18911265573E+04  0.18911265573E+04  0.50400001928E-02 0. -1.
       -1   -1    0    0    0  501  0.00000000000E+00  0.00000000000E+00 -0.11058606463E+04  0.11058606463E+04  0.50400001928E-02 0.  1.
    10030    2    1    2    0    0  0.00000000000E+00  0.00000000000E+00  0.78526591100E+03  0.29969872036E+04  0.28922810631E+04 0.  0.
        1    1    3    3  502    0 -0.12915631823E+04  0.39146856199E+03  0.93099879083E+03  0.16395553780E+04  0.50400001928E-02 0. -1.
       -1    1    3    3    0  502  0.12915631823E+04 -0.39146856199E+03 -0.14573287983E+03  0.13574318256E+04  0.50400001928E-02 0.  1.
</event>
<event>
 5   0  0.8355946E-07  0.2892007E+04  0.7818609E-02  0.8275260E-01
        1   -1    0    0  501    0  0.00000000000E+00  0.00000000000E+00  0.17933470976E+04  0.17933470976E+04  0.50400001928E-02 0.  1.
       -1   -1    0    0    0  501  0.00000000000E+00  0.00000000000E+00 -0.11659351258E+04  0.11659351259E+04  0.50400001928E-02 0. -1.
    10030    2    1    2    0    0  0.00000000000E+00  0.00000000000E+00  0.62741197173E+03  0.29592822234E+04  0.28920071742E+04 0.  0.
        4    1    3    3  502    0  0.10495637608E+04 -0.26301226957E+03 -0.66786096209E+03  0.12715342778E+04  0.12699999809E+01 0. -1.
       -4    1    3    3    0  502 -0.10495637608E+04  0.26301226957E+03  0.12952729338E+04  0.16877479456E+04  0.12699999809E+01 0.  1.
</event>
<event>
 5   0  0.8263673E-07  0.2897345E+04  0.7818609E-02  0.8273668E-01
        1   -1    0    0  501    0  0.00000000000E+00  0.00000000000E+00  0.17894341200E+04  0.17894341200E+04  0.50400001928E-02 0.  1.
       -1   -1    0    0    0  501  0.00000000000E+00  0.00000000000E+00 -0.11728017120E+04  0.11728017120E+04  0.50400001928E-02 0. -1.
    10030    2    1    2    0    0  0.00000000000E+00  0.00000000000E+00  0.61663240796E+03  0.29622358320E+04  0.28973445770E+04 0.  0.
        5    1    3    3  502    0 -0.12646512696E+04 -0.33609816063E+03 -0.32715461084E+03  0.13488354372E+04  0.46999998093E+01 0. -1.
       -5    1    3    3    0  502  0.12646512696E+04  0.33609816063E+03  0.94378701880E+03  0.16134003948E+04  0.46999998093E+01 0.  1.
</event>
<event>
 5   0  0.2378690E-06  0.2891423E+04  0.7818609E-02  0.8275434E-01
        2   -1    0    0  501    0  0.00000000000E+00  0.00000000000E+00  0.21562171235E+04  0.21562171235E+04  0.25500000920E-02 0.  1.
       -2   -1    0    0    0  501  0.00000000000E+00  0.00000000000E+00 -0.96932807254E+03  0.96932807254E+03  0.25500000920E-02 0. -1.
    10030    2    1    2    0    0  0.00000000000E+00  0.00000000000E+00  0.11868890509E+04  0.31255451960E+04  0.28914230325E+04 0.  0.
        3    1    3    3  502    0 -0.90843951726E+03  0.71188776701E+03 -0.34770546410E+03  0.12053819516E+04  0.10100000352E+00 0.  1.
       -3    1    3    3    0  502  0.90843951726E+03 -0.71188776701E+03  0.15345945150E+04  0.19201632444E+04  0.10100000352E+00 0. -1.
</event>
<event>
 5   0  0.8357118E-07  0.2903162E+04  0.7818609E-02  0.8271937E-01
        1   -1    0    0  501    0  0.00000000000E+00  0.00000000000E+00  0.16795333582E+04  0.16795333583E+04  0.50400001928E-02 0. -1.
       -1   -1    0    0    0  501  0.00000000000E+00  0.00000000000E+00 -0.12545669858E+04  0.12545669858E+04  0.50400001928E-02 0.  1.
    10030    2    1    2    0    0  0.00000000000E+00  0.00000000000E+00  0.42496637243E+03  0.29341003441E+04  0.29031617956E+04 0.  0.
        1    1    3    3  502    0  0.26821164382E+03 -0.13222593649E+04  0.75370836500E+03  0.15454396182E+04  0.50400001928E-02 0. -1.
       -1    1    3    3    0  502 -0.26821164382E+03  0.13222593649E+04 -0.32874199257E+03  0.13886607259E+04  0.50400001928E-02 0.  1.
</event>
<event>
 5   0  0.2304435E-06  0.2877112E+04  0.7818609E-02  0.8279720E-01
       -2   -1    0    0    0  501  0.00000000000E+00  0.00000000000E+00  0.17885793312E+04  0.17885793312E+04  0.25500000920E-02 0. -1.
        2   -1    0    0  501    0  0.00000000000E+00  0.00000000000E+00 -0.11570319509E+04  0.11570319509E+04  0.25500000920E-02 0.  1.
    10030    2    1    2    0    0  0.00000000000E+00  0.00000000000E+00  0.63154738029E+03  0.29456112821E+04  0.28771120472E+04 0.  0.
        1    1    3    3  502    0  0.90949749705E+02  0.95379836311E+03 -0.78282572632E+03  0.12372628226E+04  0.50400001928E-02 0.  1.
       -1    1    3    3    0  502 -0.90949749705E+02 -0.95379836311E+03  0.14143731066E+04  0.17083484595E+04  0.50400001928E-02 0. -1.
</event>
<event>
 5   0  0.8355946E-07  0.2905578E+04  0.7818609E-02  0.8271220E-01
       -1   -1    0    0    0  501  0.00000000000E+00  0.00000000000E+00  0.11452713707E+04  0.11452713707E+04  0.50400001928E-02 0.  1.
        1   -1    0    0  501    0  0.00000000000E+00  0.00000000000E+00 -0.18428779129E+04  0.18428779129E+04  0.50400001928E-02 0. -1.
    10030    2    1    2    0    0  0.00000000000E+00  0.00000000000E+00 -0.69760654213E+03  0.29881492836E+04  0.29055776110E+04 0.  0.
        4    1    3    3  502    0 -0.24117640463E+03  0.90211887676E+03 -0.14933590337E+04  0.17612800295E+04  0.12699999809E+01 0. -1.
       -4    1    3    3    0  502  0.24117640463E+03 -0.90211887676E+03  0.79575249155E+03  0.12268692541E+04  0.12699999809E+01 0.  1.
</event>
<event>
 5   0  0.8263673E-07  0.2861058E+04  0.7818609E-02  0.8284559E-01
       -1   -1    0    0    0  501  0.00000000000E+00  0.00000000000E+00  0.16853375879E+04  0.16853375880E+04  0.50400001928E-02 0.  1.
        1   -1    0    0  501    0  0.00000000000E+00  0.00000000000E+00 -0.12142451946E+04  0.12142451946E+04  0.50400001928E-02 0. -1.
    10030    2    1    2    0    0  0.00000000000E+00  0.00000000000E+00  0.47109239333E+03  0.28995827826E+04  0.28610578935E+04 0.  0.
        5    1    3    3  502    0  0.48790854794E+03  0.29108430959E+03 -0.10949936465E+04  0.12336198776E+04  0.46999998093E+01 0. -1.
       -5    1    3    3    0  502 -0.48790854794E+03 -0.29108430959E+03  0.15660860399E+04  0.16659629050E+04  0.46999998093E+01 0.  1.
</event>
<event>
 5   0  0.8483636E-07  0.2895702E+04  0.7818609E-02  0.8274157E-01
        1   -1    0    0  501    0  0.00000000000E+00  0.00000000000E+00  0.19508793907E+04  0.19508793907E+04  0.50400001928E-02 0.  1.
       -1   -1    0    0    0  501  0.00000000000E+00  0.00000000000E+00 -0.10745268457E+04  0.10745268457E+04  0.50400001928E-02 0. -1.
    10030    2    1    2    0    0  0.00000000000E+00  0.00000000000E+00  0.87635254505E+03  0.30254062364E+04  0.28957018341E+04 0.  0.
        2    1    3    3  502    0 -0.70066358605E+03 -0.12180502100E+04  0.80265224733E+03  0.16182788403E+04  0.25500000920E-02 0. -1.
       -2    1    3    3    0  502  0.70066358605E+03  0.12180502100E+04  0.73700297722E+02  0.14071273961E+04  0.25500000920E-02 0.  1.
</event>
<event>
 5   0  0.8355946E-07  0.2760599E+04  0.7818609E-02  0.8315606E-01
       -1   -1    0    0    0  501  0.00000000000E+00  0.00000000000E+00  0.81724610763E+03  0.81724610764E+03  0.50400001928E-02 0. -1.
        1   -1    0    0  501    0  0.00000000000E+00  0.00000000000E+00 -0.23312761822E+04  0.23312761822E+04  0.50400001928E-02 0.  1.
    10030    2    1    2    0    0  0.00000000000E+00  0.00000000000E+00 -0.15140300746E+04  0.31485222898E+04  0.27605987653E+04 0.  0.
        4    1    3    3  502    0  0.78884085319E+03 -0.53649370090E+03 -0.18947556456E+04  0.21213665295E+04  0.12699999809E+01 0.  1.
       -4    1    3    3    0  502 -0.78884085319E+03  0.53649370090E+03  0.38072557105E+03  0.10271557604E+04  0.12699999809E+01 0. -1.
</event>
<event>
 5   0  0.8263673E-07  0.2892353E+04  0.7818609E-02  0.8275156E-01
       -1   -1    0    0    0  501  0.00000000000E+00  0.00000000000E+00  0.12819962460E+04  0.12819962460E+04  0.50400001928E-02 0.  1.
        1   -1    0    0  501    0  0.00000000000E+00  0.00000000000E+00 -0.16313824837E+04  0.16313824837E+04  0.50400001928E-02 0. -1.
    10030    2    1    2    0    0  0.00000000000E+00  0.00000000000E+00 -0.34938623773E+03  0.29133787297E+04  0.28923528277E+04 0.  0.
        5    1    3    3  502    0 -0.58649487016E+03  0.12571200771E+04  0.23702883129E+03  0.14073137098E+04  0.46999998093E+01 0.  1.
       -5    1    3    3    0  502  0.58649487016E+03 -0.12571200771E+04 -0.58641506902E+03  0.15060650199E+04  0.46999998093E+01 0. -1.
</event>
<event>
 5   0  0.2425845E-06  0.2910157E+04  0.7818609E-02  0.8269862E-01
       -2   -1    0    0    0  501  0.00000000000E+00  0.00000000000E+00  0.18871594603E+04  0.18871594603E+04  0.25500000920E-02 0. -1.
        2   -1    0    0  501    0  0.00000000000E+00  0.00000000000E+00 -0.11219262008E+04  0.11219262008E+04  0.25500000920E-02 0.  1.
    10030    2    1    2    0    0  0.00000000000E+00  0.00000000000E+00  0.76523325947E+03  0.30090856611E+04  0.29101571391E+04 0.  0.
        2    1    3    3  502    0  0.73989001764E+03  0.10268892935E+03 -0.90854010874E+03  0.11761918991E+04  0.25500000920E-02 0.  1.
       -2    1    3    3    0  502 -0.73989001764E+03 -0.10268892935E+03  0.16737733682E+04  0.18328937619E+04  0.25500000920E-02 0. -1.
</event>
<event>
 5   0  0.8357118E-07  0.2893184E+04  0.7818609E-02  0.8274908E-01
        1   -1    0    0  501    0  0.00000000000E+00  0.00000000000E+00  0.16776107920E+04  0.16776107921E+04  0.50400001928E-02 0.  1.
       -1   -1    0    0    0  501  0.00000000000E+00  0.00000000000E+00 -0.12473862219E+04  0.12473862219E+04  0.50400001928E-02 0. -1.
    10030    2    1    2    0    0  0.00000000000E+00  0.00000000000E+00  0.43022457019E+03  0.29249970139E+04  0.28931841197E+04 0.  0.
        1    1    3    3  502    0  0.67854513583E+03 -0.12594460793E+04 -0.17237135544E+01  0.14306050815E+04  0.50400001928E-02 0. -1.
       -1    1    3    3    0  502 -0.67854513583E+03  0.12594460793E+04  0.43194828375E+03  0.14943919324E+04  0.50400001928E-02 0.  1.
</event>
<event>
 5   0  0.8357118E-07  0.2891389E+04  0.7818609E-02  0.8275444E-01
        1   -1    0    0  501    0  0.00000000000E+00  0.00000000000E+00  0.34600122069E+04  0.34600122069E+04  0.50400001928E-02 0. -1.
       -1   -1    0    0    0  501  0.00000000000E+00  0.00000000000E+00 -0.60405338710E+03  0.60405338712E+03  0.50400001928E-02 0.  1.
    10030    2    1    2    0    0  0.00000000000E+00  0.00000000000E+00  0.28559588198E+04  0.40640655940E+04  0.28913886581E+04 0.  0.
        1    1    3    3  502    0  0.10223316810E+04 -0.10167504277E+04  0.12799689210E+04  0.19280207304E+04  0.50400001928E-02 0. -1.
       -1    1    3    3    0  502 -0.10223316810E+04  0.10167504277E+04  0.15759898988E+04  0.21360448636E+04  0.50400001928E-02 0.  1.
</event>
<event>
 5   0  0.8357118E-07  0.2860991E+04  0.7818609E-02  0.8284579E-01
        1   -1    0    0  501    0  0.00000000000E+00  0.00000000000E+00  0.14173535423E+04  0.14173535423E+04  0.50400001928E-02 0. -1.
       -1   -1    0    0    0  501  0.00000000000E+00  0.00000000000E+00 -0.14437597910E+04  0.14437597910E+04  0.50400001928E-02 0.  1.
    10030    2    1    2    0    0  0.00000000000E+00  0.00000000000E+00 -0.26406248691E+02  0.28611133333E+04  0.28609914743E+04 0.  0.
        1    1    3    3  502    0 -0.11561955172E+04  0.81582268753E+03  0.19648013121E+03  0.14286214241E+04  0.50400001928E-02 0. -1.
       -1    1    3    3    0  502  0.11561955172E+04 -0.81582268753E+03 -0.22288637990E+03  0.14324919092E+04  0.50400001928E-02 0.  1.
</event>
<event>
 5   0  0.2360103E-06  0.2899973E+04  0.7818609E-02  0.8272885E-01
       -2   -1    0    0    0  501  0.00000000000E+00  0.00000000000E+00  0.14168084236E+04  0.14168084236E+04  0.25500000920E-02 0. -1.
        2   -1    0    0  501    0  0.00000000000E+00  0.00000000000E+00 -0.14839418288E+04  0.14839418288E+04  0.25500000920E-02 0.  1.
    10030    2    1    2    0    0  0.00000000000E+00  0.00000000000E+00 -0.67133405157E+02  0.29007502524E+04  0.28999732986E+04 0.  0.
        4    1    3    3  502    0  0.17609364091E+03 -0.44385614014E+03  0.13359028858E+04  0.14186808579E+04  0.12699999809E+01 0. -1.
       -4    1    3    3    0  502 -0.17609364091E+03  0.44385614014E+03 -0.14030362909E+04  0.14820693945E+04  0.12699999809E+01 0.  1.
</event>
<event>
 5   0  0.8947674E-07  0.2911569E+04  0.7818609E-02  0.8269444E-01
       -1   -1    0    0    0  501  0.00000000000E+00  0.00000000000E+00  0.11253304007E+04  0.11253304007E+04  0.50400001928E-02 0.  1.
        1   -1    0    0  501    0  0.00000000000E+00  0.00000000000E+00 -0.18832764399E+04  0.18832764399E+04  0.50400001928E-02 0. -1.
    10030    2    1    2    0    0  0.00000000000E+00  0.00000000000E+00 -0.75794603917E+03  0.30086068406E+04  0.29115688079E+04 0.  0.
        3    1    3    3  502    0  0.10663334882E+04  0.21583785387E+03 -0.13785040536E+04  0.17561111933E+04  0.10100000352E+00 0. -1.
       -3    1    3    3    0  502 -0.10663334882E+04 -0.21583785387E+03  0.62055801443E+03  0.12524956474E+04  0.10100000352E+00 0.  1.
</event>
<event>
 5   0  0.2360103E-06  0.2892792E+04  0.7818609E-02  0.8275025E-01
        2   -1    0    0  501    0  0.00000000000E+00  0.00000000000E+00  0.19108376307E+04  0.19108376307E+04  0.25500000920E-02 0.  1.
       -2   -1    0    0    0  501  0.00000000000E+00  0.00000000000E+00 -0.10948398349E+04  0.10948398349E+04  0.25500000920E-02 0. -1.
    10030    2    1    2    0    0  0.00000000000E+00  0.00000000000E+00  0.81599779581E+03  0.30056774655E+04  0.28927918391E+04 0.  0.
        4    1    3    3  502    0  0.74671819677E+03  0.53171239186E+03  0.15704764716E+04  0.18184345173E+04  0.12699999809E+01 0.  1.
       -4    1    3    3    0  502 -0.74671819677E+03 -0.53171239186E+03 -0.75447867577E+03  0.11872429482E+04  0.12699999809E+01 0. -1.
</event>
<event>
 5   0  0.2378690E-06  0.2915496E+04  0.7818609E-02  0.8268282E-01
        2   -1    0    0  501    0  0.00000000000E+00  0.00000000000E+00  0.17885122121E+04  0.17885122121E+04  0.25500000920E-02 0. -1.
       -2   -1    0    0    0  501  0.00000000000E+00  0.00000000000E+00 -0.11881548806E+04  0.11881548806E+04  0.25500000920E-02 0.  1.
    10030    2    1    2    0    0  0.00000000000E+00  0.00000000000E+00  0.60035733155E+03  0.29766670927E+04  0.29154961937E+04 0.  0.
        3    1    3    3  502    0 -0.31191925528E+03  0.50318150558E+03  0.16602484891E+04  0.17626429886E+04  0.10100000352E+00 0. -1.
       -3    1    3    3    0  502  0.31191925528E+03 -0.50318150558E+03 -0.10598911576E+04  0.12140241042E+04  0.10100000352E+00 0.  1.
</event>
<event>
 5   0  0.2304435E-06  0.2901211E+04  0.7818609E-02  0.8272517E-01
        2   -1    0    0  501    0  0.00000000000E+00  0.00000000000E+00  0.17961011046E+04  0.17961011046E+04  0.25500000920E-02 0. -1.
       -2   -1    0    0    0  501  0.00000000000E+00  0.00000000000E+00 -0.11715688329E+04  0.11715688329E+04  0.25500000920E-02 0.  1.
    10030    2    1    2    0    0  0.00000000000E+00  0.00000000000E+00  0.62453227164E+03  0.29676699375E+04  0.29012108334E+04 0.  0.
        1    1    3    3  502    0 -0.12836238489E+04  0.61886578283E+03  0.34812940056E+02  0.14254462401E+04  0.50400001928E-02 0. -1.
       -1    1    3    3    0  502  0.12836238489E+04 -0.61886578283E+03  0.58971933159E+03  0.15422236974E+04  0.50400001928E-02 0.  1.
</event>
<event>
 5   0  0.2360103E-06  0.2903664E+04  0.7818609E-02  0.8271788E-01
        2   -1    0    0  501    0  0.00000000000E+00  0.00000000000E+00  0.19071026133E+04  0.19071026133E+04  0.25500000920E-02 0. -1.
       -2   -1    0    0    0  501  0.00000000000E+00  0.00000000000E+00 -0.11052455510E+04  0.11052455510E+04  0.25500000920E-02 0.  1.
    10030    2    1    2    0    0  0.00000000000E+00  0.00000000000E+00  0.80185706229E+03  0.30123481643E+04  0.29036643598E+04 0.  0.
        4    1    3    3  502    0 -0.21973717982E+03 -0.43444490172E+03 -0.10180344658E+04  0.11284602728E+04  0.12699999809E+01 0.  1.
       -4    1    3    3    0  502  0.21973717982E+03  0.43444490172E+03  0.18198915281E+04  0.18838878915E+04  0.12699999809E+01 0. -1.
</event>
<event>
 5   0  0.8947674E-07  0.2843106E+04  0.7818609E-02  0.8290009E-01
        1   -1    0    0  501    0  0.00000000000E+00  0.00000000000E+00  0.11918052466E+04  0.11918052466E+04  0.50400001928E-02 0. -1.
       -1   -1    0    0    0  501  0.00000000000E+00  0.00000000000E+00 -0.16955902097E+04  0.16955902097E+04  0.50400001928E-02 0.  1.
    10030    2    1    2    0    0  0.00000000000E+00  0.00000000000E+00 -0.50378496309E+03  0.28873954563E+04  0.28431062646E+04 0.  0.
        3    1    3    3  502    0 -0.20562287173E+03  0.57338709308E+03 -0.15563307505E+04  0.16712925953E+04  0.10100000352E+00 0.  1.
       -3    1    3    3    0  502  0.20562287173E+03 -0.57338709308E+03  0.10525457874E+04  0.12161028610E+04  0.10100000352E+00 0. -1.
</event>
<event>
 5   0  0.2378690E-06  0.2910894E+04  0.7818609E-02  0.8269644E-01
       -2   -1    0    0    0  501  0.00000000000E+00  0.00000000000E+00  0.12284642770E+04  0.12284642770E+04  0.25500000920E-02 0. -1.
        2   -1    0    0  501    0  0.00000000000E+00  0.00000000000E+00 -0.17243692301E+04  0.17243692301E+04  0.25500000920E-02 0.  1.
    10030    2    1    2    0    0  0.00000000000E+00  0.00000000000E+00 -0.49590495306E+03  0.29528335071E+04  0.29108940205E+04 0.  0.
        3    1    3    3  502    0 -0.12846521952E+04 -0.53489804296E+03 -0.68056951387E+03  0.15490713516E+04  0.10100000352E+00 0.  1.
       -3    1    3    3    0  502  0.12846521952E+04  0.53489804296E+03  0.18466456081E+03  0.14037621555E+04  0.10100000352E+00 0. -1.
</event>
<event>
 5   0  0.8947674E-07  0.2901583E+04  0.7818609E-02  0.8272407E-01
        1   -1    0    0  501    0  0.00000000000E+00  0.00000000000E+00  0.21659949934E+04  0.21659949934E+04  0.50400001928E-02 0. -1.
       -1   -1    0    0    0  501  0.00000000000E+00  0.00000000000E+00 -0.97174566461E+03  0.97174566463E+03  0.50400001928E-02 0.  1.
    10030    2    1    2    0    0  0.00000000000E+00  0.00000000000E+00  0.11942493288E+04  0.31377406581E+04  0.29015831847E+04 0.  0.
        3    1    3    3  502    0  0.14481214731E+04 -0.23354954314E+02  0.50539774639E+03  0.15339583263E+04  0.10100000352E+00 0.  1.
       -3    1    3    3    0  502 -0.14481214731E+04  0.23354954314E+02  0.68885158244E+03  0.16037823317E+04  0.10100000352E+00 0. -1.
</event>
<event>
 5   0  0.2360103E-06  0.2895729E+04  0.7818609E-02  0.8274149E-01
        2   -1    0    0  501    0  0.00000000000E+00  0.00000000000E+00  0.14696780519E+04  0.14696780519E+04  0.25500000920E-02 0. -1.
       -2   -1    0    0    0  501  0.00000000000E+00  0.00000000000E+00 -0.14263746648E+04  0.14263746648E+04  0.25500000920E-02 0.  1.
    10030    2    1    2    0    0  0.00000000000E+00  0.00000000000E+00  0.43303387030E+02  0.28960527167E+04  0.28957289505E+04 0.  0.
        4    1    3    3  502    0 -0.32498412016E+03 -0.14931999485E+03 -0.13815015331E+04  0.14270456328E+04  0.12699999809E+01 0.  1.
       -4    1    3    3    0  502  0.32498412016E+03  0.14931999485E+03  0.14248049201E+04  0.14690070839E+04  0.12699999809E+01 0. -1.
</event>
<event>
 5   0  0.2425845E-06  0.2910107E+04  0.7818609E-02  0.8269877E-01
       -2   -1    0    0    0  501  0.00000000000E+00  0.00000000000E+00  0.15741565112E+04  0.15741565112E+04  0.25500000920E-02 0. -1.
        2   -1    0    0  501    0  0.00000000000E+00  0.00000000000E+00 -0.13449618074E+04  0.13449618074E+04  0.25500000920E-02 0.  1.
    10030    2    1    2    0    0  0.00000000000E+00  0.00000000000E+00  0.22919470379E+03  0.29191183186E+04  0.29101067928E+04 0.  0.
        2    1    3    3  502    0 -0.77491403270E+03  0.29626246109E+03 -0.10844775173E+04  0.13654137430E+04  0.25500000920E-02 0.  1.
       -2    1    3    3    0  502  0.77491403270E+03 -0.29626246109E+03  0.13136722211E+04  0.15537045756E+04  0.25500000920E-02 0. -1.
</event>
<event>
 5   0  0.2304435E-06  0.2904369E+04  0.7818609E-02  0.8271579E-01
       -2   -1    0    0    0  501  0.00000000000E+00  0.00000000000E+00  0.14413766408E+04  0.14413766408E+04  0.25500000920E-02 0.  1.
        2   -1    0    0  501    0  0.00000000000E+00  0.00000000000E+00 -0.14630730970E+04  0.14630730970E+04  0.25500000920E-02 0. -1.
    10030    2    1    2    0    0  0.00000000000E+00  0.00000000000E+00 -0.21696456230E+02  0.29044497378E+04  0.29043686996E+04 0.  0.
        1    1    3    3  502    0  0.11860822691E+04  0.70355804241E+03  0.44419668444E+03  0.14488256495E+04  0.50400001928E-02 0.  1.
       -1    1    3    3    0  502 -0.11860822691E+04 -0.70355804241E+03 -0.46589314067E+03  0.14556240883E+04  0.50400001928E-02 0. -1.
</event>
<event>
 5   0  0.2378690E-06  0.2902500E+04  0.7818609E-02  0.8272134E-01
        2   -1    0    0  501    0  0.00000000000E+00  0.00000000000E+00  0.30781743088E+04  0.30781743088E+04  0.25500000920E-02 0.  1.
       -2   -1    0    0    0  501  0.00000000000E+00  0.00000000000E+00 -0.68421302954E+03  0.68421302954E+03  0.25500000920E-02 0. -1.
    10030    2    1    2    0    0  0.00000000000E+00  0.00000000000E+00  0.23939612793E+04  0.37623873383E+04  0.29025002803E+04 0.  0.
        3    1    3    3  502    0  0.95773591849E+03 -0.46836365656E+03  0.24733198633E+04  0.26933127856E+04  0.10100000352E+00 0.  1.
       -3    1    3    3    0  502 -0.95773591849E+03  0.46836365656E+03 -0.79358584059E+02  0.10690745528E+04  0.10100000352E+00 0. -1.
</event>
<event>
 5   0  0.2425845E-06  0.2902247E+04  0.7818609E-02  0.8272209E-01
        2   -1    0    0  501    0  0.00000000000E+00  0.00000000000E+00  0.14141011828E+04  0.14141011828E+04  0.25500000920E-02 0.  1.
       -2   -1    0    0    0  501  0.00000000000E+00  0.00000000000E+00 -0.14891154102E+04  0.14891154102E+04  0.25500000920E-02 0. -1.
    10030    2    1    2    0    0  0.00000000000E+00  0.00000000000E+00 -0.75014227458E+02  0.29032165930E+04  0.29022473106E+04 0.  0.
        2    1    3    3  502    0 -0.86150657741E+03  0.23192923665E+03 -0.11823434005E+04  0.14811889381E+04  0.25500000920E-02 0. -1.
       -2    1    3    3    0  502  0.86150657741E+03 -0.23192923665E+03  0.11073291731E+04  0.14220276549E+04  0.25500000920E-02 0.  1.
</event>
<event>
 5   0  0.8355946E-07  0.2907357E+04  0.7818609E-02  0.8270692E-01
        1   -1    0    0  501    0  0.00000000000E+00  0.00000000000E+00  0.16508853792E+04  0.16508853792E+04  0.50400001928E-02 0. -1.
       -1   -1    0    0    0  501  0.00000000000E+00  0.00000000000E+00 -0.12800287053E+04  0.12800287053E+04  0.50400001928E-02 0.  1.
    10030    2    1    2    0    0  0.00000000000E+00  0.00000000000E+00  0.37085667394E+03  0.29309140845E+04  0.29073566513E+04 0.  0.
        4    1    3    3  502    0 -0.10682140226E+04 -0.47885224787E+03  0.10542692303E+04  0.15753938860E+04  0.12699999809E+01 0. -1.
       -4    1    3    3    0  502  0.10682140226E+04  0.47885224787E+03 -0.68341255635E+03  0.13555201985E+04  0.12699999809E+01 0.  1.
</event>
<event>
 5   0  0.8483636E-07  0.2888476E+04  0.7818609E-02  0.8276314E-01
        1   -1    0    0  501    0  0.00000000000E+00  0.00000000000E+00  0.11479453914E+04  0.11479453914E+04  0.50400001928E-02 0.  1.
       -1   -1    0    0    0  501  0.00000000000E+00  0.00000000000E+00 -0.18170062710E+04  0.18170062711E+04  0.50400001928E-02 0. -1.
    10030    2    1    2    0    0  0.00000000000E+00  0.00000000000E+00 -0.66906087968E+03  0.29649516624E+04  0.28884763977E+04 0.  0.
        2    1    3    3  502    0 -0.10915653669E+04 -0.22492982729E+03 -0.12773896185E+04  0.16952382177E+04  0.25500000920E-02 0. -1.
       -2    1    3    3    0  502  0.10915653669E+04  0.22492982729E+03  0.60832873878E+03  0.12697134447E+04  0.25500000920E-02 0.  1.
</event>
<event>
 5   0  0.8355946E-07  0.2872406E+04  0.7818609E-02  0.8281135E-01
       -1   -1    0    0    0  501  0.00000000000E+00  0.00000000000E+00  0.11230729096E+04  0.11230729096E+04  0.50400001928E-02 0. -1.
        1   -1    0    0  501    0  0.00000000000E+00  0.00000000000E+00 -0.18366386062E+04  0.18366386062E+04  0.50400001928E-02 0.  1.
    10030    2    1    2    0    0  0.00000000000E+00  0.00000000000E+00 -0.71356569653E+03  0.29597115158E+04  0.28724060043E+04 0.  0.
        4    1    3    3  502    0  0.83189806113E+03  0.31062217169E+03 -0.15198682605E+04  0.17602674966E+04  0.12699999809E+01 0.  1.
       -4    1    3    3    0  502 -0.83189806113E+03 -0.31062217169E+03  0.80630256392E+03  0.11994440192E+04  0.12699999809E+01 0. -1.
</event>
<event>
 5   0  0.8263673E-07  0.2896912E+04  0.7818609E-02  0.8273797E-01
       -1   -1    0    0    0  501  0.00000000000E+00  0.00000000000E+00  0.90931742342E+03  0.90931742343E+03  0.50400001928E-02 0. -1.
        1   -1    0    0  501    0  0.00000000000E+00  0.00000000000E+00 -0.23072524574E+04  0.23072524574E+04  0.50400001928E-02 0.  1.
    10030    2    1    2    0    0  0.00000000000E+00  0.00000000000E+00 -0.13979350339E+04  0.32165698808E+04  0.28969120523E+04 0.  0.
        5    1    3    3  502    0 -0.28137540768E+03 -0.14183814723E+04 -0.79202900288E+03  0.16487298604E+04  0.46999998093E+01 0.  1.
       -5    1    3    3    0  502  0.28137540768E+03  0.14183814723E+04 -0.60590603106E+03  0.15678400204E+04  0.46999998093E+01 0. -1.
</event>
<event>
 5   0  0.8263673E-07  0.2903840E+04  0.7818609E-02  0.8271736E-01
        1   -1    0    0  501    0  0.00000000000E+00  0.00000000000E+00  0.23888367554E+04  0.23888367554E+04  0.50400001928E-02 0. -1.
       -1   -1    0    0    0  501  0.00000000000E+00  0.00000000000E+00 -0.88246780391E+03  0.88246780392E+03  0.50400001928E-02 0.  1.
    10030    2    1    2    0    0  0.00000000000E+00  0.00000000000E+00  0.15063689515E+04  0.32713045593E+04  0.29038398891E+04 0.  0.
        5    1    3    3  502    0 -0.13835912879E+04  0.54177122766E+02  0.12452528568E+04  0.18622397214E+04  0.46999998093E+01 0. -1.
       -5    1    3    3    0  502  0.13835912879E+04 -0.54177122766E+02  0.26111609464E+03  0.14090648379E+04  0.46999998093E+01 0.  1.
</event>
<event>
 5   0  0.2378690E-06  0.2900273E+04  0.7818609E-02  0.8272796E-01
       -2   -1    0    0    0  501  0.00000000000E+00  0.00000000000E+00  0.90299451034E+03  0.90299451034E+03  0.25500000920E-02 0.  1.
        2   -1    0    0  501    0  0.00000000000E+00  0.00000000000E+00 -0.23288032116E+04  0.23288032116E+04  0.25500000920E-02 0. -1.
    10030    2    1    2    0    0  0.00000000000E+00  0.00000000000E+00 -0.14258087012E+04  0.32317977219E+04  0.29002734462E+04 0.  0.
        3    1    3    3  502    0 -0.26920494287E+03 -0.39242789200E+03  0.81350456291E+03  0.94247580116E+03  0.10100000352E+00 0.  1.
       -3    1    3    3    0  502  0.26920494287E+03  0.39242789200E+03 -0.22393132641E+04  0.22893219208E+04  0.10100000352E+00 0. -1.
</event>
<event>
 5   0  0.2378690E-06  0.2893973E+04  0.7818609E-02  0.8274673E-01
        2   -1    0    0  501    0  0.00000000000E+00  0.00000000000E+00  0.18179661210E+04  0.18179661210E+04  0.25500000920E-02 0. -1.
       -2   -1    0    0    0  501  0.00000000000E+00  0.00000000000E+00 -0.11517102026E+04  0.11517102026E+04  0.25500000920E-02 0.  1.
    10030    2    1    2    0    0  0.00000000000E+00  0.00000000000E+00  0.66625591841E+03  0.29696763236E+04  0.28939731370E+04 0.  0.
        3    1    3    3  502    0 -0.78961378492E+03  0.75158185850E+03 -0.64329063500E+03  0.12657756794E+04  0.10100000352E+00 0.  1.
       -3    1    3    3    0  502  0.78961378492E+03 -0.75158185850E+03  0.13095465534E+04  0.17039006441E+04  0.10100000352E+00 0. -1.
</event>
<event>
 5   0  0.7621125E-07  0.2902391E+04  0.7818609E-02  0.8272166E-01
        3   -1    0    0  501    0  0.00000000000E+00  0.00000000000E+00  0.16205839851E+04  0.16205839882E+04  0.10100000352E+00 0.  1.
       -3   -1    0    0    0  501  0.00000000000E+00  0.00000000000E+00 -0.12995120493E+04  0.12995120532E+04  0.10100000352E+00 0. -1.
    10030    2    1    2    0    0  0.00000000000E+00  0.00000000000E+00  0.32107193576E+03  0.29200960414E+04  0.29023910321E+04 0.  0.
        2    1    3    3  502    0  0.68372189021E+03 -0.69661680204E+03 -0.91989465997E+03  0.13412519441E+04  0.25500000920E-02 0. -1.
       -2    1    3    3    0  502 -0.68372189021E+03  0.69661680204E+03  0.12409665957E+04  0.15788440974E+04  0.25500000920E-02 0.  1.
</event>
<event>
 5   0  0.2304435E-06  0.2910503E+04  0.7818609E-02  0.8269759E-01
        2   -1    0    0  501    0  0.00000000000E+00  0.00000000000E+00  0.18227150535E+04  0.18227150535E+04  0.25500000920E-02 0. -1.
       -2   -1    0    0    0  501  0.00000000000E+00  0.00000000000E+00 -0.11618697931E+04  0.11618697931E+04  0.25500000920E-02 0.  1.
    10030    2    1    2    0    0  0.00000000000E+00  0.00000000000E+00  0.66084526037E+03  0.29845848466E+04  0.29105034355E+04 0.  0.
        1    1    3    3  502    0  0.70025986137E+03  0.83054455234E+03 -0.66251544830E+03  0.12724365784E+04  0.50400001928E-02 0.  1.
       -1    1    3    3    0  502 -0.70025986137E+03 -0.83054455234E+03  0.13233607087E+04  0.17121482682E+04  0.50400001928E-02 0. -1.
</event>
<event>
 5   0  0.8483636E-07  0.2895606E+04  0.7818609E-02  0.8274186E-01
       -1   -1    0    0    0  501  0.00000000000E+00  0.00000000000E+00  0.84928537785E+03  0.84928537787E+03  0.50400001928E-02 0.  1.
        1   -1    0    0  501    0  0.00000000000E+00  0.00000000000E+00 -0.24681146179E+04  0.24681146179E+04  0.50400001928E-02 0. -1.
    10030    2    1    2    0    0  0.00000000000E+00  0.00000000000E+00 -0.16188292400E+04  0.33173999957E+04  0.28956060891E+04 0.  0.
        2    1    3    3  502    0  0.71868730815E+03  0.48875034503E+03 -0.21359886826E+04  0.23060433644E+04  0.25500000920E-02 0. -1.
       -2    1    3    3    0  502 -0.71868730815E+03 -0.48875034503E+03  0.51715944254E+03  0.10113566313E+04  0.25500000920E-02 0.  1.
</event>
<event>
 5   0  0.2378690E-06  0.2877109E+04  0.7818609E-02  0.8279721E-01
       -2   -1    0    0    0  501  0.00000000000E+00  0.00000000000E+00  0.11857965927E+04  0.11857965927E+04  0.25500000920E-02 0.  1.
        2   -1    0    0  501    0  0.00000000000E+00  0.00000000000E+00 -0.17451889739E+04  0.17451889739E+04  0.25500000920E-02 0. -1.
    10030    2    1    2    0    0  0.00000000000E+00  0.00000000000E+00 -0.55939238118E+03  0.29309855666E+04  0.28771090622E+04 0.  0.
        3    1    3    3  502    0 -0.13368717385E+04  0.48373924581E+03 -0.56018158330E+02  0.14228027788E+04  0.10100000352E+00 0.  1.
       -3    1    3    3    0  502  0.13368717385E+04 -0.48373924581E+03 -0.50337422285E+03  0.15081827878E+04  0.10100000352E+00 0. -1.
</event>
<event>
 5   0  0.2360103E-06  0.2929353E+04  0.7818609E-02  0.8264197E-01
        2   -1    0    0  501    0  0.00000000000E+00  0.00000000000E+00  0.27698567803E+04  0.27698567803E+04  0.25500000920E-02 0.  1.
       -2   -1    0    0    0  501  0.00000000000E+00  0.00000000000E+00 -0.77450858299E+03  0.77450858300E+03  0.25500000920E-02 0. -1.
    10030    2    1    2    0    0  0.00000000000E+00  0.00000000000E+00  0.19953481973E+04  0.35443653633E+04  0.29293534099E+04 0.  0.
        4    1    3    3  502    0  0.46053552250E+03 -0.82552149105E+03 -0.35600714898E+03  0.10101095993E+04  0.12699999809E+01 0. -1.
       -4    1    3    3    0  502 -0.46053552250E+03  0.82552149105E+03  0.23513553463E+04  0.25342557639E+04  0.12699999809E+01 0.  1.
</event>
<event>
 5   0  0.2325590E-06  0.2890322E+04  0.7818609E-02  0.8275763E-01
        2   -1    0    0  501    0  0.00000000000E+00  0.00000000000E+00  0.94380204598E+03  0.94380204598E+03  0.25500000920E-02 0. -1.
       -2   -1    0    0    0  501  0.00000000000E+00  0.00000000000E+00 -0.22128471315E+04  0.22128471315E+04  0.25500000920E-02 0.  1.
    10030    2    1    2    0    0  0.00000000000E+00  0.00000000000E+00 -0.12690450855E+04  0.31566491774E+04  0.28903215393E+04 0.  0.
        5    1    3    3  502    0 -0.93856494831E+02  0.86812735278E+03 -0.18921561030E+04  0.20839220116E+04  0.46999998093E+01 0.  1.
       -5    1    3    3    0  502  0.93856494831E+02 -0.86812735278E+03  0.62311101750E+03  0.10727271659E+04  0.46999998093E+01 0. -1.
</event>
<event>
 5   0  0.8357118E-07  0.2867562E+04  0.7818609E-02  0.8282595E-01
       -1   -1    0    0    0  501  0.00000000000E+00  0.00000000000E+00  0.27623659888E+04  0.27623659888E+04  0.50400001928E-02 0.  1.
        1   -1    0    0  501    0  0.00000000000E+00  0.00000000000E+00 -0.74419090084E+03  0.74419090086E+03  0.50400001928E-02 0. -1.
    10030    2    1    2    0    0  0.00000000000E+00  0.00000000000E+00  0.20181750879E+04  0.35065568896E+04  0.28675617752E+04 0.  0.
        1    1    3    3  502    0 -0.86063702966E+03 -0.75426587344E+03 -0.47172508397E+02  0.11453551197E+04  0.50400001928E-02 0. -1.
       -1    1    3    3    0  502  0.86063702966E+03  0.75426587344E+03  0.20653475963E+04  0.23612017699E+04  0.50400001928E-02 0.  1.
</event>
<event>
 5   0  0.8947674E-07  0.2907699E+04  0.7818609E-02  0.8270590E-01
       -1   -1    0    0    0  501  0.00000000000E+00  0.00000000000E+00  0.26557388438E+04  0.26557388438E+04  0.50400001928E-02 0. -1.
        1   -1    0    0  501    0  0.00000000000E+00  0.00000000000E+00 -0.79589107158E+03  0.79589107159E+03  0.50400001928E-02 0.  1.
    10030    2    1    2    0    0  0.00000000000E+00  0.00000000000E+00  0.18598477722E+04  0.34516299154E+04  0.29076993203E+04 0.  0.
        3    1    3    3  502    0 -0.14780439384E+03 -0.41149770231E+03 -0.71599400650E+03  0.83894214663E+03  0.10100000352E+00 0.  1.
       -3    1    3    3    0  502  0.14780439384E+03  0.41149770231E+03  0.25758417787E+04  0.26126877688E+04  0.10100000352E+00 0. -1.
</event>
<event>
 5   0  0.8355946E-07  0.2894939E+04  0.7818609E-02  0.8274385E-01
       -1   -1    0    0    0  501  0.00000000000E+00  0.00000000000E+00  0.20391848597E+04  0.20391848597E+04  0.50400001928E-02 0. -1.
        1   -1    0    0  501    0  0.00000000000E+00  0.00000000000E+00 -0.10274538679E+04  0.10274538679E+04  0.50400001928E-02 0.  1.
    10030    2    1    2    0    0  0.00000000000E+00  0.00000000000E+00  0.10117309918E+04  0.30666387276E+04  0.28949392888E+04 0.  0.
        4    1    3    3  502    0 -0.79391217134E+03 -0.71479396810E+03  0.15404920994E+04  0.18746584952E+04  0.12699999809E+01 0. -1.
       -4    1    3    3    0  502  0.79391217134E+03  0.71479396810E+03 -0.52876110760E+03  0.11919802324E+04  0.12699999809E+01 0.  1.
</event>
<event>
 5   0  0.8263673E-07  0.2903193E+04  0.7818609E-02  0.8271928E-01
       -1   -1    0    0    0  501  0.00000000000E+00  0.00000000000E+00  0.96849662099E+03  0.96849662101E+03  0.50400001928E-02 0.  1.
        1   -1    0    0  501    0  0.00000000000E+00  0.00000000000E+00 -0.21756737888E+04  0.21756737888E+04  0.50400001928E-02 0. -1.
    10030    2    1    2    0    0  0.00000000000E+00  0.00000000000E+00 -0.12071771678E+04  0.31441704098E+04  0.29031932163E+04 0.  0.
        5    1    3    3  502    0 -0.11210532492E+03  0.56192509382E+03 -0.20480024411E+04  0.21266554737E+04  0.46999998093E+01 0. -1.
       -5    1    3    3    0  502  0.11210532492E+03 -0.56192509382E+03  0.84082527333E+03  0.10175149361E+04  0.46999998093E+01 0.  1.
</event>
<event>
 5   0  0.2378690E-06  0.2901408E+04  0.7818609E-02  0.8272459E-01
        2   -1    0    0  501    0  0.00000000000E+00  0.00000000000E+00  0.13866113967E+04  0.13866113967E+04  0.25500000920E-02 0.  1.
       -2   -1    0    0    0  501  0.00000000000E+00  0.00000000000E+00 -0.15177595944E+04  0.15177595944E+04  0.25500000920E-02 0. -1.
    10030    2    1    2    0    0  0.00000000000E+00  0.00000000000E+00 -0.13114819767E+03  0.29043709911E+04  0.29014084518E+04 0.  0.
        3    1    3    3  502    0 -0.10590414088E+04  0.86586990534E+03  0.41787176245E+03  0.14303552771E+04  0.10100000352E+00 0.  1.
       -3    1    3    3    0  502  0.10590414088E+04 -0.86586990534E+03 -0.54901996012E+03  0.14740157141E+04  0.10100000352E+00 0. -1.
</event>
<event>
 5   0  0.8483636E-07  0.2904045E+04  0.7818609E-02  0.8271675E-01
       -1   -1    0    0    0  501  0.00000000000E+00  0.00000000000E+00  0.14946851081E+04  0.14946851081E+04  0.50400001928E-02 0.  1.
        1   -1    0    0  501    0  0.00000000000E+00  0.00000000000E+00 -0.14105773461E+04  0.14105773461E+04  0.50400001928E-02 0. -1.
    10030    2    1    2    0    0  0.00000000000E+00  0.00000000000E+00  0.84107762028E+02  0.29052624542E+04  0.29040447332E+04 0.  0.
        2    1    3    3  502    0 -0.62852117445E+03 -0.16347448037E+03 -0.12571847149E+04  0.14150180846E+04  0.25500000920E-02 0. -1.
       -2    1    3    3    0  502  0.62852117445E+03  0.16347448037E+03  0.13412924769E+04  0.14902443696E+04  0.25500000920E-02 0.  1.
</event>
<event>
 5   0  0.8355946E-07  0.2901656E+04  0.7818609E-02  0.8272385E-01
        1   -1    0    0  501    0  0.00000000000E+00  0.00000000000E+00  0.24287514878E+04  0.24287514878E+04  0.50400001928E-02 0. -1.
       -1   -1    0    0    0  501  0.00000000000E+00  0.00000000000E+00 -0.86666029071E+03  0.86666029073E+03  0.50400001928E-02 0.  1.
    10030    2    1    2    0    0  0.00000000000E+00  0.00000000000E+00  0.15620911971E+04  0.32954117786E+04  0.29016564032E+04 0.  0.
        4    1    3    3  502    0  0.65041254814E+03 -0.84846631379E+03 -0.33284954063E+03  0.11196972796E+04  0.12699999809E+01 0.  1.
       -4    1    3    3    0  502 -0.65041254814E+03  0.84846631379E+03  0.18949407377E+04  0.21757144989E+04  0.12699999809E+01 0. -1.
</event>
<event>
 5   0  0.8947674E-07  0.2898131E+04  0.7818609E-02  0.8273434E-01
       -1   -1    0    0    0  501  0.00000000000E+00  0.00000000000E+00  0.97439387763E+03  0.97439387765E+03  0.50400001928E-02 0. -1.
        1   -1    0    0  501    0  0.00000000000E+00  0.00000000000E+00 -0.21549710791E+04  0.21549710791E+04  0.50400001928E-02 0.  1.
    10030    2    1    2    0    0  0.00000000000E+00  0.00000000000E+00 -0.11805772015E+04  0.31293649567E+04  0.28981308638E+04 0.  0.
        3    1    3    3  502    0  0.13030225760E+04 -0.63376012055E+03 -0.57251660296E+03  0.15579778544E+04  0.10100000352E+00 0. -1.
       -3    1    3    3    0  502 -0.13030225760E+04  0.63376012055E+03 -0.60806059850E+03  0.15713871024E+04  0.10100000352E+00 0.  1.
</event>
<event>
 5   0  0.8355946E-07  0.2970755E+04  0.7818609E-02  0.8252131E-01
        1   -1    0    0  501    0  0.00000000000E+00  0.00000000000E+00  0.21800638868E+04  0.21800638868E+04  0.50400001928E-02 0.  1.
       -1   -1    0    0    0  501  0.00000000000E+00  0.00000000000E+00 -0.10120560718E+04  0.10120560719E+04  0.50400001928E-02 0. -1.
    10030    2    1    2    0    0  0.00000000000E+00  0.00000000000E+00  0.11680078150E+04  0.31921199587E+04  0.29707553879E+04 0.  0.
        4    1    3    3  502    0  0.93959949412E+02  0.51754984034E+03  0.20766353698E+04  0.21422190321E+04  0.12699999809E+01 0.  1.
       -4    1    3    3    0  502 -0.93959949412E+02 -0.51754984034E+03 -0.90862755485E+03  0.10499009266E+04  0.12699999809E+01 0. -1.
</event>
<event>
 5   0  0.2425845E-06  0.2903758E+04  0.7818609E-02  0.8271760E-01
       -2   -1    0    0    0  501  0.00000000000E+00  0.00000000000E+00  0.19012581086E+04  0.19012581086E+04  0.25500000920E-02 0. -1.
        2   -1    0    0  501    0  0.00000000000E+00  0.00000000000E+00 -0.11087145250E+04  0.11087145250E+04  0.25500000920E-02 0.  1.
    10030    2    1    2    0    0  0.00000000000E+00  0.00000000000E+00  0.79254358364E+03  0.30099726336E+04  0.29037578968E+04 0.  0.
        2    1    3    3  502    0  0.99480796148E+02  0.35994870772E+03 -0.10580786873E+04  0.11220472403E+04  0.25500000920E-02 0.  1.
       -2    1    3    3    0  502 -0.99480796148E+02 -0.35994870772E+03  0.18506222709E+04  0.18879253933E+04  0.25500000920E-02 0. -1.
</event>
<event>
 5   0  0.2325590E-06  0.2900688E+04  0.7818609E-02  0.8272673E-01
        2   -1    0    0  501    0  0.00000000000E+00  0.00000000000E+00  0.20503243729E+04  0.20503243729E+04  0.25500000920E-02 0. -1.
       -2   -1    0    0    0  501  0.00000000000E+00  0.00000000000E+00 -0.10259340723E+04  0.10259340723E+04  0.25500000920E-02 0.  1.
    10030    2    1    2    0    0  0.00000000000E+00  0.00000000000E+00  0.10243903006E+04  0.30762584451E+04  0.29006879414E+04 0.  0.
        5    1    3    3  502    0 -0.87563553407E+02 -0.14246278241E+04  0.23923817319E+03  0.14472348830E+04  0.46999998093E+01 0. -1.
       -5    1    3    3    0  502  0.87563553407E+02  0.14246278241E+04  0.78515212739E+03  0.16290235622E+04  0.46999998093E+01 0.  1.
</event>
<event>
 5   0  0.2378690E-06  0.2896112E+04  0.7818609E-02  0.8274035E-01
        2   -1    0    0  501    0  0.00000000000E+00  0.00000000000E+00  0.29140848029E+04  0.29140848029E+04  0.25500000920E-02 0. -1.
       -2   -1    0    0    0  501  0.00000000000E+00  0.00000000000E+00 -0.71956228423E+03  0.71956228423E+03  0.25500000920E-02 0.  1.
    10030    2    1    2    0    0  0.00000000000E+00  0.00000000000E+00  0.21945225187E+04  0.36336470871E+04  0.28961115429E+04 0.  0.
        3    1    3    3  502    0  0.67853645761E+03 -0.11816265296E+04  0.48233181820E+03  0.14454400620E+04  0.10100000352E+00 0. -1.
       -3    1    3    3    0  502 -0.67853645761E+03  0.11816265296E+04  0.17121907005E+04  0.21882070251E+04  0.10100000352E+00 0.  1.
</event>
<event>
 5   0  0.2325590E-06  0.2733935E+04  0.7818609E-02  0.8324078E-01
       -2   -1    0    0    0  501  0.00000000000E+00  0.00000000000E+00  0.14915584415E+04  0.14915584415E+04  0.25500000920E-02 0. -1.
        2   -1    0    0  501    0  0.00000000000E+00  0.00000000000E+00 -0.12527834434E+04  0.12527834434E+04  0.25500000920E-02 0.  1.
    10030    2    1    2    0    0  0.00000000000E+00  0.00000000000E+00  0.23877499814E+03  0.27443418849E+04  0.27339346886E+04 0.  0.
        5    1    3    3  502    0  0.21175024373E+03 -0.10048522330E+04 -0.78627281336E+03  0.12933728012E+04  0.46999998093E+01 0.  1.
       -5    1    3    3    0  502 -0.21175024373E+03  0.10048522330E+04  0.10250478115E+04  0.14509690837E+04  0.46999998093E+01 0. -1.
</event>
<event>
 5   0  0.8355946E-07  0.2897552E+04  0.7818609E-02  0.8273606E-01
       -1   -1    0    0    0  501  0.00000000000E+00  0.00000000000E+00  0.12867255330E+04  0.12867255330E+04  0.50400001928E-02 0.  1.
        1   -1    0    0  501    0  0.00000000000E+00  0.00000000000E+00 -0.16312352664E+04  0.16312352664E+04  0.50400001928E-02 0. -1.
    10030    2    1    2    0    0  0.00000000000E+00  0.00000000000E+00 -0.34450973346E+03  0.29179607994E+04  0.28975521169E+04 0.  0.
        4    1    3    3  502    0  0.32321497850E+03  0.12111948929E+04 -0.90365509529E+03  0.15453333410E+04  0.12699999809E+01 0. -1.
       -4    1    3    3    0  502 -0.32321497850E+03 -0.12111948929E+04  0.55914536183E+03  0.13726274583E+04  0.12699999809E+01 0.  1.
</event>
<event>
 5   0  0.8263673E-07  0.2918897E+04  0.7818609E-02  0.8267277E-01
        1   -1    0    0  501    0  0.00000000000E+00  0.00000000000E+00  0.17594867015E+04  0.17594867016E+04  0.50400001928E-02 0. -1.
       -1   -1    0    0    0  501  0.00000000000E+00  0.00000000000E+00 -0.12105748121E+04  0.12105748121E+04  0.50400001928E-02 0.  1.
    10030    2    1    2    0    0  0.00000000000E+00  0.00000000000E+00  0.54891188942E+03  0.29700615137E+04  0.29188972460E+04 0.  0.
        5    1    3    3  502    0 -0.14025727589E+04 -0.21884137393E+03 -0.70404161752E+02  0.14212954397E+04  0.46999998093E+01 0. -1.
       -5    1    3    3    0  502  0.14025727589E+04  0.21884137393E+03  0.61931605117E+03  0.15487660740E+04  0.46999998093E+01 0.  1.
</event>
<event>
 5   0  0.8947674E-07  0.2899419E+04  0.7818609E-02  0.8273050E-01
        1   -1    0    0  501    0  0.00000000000E+00  0.00000000000E+00  0.16392991765E+04  0.16392991765E+04  0.50400001928E-02 0.  1.
       -1   -1    0    0    0  501  0.00000000000E+00  0.00000000000E+00 -0.12820466913E+04  0.12820466913E+04  0.50400001928E-02 0. -1.
    10030    2    1    2    0    0  0.00000000000E+00  0.00000000000E+00  0.35725248522E+03  0.29213458678E+04  0.28994193110E+04 0.  0.
        3    1    3    3  502    0 -0.91483908641E+03 -0.78497235326E+03 -0.63278742382E+03  0.13614448514E+04  0.10100000352E+00 0. -1.
       -3    1    3    3    0  502  0.91483908641E+03  0.78497235326E+03  0.99003990904E+03  0.15599010164E+04  0.10100000352E+00 0.  1.
</event>
<event>
 5   0  0.8263673E-07  0.2893895E+04  0.7818609E-02  0.8274696E-01
       -1   -1    0    0    0  501  0.00000000000E+00  0.00000000000E+00  0.27534158477E+04  0.27534158477E+04  0.50400001928E-02 0.  1.
        1   -1    0    0  501    0  0.00000000000E+00  0.00000000000E+00 -0.76038511953E+03  0.76038511955E+03  0.50400001928E-02 0. -1.
    10030    2    1    2    0    0  0.00000000000E+00  0.00000000000E+00  0.19930307281E+04  0.35138009672E+04  0.28938945651E+04 0.  0.
        5    1    3    3  502    0  0.45348528058E+02 -0.11342246485E+04 -0.92973225961E+02  0.11389416811E+04  0.46999998093E+01 0. -1.
       -5    1    3    3    0  502 -0.45348528058E+02  0.11342246485E+04  0.20860039541E+04  0.23748592861E+04  0.46999998093E+01 0.  1.
</event>
<event>
 5   0  0.2425845E-06  0.2902368E+04  0.7818609E-02  0.8272173E-01
        2   -1    0    0  501    0  0.00000000000E+00  0.00000000000E+00  0.15399700391E+04  0.15399700391E+04  0.25500000920E-02 0. -1.
       -2   -1    0    0    0  501  0.00000000000E+00  0.00000000000E+00 -0.13675167624E+04  0.13675167624E+04  0.25500000920E-02 0.  1.
    10030    2    1    2    0    0  0.00000000000E+00  0.00000000000E+00  0.17245327669E+03  0.29074868015E+04  0.29023678899E+04 0.  0.
        2    1    3    3  502    0 -0.98127639997E+03  0.48305263626E+03 -0.86923309331E+03  0.13970717208E+04  0.25500000920E-02 0.  1.
       -2    1    3    3    0  502  0.98127639997E+03 -0.48305263626E+03  0.10416863700E+04  0.15104150807E+04  0.25500000920E-02 0. -1.
</event>
<event>
 5   0  0.2378690E-06  0.2889950E+04  0.7818609E-02  0.8275874E-01
       -2   -1    0    0    0  501  0.00000000000E+00  0.00000000000E+00  0.11270602438E+04  0.11270602438E+04  0.25500000920E-02 0.  1.
        2   -1    0    0  501    0  0.00000000000E+00  0.00000000000E+00 -0.18525651297E+04  0.18525651297E+04  0.25500000920E-02 0. -1.
    10030    2    1    2    0    0  0.00000000000E+00  0.00000000000E+00 -0.72550488593E+03  0.29796253735E+04  0.28899498312E+04 0.  0.
        3    1    3    3  502    0  0.75825838039E+03 -0.10377244986E+04 -0.10436419594E+04  0.16556015390E+04  0.10100000352E+00 0. -1.
       -3    1    3    3    0  502 -0.75825838039E+03  0.10377244986E+04  0.31813707346E+03  0.13240238344E+04  0.10100000352E+00 0.  1.
</event>
<event>
 5   0  0.2378690E-06  0.2893834E+04  0.7818609E-02  0.8274714E-01
        2   -1    0    0  501    0  0.00000000000E+00  0.00000000000E+00  0.14256529483E+04  0.14256529483E+04  0.25500000920E-02 0. -1.
       -2   -1    0    0    0  501  0.00000000000E+00  0.00000000000E+00 -0.14684985657E+04  0.14684985657E+04  0.25500000920E-02 0.  1.
    10030    2    1    2    0    0  0.00000000000E+00  0.00000000000E+00 -0.42845617336E+02  0.28941515140E+04  0.28938343490E+04 0.  0.
        3    1    3    3  502    0 -0.13432259521E+04 -0.29941891534E+03  0.42546131807E+03  0.14404599920E+04  0.10100000352E+00 0. -1.
       -3    1    3    3    0  502  0.13432259521E+04  0.29941891534E+03 -0.46830693540E+03  0.14536915220E+04  0.10100000352E+00 0.  1.
</event>
<event>
 5   0  0.8483636E-07  0.2808092E+04  0.7818609E-02  0.8300761E-01
       -1   -1    0    0    0  501  0.00000000000E+00  0.00000000000E+00  0.13799047096E+04  0.13799047097E+04  0.50400001928E-02 0. -1.
        1   -1    0    0  501    0  0.00000000000E+00  0.00000000000E+00 -0.14286092440E+04  0.14286092440E+04  0.50400001928E-02 0.  1.
    10030    2    1    2    0    0  0.00000000000E+00  0.00000000000E+00 -0.48704534358E+02  0.28085139537E+04  0.28080916111E+04 0.  0.
        2    1    3    3  502    0 -0.13093227854E+04  0.32465800244E+03  0.36508483844E+03  0.13975034576E+04  0.25500000920E-02 0. -1.
       -2    1    3    3    0  502  0.13093227854E+04 -0.32465800244E+03 -0.41378937280E+03  0.14110104960E+04  0.25500000920E-02 0.  1.
</event>
<event>
 5   0  0.2360103E-06  0.2897275E+04  0.7818609E-02  0.8273689E-01
        2   -1    0    0  501    0  0.00000000000E+00  0.00000000000E+00  0.18087030059E+04  0.18087030059E+04  0.25500000920E-02 0.  1.
       -2   -1    0    0    0  501  0.00000000000E+00  0.00000000000E+00 -0.11602514541E+04  0.11602514541E+04  0.25500000920E-02 0. -1.
    10030    2    1    2    0    0  0.00000000000E+00  0.00000000000E+00  0.64845155179E+03  0.29689544600E+04  0.28972747834E+04 0.  0.
        4    1    3    3  502    0 -0.12326821035E+04 -0.75957138646E+03  0.37112733012E+03  0.14947210334E+04  0.12699999809E+01 0.  1.
       -4    1    3    3    0  502  0.12326821035E+04  0.75957138646E+03  0.27732422167E+03  0.14742334267E+04  0.12699999809E+01 0. -1.
</event>
<event>
 5   0  0.2378690E-06  0.2901779E+04  0.7818609E-02  0.8272348E-01
        2   -1    0    0  501    0  0.00000000000E+00  0.00000000000E+00  0.23574313452E+04  0.23574313452E+04  0.25500000920E-02 0.  1.
       -2   -1    0    0    0  501  0.00000000000E+00  0.00000000000E+00 -0.89295489714E+03  0.89295489714E+03  0.25500000920E-02 0. -1.
    10030    2    1    2    0    0  0.00000000000E+00  0.00000000000E+00  0.14644764480E+04  0.32503862423E+04  0.29017786713E+04 0.  0.
        3    1    3    3  502    0 -0.28889438010E+03 -0.61031656323E+02  0.23234206446E+04  0.23421076678E+04  0.10100000352E+00 0.  1.
       -3    1    3    3    0  502  0.28889438010E+03  0.61031656323E+02 -0.85894419653E+03  0.90827857449E+03  0.10100000352E+00 0. -1.
</event>
<event>
 5   0  0.2378690E-06  0.2897561E+04  0.7818609E-02  0.8273604E-01
       -2   -1    0    0    0  501  0.00000000000E+00  0.00000000000E+00  0.96950521270E+03  0.96950521271E+03  0.25500000920E-02 0. -1.
        2   -1    0    0  501    0  0.00000000000E+00  0.00000000000E+00 -0.21649853685E+04  0.21649853685E+04  0.25500000920E-02 0.  1.
    10030    2    1    2    0    0  0.00000000000E+00  0.00000000000E+00 -0.11954801558E+04  0.31344905812E+04  0.28975607674E+04 0.  0.
        3    1    3    3  502    0  0.61249223746E+02 -0.35780145357E+03 -0.21149920394E+04  0.21459181449E+04  0.10100000352E+00 0.  1.
       -3    1    3    3    0  502 -0.61249223746E+02  0.35780145357E+03  0.91951188360E+03  0.98857243633E+03  0.10100000352E+00 0. -1.
</event>
<event>
 5   0  0.2378690E-06  0.2913229E+04  0.7818609E-02  0.8268952E-01
        2   -1    0    0  501    0  0.00000000000E+00  0.00000000000E+00  0.17607730109E+04  0.17607730109E+04  0.25500000920E-02 0. -1.
       -2   -1    0    0    0  501  0.00000000000E+00  0.00000000000E+00 -0.12049965108E+04  0.12049965108E+04  0.25500000920E-02 0.  1.
    10030    2    1    2    0    0  0.00000000000E+00  0.00000000000E+00  0.55577650005E+03  0.29657695217E+04  0.29132286793E+04 0.  0.
        3    1    3    3  502    0  0.60892482807E+03  0.11576014933E+04  0.93045970093E+03  0.16051747346E+04  0.10100000352E+00 0. -1.
       -3    1    3    3    0  502 -0.60892482807E+03 -0.11576014933E+04 -0.37468320088E+03  0.13605947871E+04  0.10100000352E+00 0.  1.
</event>
<event>
 5   0  0.2325590E-06  0.2884528E+04  0.7818609E-02  0.8277496E-01
        2   -1    0    0  501    0  0.00000000000E+00  0.00000000000E+00  0.25410141889E+04  0.25410141889E+04  0.25500000920E-02 0.  1.
       -2   -1    0    0    0  501  0.00000000000E+00  0.00000000000E+00 -0.81862013825E+03  0.81862013826E+03  0.25500000920E-02 0. -1.
    10030    2    1    2    0    0  0.00000000000E+00  0.00000000000E+00  0.17223940507E+04  0.33596343272E+04  0.28845279591E+04 0.  0.
        5    1    3    3  502    0  0.49838905015E+03  0.51139146871E+03 -0.59826708075E+03  0.93158921713E+03  0.46999998093E+01 0. -1.
       -5    1    3    3    0  502 -0.49838905015E+03 -0.51139146871E+03  0.23206611314E+04  0.24280451101E+04  0.46999998093E+01 0.  1.
</event>
<event>
 5   0  0.8947674E-07  0.2910604E+04  0.7818609E-02  0.8269729E-01
        1   -1    0    0  501    0  0.00000000000E+00  0.00000000000E+00  0.15490482281E+04  0.15490482281E+04  0.50400001928E-02 0. -1.
       -1   -1    0    0    0  501  0.00000000000E+00  0.00000000000E+00 -0.13672294164E+04  0.13672294164E+04  0.50400001928E-02 0.  1.
    10030    2    1    2    0    0  0.00000000000E+00  0.00000000000E+00  0.18181881168E+03  0.29162776446E+04  0.29106042706E+04 0.  0.
        3    1    3    3  502    0  0.81543736955E+03  0.40613440131E+03 -0.10462129163E+04  0.13872435734E+04  0.10100000352E+00 0.  1.
       -3    1    3    3    0  502 -0.81543736955E+03 -0.40613440131E+03  0.12280317280E+04  0.15290340711E+04  0.10100000352E+00 0. -1.
</event>
<event>
 5   0  0.8483636E-07  0.2910084E+04  0.7818609E-02  0.8269884E-01
       -1   -1    0    0    0  501  0.00000000000E+00  0.00000000000E+00  0.25800091420E+04  0.25800091420E+04  0.50400001928E-02 0.  1.
        1   -1    0    0  501    0  0.00000000000E+00  0.00000000000E+00 -0.82059666433E+03  0.82059666434E+03  0.50400001928E-02 0. -1.
    10030    2    1    2    0    0  0.00000000000E+00  0.00000000000E+00  0.17594124776E+04  0.34006058063E+04  0.29100837760E+04 0.  0.
        2    1    3    3  502    0 -0.65532429549E+03 -0.16255581048E+03  0.23858667178E+04  0.24795633323E+04  0.25500000920E-02 0.  1.
       -2    1    3    3    0  502  0.65532429549E+03  0.16255581048E+03 -0.62645424021E+03  0.92104247397E+03  0.25500000920E-02 0. -1.
</event>
<event>
 5   0  0.8355946E-07  0.2763190E+04  0.7818609E-02  0.8314788E-01
        1   -1    0    0  501    0  0.00000000000E+00  0.00000000000E+00  0.19438079221E+04  0.19438079221E+04  0.50400001928E-02 0.  1.
       -1   -1    0    0    0  501  0.00000000000E+00  0.00000000000E+00 -0.98199221701E+03  0.98199221702E+03  0.50400001928E-02 0. -1.
    10030    2    1    2    0    0  0.00000000000E+00  0.00000000000E+00  0.96181570511E+03  0.29258001391E+04  0.27631896431E+04 0.  0.
        4    1    3    3  502    0 -0.13514994464E+04  0.13307788045E+03  0.21190572268E+03  0.13744693973E+04  0.12699999809E+01 0. -1.
       -4    1    3    3    0  502  0.13514994464E+04 -0.13307788045E+03  0.74990998243E+03  0.15513307418E+04  0.12699999809E+01 0.  1.
</event>
<event>
 5   0  0.2378690E-06  0.2946055E+04  0.7818609E-02  0.8259305E-01
       -2   -1    0    0    0  501  0.00000000000E+00  0.00000000000E+00  0.85879384678E+03  0.85879384678E+03  0.25500000920E-02 0.  1.
        2   -1    0    0  501    0  0.00000000000E+00  0.00000000000E+00 -0.25265785843E+04  0.25265785843E+04  0.25500000920E-02 0. -1.
    10030    2    1    2    0    0  0.00000000000E+00  0.00000000000E+00 -0.16677847375E+04  0.33853724311E+04  0.29460550854E+04 0.  0.
        3    1    3    3  502    0 -0.11283423909E+03 -0.12676951754E+04 -0.16861242862E+04  0.21125334890E+04  0.10100000352E+00 0. -1.
       -3    1    3    3    0  502  0.11283423909E+03  0.12676951754E+04  0.18339548699E+02  0.12728389421E+04  0.10100000352E+00 0.  1.
</event>
<event>
 5   0  0.2378690E-06  0.2885399E+04  0.7818609E-02  0.8277235E-01
        2   -1    0    0  501    0  0.00000000000E+00  0.00000000000E+00  0.12403005958E+04  0.12403005958E+04  0.25500000920E-02 0.  1.
       -2   -1    0    0    0  501  0.00000000000E+00  0.00000000000E+00 -0.16781274433E+04  0.16781274433E+04  0.25500000920E-02 0. -1.
    10030    2    1    2    0    0  0.00000000000E+00  0.00000000000E+00 -0.43782684750E+03  0.29184280390E+04  0.28853994300E+04 0.  0.
        3    1    3    3  502    0 -0.68656599667E+03  0.11806946978E+04 -0.68895836165E+03  0.15297308493E+04  0.10100000352E+00 0.  1.
       -3    1    3    3    0  502  0.68656599667E+03 -0.11806946978E+04  0.25113151415E+03  0.13886971897E+04  0.10100000352E+00 0. -1.
</event>
<event>
 5   0  0.2304435E-06  0.2839640E+04  0.7818609E-02  0.8291066E-01
       -2   -1    0    0    0  501  0.00000000000E+00  0.00000000000E+00  0.23128041160E+04  0.23128041160E+04  0.25500000920E-02 0. -1.
        2   -1    0    0  501    0  0.00000000000E+00  0.00000000000E+00 -0.87162078480E+03  0.87162078480E+03  0.25500000920E-02 0.  1.
    10030    2    1    2    0    0  0.00000000000E+00  0.00000000000E+00  0.14411833312E+04  0.31844249008E+04  0.28396395114E+04 0.  0.
        1    1    3    3  502    0 -0.43676075137E+03 -0.14927023985E+03  0.22263219524E+04  0.22736646618E+04  0.50400001928E-02 0. -1.
       -1    1    3    3    0  502  0.43676075137E+03  0.14927023985E+03 -0.78513862121E+03  0.91076023902E+03  0.50400001928E-02 0.  1.
</event>
<event>
 5   0  0.8357118E-07  0.2897651E+04  0.7818609E-02  0.8273577E-01
       -1   -1    0    0    0  501  0.00000000000E+00  0.00000000000E+00  0.13563427361E+04  0.13563427361E+04  0.50400001928E-02 0.  1.
        1   -1    0    0  501    0  0.00000000000E+00  0.00000000000E+00 -0.15476143939E+04  0.15476143939E+04  0.50400001928E-02 0. -1.
    10030    2    1    2    0    0  0.00000000000E+00  0.00000000000E+00 -0.19127165783E+03  0.29039571300E+04  0.28976511463E+04 0.  0.
        1    1    3    3  502    0  0.54375896362E+03 -0.95462769310E+03 -0.10422058496E+04  0.15143252213E+04  0.50400001928E-02 0. -1.
       -1    1    3    3    0  502 -0.54375896362E+03  0.95462769310E+03  0.85093419176E+03  0.13896319087E+04  0.50400001928E-02 0.  1.
</event>
<event>
 5   0  0.2425845E-06  0.2741671E+04  0.7818609E-02  0.8321609E-01
        2   -1    0    0  501    0  0.00000000000E+00  0.00000000000E+00  0.12672001933E+04  0.12672001933E+04  0.25500000920E-02 0. -1.
       -2   -1    0    0    0  501  0.00000000000E+00  0.00000000000E+00 -0.14829466378E+04  0.14829466378E+04  0.25500000920E-02 0.  1.
    10030    2    1    2    0    0  0.00000000000E+00  0.00000000000E+00 -0.21574644450E+03  0.27501468312E+04  0.27416712174E+04 0.  0.
        2    1    3    3  502    0 -0.38758321780E+03  0.64525747902E+03  0.10413615126E+04  0.12849170264E+04  0.25500000920E-02 0. -1.
       -2    1    3    3    0  502  0.38758321780E+03 -0.64525747902E+03 -0.12571079571E+04  0.14652298047E+04  0.25500000920E-02 0.  1.
</event>
<event>
 5   0  0.2378690E-06  0.2901365E+04  0.7818609E-02  0.8272472E-01
        2   -1    0    0  501    0  0.00000000000E+00  0.00000000000E+00  0.17302180759E+04  0.17302180759E+04  0.25500000920E-02 0.  1.
       -2   -1    0    0    0  501  0.00000000000E+00  0.00000000000E+00 -0.12163088278E+04  0.12163088278E+04  0.25500000920E-02 0. -1.
    10030    2    1    2    0    0  0.00000000000E+00  0.00000000000E+00  0.51390924814E+03  0.29465269037E+04  0.29013648648E+04 0.  0.
        3    1    3    3  502    0  0.44394248837E+03 -0.10589270033E+04  0.11573601902E+04  0.16303048645E+04  0.10100000352E+00 0.  1.
       -3    1    3    3    0  502 -0.44394248837E+03  0.10589270033E+04 -0.64345094208E+03  0.13162220391E+04  0.10100000352E+00 0. -1.
</event>
<event>
 5   0  0.8357118E-07  0.2894627E+04  0.7818609E-02  0.8274478E-01
       -1   -1    0    0    0  501  0.00000000000E+00  0.00000000000E+00  0.13666017685E+04  0.13666017685E+04  0.50400001928E-02 0. -1.
        1   -1    0    0  501    0  0.00000000000E+00  0.00000000000E+00 -0.15327915796E+04  0.15327915796E+04  0.50400001928E-02 0.  1.
    10030    2    1    2    0    0  0.00000000000E+00  0.00000000000E+00 -0.16618981115E+03  0.28993933481E+04  0.28946265275E+04 0.  0.
        1    1    3    3  502    0 -0.59899125449E+03  0.43835685634E+03 -0.13276257872E+04  0.15210317181E+04  0.50400001928E-02 0.  1.
       -1    1    3    3    0  502  0.59899125449E+03 -0.43835685634E+03  0.11614359761E+04  0.13783616300E+04  0.50400001928E-02 0. -1.
</event>
<event>
 5   0  0.2360103E-06  0.2898296E+04  0.7818609E-02  0.8273385E-01
        2   -1    0    0  501    0  0.00000000000E+00  0.00000000000E+00  0.18172859632E+04  0.18172859632E+04  0.25500000920E-02 0.  1.
       -2   -1    0    0    0  501  0.00000000000E+00  0.00000000000E+00 -0.11555856349E+04  0.11555856349E+04  0.25500000920E-02 0. -1.
    10030    2    1    2    0    0  0.00000000000E+00  0.00000000000E+00  0.66170032824E+03  0.29728715981E+04  0.28982957431E+04 0.  0.
        4    1    3    3  502    0  0.82052048790E+02 -0.25746768519E+03  0.17912135906E+04  0.18114827871E+04  0.12699999809E+01 0.  1.
       -4    1    3    3    0  502 -0.82052048790E+02  0.25746768519E+03 -0.11295132624E+04  0.11613888111E+04  0.12699999809E+01 0. -1.
</event>
<event>
 5   0  0.7621125E-07  0.2900943E+04  0.7818609E-02  0.8272597E-01
       -3   -1    0    0    0  501  0.00000000000E+00  0.00000000000E+00  0.14100816989E+04  0.14100817025E+04  0.10100000352E+00 0.  1.
        3   -1    0    0  501    0  0.00000000000E+00  0.00000000000E+00 -0.14920184528E+04  0.14920184563E+04  0.10100000352E+00 0. -1.
    10030    2    1    2    0    0  0.00000000000E+00  0.00000000000E+00 -0.81936753935E+02  0.29021001588E+04  0.29009432432E+04 0.  0.
        1    1    3    3  502    0  0.88904952289E+02 -0.47626506508E+03 -0.14086768865E+04  0.14896654233E+04  0.50400001928E-02 0. -1.
       -1    1    3    3    0  502 -0.88904952289E+02  0.47626506508E+03  0.13267401326E+04  0.14124347355E+04  0.50400001928E-02 0.  1.
</event>
<event>
 5   0  0.2325590E-06  0.2800034E+04  0.7818609E-02  0.8303258E-01
        2   -1    0    0  501    0  0.00000000000E+00  0.00000000000E+00  0.93359249022E+03  0.93359249022E+03  0.25500000920E-02 0. -1.
       -2   -1    0    0    0  501  0.00000000000E+00  0.00000000000E+00 -0.20994676330E+04  0.20994676330E+04  0.25500000920E-02 0.  1.
    10030    2    1    2    0    0  0.00000000000E+00  0.00000000000E+00 -0.11658751428E+04  0.30330601233E+04  0.28000337253E+04 0.  0.
        5    1    3    3  502    0  0.50631309783E+03  0.23836864251E+03  0.80715946351E+03  0.98219196306E+03  0.46999998093E+01 0. -1.
       -5    1    3    3    0  502 -0.50631309783E+03 -0.23836864251E+03 -0.19730346063E+04  0.20508681602E+04  0.46999998093E+01 0.  1.
</event>
<event>
 5   0  0.2360103E-06  0.2902745E+04  0.7818609E-02  0.8272061E-01
       -2   -1    0    0    0  501  0.00000000000E+00  0.00000000000E+00  0.82122478745E+03  0.82122478745E+03  0.25500000920E-02 0. -1.
        2   -1    0    0  501    0  0.00000000000E+00  0.00000000000E+00 -0.25650500637E+04  0.25650500637E+04  0.25500000920E-02 0.  1.
    10030    2    1    2    0    0  0.00000000000E+00  0.00000000000E+00 -0.17438252763E+04  0.33862748512E+04  0.29027453856E+04 0.  0.
        4    1    3    3  502    0 -0.66432292974E+03  0.12270442834E+04 -0.13378405471E+04  0.19330756764E+04  0.12699999809E+01 0.  1.
       -4    1    3    3    0  502  0.66432292974E+03 -0.12270442834E+04 -0.40598472915E+03  0.14531991748E+04  0.12699999809E+01 0. -1.
</event>
<event>
 5   0  0.2378690E-06  0.2910918E+04  0.7818609E-02  0.8269636E-01
        2   -1    0    0  501    0  0.00000000000E+00  0.00000000000E+00  0.17483216701E+04  0.17483216701E+04  0.25500000920E-02 0. -1.
       -2   -1    0    0    0  501  0.00000000000E+00  0.00000000000E+00 -0.12116543760E+04  0.12116543760E+04  0.25500000920E-02 0.  1.
    10030    2    1    2    0    0  0.00000000000E+00  0.00000000000E+00  0.53666729413E+03  0.29599760461E+04  0.29109184820E+04 0.  0.
        3    1    3    3  502    0 -0.12669071030E+04 -0.63818246700E+03 -0.62778286994E+02  0.14199547853E+04  0.10100000352E+00 0.  1.
       -3    1    3    3    0  502  0.12669071030E+04  0.63818246700E+03  0.59944558112E+03  0.15400212608E+04  0.10100000352E+00 0. -1.
</event>
<event>
 5   0  0.2325590E-06  0.2911603E+04  0.7818609E-02  0.8269434E-01
       -2   -1    0    0    0  501  0.00000000000E+00  0.00000000000E+00  0.11392679216E+04  0.11392679216E+04  0.25500000920E-02 0.  1.
        2   -1    0    0  501    0  0.00000000000E+00  0.00000000000E+00 -0.18602800134E+04  0.18602800134E+04  0.25500000920E-02 0. -1.
    10030    2    1    2    0    0  0.00000000000E+00  0.00000000000E+00 -0.72101209183E+03  0.29995479351E+04  0.29116025447E+04 0.  0.
        5    1    3    3  502    0  0.53038647805E+02  0.77456847434E+03  0.90818054705E+03  0.11948152224E+04  0.46999998093E+01 0.  1.
       -5    1    3    3    0  502 -0.53038647805E+02 -0.77456847434E+03 -0.16291926389E+04  0.18047327127E+04  0.46999998093E+01 0. -1.
</event>
<event>
 5   0  0.2360103E-06  0.2888161E+04  0.7818609E-02  0.8276409E-01
       -2   -1    0    0    0  501  0.00000000000E+00  0.00000000000E+00  0.16984380803E+04  0.16984380803E+04  0.25500000920E-02 0. -1.
        2   -1    0    0  501    0  0.00000000000E+00  0.00000000000E+00 -0.12278153832E+04  0.12278153832E+04  0.25500000920E-02 0.  1.
    10030    2    1    2    0    0  0.00000000000E+00  0.00000000000E+00  0.47062269710E+03  0.29262534634E+04  0.28881609389E+04 0.  0.
        4    1    3    3  502    0 -0.98285684072E+03  0.10470094563E+04  0.81218566456E+02  0.14383443396E+04  0.12699999809E+01 0. -1.
       -4    1    3    3    0  502  0.98285684072E+03 -0.10470094563E+04  0.38940413065E+03  0.14879091238E+04  0.12699999809E+01 0.  1.
</event>
<event>
 5   0  0.2378690E-06  0.2912148E+04  0.7818609E-02  0.8269272E-01
       -2   -1    0    0    0  501  0.00000000000E+00  0.00000000000E+00  0.22313478223E+04  0.22313478223E+04  0.25500000920E-02 0.  1.
        2   -1    0    0  501    0  0.00000000000E+00  0.00000000000E+00 -0.95016614770E+03  0.95016614770E+03  0.25500000920E-02 0. -1.
    10030    2    1    2    0    0  0.00000000000E+00  0.00000000000E+00  0.12811816746E+04  0.31815139700E+04  0.29121477741E+04 0.  0.
        3    1    3    3  502    0  0.96250036296E+03 -0.10757405779E+04  0.84938769020E+03  0.16748385588E+04  0.10100000352E+00 0.  1.
       -3    1    3    3    0  502 -0.96250036296E+03  0.10757405779E+04  0.43179398443E+03  0.15066754112E+04  0.10100000352E+00 0. -1.
</event>
<event>
 5   0  0.8263673E-07  0.2882854E+04  0.7818609E-02  0.8277997E-01
        1   -1    0    0  501    0  0.00000000000E+00  0.00000000000E+00  0.22090154034E+04  0.22090154034E+04  0.50400001928E-02 0.  1.
       -1   -1    0    0    0  501  0.00000000000E+00  0.00000000000E+00 -0.94056034287E+03  0.94056034288E+03  0.50400001928E-02 0. -1.
    10030    2    1    2    0    0  0.00000000000E+00  0.00000000000E+00  0.12684550606E+04  0.31495757463E+04  0.28828543392E+04 0.  0.
        5    1    3    3  502    0 -0.22873320558E+03 -0.33783995347E+03 -0.87615327466E+03  0.96649954174E+03  0.46999998093E+01 0. -1.
       -5    1    3    3    0  502  0.22873320558E+03  0.33783995347E+03  0.21446083352E+04  0.21830762046E+04  0.46999998093E+01 0.  1.
</event>
<event>
 5   0  0.2304435E-06  0.2892033E+04  0.7818609E-02  0.8275252E-01
        2   -1    0    0  501    0  0.00000000000E+00  0.00000000000E+00  0.18491264296E+04  0.18491264296E+04  0.25500000920E-02 0. -1.
       -2   -1    0    0    0  501  0.00000000000E+00  0.00000000000E+00 -0.11307844102E+04  0.11307844102E+04  0.25500000920E-02 0.  1.
    10030    2    1    2    0    0  0.00000000000E+00  0.00000000000E+00  0.71834201938E+03  0.29799108397E+04  0.28920327377E+04 0.  0.
        1    1    3    3  502    0  0.22568613174E+03 -0.14266234812E+04  0.28797324343E+03  0.14727923737E+04  0.50400001928E-02 0.  1.
       -1    1    3    3    0  502 -0.22568613174E+03  0.14266234812E+04  0.43036877595E+03  0.15071184660E+04  0.50400001928E-02 0. -1.
</event>
<event>
 5   0  0.8947674E-07  0.2902522E+04  0.7818609E-02  0.8272127E-01
        1   -1    0    0  501    0  0.00000000000E+00  0.00000000000E+00  0.15653116610E+04  0.15653116610E+04  0.50400001928E-02 0.  1.
       -1   -1    0    0    0  501  0.00000000000E+00  0.00000000000E+00 -0.13455202642E+04  0.13455202642E+04  0.50400001928E-02 0. -1.
    10030    2    1    2    0    0  0.00000000000E+00  0.00000000000E+00  0.21979139676E+03  0.29108319252E+04  0.29025220480E+04 0.  0.
        3    1    3    3  502    0  0.32670849723E+02 -0.57236196681E+03 -0.12271478256E+04  0.13544583425E+04  0.10100000352E+00 0. -1.
       -3    1    3    3    0  502 -0.32670849723E+02  0.57236196681E+03  0.14469392224E+04  0.15563735827E+04  0.10100000352E+00 0.  1.
</event>
<event>
 5   0  0.2360103E-06  0.2899353E+04  0.7818609E-02  0.8273070E-01
       -2   -1    0    0    0  501  0.00000000000E+00  0.00000000000E+00  0.23364170963E+04  0.23364170963E+04  0.25500000920E-02 0.  1.
        2   -1    0    0  501    0  0.00000000000E+00  0.00000000000E+00 -0.89948072386E+03  0.89948072386E+03  0.25500000920E-02 0. -1.
    10030    2    1    2    0    0  0.00000000000E+00  0.00000000000E+00  0.14369363724E+04  0.32358978202E+04  0.28993531286E+04 0.  0.
        4    1    3    3  502    0 -0.85198957934E+03 -0.10745209176E+04  0.19369998305E+03  0.13849197602E+04  0.12699999809E+01 0. -1.
       -4    1    3    3    0  502  0.85198957934E+03  0.10745209176E+04  0.12432363894E+04  0.18509780600E+04  0.12699999809E+01 0.  1.
</event>
<event>
 5   0  0.2304435E-06  0.2901690E+04  0.7818609E-02  0.8272375E-01
       -2   -1    0    0    0  501  0.00000000000E+00  0.00000000000E+00  0.10941454992E+04  0.10941454992E+04  0.25500000920E-02 0. -1.
        2   -1    0    0  501    0  0.00000000000E+00  0.00000000000E+00 -0.19238307737E+04  0.19238307737E+04  0.25500000920E-02 0.  1.
    10030    2    1    2    0    0  0.00000000000E+00  0.00000000000E+00 -0.82968527449E+03  0.30179762729E+04  0.29016897024E+04 0.  0.
        1    1    3    3  502    0 -0.20929206928E+03  0.26876178980E+03 -0.18816494983E+04  0.19122345317E+04  0.50400001928E-02 0.  1.
       -1    1    3    3    0  502  0.20929206928E+03 -0.26876178980E+03  0.10519642238E+04  0.11057417411E+04  0.50400001928E-02 0. -1.
</event>
<event>
 5   0  0.2360103E-06  0.2902450E+04  0.7818609E-02  0.8272149E-01
       -2   -1    0    0    0  501  0.00000000000E+00  0.00000000000E+00  0.15334688673E+04  0.15334688673E+04  0.25500000920E-02 0.  1.
        2   -1    0    0  501    0  0.00000000000E+00  0.00000000000E+00 -0.13733919551E+04  0.13733919551E+04  0.25500000920E-02 0. -1.
    10030    2    1    2    0    0  0.00000000000E+00  0.00000000000E+00  0.16007691222E+03  0.29068608224E+04  0.29024498657E+04 0.  0.
        4    1    3    3  502    0  0.48084635201E+03  0.47013240808E+03 -0.12079231268E+04  0.13825041007E+04  0.12699999809E+01 0. -1.
       -4    1    3    3    0  502 -0.48084635201E+03 -0.47013240808E+03  0.13680000390E+04  0.15243567217E+04  0.12699999809E+01 0.  1.
</event>
<event>
 5   0  0.2304435E-06  0.2904966E+04  0.7818609E-02  0.8271401E-01
       -2   -1    0    0    0  501  0.00000000000E+00  0.00000000000E+00  0.12385941572E+04  0.12385941572E+04  0.25500000920E-02 0.  1.
        2   -1    0    0  501    0  0.00000000000E+00  0.00000000000E+00 -0.17033076859E+04  0.17033076859E+04  0.25500000920E-02 0. -1.
    10030    2    1    2    0    0  0.00000000000E+00  0.00000000000E+00 -0.46471352871E+03  0.29419018431E+04  0.29049660567E+04 0.  0.
        1    1    3    3  502    0 -0.53275579413E+03 -0.69542846257E+03 -0.14056458483E+04  0.16562879380E+04  0.50400001928E-02 0. -1.
       -1    1    3    3    0  502  0.53275579413E+03  0.69542846257E+03  0.94093231962E+03  0.12856139051E+04  0.50400001928E-02 0.  1.
</event>
<event>
 5   0  0.8355946E-07  0.2907705E+04  0.7818609E-02  0.8270589E-01
       -1   -1    0    0    0  501  0.00000000000E+00  0.00000000000E+00  0.12950055318E+04  0.12950055319E+04  0.50400001928E-02 0.  1.
        1   -1    0    0  501    0  0.00000000000E+00  0.00000000000E+00 -0.16321833407E+04  0.16321833407E+04  0.50400001928E-02 0. -1.
    10030    2    1    2    0    0  0.00000000000E+00  0.00000000000E+00 -0.33717780889E+03  0.29271888726E+04  0.29077045622E+04 0.  0.
        4    1    3    3  502    0 -0.14752286536E+03  0.63104909233E+03  0.11415536983E+04  0.13126813824E+04  0.12699999809E+01 0.  1.
       -4    1    3    3    0  502  0.14752286536E+03 -0.63104909233E+03 -0.14787315072E+04  0.16145074902E+04  0.12699999809E+01 0. -1.
</event>
<event>
 5   0  0.8263673E-07  0.2898767E+04  0.7818609E-02  0.8273244E-01
        1   -1    0    0  501    0  0.00000000000E+00  0.00000000000E+00  0.27675608821E+04  0.27675608821E+04  0.50400001928E-02 0. -1.
       -1   -1    0    0    0  501  0.00000000000E+00  0.00000000000E+00 -0.75904824118E+03  0.75904824120E+03  0.50400001928E-02 0.  1.
    10030    2    1    2    0    0  0.00000000000E+00  0.00000000000E+00  0.20085126409E+04  0.35266091233E+04  0.28987667860E+04 0.  0.
        5    1    3    3  502    0  0.12102408665E+04  0.11912533717E+03  0.19636019722E+04  0.23096814923E+04  0.46999998093E+01 0. -1.
       -5    1    3    3    0  502 -0.12102408665E+04 -0.11912533717E+03  0.44910668689E+02  0.12169276309E+04  0.46999998093E+01 0.  1.
</event>
<event>
 5   0  0.2360103E-06  0.2842200E+04  0.7818609E-02  0.8290285E-01
        2   -1    0    0  501    0  0.00000000000E+00  0.00000000000E+00  0.12121645429E+04  0.12121645429E+04  0.25500000920E-02 0.  1.
       -2   -1    0    0    0  501  0.00000000000E+00  0.00000000000E+00 -0.16660488805E+04  0.16660488805E+04  0.25500000920E-02 0. -1.
    10030    2    1    2    0    0  0.00000000000E+00  0.00000000000E+00 -0.45388433760E+03  0.28782134234E+04  0.28422001194E+04 0.  0.
        4    1    3    3  502    0 -0.31335812622E+03  0.13734649864E+04 -0.37693553730E+02  0.14092628573E+04  0.12699999809E+01 0. -1.
       -4    1    3    3    0  502  0.31335812622E+03 -0.13734649864E+04 -0.41619078387E+03  0.14689505661E+04  0.12699999809E+01 0.  1.
</event>
<event>
 5   0  0.2304435E-06  0.2915255E+04  0.7818609E-02  0.8268353E-01
        2   -1    0    0  501    0  0.00000000000E+00  0.00000000000E+00  0.23666073568E+04  0.23666073568E+04  0.25500000920E-02 0. -1.
       -2   -1    0    0    0  501  0.00000000000E+00  0.00000000000E+00 -0.89777393444E+03  0.89777393444E+03  0.25500000920E-02 0.  1.
    10030    2    1    2    0    0  0.00000000000E+00  0.00000000000E+00  0.14688334224E+04  0.32643812912E+04  0.29152553219E+04 0.  0.
        1    1    3    3  502    0 -0.86516852039E+03 -0.24474789207E+03  0.20190973365E+04  0.22102425553E+04  0.50400001928E-02 0. -1.
       -1    1    3    3    0  502  0.86516852039E+03  0.24474789207E+03 -0.55026391409E+03  0.10541387359E+04  0.50400001928E-02 0.  1.
</event>
<event>
 5   0  0.2360103E-06  0.2885753E+04  0.7818609E-02  0.8277129E-01
        2   -1    0    0  501    0  0.00000000000E+00  0.00000000000E+00  0.10955780360E+04  0.10955780360E+04  0.25500000920E-02 0. -1.
       -2   -1    0    0    0  501  0.00000000000E+00  0.00000000000E+00 -0.19002684335E+04  0.19002684335E+04  0.25500000920E-02 0.  1.
    10030    2    1    2    0    0  0.00000000000E+00  0.00000000000E+00 -0.80469039756E+03  0.29958464695E+04  0.28857528364E+04 0.  0.
        4    1    3    3  502    0  0.92816724341E+03  0.83886559441E+03 -0.11485877352E+04  0.16983654835E+04  0.12699999809E+01 0.  1.
       -4    1    3    3    0  502 -0.92816724341E+03 -0.83886559441E+03  0.34389733766E+03  0.12974809860E+04  0.12699999809E+01 0. -1.
</event>
<event>
 5   0  0.2325590E-06  0.2920462E+04  0.7818609E-02  0.8266815E-01
       -2   -1    0    0    0  501  0.00000000000E+00  0.00000000000E+00  0.13875458848E+04  0.13875458848E+04  0.25500000920E-02 0. -1.
        2   -1    0    0  501    0  0.00000000000E+00  0.00000000000E+00 -0.15367232156E+04  0.15367232156E+04  0.25500000920E-02 0.  1.
    10030    2    1    2    0    0  0.00000000000E+00  0.00000000000E+00 -0.14917733075E+03  0.29242691004E+04  0.29204615895E+04 0.  0.
        5    1    3    3  502    0 -0.92760390331E+03 -0.94634057658E+03  0.53959703667E+03  0.14308027608E+04  0.46999998093E+01 0.  1.
       -5    1    3    3    0  502  0.92760390331E+03  0.94634057658E+03 -0.68877436741E+03  0.14934663396E+04  0.46999998093E+01 0. -1.
</event>
<event>
 5   0  0.2425845E-06  0.2906670E+04  0.7818609E-02  0.8270896E-01
        2   -1    0    0  501    0  0.00000000000E+00  0.00000000000E+00  0.99527954677E+03  0.99527954677E+03  0.25500000920E-02 0.  1.
       -2   -1    0    0    0  501  0.00000000000E+00  0.00000000000E+00 -0.21222000193E+04  0.21222000193E+04  0.25500000920E-02 0. -1.
    10030    2    1    2    0    0  0.00000000000E+00  0.00000000000E+00 -0.11269204726E+04  0.31174795661E+04  0.29066697600E+04 0.  0.
        2    1    3    3  502    0 -0.13672029112E+04  0.38945920963E+02 -0.36477892697E+02  0.13682438458E+04  0.25500000920E-02 0.  1.
       -2    1    3    3    0  502  0.13672029112E+04 -0.38945920963E+02 -0.10904425799E+04  0.17492357203E+04  0.25500000920E-02 0. -1.
</event>
<event>
 5   0  0.8947674E-07  0.2935667E+04  0.7818609E-02  0.8262344E-01
        1   -1    0    0  501    0  0.00000000000E+00  0.00000000000E+00  0.20731920571E+04  0.20731920571E+04  0.50400001928E-02 0.  1.
       -1   -1    0    0    0  501  0.00000000000E+00  0.00000000000E+00 -0.10392360042E+04  0.10392360042E+04  0.50400001928E-02 0. -1.
    10030    2    1    2    0    0  0.00000000000E+00  0.00000000000E+00  0.10339560529E+04  0.31124280613E+04  0.29356674398E+04 0.  0.
        3    1    3    3  502    0 -0.84931335996E+03 -0.21097038084E+03 -0.73240547522E+03  0.11411658404E+04  0.10100000352E+00 0. -1.
       -3    1    3    3    0  502  0.84931335996E+03  0.21097038084E+03  0.17663615282E+04  0.19712622209E+04  0.10100000352E+00 0.  1.
</event>
<event>
 5   0  0.2304435E-06  0.2909778E+04  0.7818609E-02  0.8269974E-01
        2   -1    0    0  501    0  0.00000000000E+00  0.00000000000E+00  0.28340940800E+04  0.28340940800E+04  0.25500000920E-02 0. -1.
       -2   -1    0    0    0  501  0.00000000000E+00  0.00000000000E+00 -0.74687073457E+03  0.74687073457E+03  0.25500000920E-02 0.  1.
    10030    2    1    2    0    0  0.00000000000E+00  0.00000000000E+00  0.20872233455E+04  0.35809648146E+04  0.29097779485E+04 0.  0.
        1    1    3    3  502    0  0.12050037908E+04  0.77098785457E+03  0.71743753706E+03  0.16003665291E+04  0.50400001928E-02 0.  1.
       -1    1    3    3    0  502 -0.12050037908E+04 -0.77098785457E+03  0.13697858084E+04  0.19805982855E+04  0.50400001928E-02 0. -1.
</event>
<event>
 5   0  0.8355946E-07  0.2908353E+04  0.7818609E-02  0.8270397E-01
        1   -1    0    0  501    0  0.00000000000E+00  0.00000000000E+00  0.20584531593E+04  0.20584531593E+04  0.50400001928E-02 0. -1.
       -1   -1    0    0    0  501  0.00000000000E+00  0.00000000000E+00 -0.10272901098E+04  0.10272901098E+04  0.50400001928E-02 0.  1.
    10030    2    1    2    0    0  0.00000000000E+00  0.00000000000E+00  0.10311630496E+04  0.30857432691E+04  0.29083525041E+04 0.  0.
        4    1    3    3  502    0  0.58758835062E+03 -0.13290379726E+04  0.57393575413E+03  0.15623718716E+04  0.12699999809E+01 0. -1.
       -4    1    3    3    0  502 -0.58758835062E+03  0.13290379726E+04  0.45722729542E+03  0.15233713976E+04  0.12699999809E+01 0.  1.
</event>
<event>
 5   0  0.8355946E-07  0.2904441E+04  0.7818609E-02  0.8271557E-01
        1   -1    0    0  501    0  0.00000000000E+00  0.00000000000E+00  0.19720830058E+04  0.19720830058E+04  0.50400001928E-02 0.  1.
       -1   -1    0    0    0  501  0.00000000000E+00  0.00000000000E+00 -0.10693994275E+04  0.10693994275E+04  0.50400001928E-02 0. -1.
    10030    2    1    2    0    0  0.00000000000E+00  0.00000000000E+00  0.90268357826E+03  0.30414824333E+04  0.29044410391E+04 0.  0.
        4    1    3    3  502    0 -0.76623224999E+03  0.73819200093E+03 -0.58367784425E+03  0.12135570567E+04  0.12699999809E+01 0. -1.
       -4    1    3    3    0  502  0.76623224999E+03 -0.73819200093E+03  0.14863614225E+04  0.18279253766E+04  0.12699999809E+01 0.  1.
</event>
<event>
 5   0  0.2378690E-06  0.2891809E+04  0.7818609E-02  0.8275319E-01
       -2   -1    0    0    0  501  0.00000000000E+00  0.00000000000E+00  0.16406237191E+04  0.16406237191E+04  0.25500000920E-02 0. -1.
        2   -1    0    0  501    0  0.00000000000E+00  0.00000000000E+00 -0.12742957030E+04  0.12742957030E+04  0.25500000920E-02 0.  1.
    10030    2    1    2    0    0  0.00000000000E+00  0.00000000000E+00  0.36632801612E+03  0.29149194221E+04  0.28918089532E+04 0.  0.
        3    1    3    3  502    0 -0.69021256862E+03 -0.69458875489E+03  0.12555235551E+04  0.15922268482E+04  0.10100000352E+00 0. -1.
       -3    1    3    3    0  502  0.69021256862E+03  0.69458875489E+03 -0.88919553901E+03  0.13226925739E+04  0.10100000352E+00 0.  1.
</event>
<event>
 5   0  0.2325590E-06  0.2903209E+04  0.7818609E-02  0.8271923E-01
       -2   -1    0    0    0  501  0.00000000000E+00  0.00000000000E+00  0.76392462430E+03  0.76392462430E+03  0.25500000920E-02 0. -1.
        2   -1    0    0  501    0  0.00000000000E+00  0.00000000000E+00 -0.27583288885E+04  0.27583288885E+04  0.25500000920E-02 0.  1.
    10030    2    1    2    0    0  0.00000000000E+00  0.00000000000E+00 -0.19944042642E+04  0.35222535128E+04  0.29032088177E+04 0.  0.
        5    1    3    3  502    0  0.34888389622E+03 -0.63978574137E+03  0.52591218082E+03  0.89869431946E+03  0.46999998093E+01 0. -1.
       -5    1    3    3    0  502 -0.34888389622E+03  0.63978574137E+03 -0.25203164450E+04  0.26235591933E+04  0.46999998093E+01 0.  1.
</event>
<event>
 5   0  0.2325590E-06  0.2903305E+04  0.7818609E-02  0.8271895E-01
       -2   -1    0    0    0  501  0.00000000000E+00  0.00000000000E+00  0.91995980075E+03  0.91995980076E+03  0.25500000920E-02 0.  1.
        2   -1    0    0  501    0  0.00000000000E+00  0.00000000000E+00 -0.22906380228E+04  0.22906380228E+04  0.25500000920E-02 0. -1.
    10030    2    1    2    0    0  0.00000000000E+00  0.00000000000E+00 -0.13706782220E+04  0.32105978235E+04  0.29033049437E+04 0.  0.
        5    1    3    3  502    0 -0.10294104390E+04  0.46349191909E+02 -0.18160264827E+04  0.20880154155E+04  0.46999998093E+01 0. -1.
       -5    1    3    3    0  502  0.10294104390E+04 -0.46349191909E+02  0.44534826069E+03  0.11225824080E+04  0.46999998093E+01 0.  1.
</event>
<event>
 5   0  0.2304435E-06  0.2907329E+04  0.7818609E-02  0.8270700E-01
        2   -1    0    0  501    0  0.00000000000E+00  0.00000000000E+00  0.13827485512E+04  0.13827485512E+04  0.25500000920E-02 0. -1.
       -2   -1    0    0    0  501  0.00000000000E+00  0.00000000000E+00 -0.15282177155E+04  0.15282177155E+04  0.25500000920E-02 0.  1.
    10030    2    1    2    0    0  0.00000000000E+00  0.00000000000E+00 -0.14546916426E+03  0.29109662667E+04  0.29073292432E+04 0.  0.
        1    1    3    3  502    0 -0.16717707803E+03 -0.50285695710E+03 -0.14280628933E+04  0.15232126976E+04  0.50400001928E-02 0.  1.
       -1    1    3    3    0  502  0.16717707803E+03  0.50285695710E+03  0.12825937291E+04  0.13877535691E+04  0.50400001928E-02 0. -1.
</event>
<event>
 5   0  0.8357118E-07  0.2896232E+04  0.7818609E-02  0.8273999E-01
        1   -1    0    0  501    0  0.00000000000E+00  0.00000000000E+00  0.98731520940E+03  0.98731520941E+03  0.50400001928E-02 0. -1.
       -1   -1    0    0    0  501  0.00000000000E+00  0.00000000000E+00 -0.21239823647E+04  0.21239823647E+04  0.50400001928E-02 0.  1.
    10030    2    1    2    0    0  0.00000000000E+00  0.00000000000E+00 -0.11366671553E+04  0.31112975742E+04  0.28962320993E+04 0.  0.
        1    1    3    3  502    0 -0.26798546628E+03 -0.14195800208E+04 -0.67584758462E+03  0.15949274602E+04  0.50400001928E-02 0.  1.
       -1    1    3    3    0  502  0.26798546628E+03  0.14195800208E+04 -0.46081957073E+03  0.15163701139E+04  0.50400001928E-02 0. -1.
</event>
<event>
 5   0  0.7621125E-07  0.2895888E+04  0.7818609E-02  0.8274102E-01
       -3   -1    0    0    0  501  0.00000000000E+00  0.00000000000E+00  0.94160278750E+03  0.94160279291E+03  0.10100000352E+00 0. -1.
        3   -1    0    0  501    0  0.00000000000E+00  0.00000000000E+00 -0.22265674265E+04  0.22265674287E+04  0.10100000352E+00 0.  1.
    10030    2    1    2    0    0  0.00000000000E+00  0.00000000000E+00 -0.12849646390E+04  0.31681702217E+04  0.28958881936E+04 0.  0.
        4    1    3    3  502    0  0.39389592720E+03  0.33412047295E+03 -0.21223490118E+04  0.21842979267E+04  0.12699999809E+01 0.  1.
       -4    1    3    3    0  502 -0.39389592720E+03 -0.33412047295E+03  0.83738437285E+03  0.98387229492E+03  0.12699999809E+01 0. -1.
</event>
<event>
 5   0  0.2325590E-06  0.2921666E+04  0.7818609E-02  0.8266460E-01
       -2   -1    0    0    0  501  0.00000000000E+00  0.00000000000E+00  0.16488604715E+04  0.16488604715E+04  0.25500000920E-02 0. -1.
        2   -1    0    0  501    0  0.00000000000E+00  0.00000000000E+00 -0.12942473344E+04  0.12942473344E+04  0.25500000920E-02 0.  1.
    10030    2    1    2    0    0  0.00000000000E+00  0.00000000000E+00  0.35461313706E+03  0.29431078059E+04  0.29216661480E+04 0.  0.
        5    1    3    3  502    0  0.96092965092E+03 -0.36722018640E+03  0.12221139912E+04  0.15974420668E+04  0.46999998093E+01 0. -1.
       -5    1    3    3    0  502 -0.96092965092E+03  0.36722018640E+03 -0.86750085419E+03  0.13456657391E+04  0.46999998093E+01 0.  1.
</event>
<event>
 5   0  0.2425845E-06  0.2963436E+04  0.7818609E-02  0.8254250E-01
       -2   -1    0    0    0  501  0.00000000000E+00  0.00000000000E+00  0.95054258198E+03  0.95054258198E+03  0.25500000920E-02 0.  1.
        2   -1    0    0  501    0  0.00000000000E+00  0.00000000000E+00 -0.23097209331E+04  0.23097209331E+04  0.25500000920E-02 0. -1.
    10030    2    1    2    0    0  0.00000000000E+00  0.00000000000E+00 -0.13591783512E+04  0.32602635151E+04  0.29634359109E+04 0.  0.
        2    1    3    3  502    0  0.10282085125E+04  0.63294933469E+03  0.26530350173E+03  0.12362133932E+04  0.25500000920E-02 0. -1.
       -2    1    3    3    0  502 -0.10282085125E+04 -0.63294933469E+03 -0.16244818529E+04  0.20240501219E+04  0.25500000920E-02 0.  1.
</event>
<event>
 5   0  0.2378690E-06  0.2893647E+04  0.7818609E-02  0.8274770E-01
        2   -1    0    0  501    0  0.00000000000E+00  0.00000000000E+00  0.20431689023E+04  0.20431689023E+04  0.25500000920E-02 0.  1.
       -2   -1    0    0    0  501  0.00000000000E+00  0.00000000000E+00 -0.10245353458E+04  0.10245353458E+04  0.25500000920E-02 0. -1.
    10030    2    1    2    0    0  0.00000000000E+00  0.00000000000E+00  0.10186335566E+04  0.30677042481E+04  0.28936473578E+04 0.  0.
        3    1    3    3  502    0 -0.34027987391E+03 -0.12355985806E+04 -0.20248981558E+03  0.12974961967E+04  0.10100000352E+00 0. -1.
       -3    1    3    3    0  502  0.34027987391E+03  0.12355985806E+04  0.12211233721E+04  0.17702080514E+04  0.10100000352E+00 0.  1.
</event>
<event>
 5   0  0.8357118E-07  0.2897585E+04  0.7818609E-02  0.8273596E-01
       -1   -1    0    0    0  501  0.00000000000E+00  0.00000000000E+00  0.20212275124E+04  0.20212275124E+04  0.50400001928E-02 0.  1.
        1   -1    0    0  501    0  0.00000000000E+00  0.00000000000E+00 -0.10384776953E+04  0.10384776953E+04  0.50400001928E-02 0. -1.
    10030    2    1    2    0    0  0.00000000000E+00  0.00000000000E+00  0.98274981711E+03  0.30597052077E+04  0.28975849867E+04 0.  0.
        1    1    3    3  502    0 -0.13392326632E+03  0.10589852644E+04  0.15257827261E+04  0.18620950993E+04  0.50400001928E-02 0.  1.
       -1    1    3    3    0  502  0.13392326632E+03 -0.10589852644E+04 -0.54303290896E+03  0.11976101084E+04  0.50400001928E-02 0. -1.
</event>
<event>
 5   0  0.2378690E-06  0.2908208E+04  0.7818609E-02  0.8270440E-01
       -2   -1    0    0    0  501  0.00000000000E+00  0.00000000000E+00  0.11733037095E+04  0.11733037095E+04  0.25500000920E-02 0. -1.
        2   -1    0    0  501    0  0.00000000000E+00  0.00000000000E+00 -0.18021068327E+04  0.18021068327E+04  0.25500000920E-02 0.  1.
    10030    2    1    2    0    0  0.00000000000E+00  0.00000000000E+00 -0.62880312323E+03  0.29754105422E+04  0.29082081299E+04 0.  0.
        3    1    3    3  502    0 -0.63081975304E+03 -0.92186505405E+03  0.63805078151E+03  0.12864204401E+04  0.10100000352E+00 0. -1.
       -3    1    3    3    0  502  0.63081975304E+03  0.92186505405E+03 -0.12668539047E+04  0.16889901021E+04  0.10100000352E+00 0.  1.
</event>
<event>
 5   0  0.2325590E-06  0.2907811E+04  0.7818609E-02  0.8270557E-01
        2   -1    0    0  501    0  0.00000000000E+00  0.00000000000E+00  0.20610030953E+04  0.20610030953E+04  0.25500000920E-02 0.  1.
       -2   -1    0    0    0  501  0.00000000000E+00  0.00000000000E+00 -0.10256369928E+04  0.10256369928E+04  0.25500000920E-02 0. -1.
    10030    2    1    2    0    0  0.00000000000E+00  0.00000000000E+00  0.10353661025E+04  0.30866400881E+04  0.29078108720E+04 0.  0.
        5    1    3    3  502    0 -0.28952436368E+03  0.36939827417E+03  0.19783695637E+04  0.20332849438E+04  0.46999998093E+01 0.  1.
       -5    1    3    3    0  502  0.28952436368E+03 -0.36939827417E+03 -0.94300346122E+03  0.10533551443E+04  0.46999998093E+01 0. -1.
</event>
<event>
 5   0  0.8357118E-07  0.2909097E+04  0.7818609E-02  0.8270176E-01
       -1   -1    0    0    0  501  0.00000000000E+00  0.00000000000E+00  0.17896360646E+04  0.17896360646E+04  0.50400001928E-02 0. -1.
        1   -1    0    0  501    0  0.00000000000E+00  0.00000000000E+00 -0.11822017689E+04  0.11822017689E+04  0.50400001928E-02 0.  1.
    10030    2    1    2    0    0  0.00000000000E+00  0.00000000000E+00  0.60743429573E+03  0.29718378335E+04  0.29090967129E+04 0.  0.
        1    1    3    3  502    0 -0.15799229968E+03  0.45061630793E+03 -0.10998486591E+04  0.11990344852E+04  0.50400001928E-02 0.  1.
       -1    1    3    3    0  502  0.15799229968E+03 -0.45061630793E+03  0.17072829549E+04  0.17728033483E+04  0.50400001928E-02 0. -1.
</event>
<event>
 5   0  0.8483636E-07  0.2896561E+04  0.7818609E-02  0.8273901E-01
        1   -1    0    0  501    0  0.00000000000E+00  0.00000000000E+00  0.28257234847E+04  0.28257234847E+04  0.50400001928E-02 0.  1.
       -1   -1    0    0    0  501  0.00000000000E+00  0.00000000000E+00 -0.74229359078E+03  0.74229359080E+03  0.50400001928E-02 0. -1.
    10030    2    1    2    0    0  0.00000000000E+00  0.00000000000E+00  0.20834298939E+04  0.35680170755E+04  0.28965610175E+04 0.  0.
        2    1    3    3  502    0 -0.11903920457E+04 -0.16890978117E+03  0.47106175104E+02  0.12032384337E+04  0.25500000920E-02 0. -1.
       -2    1    3    3    0  502  0.11903920457E+04  0.16890978117E+03  0.20363237188E+04  0.23647786417E+04  0.25500000920E-02 0.  1.
</event>
<event>
 5   0  0.2360103E-06  0.2906048E+04  0.7818609E-02  0.8271080E-01
        2   -1    0    0  501    0  0.00000000000E+00  0.00000000000E+00  0.78753850529E+03  0.78753850529E+03  0.25500000920E-02 0. -1.
       -2   -1    0    0    0  501  0.00000000000E+00  0.00000000000E+00 -0.26808574947E+04  0.26808574947E+04  0.25500000920E-02 0.  1.
    10030    2    1    2    0    0  0.00000000000E+00  0.00000000000E+00 -0.18933189894E+04  0.34683960000E+04  0.29060478346E+04 0.  0.
        4    1    3    3  502    0  0.65395272741E+03 -0.10581223939E+04 -0.50334798277E+02  0.12449146055E+04  0.12699999809E+01 0. -1.
       -4    1    3    3    0  502 -0.65395272741E+03  0.10581223939E+04 -0.18429841912E+04  0.22234813945E+04  0.12699999809E+01 0.  1.
</event>
<event>
 5   0  0.2360103E-06  0.2910203E+04  0.7818609E-02  0.8269848E-01
        2   -1    0    0  501    0  0.00000000000E+00  0.00000000000E+00  0.13101219489E+04  0.13101219489E+04  0.25500000920E-02 0.  1.
       -2   -1    0    0    0  501  0.00000000000E+00  0.00000000000E+00 -0.16161251809E+04  0.16161251809E+04  0.25500000920E-02 0. -1.
    10030    2    1    2    0    0  0.00000000000E+00  0.00000000000E+00 -0.30600323199E+03  0.29262471298E+04  0.29102034785E+04 0.  0.
        4    1    3    3  502    0 -0.62781932102E+03  0.10615908785E+04  0.62338663836E+03  0.13819351674E+04  0.12699999809E+01 0.  1.
       -4    1    3    3    0  502  0.62781932102E+03 -0.10615908785E+04 -0.92938987035E+03  0.15443119624E+04  0.12699999809E+01 0. -1.
</event>
<event>
 5   0  0.2425845E-06  0.2887714E+04  0.7818609E-02  0.8276542E-01
        2   -1    0    0  501    0  0.00000000000E+00  0.00000000000E+00  0.17100682505E+04  0.17100682505E+04  0.25500000920E-02 0. -1.
       -2   -1    0    0    0  501  0.00000000000E+00  0.00000000000E+00 -0.12190877063E+04  0.12190877063E+04  0.25500000920E-02 0.  1.
    10030    2    1    2    0    0  0.00000000000E+00  0.00000000000E+00  0.49098054424E+03  0.29291559568E+04  0.28877141002E+04 0.  0.
        2    1    3    3  502    0 -0.79321011813E+03  0.12966735651E+02 -0.97821102952E+03  0.12594630785E+04  0.25500000920E-02 0.  1.
       -2    1    3    3    0  502  0.79321011813E+03 -0.12966735651E+02  0.14691915738E+04  0.16696928784E+04  0.25500000920E-02 0. -1.
</event>
<event>
 5   0  0.2304435E-06  0.2898504E+04  0.7818609E-02  0.8273323E-01
        2   -1    0    0  501    0  0.00000000000E+00  0.00000000000E+00  0.29244599706E+04  0.29244599706E+04  0.25500000920E-02 0.  1.
       -2   -1    0    0    0  501  0.00000000000E+00  0.00000000000E+00 -0.71819457663E+03  0.71819457663E+03  0.25500000920E-02 0. -1.
    10030    2    1    2    0    0  0.00000000000E+00  0.00000000000E+00  0.22062653939E+04  0.36426545472E+04  0.28985039523E+04 0.  0.
        1    1    3    3  502    0 -0.39095052831E+02  0.13408651217E+04  0.41377704169E+03  0.14038016733E+04  0.50400001928E-02 0. -1.
       -1    1    3    3    0  502  0.39095052831E+02 -0.13408651217E+04  0.17924883523E+04  0.22388528739E+04  0.50400001928E-02 0.  1.
</event>
<event>
 5   0  0.2360103E-06  0.2905813E+04  0.7818609E-02  0.8271150E-01
       -2   -1    0    0    0  501  0.00000000000E+00  0.00000000000E+00  0.11104672567E+04  0.11104672567E+04  0.25500000920E-02 0. -1.
        2   -1    0    0  501    0  0.00000000000E+00  0.00000000000E+00 -0.19009453515E+04  0.19009453515E+04  0.25500000920E-02 0.  1.
    10030    2    1    2    0    0  0.00000000000E+00  0.00000000000E+00 -0.79047809481E+03  0.30114126081E+04  0.29058131870E+04 0.  0.
        4    1    3    3  502    0 -0.46519387975E+03  0.13189357068E+04 -0.80316679329E+03  0.16127849377E+04  0.12699999809E+01 0.  1.
       -4    1    3    3    0  502  0.46519387975E+03 -0.13189357068E+04  0.12688698480E+02  0.13986276704E+04  0.12699999809E+01 0. -1.
</event>
<event>
 5   0  0.2325590E-06  0.2899507E+04  0.7818609E-02  0.8273024E-01
       -2   -1    0    0    0  501  0.00000000000E+00  0.00000000000E+00  0.10814056537E+04  0.10814056537E+04  0.25500000920E-02 0.  1.
        2   -1    0    0  501    0  0.00000000000E+00  0.00000000000E+00 -0.19435672767E+04  0.19435672767E+04  0.25500000920E-02 0. -1.
    10030    2    1    2    0    0  0.00000000000E+00  0.00000000000E+00 -0.86216162298E+03  0.30249729304E+04  0.28995066073E+04 0.  0.
        5    1    3    3  502    0 -0.83778898403E+03 -0.11529900293E+04 -0.15410023084E+03  0.14335429399E+04  0.46999998093E+01 0.  1.
       -5    1    3    3    0  502  0.83778898403E+03  0.11529900293E+04 -0.70806139214E+03  0.15914299905E+04  0.46999998093E+01 0. -1.
</event>
<event>
 5   0  0.8947674E-07  0.2902968E+04  0.7818609E-02  0.8271995E-01
        1   -1    0    0  501    0  0.00000000000E+00  0.00000000000E+00  0.15977515315E+04  0.15977515315E+04  0.50400001928E-02 0.  1.
       -1   -1    0    0    0  501  0.00000000000E+00  0.00000000000E+00 -0.13186065499E+04  0.13186065499E+04  0.50400001928E-02 0. -1.
    10030    2    1    2    0    0  0.00000000000E+00  0.00000000000E+00  0.27914498152E+03  0.29163580814E+04  0.29029678845E+04 0.  0.
        3    1    3    3  502    0  0.11035529716E+04 -0.91812370251E+03 -0.75952220759E+02  0.14375496667E+04  0.10100000352E+00 0.  1.
       -3    1    3    3    0  502 -0.11035529716E+04  0.91812370251E+03  0.35509720228E+03  0.14788084147E+04  0.10100000352E+00 0. -1.
</event>
<event>
 5   0  0.8947674E-07  0.2933365E+04  0.7818609E-02  0.8263019E-01
        1   -1    0    0  501    0  0.00000000000E+00  0.00000000000E+00  0.21387756962E+04  0.21387756962E+04  0.50400001928E-02 0.  1.
       -1   -1    0    0    0  501  0.00000000000E+00  0.00000000000E+00 -0.10057892706E+04  0.10057892706E+04  0.50400001928E-02 0. -1.
    10030    2    1    2    0    0  0.00000000000E+00  0.00000000000E+00  0.11329864256E+04  0.31445649668E+04  0.29333650625E+04 0.  0.
        3    1    3    3  502    0  0.60700089202E+03 -0.11666171573E+04 -0.12965612930E+03  0.13214599489E+04  0.10100000352E+00 0. -1.
       -3    1    3    3    0  502 -0.60700089202E+03  0.11666171573E+04  0.12626425549E+04  0.18231050179E+04  0.10100000352E+00 0.  1.
</event>
<event>
 5   0  0.8355946E-07  0.2899753E+04  0.7818609E-02  0.8272951E-01
       -1   -1    0    0    0  501  0.00000000000E+00  0.00000000000E+00  0.17617846262E+04  0.17617846262E+04  0.50400001928E-02 0. -1.
        1   -1    0    0  501    0  0.00000000000E+00  0.00000000000E+00 -0.11931887421E+04  0.11931887421E+04  0.50400001928E-02 0.  1.
    10030    2    1    2    0    0  0.00000000000E+00  0.00000000000E+00  0.56859588410E+03  0.29549733682E+04  0.28997528046E+04 0.  0.
        4    1    3    3  502    0 -0.25591920384E+03  0.11232583011E+04 -0.61277043151E+03  0.13048728154E+04  0.12699999809E+01 0.  1.
       -4    1    3    3    0  502  0.25591920384E+03 -0.11232583011E+04  0.11813663156E+04  0.16501005528E+04  0.12699999809E+01 0. -1.
</event>
<event>
 5   0  0.8357118E-07  0.2898354E+04  0.7818609E-02  0.8273367E-01
        1   -1    0    0  501    0  0.00000000000E+00  0.00000000000E+00  0.12288567951E+04  0.12288567951E+04  0.50400001928E-02 0. -1.
       -1   -1    0    0    0  501  0.00000000000E+00  0.00000000000E+00 -0.17089982141E+04  0.17089982142E+04  0.50400001928E-02 0.  1.
    10030    2    1    2    0    0  0.00000000000E+00  0.00000000000E+00 -0.48014141900E+03  0.29378550093E+04  0.28983540628E+04 0.  0.
        1    1    3    3  502    0  0.99357594246E+02 -0.46945900147E+03 -0.16261317275E+04  0.16954551249E+04  0.50400001928E-02 0.  1.
       -1    1    3    3    0  502 -0.99357594246E+02  0.46945900147E+03  0.11459903084E+04  0.12423998844E+04  0.50400001928E-02 0. -1.
</event>
<event>
 5   0  0.2304435E-06  0.2897763E+04  0.7818609E-02  0.8273543E-01
        2   -1    0    0  501    0  0.00000000000E+00  0.00000000000E+00  0.23734841010E+04  0.23734841010E+04  0.25500000920E-02 0. -1.
       -2   -1    0    0    0  501  0.00000000000E+00  0.00000000000E+00 -0.88446265600E+03  0.88446265600E+03  0.25500000920E-02 0.  1.
    10030    2    1    2    0    0  0.00000000000E+00  0.00000000000E+00  0.14890214450E+04  0.32579467570E+04  0.28977633112E+04 0.  0.
        1    1    3    3  502    0  0.34802184787E+03 -0.50597808524E+03  0.22199230630E+04  0.23033001183E+04  0.50400001928E-02 0. -1.
       -1    1    3    3    0  502 -0.34802184787E+03  0.50597808524E+03 -0.73090161806E+03  0.95464663863E+03  0.50400001928E-02 0.  1.
</event>
<event>
 5   0  0.2360103E-06  0.2881707E+04  0.7818609E-02  0.8278341E-01
        2   -1    0    0  501    0  0.00000000000E+00  0.00000000000E+00  0.14442793698E+04  0.14442793698E+04  0.25500000920E-02 0. -1.
       -2   -1    0    0    0  501  0.00000000000E+00  0.00000000000E+00 -0.14374361264E+04  0.14374361264E+04  0.25500000920E-02 0.  1.
    10030    2    1    2    0    0  0.00000000000E+00  0.00000000000E+00  0.68432433218E+01  0.28817154962E+04  0.28817073708E+04 0.  0.
        4    1    3    3  502    0 -0.41800546968E+03 -0.11098867593E+04  0.82164183297E+03  0.14428007852E+04  0.12699999809E+01 0. -1.
       -4    1    3    3    0  502  0.41800546968E+03  0.11098867593E+04 -0.81479858965E+03  0.14389147110E+04  0.12699999809E+01 0.  1.
</event>
<event>
 5   0  0.2425845E-06  0.2916205E+04  0.7818609E-02  0.8268072E-01
       -2   -1    0    0    0  501  0.00000000000E+00  0.00000000000E+00  0.12517423638E+04  0.12517423638E+04  0.25500000920E-02 0.  1.
        2   -1    0    0  501    0  0.00000000000E+00  0.00000000000E+00 -0.16984825594E+04  0.16984825594E+04  0.25500000920E-02 0. -1.
    10030    2    1    2    0    0  0.00000000000E+00  0.00000000000E+00 -0.44674019564E+03  0.29502249232E+04  0.29162047759E+04 0.  0.
        2    1    3    3  502    0  0.70973765743E+02  0.80365512195E+03  0.10053620627E+04  0.12890507002E+04  0.25500000920E-02 0.  1.
       -2    1    3    3    0  502 -0.70973765743E+02 -0.80365512195E+03 -0.14521022583E+04  0.16611742230E+04  0.25500000920E-02 0. -1.
</event>
<event>
 5   0  0.8263673E-07  0.2887761E+04  0.7818609E-02  0.8276528E-01
       -1   -1    0    0    0  501  0.00000000000E+00  0.00000000000E+00  0.12936232244E+04  0.12936232244E+04  0.50400001928E-02 0. -1.
        1   -1    0    0  501    0  0.00000000000E+00  0.00000000000E+00 -0.16115908761E+04  0.16115908761E+04  0.50400001928E-02 0.  1.
    10030    2    1    2    0    0  0.00000000000E+00  0.00000000000E+00 -0.31796765169E+03  0.29052141005E+04  0.28877613375E+04 0.  0.
        5    1    3    3  502    0 -0.11869638677E+04 -0.81522978758E+03 -0.52103976612E+02  0.14409093462E+04  0.46999998093E+01 0.  1.
       -5    1    3    3    0  502  0.11869638677E+04  0.81522978758E+03 -0.26586367508E+03  0.14643047543E+04  0.46999998093E+01 0. -1.
</event>
<event>
 5   0  0.8947674E-07  0.2928604E+04  0.7818609E-02  0.8264417E-01
        1   -1    0    0  501    0  0.00000000000E+00  0.00000000000E+00  0.13672090900E+04  0.13672090900E+04  0.50400001928E-02 0.  1.
       -1   -1    0    0    0  501  0.00000000000E+00  0.00000000000E+00 -0.15682904300E+04  0.15682904300E+04  0.50400001928E-02 0. -1.
    10030    2    1    2    0    0  0.00000000000E+00  0.00000000000E+00 -0.20108134008E+03  0.29354995200E+04  0.29286043991E+04 0.  0.
        3    1    3    3  502    0 -0.10112727607E+04 -0.79755842255E+03 -0.79889393052E+03  0.15155868686E+04  0.10100000352E+00 0. -1.
       -3    1    3    3    0  502  0.10112727607E+04  0.79755842255E+03  0.59781259043E+03  0.14199126514E+04  0.10100000352E+00 0.  1.
</event>
<event>
 5   0  0.2304435E-06  0.2892515E+04  0.7818609E-02  0.8275108E-01
       -2   -1    0    0    0  501  0.00000000000E+00  0.00000000000E+00  0.12889065892E+04  0.12889065892E+04  0.25500000920E-02 0. -1.
        2   -1    0    0  501    0  0.00000000000E+00  0.00000000000E+00 -0.16228176432E+04  0.16228176432E+04  0.25500000920E-02 0.  1.
    10030    2    1    2    0    0  0.00000000000E+00  0.00000000000E+00 -0.33391105403E+03  0.29117242324E+04  0.28925147214E+04 0.  0.
        1    1    3    3  502    0  0.13992351149E+04 -0.36506167305E+03 -0.19016120119E+03  0.14585232992E+04  0.50400001928E-02 0.  1.
       -1    1    3    3    0  502 -0.13992351149E+04  0.36506167305E+03 -0.14374985285E+03  0.14532009331E+04  0.50400001928E-02 0. -1.
</event>
<event>
 5   0  0.8355946E-07  0.2899437E+04  0.7818609E-02  0.8273045E-01
       -1   -1    0    0    0  501  0.00000000000E+00  0.00000000000E+00  0.18627414298E+04  0.18627414298E+04  0.50400001928E-02 0. -1.
        1   -1    0    0  501    0  0.00000000000E+00  0.00000000000E+00 -0.11282745835E+04  0.11282745835E+04  0.50400001928E-02 0.  1.
    10030    2    1    2    0    0  0.00000000000E+00  0.00000000000E+00  0.73446684638E+03  0.29910160133E+04  0.28994370563E+04 0.  0.
        4    1    3    3  502    0 -0.23397890252E+03 -0.37950613098E+03  0.17902642575E+04  0.18449441061E+04  0.12699999809E+01 0. -1.
       -4    1    3    3    0  502  0.23397890252E+03  0.37950613098E+03 -0.10557974111E+04  0.11460719072E+04  0.12699999809E+01 0.  1.
</event>
<event>
 5   0  0.8947674E-07  0.2891028E+04  0.7818609E-02  0.8275552E-01
       -1   -1    0    0    0  501  0.00000000000E+00  0.00000000000E+00  0.89802536369E+03  0.89802536371E+03  0.50400001928E-02 0. -1.
        1   -1    0    0  501    0  0.00000000000E+00  0.00000000000E+00 -0.23267834898E+04  0.23267834898E+04  0.50400001928E-02 0.  1.
    10030    2    1    2    0    0  0.00000000000E+00  0.00000000000E+00 -0.14287581261E+04  0.32248088535E+04  0.28910279070E+04 0.  0.
        3    1    3    3  502    0  0.29103514218E+03  0.86616799591E+03  0.53501023107E+03  0.10588599571E+04  0.10100000352E+00 0. -1.
       -3    1    3    3    0  502 -0.29103514218E+03 -0.86616799591E+03 -0.19637683572E+04  0.21659488965E+04  0.10100000352E+00 0.  1.
</event>
<event>
 5   0  0.8357118E-07  0.2875399E+04  0.7818609E-02  0.8280235E-01
        1   -1    0    0  501    0  0.00000000000E+00  0.00000000000E+00  0.93602570171E+03  0.93602570172E+03  0.50400001928E-02 0.  1.
       -1   -1    0    0    0  501  0.00000000000E+00  0.00000000000E+00 -0.22082510487E+04  0.22082510488E+04  0.50400001928E-02 0. -1.
    10030    2    1    2    0    0  0.00000000000E+00  0.00000000000E+00 -0.12722253470E+04  0.31442767505E+04  0.28753989201E+04 0.  0.
        1    1    3    3  502    0  0.38077859089E+03 -0.88231511050E+03  0.53323096664E+03  0.10990029815E+04  0.50400001928E-02 0.  1.
       -1    1    3    3    0  502 -0.38077859089E+03  0.88231511050E+03 -0.18054563137E+04  0.20452737690E+04  0.50400001928E-02 0. -1.
</event>
<event>
 5   0  0.8263673E-07  0.2897308E+04  0.7818609E-02  0.8273679E-01
        1   -1    0    0  501    0  0.00000000000E+00  0.00000000000E+00  0.14910734755E+04  0.14910734755E+04  0.50400001928E-02 0. -1.
       -1   -1    0    0    0  501  0.00000000000E+00  0.00000000000E+00 -0.14074414586E+04  0.14074414586E+04  0.50400001928E-02 0.  1.
    10030    2    1    2    0    0  0.00000000000E+00  0.00000000000E+00  0.83632016912E+02  0.28985149341E+04  0.28973081488E+04 0.  0.
        5    1    3    3  502    0  0.10310617520E+04  0.21713462037E+03 -0.95275136247E+03  0.14205608148E+04  0.46999998093E+01 0.  1.
       -5    1    3    3    0  502 -0.10310617520E+04 -0.21713462037E+03  0.10363833794E+04  0.14779541193E+04  0.46999998093E+01 0. -1.
</event>
<event>
 5   0  0.8947674E-07  0.2895010E+04  0.7818609E-02  0.8274364E-01
       -1   -1    0    0    0  501  0.00000000000E+00  0.00000000000E+00  0.89648457253E+03  0.89648457254E+03  0.50400001928E-02 0. -1.
        1   -1    0    0  501    0  0.00000000000E+00  0.00000000000E+00 -0.23372079244E+04  0.23372079244E+04  0.50400001928E-02 0.  1.
    10030    2    1    2    0    0  0.00000000000E+00  0.00000000000E+00 -0.14407233519E+04  0.32336924970E+04  0.28950100843E+04 0.  0.
        3    1    3    3  502    0 -0.50924991244E+03 -0.11143971242E+04  0.14055625124E+03  0.12332771358E+04  0.10100000352E+00 0. -1.
       -3    1    3    3    0  502  0.50924991244E+03  0.11143971242E+04 -0.15812796031E+04  0.20004153612E+04  0.10100000352E+00 0.  1.
</event>
<event>
 5   0  0.2360103E-06  0.2883113E+04  0.7818609E-02  0.8277920E-01
        2   -1    0    0  501    0  0.00000000000E+00  0.00000000000E+00  0.17487040868E+04  0.17487040868E+04  0.25500000920E-02 0.  1.
       -2   -1    0    0    0  501  0.00000000000E+00  0.00000000000E+00 -0.11883575644E+04  0.11883575644E+04  0.25500000920E-02 0. -1.
    10030    2    1    2    0    0  0.00000000000E+00  0.00000000000E+00  0.56034652243E+03  0.29370616512E+04  0.28831134070E+04 0.  0.
        4    1    3    3  502    0  0.70641885820E+03 -0.92581388497E+03 -0.58538723488E+03  0.13033950976E+04  0.12699999809E+01 0. -1.
       -4    1    3    3    0  502 -0.70641885820E+03  0.92581388497E+03  0.11457337573E+04  0.16336665536E+04  0.12699999809E+01 0.  1.
</event>
<event>
 5   0  0.2304435E-06  0.2910444E+04  0.7818609E-02  0.8269777E-01
       -2   -1    0    0    0  501  0.00000000000E+00  0.00000000000E+00  0.18006853998E+04  0.18006853998E+04  0.25500000920E-02 0. -1.
        2   -1    0    0  501    0  0.00000000000E+00  0.00000000000E+00 -0.11760361517E+04  0.11760361517E+04  0.25500000920E-02 0.  1.
    10030    2    1    2    0    0  0.00000000000E+00  0.00000000000E+00  0.62464924814E+03  0.29767215515E+04  0.29104440404E+04 0.  0.
        1    1    3    3  502    0 -0.53362732654E+03  0.11441750054E+04 -0.42788033166E+03  0.13330326871E+04  0.50400001928E-02 0.  1.
       -1    1    3    3    0  502  0.53362732654E+03 -0.11441750054E+04  0.10525295798E+04  0.16436888644E+04  0.50400001928E-02 0. -1.
</event>
<event>
 5   0  0.8355946E-07  0.2905161E+04  0.7818609E-02  0.8271344E-01
        1   -1    0    0  501    0  0.00000000000E+00  0.00000000000E+00  0.15748128617E+04  0.15748128617E+04  0.50400001928E-02 0. -1.
       -1   -1    0    0    0  501  0.00000000000E+00  0.00000000000E+00 -0.13398352557E+04  0.13398352557E+04  0.50400001928E-02 0.  1.
    10030    2    1    2    0    0  0.00000000000E+00  0.00000000000E+00  0.23497760600E+03  0.29146481174E+04  0.29051607826E+04 0.  0.
        4    1    3    3  502    0 -0.65010349827E+03  0.10209140892E+03 -0.11817038311E+04  0.13525837392E+04  0.12699999809E+01 0.  1.
       -4    1    3    3    0  502  0.65010349827E+03 -0.10209140892E+03  0.14166814371E+04  0.15620643781E+04  0.12699999809E+01 0. -1.
</event>
<event>
 5   0  0.2325590E-06  0.2911618E+04  0.7818609E-02  0.8269429E-01
       -2   -1    0    0    0  501  0.00000000000E+00  0.00000000000E+00  0.14047642058E+04  0.14047642058E+04  0.25500000920E-02 0. -1.
        2   -1    0    0  501    0  0.00000000000E+00  0.00000000000E+00 -0.15087085511E+04  0.15087085511E+04  0.25500000920E-02 0.  1.
    10030    2    1    2    0    0  0.00000000000E+00  0.00000000000E+00 -0.10394434528E+03  0.29134727568E+04  0.29116179485E+04 0.  0.
        5    1    3    3  502    0 -0.93172313932E+03 -0.11140474915E+04  0.48828577131E+02  0.14531400970E+04  0.46999998093E+01 0.  1.
       -5    1    3    3    0  502  0.93172313932E+03  0.11140474915E+04 -0.15277292241E+03  0.14603326598E+04  0.46999998093E+01 0. -1.
</event>
<event>
 5   0  0.8355946E-07  0.2927255E+04  0.7818609E-02  0.8264814E-01
       -1   -1    0    0    0  501  0.00000000000E+00  0.00000000000E+00  0.99190199542E+03  0.99190199543E+03  0.50400001928E-02 0. -1.
        1   -1    0    0  501    0  0.00000000000E+00  0.00000000000E+00 -0.21596951098E+04  0.21596951098E+04  0.50400001928E-02 0.  1.
    10030    2    1    2    0    0  0.00000000000E+00  0.00000000000E+00 -0.11677931144E+04  0.31515971052E+04  0.29272552939E+04 0.  0.
        4    1    3    3  502    0  0.12986647692E+04 -0.42771293155E+03 -0.21631466560E+02  0.13674567883E+04  0.12699999809E+01 0. -1.
       -4    1    3    3    0  502 -0.12986647692E+04  0.42771293155E+03 -0.11461616478E+04  0.17841403169E+04  0.12699999809E+01 0.  1.
</event>
<event>
 5   0  0.8357118E-07  0.2902231E+04  0.7818609E-02  0.8272214E-01
        1   -1    0    0  501    0  0.00000000000E+00  0.00000000000E+00  0.22936526387E+04  0.22936526387E+04  0.50400001928E-02 0.  1.
       -1   -1    0    0    0  501  0.00000000000E+00  0.00000000000E+00 -0.91807117841E+03  0.91807117842E+03  0.50400001928E-02 0. -1.
    10030    2    1    2    0    0  0.00000000000E+00  0.00000000000E+00  0.13755814602E+04  0.32117238171E+04  0.29022311285E+04 0.  0.
        1    1    3    3  502    0  0.58993225748E+03 -0.37219018906E+03 -0.72037965618E+03  0.10027424666E+04  0.50400001928E-02 0. -1.
       -1    1    3    3    0  502 -0.58993225748E+03  0.37219018906E+03  0.20959611164E+04  0.22089813505E+04  0.50400001928E-02 0.  1.
</event>
<event>
 5   0  0.8357118E-07  0.2954443E+04  0.7818609E-02  0.8256861E-01
       -1   -1    0    0    0  501  0.00000000000E+00  0.00000000000E+00  0.12180160070E+04  0.12180160071E+04  0.50400001928E-02 0.  1.
        1   -1    0    0  501    0  0.00000000000E+00  0.00000000000E+00 -0.17915887653E+04  0.17915887654E+04  0.50400001928E-02 0. -1.
    10030    2    1    2    0    0  0.00000000000E+00  0.00000000000E+00 -0.57357275830E+03  0.30096047724E+04  0.29544432939E+04 0.  0.
        1    1    3    3  502    0  0.10492369715E+03  0.14217597719E+04 -0.68101846600E+03  0.15799354361E+04  0.50400001928E-02 0. -1.
       -1    1    3    3    0  502 -0.10492369715E+03 -0.14217597719E+04  0.10744570771E+03  0.14296693363E+04  0.50400001928E-02 0.  1.
</event>
<event>
 5   0  0.8947674E-07  0.2902155E+04  0.7818609E-02  0.8272237E-01
        1   -1    0    0  501    0  0.00000000000E+00  0.00000000000E+00  0.29500733061E+04  0.29500733061E+04  0.50400001928E-02 0. -1.
       -1   -1    0    0    0  501  0.00000000000E+00  0.00000000000E+00 -0.71375363560E+03  0.71375363562E+03  0.50400001928E-02 0.  1.
    10030    2    1    2    0    0  0.00000000000E+00  0.00000000000E+00  0.22363196705E+04  0.36638269417E+04  0.29021547495E+04 0.  0.
        3    1    3    3  502    0 -0.36362127244E+03 -0.80544326890E+03 -0.33484687855E+03  0.94503001617E+03  0.10100000352E+00 0.  1.
       -3    1    3    3    0  502  0.36362127244E+03  0.80544326890E+03  0.25711665491E+04  0.27187969255E+04  0.10100000352E+00 0. -1.
</event>
<event>
 5   0  0.2325590E-06  0.2911466E+04  0.7818609E-02  0.8269474E-01
       -2   -1    0    0    0  501  0.00000000000E+00  0.00000000000E+00  0.98188120453E+03  0.98188120454E+03  0.25500000920E-02 0. -1.
        2   -1    0    0  501    0  0.00000000000E+00  0.00000000000E+00 -0.21582634921E+04  0.21582634921E+04  0.25500000920E-02 0.  1.
    10030    2    1    2    0    0  0.00000000000E+00  0.00000000000E+00 -0.11763822876E+04  0.31401446967E+04  0.29114658558E+04 0.  0.
        5    1    3    3  502    0 -0.72400825419E+03  0.93789700350E+03 -0.15003727715E+04  0.19118000117E+04  0.46999998093E+01 0.  1.
       -5    1    3    3    0  502  0.72400825419E+03 -0.93789700350E+03  0.32399048394E+03  0.12283446849E+04  0.46999998093E+01 0. -1.
</event>
<event>
 5   0  0.2304435E-06  0.2933176E+04  0.7818609E-02  0.8263075E-01
       -2   -1    0    0    0  501  0.00000000000E+00  0.00000000000E+00  0.17551197679E+04  0.17551197679E+04  0.25500000920E-02 0. -1.
        2   -1    0    0  501    0  0.00000000000E+00  0.00000000000E+00 -0.12254888527E+04  0.12254888527E+04  0.25500000920E-02 0.  1.
    10030    2    1    2    0    0  0.00000000000E+00  0.00000000000E+00  0.52963091518E+03  0.29806086207E+04  0.29331755562E+04 0.  0.
        1    1    3    3  502    0 -0.12912573739E+03 -0.12704863751E+04  0.99763671452E+03  0.16205209346E+04  0.50400001928E-02 0. -1.
       -1    1    3    3    0  502  0.12912573739E+03  0.12704863751E+04 -0.46800579934E+03  0.13600876860E+04  0.50400001928E-02 0.  1.
</event>
<event>
 5   0  0.8355946E-07  0.2992246E+04  0.7818609E-02  0.8245948E-01
       -1   -1    0    0    0  501  0.00000000000E+00  0.00000000000E+00  0.13610597286E+04  0.13610597286E+04  0.50400001928E-02 0. -1.
        1   -1    0    0  501    0  0.00000000000E+00  0.00000000000E+00 -0.16445894418E+04  0.16445894418E+04  0.50400001928E-02 0.  1.
    10030    2    1    2    0    0  0.00000000000E+00  0.00000000000E+00 -0.28352971319E+03  0.30056491704E+04  0.29922462862E+04 0.  0.
        4    1    3    3  502    0 -0.49640262242E+03  0.13877362771E+04 -0.40012367990E+03  0.15271961598E+04  0.12699999809E+01 0.  1.
       -4    1    3    3    0  502  0.49640262242E+03 -0.13877362771E+04  0.11659396671E+03  0.14784530105E+04  0.12699999809E+01 0. -1.
</event>
<event>
 5   0  0.8947674E-07  0.2887721E+04  0.7818609E-02  0.8276540E-01
        1   -1    0    0  501    0  0.00000000000E+00  0.00000000000E+00  0.15196703152E+04  0.15196703152E+04  0.50400001928E-02 0.  1.
       -1   -1    0    0    0  501  0.00000000000E+00  0.00000000000E+00 -0.13718324215E+04  0.13718324215E+04  0.50400001928E-02 0. -1.
    10030    2    1    2    0    0  0.00000000000E+00  0.00000000000E+00  0.14783789372E+03  0.28915027367E+04  0.28877209065E+04 0.  0.
        3    1    3    3  502    0  0.11030588823E+04  0.38133301497E+03  0.92507879459E+03  0.14892698052E+04  0.10100000352E+00 0.  1.
       -3    1    3    3    0  502 -0.11030588823E+04 -0.38133301497E+03 -0.77724090087E+03  0.14022329316E+04  0.10100000352E+00 0. -1.
</event>
<event>
 5   0  0.2325590E-06  0.2888926E+04  0.7818609E-02  0.8276180E-01
       -2   -1    0    0    0  501  0.00000000000E+00  0.00000000000E+00  0.12550502555E+04  0.12550502555E+04  0.25500000920E-02 0. -1.
        2   -1    0    0  501    0  0.00000000000E+00  0.00000000000E+00 -0.16624620986E+04  0.16624620986E+04  0.25500000920E-02 0.  1.
    10030    2    1    2    0    0  0.00000000000E+00  0.00000000000E+00 -0.40741184306E+03  0.29175123541E+04  0.28889260853E+04 0.  0.
        5    1    3    3  502    0  0.38177572799E+03  0.13884291946E+04 -0.31868795477E+03  0.14748126787E+04  0.46999998093E+01 0. -1.
       -5    1    3    3    0  502 -0.38177572799E+03 -0.13884291946E+04 -0.88723888297E+02  0.14426996753E+04  0.46999998093E+01 0.  1.
</event>
<event>
 5   0  0.8263673E-07  0.2899142E+04  0.7818609E-02  0.8273133E-01
       -1   -1    0    0    0  501  0.00000000000E+00  0.00000000000E+00  0.18229697229E+04  0.18229697229E+04  0.50400001928E-02 0.  1.
        1   -1    0    0  501    0  0.00000000000E+00  0.00000000000E+00 -0.11526556591E+04  0.11526556591E+04  0.50400001928E-02 0. -1.
    10030    2    1    2    0    0  0.00000000000E+00  0.00000000000E+00  0.67031406372E+03  0.29756253820E+04  0.28991421955E+04 0.  0.
        5    1    3    3  502    0 -0.24141041974E+03 -0.43120729620E+03  0.17338310529E+04  0.18028896064E+04  0.46999998093E+01 0.  1.
       -5    1    3    3    0  502  0.24141041974E+03  0.43120729620E+03 -0.10635169892E+04  0.11727357756E+04  0.46999998093E+01 0. -1.
</event>
<event>
 5   0  0.8947674E-07  0.2775838E+04  0.7818609E-02  0.8310809E-01
       -1   -1    0    0    0  501  0.00000000000E+00  0.00000000000E+00  0.11502226077E+04  0.11502226077E+04  0.50400001928E-02 0.  1.
        1   -1    0    0  501    0  0.00000000000E+00  0.00000000000E+00 -0.16747361258E+04  0.16747361258E+04  0.50400001928E-02 0. -1.
    10030    2    1    2    0    0  0.00000000000E+00  0.00000000000E+00 -0.52451351814E+03  0.28249587335E+04  0.27758381464E+04 0.  0.
        3    1    3    3  502    0 -0.54254174118E+03  0.12613196891E+04 -0.56087458853E+02  0.13741996624E+04  0.10100000352E+00 0.  1.
       -3    1    3    3    0  502  0.54254174118E+03 -0.12613196891E+04 -0.46842605929E+03  0.14507590710E+04  0.10100000352E+00 0. -1.
</event>
<event>
 5   0  0.2360103E-06  0.2888841E+04  0.7818609E-02  0.8276205E-01
       -2   -1    0    0    0  501  0.00000000000E+00  0.00000000000E+00  0.13476700435E+04  0.13476700435E+04  0.25500000920E-02 0.  1.
        2   -1    0    0  501    0  0.00000000000E+00  0.00000000000E+00 -0.15481170984E+04  0.15481170984E+04  0.25500000920E-02 0. -1.
    10030    2    1    2    0    0  0.00000000000E+00  0.00000000000E+00 -0.20044705498E+03  0.28957871419E+04  0.28888413161E+04 0.  0.
        4    1    3    3  502    0  0.12120206342E+04 -0.73560190623E+03  0.17656578882E+03  0.14287341505E+04  0.12699999809E+01 0.  1.
       -4    1    3    3    0  502 -0.12120206342E+04  0.73560190623E+03 -0.37701284380E+03  0.14670529914E+04  0.12699999809E+01 0. -1.
</event>
<event>
 5   0  0.2425845E-06  0.2791019E+04  0.7818609E-02  0.8306062E-01
       -2   -1    0    0    0  501  0.00000000000E+00  0.00000000000E+00  0.90241172827E+03  0.90241172827E+03  0.25500000920E-02 0. -1.
        2   -1    0    0  501    0  0.00000000000E+00  0.00000000000E+00 -0.21580475070E+04  0.21580475070E+04  0.25500000920E-02 0.  1.
    10030    2    1    2    0    0  0.00000000000E+00  0.00000000000E+00 -0.12556357788E+04  0.30604592353E+04  0.27910194414E+04 0.  0.
        2    1    3    3  502    0 -0.67164068383E+03  0.35753039313E+03 -0.19105885691E+04  0.20565208170E+04  0.25500000920E-02 0.  1.
       -2    1    3    3    0  502  0.67164068383E+03 -0.35753039313E+03  0.65495279035E+03  0.10039384183E+04  0.25500000920E-02 0. -1.
</event>
<event>
 5   0  0.8483636E-07  0.2902060E+04  0.7818609E-02  0.8272265E-01
       -1   -1    0    0    0  501  0.00000000000E+00  0.00000000000E+00  0.10003277219E+04  0.10003277219E+04  0.50400001928E-02 0.  1.
        1   -1    0    0  501    0  0.00000000000E+00  0.00000000000E+00 -0.21047988959E+04  0.21047988959E+04  0.50400001928E-02 0. -1.
    10030    2    1    2    0    0  0.00000000000E+00  0.00000000000E+00 -0.11044711740E+04  0.31051266178E+04  0.29020604298E+04 0.  0.
        2    1    3    3  502    0 -0.14371718611E+04 -0.19560012733E+03 -0.50726722178E+03  0.15365683852E+04  0.25500000920E-02 0. -1.
       -2    1    3    3    0  502  0.14371718611E+04  0.19560012733E+03 -0.59720395224E+03  0.15685582325E+04  0.25500000920E-02 0.  1.
</event>
<event>
 5   0  0.2425845E-06  0.2918435E+04  0.7818609E-02  0.8267414E-01
        2   -1    0    0  501    0  0.00000000000E+00  0.00000000000E+00  0.27099993733E+04  0.27099993733E+04  0.25500000920E-02 0. -1.
       -2   -1    0    0    0  501  0.00000000000E+00  0.00000000000E+00 -0.78572545168E+03  0.78572545168E+03  0.25500000920E-02 0.  1.
    10030    2    1    2    0    0  0.00000000000E+00  0.00000000000E+00  0.19242739216E+04  0.34957248250E+04  0.29184348419E+04 0.  0.
        2    1    3    3  502    0 -0.83114557056E+03 -0.39657531062E+03 -0.39368471861E+03  0.10015301264E+04  0.25500000920E-02 0.  1.
       -2    1    3    3    0  502  0.83114557056E+03  0.39657531062E+03  0.23179586402E+04  0.24941946986E+04  0.25500000920E-02 0. -1.
</event>
<event>
 5   0  0.8483636E-07  0.2910557E+04  0.7818609E-02  0.8269743E-01
        1   -1    0    0  501    0  0.00000000000E+00  0.00000000000E+00  0.18131142973E+04  0.18131142973E+04  0.50400001928E-02 0. -1.
       -1   -1    0    0    0  501  0.00000000000E+00  0.00000000000E+00 -0.11680654196E+04  0.11680654196E+04  0.50400001928E-02 0.  1.
    10030    2    1    2    0    0  0.00000000000E+00  0.00000000000E+00  0.64504887773E+03  0.29811797169E+04  0.29105574123E+04 0.  0.
        2    1    3    3  502    0 -0.36361817707E+03  0.83851729653E+03 -0.83743233340E+03  0.12396057229E+04  0.25500000920E-02 0.  1.
       -2    1    3    3    0  502  0.36361817707E+03 -0.83851729653E+03  0.14824812111E+04  0.17415739940E+04  0.25500000920E-02 0. -1.
</event>
<event>
 5   0  0.8357118E-07  0.2885781E+04  0.7818609E-02  0.8277121E-01
        1   -1    0    0  501    0  0.00000000000E+00  0.00000000000E+00  0.13630272999E+04  0.13630272999E+04  0.50400001928E-02 0.  1.
       -1   -1    0    0    0  501  0.00000000000E+00  0.00000000000E+00 -0.15274330573E+04  0.15274330573E+04  0.50400001928E-02 0. -1.
    10030    2    1    2    0    0  0.00000000000E+00  0.00000000000E+00 -0.16440575742E+03  0.28904603572E+04  0.28857809729E+04 0.  0.
        1    1    3    3  502    0 -0.77461801925E+03 -0.10122990518E+04 -0.75942830620E+03  0.14837499110E+04  0.50400001928E-02 0. -1.
       -1    1    3    3    0  502  0.77461801925E+03  0.10122990518E+04  0.59502254878E+03  0.14067104463E+04  0.50400001928E-02 0.  1.
</event>
<event>
 5   0  0.2425845E-06  0.2896754E+04  0.7818609E-02  0.8273844E-01
       -2   -1    0    0    0  501  0.00000000000E+00  0.00000000000E+00  0.24731189655E+04  0.24731189655E+04  0.25500000920E-02 0.  1.
        2   -1    0    0  501    0  0.00000000000E+00  0.00000000000E+00 -0.84823881392E+03  0.84823881392E+03  0.25500000920E-02 0. -1.
    10030    2    1    2    0    0  0.00000000000E+00  0.00000000000E+00  0.16248801516E+04  0.33213577795E+04  0.28967536989E+04 0.  0.
        2    1    3    3  502    0  0.40402213272E+01  0.12491727551E+04  0.16529277408E+04  0.20718636567E+04  0.25500000920E-02 0.  1.
       -2    1    3    3    0  502 -0.40402213272E+01 -0.12491727551E+04 -0.28047589184E+02  0.12494941228E+04  0.25500000920E-02 0. -1.
</event>
<event>
 5   0  0.2360103E-06  0.2893439E+04  0.7818609E-02  0.8274832E-01
        2   -1    0    0  501    0  0.00000000000E+00  0.00000000000E+00  0.22298120287E+04  0.22298120287E+04  0.25500000920E-02 0. -1.
       -2   -1    0    0    0  501  0.00000000000E+00  0.00000000000E+00 -0.93864315493E+03  0.93864315493E+03  0.25500000920E-02 0.  1.
    10030    2    1    2    0    0  0.00000000000E+00  0.00000000000E+00  0.12911688738E+04  0.31684551836E+04  0.28934393358E+04 0.  0.
        4    1    3    3  502    0  0.36322094559E+02 -0.39502194141E+03  0.21690928985E+04  0.22050685350E+04  0.12699999809E+01 0. -1.
       -4    1    3    3    0  502 -0.36322094559E+02  0.39502194141E+03 -0.87792402472E+03  0.96338664866E+03  0.12699999809E+01 0.  1.
</event>
<event>
 5   0  0.2304435E-06  0.2891416E+04  0.7818609E-02  0.8275436E-01
       -2   -1    0    0    0  501  0.00000000000E+00  0.00000000000E+00  0.17542329185E+04  0.17542329185E+04  0.25500000920E-02 0.  1.
        2   -1    0    0  501    0  0.00000000000E+00  0.00000000000E+00 -0.11914449762E+04  0.11914449762E+04  0.25500000920E-02 0. -1.
    10030    2    1    2    0    0  0.00000000000E+00  0.00000000000E+00  0.56278794233E+03  0.29456778947E+04  0.28914162605E+04 0.  0.
        1    1    3    3  502    0 -0.35071723208E+03 -0.54182859886E+03 -0.10365178452E+04  0.12210446556E+04  0.50400001928E-02 0. -1.
       -1    1    3    3    0  502  0.35071723208E+03  0.54182859886E+03  0.15993057876E+04  0.17246332391E+04  0.50400001928E-02 0.  1.
</event>
<event>
 5   0  0.2304435E-06  0.2881461E+04  0.7818609E-02  0.8278415E-01
       -2   -1    0    0    0  501  0.00000000000E+00  0.00000000000E+00  0.21163080961E+04  0.21163080961E+04  0.25500000920E-02 0.  1.
        2   -1    0    0  501    0  0.00000000000E+00  0.00000000000E+00 -0.98081404164E+03  0.98081404164E+03  0.25500000920E-02 0. -1.
    10030    2    1    2    0    0  0.00000000000E+00  0.00000000000E+00  0.11354940544E+04  0.30971221377E+04  0.28814612245E+04 0.  0.
        1    1    3    3  502    0  0.19852174947E+03 -0.76804989303E+03  0.18604201960E+04  0.20224922321E+04  0.50400001928E-02 0.  1.
       -1    1    3    3    0  502 -0.19852174947E+03  0.76804989303E+03 -0.72492614159E+03  0.10746299056E+04  0.50400001928E-02 0. -1.
</event>
<event>
 5   0  0.8483636E-07  0.2914678E+04  0.7818609E-02  0.8268524E-01
        1   -1    0    0  501    0  0.00000000000E+00  0.00000000000E+00  0.25892482970E+04  0.25892482970E+04  0.50400001928E-02 0.  1.
       -1   -1    0    0    0  501  0.00000000000E+00  0.00000000000E+00 -0.82025218090E+03  0.82025218091E+03  0.50400001928E-02 0. -1.
    10030    2    1    2    0    0  0.00000000000E+00  0.00000000000E+00  0.17689961161E+04  0.34095004779E+04  0.29146777266E+04 0.  0.
        2    1    3    3  502    0  0.31501199445E+03 -0.47277615790E+03 -0.68538580136E+03  0.89022668396E+03  0.25500000920E-02 0. -1.
       -2    1    3    3    0  502 -0.31501199445E+03  0.47277615790E+03  0.24543819174E+04  0.25192737939E+04  0.25500000920E-02 0.  1.
</event>
<event>
 5   0  0.8483636E-07  0.2963976E+04  0.7818609E-02  0.8254093E-01
        1   -1    0    0  501    0  0.00000000000E+00  0.00000000000E+00  0.20433503144E+04  0.20433503144E+04  0.50400001928E-02 0. -1.
       -1   -1    0    0    0  501  0.00000000000E+00  0.00000000000E+00 -0.10748470718E+04  0.10748470718E+04  0.50400001928E-02 0.  1.
    10030    2    1    2    0    0  0.00000000000E+00  0.00000000000E+00  0.96850324259E+03  0.31181973862E+04  0.29639764520E+04 0.  0.
        2    1    3    3  502    0  0.21836988097E+03  0.97326534886E+03 -0.66884346948E+03  0.12009506363E+04  0.25500000920E-02 0. -1.
       -2    1    3    3    0  502 -0.21836988097E+03 -0.97326534886E+03  0.16373467121E+04  0.19172467498E+04  0.25500000920E-02 0.  1.
</event>
<event>
 5   0  0.2304435E-06  0.2896292E+04  0.7818609E-02  0.8273982E-01
        2   -1    0    0  501    0  0.00000000000E+00  0.00000000000E+00  0.11843879749E+04  0.11843879749E+04  0.25500000920E-02 0. -1.
       -2   -1    0    0    0  501  0.00000000000E+00  0.00000000000E+00 -0.17706418271E+04  0.17706418271E+04  0.25500000920E-02 0.  1.
    10030    2    1    2    0    0  0.00000000000E+00  0.00000000000E+00 -0.58625385228E+03  0.29550298020E+04  0.28962920349E+04 0.  0.
        1    1    3    3  502    0  0.12898366276E+04  0.13023139485E+03 -0.95157394789E+03  0.16081454289E+04  0.50400001928E-02 0.  1.
       -1    1    3    3    0  502 -0.12898366276E+04 -0.13023139485E+03  0.36532009561E+03  0.13468843731E+04  0.50400001928E-02 0. -1.
</event>
<event>
 5   0  0.2325590E-06  0.2878571E+04  0.7818609E-02  0.8279282E-01
       -2   -1    0    0    0  501  0.00000000000E+00  0.00000000000E+00  0.15123857395E+04  0.15123857395E+04  0.25500000920E-02 0.  1.
        2   -1    0    0  501    0  0.00000000000E+00  0.00000000000E+00 -0.13697187385E+04  0.13697187385E+04  0.25500000920E-02 0. -1.
    10030    2    1    2    0    0  0.00000000000E+00  0.00000000000E+00  0.14266700100E+03  0.28821044780E+04  0.28785712339E+04 0.  0.
        5    1    3    3  502    0 -0.98895774651E+03  0.34855589438E+03  0.10584403491E+04  0.14899149970E+04  0.46999998093E+01 0.  1.
       -5    1    3    3    0  502  0.98895774651E+03 -0.34855589438E+03 -0.91577334806E+03  0.13921894810E+04  0.46999998093E+01 0. -1.
</event>
<event>
 5   0  0.2360103E-06  0.2900473E+04  0.7818609E-02  0.8272737E-01
        2   -1    0    0  501    0  0.00000000000E+00  0.00000000000E+00  0.10605665697E+04  0.10605665697E+04  0.25500000920E-02 0.  1.
       -2   -1    0    0    0  501  0.00000000000E+00  0.00000000000E+00 -0.19830774833E+04  0.19830774833E+04  0.25500000920E-02 0. -1.
    10030    2    1    2    0    0  0.00000000000E+00  0.00000000000E+00 -0.92251091356E+03  0.30436440530E+04  0.29004728469E+04 0.  0.
        4    1    3    3  502    0 -0.13009651246E+04  0.13791414985E+03  0.19545822567E+03  0.13227759066E+04  0.12699999809E+01 0.  1.
       -4    1    3    3    0  502  0.13009651246E+04 -0.13791414985E+03 -0.11179691392E+04  0.17208681464E+04  0.12699999809E+01 0. -1.
</event>
<event>
 5   0  0.8357118E-07  0.2901101E+04  0.7818609E-02  0.8272550E-01
        1   -1    0    0  501    0  0.00000000000E+00  0.00000000000E+00  0.12454211430E+04  0.12454211430E+04  0.50400001928E-02 0. -1.
       -1   -1    0    0    0  501  0.00000000000E+00  0.00000000000E+00 -0.16894664349E+04  0.16894664349E+04  0.50400001928E-02 0.  1.
    10030    2    1    2    0    0  0.00000000000E+00  0.00000000000E+00 -0.44404529187E+03  0.29348875779E+04  0.29011013209E+04 0.  0.
        1    1    3    3  502    0 -0.44647923730E+03  0.12258608709E+04 -0.86345618620E+03  0.15644919845E+04  0.50400001928E-02 0.  1.
       -1    1    3    3    0  502  0.44647923730E+03 -0.12258608709E+04  0.41941089433E+03  0.13703955934E+04  0.50400001928E-02 0. -1.
</event>
<event>
 5   0  0.2378690E-06  0.2894793E+04  0.7818609E-02  0.8274428E-01
       -2   -1    0    0    0  501  0.00000000000E+00  0.00000000000E+00  0.15148024263E+04  0.15148024263E+04  0.25500000920E-02 0.  1.
        2   -1    0    0  501    0  0.00000000000E+00  0.00000000000E+00 -0.13829904222E+04  0.13829904222E+04  0.25500000920E-02 0. -1.
    10030    2    1    2    0    0  0.00000000000E+00  0.00000000000E+00  0.13181200407E+03  0.28977928485E+04  0.28947934276E+04 0.  0.
        3    1    3    3  502    0 -0.92612749848E+03 -0.15136027073E+03  0.11690165659E+04  0.14990736528E+04  0.10100000352E+00 0.  1.
       -3    1    3    3    0  502  0.92612749848E+03  0.15136027073E+03 -0.10372045618E+04  0.13987191957E+04  0.10100000352E+00 0. -1.
</event>
<event>
 5   0  0.2304435E-06  0.2912723E+04  0.7818609E-02  0.8269102E-01
       -2   -1    0    0    0  501  0.00000000000E+00  0.00000000000E+00  0.14770911467E+04  0.14770911467E+04  0.25500000920E-02 0.  1.
        2   -1    0    0  501    0  0.00000000000E+00  0.00000000000E+00 -0.14359224187E+04  0.14359224187E+04  0.25500000920E-02 0. -1.
    10030    2    1    2    0    0  0.00000000000E+00  0.00000000000E+00  0.41168728015E+02  0.29130135654E+04  0.29127226384E+04 0.  0.
        1    1    3    3  502    0  0.80976207325E+03  0.74086407744E+03  0.97796473053E+03  0.14700371460E+04  0.50400001928E-02 0.  1.
       -1    1    3    3    0  502 -0.80976207325E+03 -0.74086407744E+03 -0.93679600252E+03  0.14429764194E+04  0.50400001928E-02 0. -1.
</event>
<event>
 5   0  0.8355946E-07  0.2886239E+04  0.7818609E-02  0.8276983E-01
        1   -1    0    0  501    0  0.00000000000E+00  0.00000000000E+00  0.14393485845E+04  0.14393485845E+04  0.50400001928E-02 0. -1.
       -1   -1    0    0    0  501  0.00000000000E+00  0.00000000000E+00 -0.14469006020E+04  0.14469006020E+04  0.50400001928E-02 0.  1.
    10030    2    1    2    0    0  0.00000000000E+00  0.00000000000E+00 -0.75520175409E+01  0.28862491865E+04  0.28862393063E+04 0.  0.
        4    1    3    3  502    0  0.95628731964E+03 -0.82522209745E+02 -0.10814147786E+04  0.14459442898E+04  0.12699999809E+01 0.  1.
       -4    1    3    3    0  502 -0.95628731964E+03  0.82522209745E+02  0.10738627611E+04  0.14403048967E+04  0.12699999809E+01 0. -1.
</event>
<event>
 5   0  0.2378690E-06  0.2770420E+04  0.7818609E-02  0.8312511E-01
        2   -1    0    0  501    0  0.00000000000E+00  0.00000000000E+00  0.13781067352E+04  0.13781067352E+04  0.25500000920E-02 0.  1.
       -2   -1    0    0    0  501  0.00000000000E+00  0.00000000000E+00 -0.13923503494E+04  0.13923503494E+04  0.25500000920E-02 0. -1.
    10030    2    1    2    0    0  0.00000000000E+00  0.00000000000E+00 -0.14243614241E+02  0.27704570846E+04  0.27704204694E+04 0.  0.
        3    1    3    3  502    0 -0.11202378155E+04  0.76619469484E+03 -0.28429024144E+03  0.13866535347E+04  0.10100000352E+00 0.  1.
       -3    1    3    3    0  502  0.11202378155E+04 -0.76619469484E+03  0.27004662720E+03  0.13838035499E+04  0.10100000352E+00 0. -1.
</event>
<event>
 5   0  0.2304435E-06  0.2901234E+04  0.7818609E-02  0.8272510E-01
        2   -1    0    0  501    0  0.00000000000E+00  0.00000000000E+00  0.18522153877E+04  0.18522153877E+04  0.25500000920E-02 0. -1.
       -2   -1    0    0    0  501  0.00000000000E+00  0.00000000000E+00 -0.11360933831E+04  0.11360933832E+04  0.25500000920E-02 0.  1.
    10030    2    1    2    0    0  0.00000000000E+00  0.00000000000E+00  0.71612200454E+03  0.29883087708E+04  0.29012339762E+04 0.  0.
        1    1    3    3  502    0  0.70168930035E+03  0.14825452958E+03 -0.94071245848E+03  0.11829147092E+04  0.50400001928E-02 0.  1.
       -1    1    3    3    0  502 -0.70168930035E+03 -0.14825452958E+03  0.16568344630E+04  0.18053940616E+04  0.50400001928E-02 0. -1.
</event>
<event>
 5   0  0.8483636E-07  0.2885753E+04  0.7818609E-02  0.8277129E-01
       -1   -1    0    0    0  501  0.00000000000E+00  0.00000000000E+00  0.14306908420E+04  0.14306908420E+04  0.50400001928E-02 0.  1.
        1   -1    0    0  501    0  0.00000000000E+00  0.00000000000E+00 -0.14551662477E+04  0.14551662478E+04  0.50400001928E-02 0. -1.
    10030    2    1    2    0    0  0.00000000000E+00  0.00000000000E+00 -0.24475405742E+02  0.28858570898E+04  0.28857532980E+04 0.  0.
        2    1    3    3  502    0  0.84615595352E+03  0.11656814343E+04  0.72026352696E+02  0.14422138882E+04  0.25500000920E-02 0.  1.
       -2    1    3    3    0  502 -0.84615595352E+03 -0.11656814343E+04 -0.96501758438E+02  0.14436432015E+04  0.25500000920E-02 0. -1.
</event>
<event>
 5   0  0.2325590E-06  0.2904275E+04  0.7818609E-02  0.8271607E-01
        2   -1    0    0  501    0  0.00000000000E+00  0.00000000000E+00  0.16860971160E+04  0.16860971160E+04  0.25500000920E-02 0. -1.
       -2   -1    0    0    0  501  0.00000000000E+00  0.00000000000E+00 -0.12506419171E+04  0.12506419171E+04  0.25500000920E-02 0.  1.
    10030    2    1    2    0    0  0.00000000000E+00  0.00000000000E+00  0.43545519888E+03  0.29367390332E+04  0.29042752829E+04 0.  0.
        5    1    3    3  502    0  0.13661787766E+04  0.21370824436E+03 -0.23058583236E+03  0.14018942825E+04  0.46999998093E+01 0. -1.
       -5    1    3    3    0  502 -0.13661787766E+04 -0.21370824436E+03  0.66604103124E+03  0.15348447506E+04  0.46999998093E+01 0.  1.
</event>
<event>
 5   0  0.8357118E-07  0.2902933E+04  0.7818609E-02  0.8272005E-01
       -1   -1    0    0    0  501  0.00000000000E+00  0.00000000000E+00  0.10956242560E+04  0.10956242560E+04  0.50400001928E-02 0. -1.
        1   -1    0    0  501    0  0.00000000000E+00  0.00000000000E+00 -0.19228803853E+04  0.19228803853E+04  0.50400001928E-02 0.  1.
    10030    2    1    2    0    0  0.00000000000E+00  0.00000000000E+00 -0.82725612927E+03  0.30185046413E+04  0.29029325803E+04 0.  0.
        1    1    3    3  502    0  0.77981131426E+03  0.59531834204E+03  0.69865254892E+03  0.12044189464E+04  0.50400001928E-02 0. -1.
       -1    1    3    3    0  502 -0.77981131426E+03 -0.59531834204E+03 -0.15259086782E+04  0.18140856949E+04  0.50400001928E-02 0.  1.
</event>
<event>
 5   0  0.2304435E-06  0.2911285E+04  0.7818609E-02  0.8269528E-01
        2   -1    0    0  501    0  0.00000000000E+00  0.00000000000E+00  0.12952423060E+04  0.12952423060E+04  0.25500000920E-02 0.  1.
       -2   -1    0    0    0  501  0.00000000000E+00  0.00000000000E+00 -0.16359059465E+04  0.16359059465E+04  0.25500000920E-02 0. -1.
    10030    2    1    2    0    0  0.00000000000E+00  0.00000000000E+00 -0.34066364045E+03  0.29311482525E+04  0.29112846584E+04 0.  0.
        1    1    3    3  502    0  0.36216011310E+03  0.14058680033E+04 -0.63448183150E+02  0.14531519061E+04  0.50400001928E-02 0.  1.
       -1    1    3    3    0  502 -0.36216011310E+03 -0.14058680033E+04 -0.27721545730E+03  0.14779963464E+04  0.50400001928E-02 0. -1.
</event>
<event>
 5   0  0.2425845E-06  0.2905800E+04  0.7818609E-02  0.8271154E-01
        2   -1    0    0  501    0  0.00000000000E+00  0.00000000000E+00  0.12505002150E+04  0.12505002150E+04  0.25500000920E-02 0.  1.
       -2   -1    0    0    0  501  0.00000000000E+00  0.00000000000E+00 -0.16880594671E+04  0.16880594671E+04  0.25500000920E-02 0. -1.
    10030    2    1    2    0    0  0.00000000000E+00  0.00000000000E+00 -0.43755925212E+03  0.29385596822E+04  0.29058002179E+04 0.  0.
        2    1    3    3  502    0 -0.51870901311E+03  0.89105647678E+03 -0.12539793167E+04  0.16234237930E+04  0.25500000920E-02 0. -1.
       -2    1    3    3    0  502  0.51870901311E+03 -0.89105647678E+03  0.81642006454E+03  0.13151358891E+04  0.25500000920E-02 0.  1.
</event>
<event>
 5   0  0.7621125E-07  0.2897891E+04  0.7818609E-02  0.8273505E-01
        3   -1    0    0  501    0  0.00000000000E+00  0.00000000000E+00  0.21962200940E+04  0.21962200963E+04  0.10100000352E+00 0. -1.
       -3   -1    0    0    0  501  0.00000000000E+00  0.00000000000E+00 -0.95593446000E+03  0.95593446534E+03  0.10100000352E+00 0.  1.
    10030    2    1    2    0    0  0.00000000000E+00  0.00000000000E+00  0.12402856340E+04  0.31521545616E+04  0.28978905995E+04 0.  0.
        2    1    3    3  502    0 -0.74853738161E+02  0.12064350665E+04 -0.24893017260E+03  0.12341210973E+04  0.25500000920E-02 0.  1.
       -2    1    3    3    0  502  0.74853738161E+02 -0.12064350665E+04  0.14892158066E+04  0.19180334644E+04  0.25500000920E-02 0. -1.
</event>
<event>
 5   0  0.8947674E-07  0.2906182E+04  0.7818609E-02  0.8271040E-01
       -1   -1    0    0    0  501  0.00000000000E+00  0.00000000000E+00  0.13227222329E+04  0.13227222329E+04  0.50400001928E-02 0.  1.
        1   -1    0    0  501    0  0.00000000000E+00  0.00000000000E+00 -0.15963093487E+04  0.15963093487E+04  0.50400001928E-02 0. -1.
    10030    2    1    2    0    0  0.00000000000E+00  0.00000000000E+00 -0.27358711581E+03  0.29190315816E+04  0.29061822835E+04 0.  0.
        3    1    3    3  502    0  0.15602651998E+03 -0.81775134017E+03  0.10594433322E+04  0.13473981273E+04  0.10100000352E+00 0.  1.
       -3    1    3    3    0  502 -0.15602651998E+03  0.81775134017E+03 -0.13330304480E+04  0.15716334543E+04  0.10100000352E+00 0. -1.
</event>
<event>
 5   0  0.2378690E-06  0.2902159E+04  0.7818609E-02  0.8272235E-01
       -2   -1    0    0    0  501  0.00000000000E+00  0.00000000000E+00  0.13454333999E+04  0.13454333999E+04  0.25500000920E-02 0.  1.
        2   -1    0    0  501    0  0.00000000000E+00  0.00000000000E+00 -0.15650211451E+04  0.15650211451E+04  0.25500000920E-02 0. -1.
    10030    2    1    2    0    0  0.00000000000E+00  0.00000000000E+00 -0.21958774518E+03  0.29104545450E+04  0.29021590034E+04 0.  0.
        3    1    3    3  502    0  0.32522520750E+03 -0.13269221771E+04 -0.60020886925E+03  0.14922280645E+04  0.10100000352E+00 0. -1.
       -3    1    3    3    0  502 -0.32522520750E+03  0.13269221771E+04  0.38062112406E+03  0.14182264805E+04  0.10100000352E+00 0.  1.
</event>
<event>
 5   0  0.2325590E-06  0.2884813E+04  0.7818609E-02  0.8277410E-01
       -2   -1    0    0    0  501  0.00000000000E+00  0.00000000000E+00  0.12974716986E+04  0.12974716986E+04  0.25500000920E-02 0.  1.
        2   -1    0    0  501    0  0.00000000000E+00  0.00000000000E+00 -0.16035314637E+04  0.16035314637E+04  0.25500000920E-02 0. -1.
    10030    2    1    2    0    0  0.00000000000E+00  0.00000000000E+00 -0.30605976502E+03  0.29010031623E+04  0.28848131253E+04 0.  0.
        5    1    3    3  502    0 -0.30748317531E+02  0.11729301434E+04  0.69060861382E+03  0.13614965765E+04  0.46999998093E+01 0.  1.
       -5    1    3    3    0  502  0.30748317531E+02 -0.11729301434E+04 -0.99666837884E+03  0.15395065858E+04  0.46999998093E+01 0. -1.
</event>
<event>
 5   0  0.7621125E-07  0.2905129E+04  0.7818609E-02  0.8271353E-01
        3   -1    0    0  501    0  0.00000000000E+00  0.00000000000E+00  0.10912592191E+04  0.10912592238E+04  0.10100000352E+00 0.  1.
       -3   -1    0    0    0  501  0.00000000000E+00  0.00000000000E+00 -0.19334942074E+04  0.19334942100E+04  0.10100000352E+00 0. -1.
    10030    2    1    2    0    0  0.00000000000E+00  0.00000000000E+00 -0.84223498832E+03  0.30247534338E+04  0.29051288370E+04 0.  0.
        2    1    3    3  502    0 -0.64122285281E+03 -0.12220712424E+04  0.50661548975E+02  0.13810110286E+04  0.25500000920E-02 0.  1.
       -2    1    3    3    0  502  0.64122285281E+03  0.12220712424E+04 -0.89289653729E+03  0.16437424052E+04  0.25500000920E-02 0. -1.
</event>
<event>
 5   0  0.2304435E-06  0.2987162E+04  0.7818609E-02  0.8247406E-01
       -2   -1    0    0    0  501  0.00000000000E+00  0.00000000000E+00  0.12256331534E+04  0.12256331534E+04  0.25500000920E-02 0. -1.
        2   -1    0    0  501    0  0.00000000000E+00  0.00000000000E+00 -0.18201074299E+04  0.18201074299E+04  0.25500000920E-02 0.  1.
    10030    2    1    2    0    0  0.00000000000E+00  0.00000000000E+00 -0.59447427651E+03  0.30457405833E+04  0.29871618696E+04 0.  0.
        1    1    3    3  502    0  0.20790642014E+03  0.56770556994E+03 -0.16897683115E+04  0.17946675571E+04  0.50400001928E-02 0.  1.
       -1    1    3    3    0  502 -0.20790642014E+03 -0.56770556994E+03  0.10952940350E+04  0.12510730262E+04  0.50400001928E-02 0. -1.
</event>
<event>
 5   0  0.8357118E-07  0.2991093E+04  0.7818609E-02  0.8246279E-01
       -1   -1    0    0    0  501  0.00000000000E+00  0.00000000000E+00  0.13370856505E+04  0.13370856505E+04  0.50400001928E-02 0.  1.
        1   -1    0    0  501    0  0.00000000000E+00  0.00000000000E+00 -0.16727874042E+04  0.16727874042E+04  0.50400001928E-02 0. -1.
    10030    2    1    2    0    0  0.00000000000E+00  0.00000000000E+00 -0.33570175362E+03  0.30098730547E+04  0.29910934686E+04 0.  0.
        1    1    3    3  502    0 -0.61571384977E+03  0.13585179762E+04 -0.27801607663E+03  0.15172236405E+04  0.50400001928E-02 0.  1.
       -1    1    3    3    0  502  0.61571384977E+03 -0.13585179762E+04 -0.57685676990E+02  0.14926494142E+04  0.50400001928E-02 0. -1.
</event>
<event>
 5   0  0.2378690E-06  0.2869347E+04  0.7818609E-02  0.8282056E-01
       -2   -1    0    0    0  501  0.00000000000E+00  0.00000000000E+00  0.26469272265E+04  0.26469272265E+04  0.25500000920E-02 0. -1.
        2   -1    0    0  501    0  0.00000000000E+00  0.00000000000E+00 -0.77761423764E+03  0.77761423765E+03  0.25500000920E-02 0.  1.
    10030    2    1    2    0    0  0.00000000000E+00  0.00000000000E+00  0.18693129889E+04  0.34245414641E+04  0.28693471713E+04 0.  0.
        3    1    3    3  502    0 -0.23315735450E+02  0.38251670679E+03  0.25847100252E+04  0.26129654761E+04  0.10100000352E+00 0. -1.
       -3    1    3    3    0  502  0.23315735450E+02 -0.38251670679E+03 -0.71539703639E+03  0.81157598805E+03  0.10100000352E+00 0.  1.
</event>
<event>
 5   0  0.2360103E-06  0.2902498E+04  0.7818609E-02  0.8272135E-01
       -2   -1    0    0    0  501  0.00000000000E+00  0.00000000000E+00  0.14378141374E+04  0.14378141374E+04  0.25500000920E-02 0. -1.
        2   -1    0    0  501    0  0.00000000000E+00  0.00000000000E+00 -0.14648093419E+04  0.14648093419E+04  0.25500000920E-02 0.  1.
    10030    2    1    2    0    0  0.00000000000E+00  0.00000000000E+00 -0.26995204477E+02  0.29026234794E+04  0.29024979452E+04 0.  0.
        4    1    3    3  502    0  0.10275224460E+04  0.35635538405E+03 -0.97444000493E+03  0.14602487709E+04  0.12699999809E+01 0.  1.
       -4    1    3    3    0  502 -0.10275224460E+04 -0.35635538405E+03  0.94744480045E+03  0.14423747085E+04  0.12699999809E+01 0. -1.
</event>
<event>
 5   0  0.2425845E-06  0.2916698E+04  0.7818609E-02  0.8267927E-01
        2   -1    0    0  501    0  0.00000000000E+00  0.00000000000E+00  0.15470733325E+04  0.15470733325E+04  0.25500000920E-02 0. -1.
       -2   -1    0    0    0  501  0.00000000000E+00  0.00000000000E+00 -0.13747127088E+04  0.13747127088E+04  0.25500000920E-02 0.  1.
    10030    2    1    2    0    0  0.00000000000E+00  0.00000000000E+00  0.17236062370E+03  0.29217860414E+04  0.29166977024E+04 0.  0.
        2    1    3    3  502    0 -0.68211014196E+03 -0.10537702943E+04 -0.65745920577E+03  0.14170245891E+04  0.25500000920E-02 0.  1.
       -2    1    3    3    0  502  0.68211014196E+03  0.10537702943E+04  0.82981982947E+03  0.15047614523E+04  0.25500000920E-02 0. -1.
</event>
<event>
 5   0  0.2360103E-06  0.2900254E+04  0.7818609E-02  0.8272802E-01
       -2   -1    0    0    0  501  0.00000000000E+00  0.00000000000E+00  0.88713057761E+03  0.88713057761E+03  0.25500000920E-02 0.  1.
        2   -1    0    0  501    0  0.00000000000E+00  0.00000000000E+00 -0.23704153000E+04  0.23704153000E+04  0.25500000920E-02 0. -1.
    10030    2    1    2    0    0  0.00000000000E+00  0.00000000000E+00 -0.14832847223E+04  0.32575458776E+04  0.29002537091E+04 0.  0.
        4    1    3    3  502    0  0.77429130952E+03 -0.11070942351E+04 -0.13335147830E+04  0.18982749976E+04  0.12699999809E+01 0. -1.
       -4    1    3    3    0  502 -0.77429130952E+03  0.11070942351E+04 -0.14976993937E+03  0.13592708799E+04  0.12699999809E+01 0.  1.
</event>
<event>
 5   0  0.2304435E-06  0.2841811E+04  0.7818609E-02  0.8290404E-01
       -2   -1    0    0    0  501  0.00000000000E+00  0.00000000000E+00  0.10201506281E+04  0.10201506281E+04  0.25500000920E-02 0.  1.
        2   -1    0    0  501    0  0.00000000000E+00  0.00000000000E+00 -0.19790925399E+04  0.19790925399E+04  0.25500000920E-02 0. -1.
    10030    2    1    2    0    0  0.00000000000E+00  0.00000000000E+00 -0.95894191184E+03  0.29992431680E+04  0.28418110406E+04 0.  0.
        1    1    3    3  502    0 -0.95835561607E+03  0.10375534006E+04 -0.64300648632E+03  0.15519084662E+04  0.50400001928E-02 0.  1.
       -1    1    3    3    0  502  0.95835561607E+03 -0.10375534006E+04 -0.31593542553E+03  0.14473347018E+04  0.50400001928E-02 0. -1.
</event>
<event>
 5   0  0.7621125E-07  0.2922807E+04  0.7818609E-02  0.8266124E-01
       -3   -1    0    0    0  501  0.00000000000E+00  0.00000000000E+00  0.21487804489E+04  0.21487804513E+04  0.10100000352E+00 0.  1.
        3   -1    0    0  501    0  0.00000000000E+00  0.00000000000E+00 -0.99391253778E+03  0.99391254292E+03  0.10100000352E+00 0. -1.
    10030    2    1    2    0    0  0.00000000000E+00  0.00000000000E+00  0.11548679111E+04  0.31426929942E+04  0.29228067612E+04 0.  0.
        2    1    3    3  502    0 -0.10605867939E+04  0.10052319410E+04  0.55691313623E+03  0.15638055646E+04  0.25500000920E-02 0.  1.
       -2    1    3    3    0  502  0.10605867939E+04 -0.10052319410E+04  0.59795477488E+03  0.15788874296E+04  0.25500000920E-02 0. -1.
</event>
<event>
 5   0  0.8357118E-07  0.2898309E+04  0.7818609E-02  0.8273381E-01
       -1   -1    0    0    0  501  0.00000000000E+00  0.00000000000E+00  0.13763832511E+04  0.13763832511E+04  0.50400001928E-02 0. -1.
        1   -1    0    0  501    0  0.00000000000E+00  0.00000000000E+00 -0.15257731845E+04  0.15257731846E+04  0.50400001928E-02 0.  1.
    10030    2    1    2    0    0  0.00000000000E+00  0.00000000000E+00 -0.14938993344E+03  0.29021564357E+04  0.28983089250E+04 0.  0.
        1    1    3    3  502    0 -0.98621224650E+03  0.66020611805E+02 -0.11358542801E+04  0.15057019167E+04  0.50400001928E-02 0.  1.
       -1    1    3    3    0  502  0.98621224650E+03 -0.66020611805E+02  0.98646434665E+03  0.13964545190E+04  0.50400001928E-02 0. -1.
</event>
<event>
 5   0  0.2304435E-06  0.2918395E+04  0.7818609E-02  0.8267425E-01
        2   -1    0    0  501    0  0.00000000000E+00  0.00000000000E+00  0.22078083792E+04  0.22078083792E+04  0.25500000920E-02 0. -1.
       -2   -1    0    0    0  501  0.00000000000E+00  0.00000000000E+00 -0.96442129277E+03  0.96442129278E+03  0.25500000920E-02 0.  1.
    10030    2    1    2    0    0  0.00000000000E+00  0.00000000000E+00  0.12433870864E+04  0.31722296720E+04  0.29183950461E+04 0.  0.
        1    1    3    3  502    0  0.61830445512E+03 -0.91677261157E+03 -0.41321233184E+03  0.11804731474E+04  0.50400001928E-02 0.  1.
       -1    1    3    3    0  502 -0.61830445512E+03  0.91677261157E+03  0.16565994183E+04  0.19917565246E+04  0.50400001928E-02 0. -1.
</event>
<event>
 5   0  0.8483636E-07  0.2868435E+04  0.7818609E-02  0.8282331E-01
        1   -1    0    0  501    0  0.00000000000E+00  0.00000000000E+00  0.13635023127E+04  0.13635023127E+04  0.50400001928E-02 0. -1.
       -1   -1    0    0    0  501  0.00000000000E+00  0.00000000000E+00 -0.15086003664E+04  0.15086003664E+04  0.50400001928E-02 0.  1.
    10030    2    1    2    0    0  0.00000000000E+00  0.00000000000E+00 -0.14509805376E+03  0.28721026791E+04  0.28684351751E+04 0.  0.
        2    1    3    3  502    0  0.37098591888E+03 -0.77313066295E+03 -0.12236355773E+04  0.14942040022E+04  0.25500000920E-02 0.  1.
       -2    1    3    3    0  502 -0.37098591888E+03  0.77313066295E+03  0.10785375236E+04  0.13778986769E+04  0.25500000920E-02 0. -1.
</event>
<event>
 5   0  0.8947674E-07  0.2880684E+04  0.7818609E-02  0.8278648E-01
        1   -1    0    0  501    0  0.00000000000E+00  0.00000000000E+00  0.22003429522E+04  0.22003429522E+04  0.50400001928E-02 0.  1.
       -1   -1    0    0    0  501  0.00000000000E+00  0.00000000000E+00 -0.94284640137E+03  0.94284640139E+03  0.50400001928E-02 0. -1.
    10030    2    1    2    0    0  0.00000000000E+00  0.00000000000E+00  0.12574965509E+04  0.31431893536E+04  0.28806842481E+04 0.  0.
        3    1    3    3  502    0 -0.11167175638E+03 -0.13763969665E+04  0.10755057091E+04  0.17503290350E+04  0.10100000352E+00 0.  1.
       -3    1    3    3    0  502  0.11167175638E+03  0.13763969665E+04  0.18199084182E+03  0.13928603186E+04  0.10100000352E+00 0. -1.
</event>
<event>
 5   0  0.8355946E-07  0.2910198E+04  0.7818609E-02  0.8269850E-01
       -1   -1    0    0    0  501  0.00000000000E+00  0.00000000000E+00  0.12212176298E+04  0.12212176298E+04  0.50400001928E-02 0.  1.
        1   -1    0    0  501    0  0.00000000000E+00  0.00000000000E+00 -0.17337719764E+04  0.17337719764E+04  0.50400001928E-02 0. -1.
    10030    2    1    2    0    0  0.00000000000E+00  0.00000000000E+00 -0.51255434660E+03  0.29549896061E+04  0.29101978651E+04 0.  0.
        4    1    3    3  502    0 -0.67736153917E+03  0.12752239848E+04 -0.43875523657E+03  0.15091463271E+04  0.12699999809E+01 0. -1.
       -4    1    3    3    0  502  0.67736153917E+03 -0.12752239848E+04 -0.73799110039E+02  0.14458432791E+04  0.12699999809E+01 0.  1.
</event>
<event>
 5   0  0.2304435E-06  0.2884664E+04  0.7818609E-02  0.8277455E-01
       -2   -1    0    0    0  501  0.00000000000E+00  0.00000000000E+00  0.13127984931E+04  0.13127984931E+04  0.25500000920E-02 0.  1.
        2   -1    0    0  501    0  0.00000000000E+00  0.00000000000E+00 -0.15846470742E+04  0.15846470742E+04  0.25500000920E-02 0. -1.
    10030    2    1    2    0    0  0.00000000000E+00  0.00000000000E+00 -0.27184858107E+03  0.28974455673E+04  0.28846644804E+04 0.  0.
        1    1    3    3  502    0  0.13745174083E+04  0.30214170210E+03 -0.45313135744E+03  0.14784842715E+04  0.50400001928E-02 0.  1.
       -1    1    3    3    0  502 -0.13745174083E+04 -0.30214170210E+03  0.18128277637E+03  0.14189612958E+04  0.50400001928E-02 0. -1.
</event>
<event>
 5   0  0.8483636E-07  0.2916062E+04  0.7818609E-02  0.8268114E-01
       -1   -1    0    0    0  501  0.00000000000E+00  0.00000000000E+00  0.20042989954E+04  0.20042989954E+04  0.50400001928E-02 0. -1.
        1   -1    0    0  501    0  0.00000000000E+00  0.00000000000E+00 -0.10606474862E+04  0.10606474862E+04  0.50400001928E-02 0.  1.
    10030    2    1    2    0    0  0.00000000000E+00  0.00000000000E+00  0.94365150926E+03  0.30649464816E+04  0.29160622017E+04 0.  0.
        2    1    3    3  502    0 -0.14216288253E+04 -0.13181567491E+03  0.78264507795E+03  0.16281698950E+04  0.25500000920E-02 0.  1.
       -2    1    3    3    0  502  0.14216288253E+04  0.13181567491E+03  0.16100643131E+03  0.14367765866E+04  0.25500000920E-02 0. -1.
</event>
<event>
 5   0  0.8263673E-07  0.2884311E+04  0.7818609E-02  0.8277561E-01
       -1   -1    0    0    0  501  0.00000000000E+00  0.00000000000E+00  0.24974571543E+04  0.24974571543E+04  0.50400001928E-02 0. -1.
        1   -1    0    0  501    0  0.00000000000E+00  0.00000000000E+00 -0.83277182586E+03  0.83277182588E+03  0.50400001928E-02 0.  1.
    10030    2    1    2    0    0  0.00000000000E+00  0.00000000000E+00  0.16646853285E+04  0.33302289802E+04  0.28843106313E+04 0.  0.
        5    1    3    3  502    0 -0.39640550341E+03 -0.89220688004E+03 -0.39317812395E+03  0.10525120271E+04  0.46999998093E+01 0.  1.
       -5    1    3    3    0  502  0.39640550341E+03  0.89220688004E+03  0.20578634524E+04  0.22777169532E+04  0.46999998093E+01 0. -1.
</event>
<event>
 5   0  0.8263673E-07  0.2904100E+04  0.7818609E-02  0.8271659E-01
       -1   -1    0    0    0  501  0.00000000000E+00  0.00000000000E+00  0.26506938628E+04  0.26506938628E+04  0.50400001928E-02 0.  1.
        1   -1    0    0  501    0  0.00000000000E+00  0.00000000000E+00 -0.79543271368E+03  0.79543271369E+03  0.50400001928E-02 0. -1.
    10030    2    1    2    0    0  0.00000000000E+00  0.00000000000E+00  0.18552611491E+04  0.34461265765E+04  0.29040995936E+04 0.  0.
        5    1    3    3  502    0  0.13694332665E+04 -0.26899459617E+03  0.45190557369E+03  0.14669513631E+04  0.46999998093E+01 0. -1.
       -5    1    3    3    0  502 -0.13694332665E+04  0.26899459617E+03  0.14033555754E+04  0.19791752134E+04  0.46999998093E+01 0.  1.
</event>
<event>
 5   0  0.2304435E-06  0.2911857E+04  0.7818609E-02  0.8269358E-01
       -2   -1    0    0    0  501  0.00000000000E+00  0.00000000000E+00  0.13805169778E+04  0.13805169778E+04  0.25500000920E-02 0.  1.
        2   -1    0    0  501    0  0.00000000000E+00  0.00000000000E+00 -0.15354592326E+04  0.15354592326E+04  0.25500000920E-02 0. -1.
    10030    2    1    2    0    0  0.00000000000E+00  0.00000000000E+00 -0.15494225483E+03  0.29159762104E+04  0.29118568230E+04 0.  0.
        1    1    3    3  502    0  0.55136609585E+03  0.11542805698E+04  0.61875291176E+03  0.14209937971E+04  0.50400001928E-02 0.  1.
       -1    1    3    3    0  502 -0.55136609585E+03 -0.11542805698E+04 -0.77369516659E+03  0.14949824134E+04  0.50400001928E-02 0. -1.
</event>
<event>
 5   0  0.8263673E-07  0.2879439E+04  0.7818609E-02  0.8279021E-01
        1   -1    0    0  501    0  0.00000000000E+00  0.00000000000E+00  0.13578651213E+04  0.13578651214E+04  0.50400001928E-02 0.  1.
       -1   -1    0    0    0  501  0.00000000000E+00  0.00000000000E+00 -0.15265084138E+04  0.15265084138E+04  0.50400001928E-02 0. -1.
    10030    2    1    2    0    0  0.00000000000E+00  0.00000000000E+00 -0.16864329248E+03  0.28843735352E+04  0.28794392041E+04 0.  0.
        5    1    3    3  502    0  0.36946719981E+03 -0.13604997839E+04 -0.37689195094E+03  0.14592927419E+04  0.46999998093E+01 0. -1.
       -5    1    3    3    0  502 -0.36946719981E+03  0.13604997839E+04  0.20824865847E+03  0.14250807933E+04  0.46999998093E+01 0.  1.
</event>
<event>
 5   0  0.2425845E-06  0.2900747E+04  0.7818609E-02  0.8272655E-01
       -2   -1    0    0    0  501  0.00000000000E+00  0.00000000000E+00  0.25751886019E+04  0.25751886019E+04  0.25500000920E-02 0. -1.
        2   -1    0    0  501    0  0.00000000000E+00  0.00000000000E+00 -0.81686592465E+03  0.81686592466E+03  0.25500000920E-02 0.  1.
    10030    2    1    2    0    0  0.00000000000E+00  0.00000000000E+00  0.17583226772E+04  0.33920545265E+04  0.29007473647E+04 0.  0.
        2    1    3    3  502    0 -0.12334957359E+04 -0.42813800717E+03  0.14072319461E+03  0.13132467024E+04  0.25500000920E-02 0. -1.
       -2    1    3    3    0  502  0.12334957359E+04  0.42813800717E+03  0.16175994826E+04  0.20788078242E+04  0.25500000920E-02 0.  1.
</event>
<event>
 5   0  0.8483636E-07  0.2853469E+04  0.7818609E-02  0.8286858E-01
       -1   -1    0    0    0  501  0.00000000000E+00  0.00000000000E+00  0.14511182816E+04  0.14511182816E+04  0.50400001928E-02 0.  1.
        1   -1    0    0  501    0  0.00000000000E+00  0.00000000000E+00 -0.14027600659E+04  0.14027600659E+04  0.50400001928E-02 0. -1.
    10030    2    1    2    0    0  0.00000000000E+00  0.00000000000E+00  0.48358215674E+02  0.28538783475E+04  0.28534686095E+04 0.  0.
        2    1    3    3  502    0  0.13439734830E+04  0.80220904487E+02 -0.44798047285E+03  0.14189385542E+04  0.25500000920E-02 0. -1.
       -2    1    3    3    0  502 -0.13439734830E+04 -0.80220904487E+02  0.49633868852E+03  0.14349397933E+04  0.25500000920E-02 0.  1.
</event>
<event>
 5   0  0.2325590E-06  0.2837824E+04  0.7818609E-02  0.8291621E-01
        2   -1    0    0  501    0  0.00000000000E+00  0.00000000000E+00  0.26950899258E+04  0.26950899258E+04  0.25500000920E-02 0.  1.
       -2   -1    0    0    0  501  0.00000000000E+00  0.00000000000E+00 -0.74702913312E+03  0.74702913313E+03  0.25500000920E-02 0. -1.
    10030    2    1    2    0    0  0.00000000000E+00  0.00000000000E+00  0.19480607927E+04  0.34421190590E+04  0.28378235963E+04 0.  0.
        5    1    3    3  502    0  0.47252338418E+03 -0.12834891555E+04  0.14321728018E+04  0.19803443602E+04  0.46999998093E+01 0. -1.
       -5    1    3    3    0  502 -0.47252338418E+03  0.12834891555E+04  0.51588799093E+03  0.14617746988E+04  0.46999998093E+01 0.  1.
</event>
<event>
 5   0  0.2360103E-06  0.2892050E+04  0.7818609E-02  0.8275247E-01
        2   -1    0    0  501    0  0.00000000000E+00  0.00000000000E+00  0.10697096922E+04  0.10697096922E+04  0.25500000920E-02 0. -1.
       -2   -1    0    0    0  501  0.00000000000E+00  0.00000000000E+00 -0.19547254041E+04  0.19547254041E+04  0.25500000920E-02 0.  1.
    10030    2    1    2    0    0  0.00000000000E+00  0.00000000000E+00 -0.88501571189E+03  0.30244350964E+04  0.28920502834E+04 0.  0.
        4    1    3    3  502    0 -0.20805354958E+03 -0.12661946320E+04  0.25468166072E+03  0.13082046807E+04  0.12699999809E+01 0.  1.
       -4    1    3    3    0  502  0.20805354958E+03  0.12661946320E+04 -0.11396973726E+04  0.17162304156E+04  0.12699999809E+01 0. -1.
</event>
<event>
 5   0  0.2360103E-06  0.2881266E+04  0.7818609E-02  0.8278473E-01
       -2   -1    0    0    0  501  0.00000000000E+00  0.00000000000E+00  0.12998387816E+04  0.12998387816E+04  0.25500000920E-02 0. -1.
        2   -1    0    0  501    0  0.00000000000E+00  0.00000000000E+00 -0.15966778426E+04  0.15966778426E+04  0.25500000920E-02 0.  1.
    10030    2    1    2    0    0  0.00000000000E+00  0.00000000000E+00 -0.29683906104E+03  0.28965166242E+04  0.28812662366E+04 0.  0.
        4    1    3    3  502    0 -0.22820936008E+03 -0.55410785119E+03  0.11685937086E+04  0.13132889596E+04  0.12699999809E+01 0. -1.
       -4    1    3    3    0  502  0.22820936008E+03  0.55410785119E+03 -0.14654327696E+04  0.15832276646E+04  0.12699999809E+01 0.  1.
</event>
<event>
 5   0  0.7621125E-07  0.2919475E+04  0.7818609E-02  0.8267107E-01
       -3   -1    0    0    0  501  0.00000000000E+00  0.00000000000E+00  0.16348433605E+04  0.16348433636E+04  0.10100000352E+00 0.  1.
        3   -1    0    0  501    0  0.00000000000E+00  0.00000000000E+00 -0.13033866998E+04  0.13033867037E+04  0.10100000352E+00 0. -1.
    10030    2    1    2    0    0  0.00000000000E+00  0.00000000000E+00  0.33145666069E+03  0.29382300673E+04  0.29194746806E+04 0.  0.
        2    1    3    3  502    0  0.13349612865E+03 -0.13270360452E+04  0.76282484173E+03  0.15364724601E+04  0.25500000920E-02 0.  1.
       -2    1    3    3    0  502 -0.13349612865E+03  0.13270360452E+04 -0.43136818104E+03  0.14017576072E+04  0.25500000920E-02 0. -1.
</event>
<event>
 5   0  0.7621125E-07  0.2901285E+04  0.7818609E-02  0.8272495E-01
       -3   -1    0    0    0  501  0.00000000000E+00  0.00000000000E+00  0.24128927733E+04  0.24128927754E+04  0.10100000352E+00 0. -1.
        3   -1    0    0  501    0  0.00000000000E+00  0.00000000000E+00 -0.87213337886E+03  0.87213338470E+03  0.10100000352E+00 0.  1.
    10030    2    1    2    0    0  0.00000000000E+00  0.00000000000E+00  0.15407593944E+04  0.32850261601E+04  0.29012854670E+04 0.  0.
        3    1    3    3  502    0  0.13274516252E+04  0.50696488421E+03  0.43983736881E+03  0.14874804645E+04  0.10100000352E+00 0. -1.
       -3    1    3    3    0  502 -0.13274516252E+04 -0.50696488421E+03  0.11009220256E+04  0.17975456956E+04  0.10100000352E+00 0.  1.
</event>
<event>
 5   0  0.8263673E-07  0.2876363E+04  0.7818609E-02  0.8279945E-01
        1   -1    0    0  501    0  0.00000000000E+00  0.00000000000E+00  0.19444523493E+04  0.19444523493E+04  0.50400001928E-02 0.  1.
       -1   -1    0    0    0  501  0.00000000000E+00  0.00000000000E+00 -0.10637267269E+04  0.10637267269E+04  0.50400001928E-02 0. -1.
    10030    2    1    2    0    0  0.00000000000E+00  0.00000000000E+00  0.88072562242E+03  0.30081790762E+04  0.28763629348E+04 0.  0.
        5    1    3    3  502    0 -0.11576315135E+04  0.49130879086E+02 -0.45063010690E+03  0.12432273113E+04  0.46999998093E+01 0. -1.
       -5    1    3    3    0  502  0.11576315135E+04 -0.49130879086E+02  0.13313557293E+04  0.17649517649E+04  0.46999998093E+01 0.  1.
</event>
<event>
 5   0  0.2304435E-06  0.2912289E+04  0.7818609E-02  0.8269231E-01
        2   -1    0    0  501    0  0.00000000000E+00  0.00000000000E+00  0.10482952639E+04  0.10482952639E+04  0.25500000920E-02 0. -1.
       -2   -1    0    0    0  501  0.00000000000E+00  0.00000000000E+00 -0.20226709640E+04  0.20226709640E+04  0.25500000920E-02 0.  1.
    10030    2    1    2    0    0  0.00000000000E+00  0.00000000000E+00 -0.97437570008E+03  0.30709662279E+04  0.29122887165E+04 0.  0.
        1    1    3    3  502    0  0.14874325953E+03  0.23345404740E+03  0.10202953595E+04  0.10571792517E+04  0.50400001928E-02 0. -1.
       -1    1    3    3    0  502 -0.14874325953E+03 -0.23345404740E+03 -0.19946710596E+04  0.20137869762E+04  0.50400001928E-02 0.  1.
</event>
<event>
 5   0  0.2325590E-06  0.2901975E+04  0.7818609E-02  0.8272290E-01
       -2   -1    0    0    0  501  0.00000000000E+00  0.00000000000E+00  0.14914072933E+04  0.14914072933E+04  0.25500000920E-02 0. -1.
        2   -1    0    0  501    0  0.00000000000E+00  0.00000000000E+00 -0.14116627837E+04  0.14116627837E+04  0.25500000920E-02 0.  1.
    10030    2    1    2    0    0  0.00000000000E+00  0.00000000000E+00  0.79744509666E+02  0.29030700770E+04  0.29019746183E+04 0.  0.
        5    1    3    3  502    0  0.45508242708E+03 -0.13415786142E+04  0.35369258242E+03  0.14601553775E+04  0.46999998093E+01 0. -1.
       -5    1    3    3    0  502 -0.45508242708E+03  0.13415786142E+04 -0.27394807275E+03  0.14429146995E+04  0.46999998093E+01 0.  1.
</event>
<event>
 5   0  0.8263673E-07  0.2899662E+04  0.7818609E-02  0.8272978E-01
       -1   -1    0    0    0  501  0.00000000000E+00  0.00000000000E+00  0.13238019518E+04  0.13238019518E+04  0.50400001928E-02 0. -1.
        1   -1    0    0  501    0  0.00000000000E+00  0.00000000000E+00 -0.15878587435E+04  0.15878587435E+04  0.50400001928E-02 0.  1.
    10030    2    1    2    0    0  0.00000000000E+00  0.00000000000E+00 -0.26405679169E+03  0.29116606953E+04  0.28996623968E+04 0.  0.
        5    1    3    3  502    0  0.11557629509E+04 -0.77994778222E+03 -0.53101605319E+03  0.14920143030E+04  0.46999998093E+01 0.  1.
       -5    1    3    3    0  502 -0.11557629509E+04  0.77994778222E+03  0.26695926150E+03  0.14196463923E+04  0.46999998093E+01 0. -1.
</event>
<event>
 5   0  0.2360103E-06  0.2891463E+04  0.7818609E-02  0.8275422E-01
       -2   -1    0    0    0  501  0.00000000000E+00  0.00000000000E+00  0.12255839647E+04  0.12255839647E+04  0.25500000920E-02 0. -1.
        2   -1    0    0  501    0  0.00000000000E+00  0.00000000000E+00 -0.17054231927E+04  0.17054231927E+04  0.25500000920E-02 0.  1.
    10030    2    1    2    0    0  0.00000000000E+00  0.00000000000E+00 -0.47983922792E+03  0.29310071574E+04  0.28914628256E+04 0.  0.
        4    1    3    3  502    0 -0.12530828437E+04  0.21445524768E+03 -0.93776045655E+03  0.15797480664E+04  0.12699999809E+01 0.  1.
       -4    1    3    3    0  502  0.12530828437E+04 -0.21445524768E+03  0.45792122862E+03  0.13512590910E+04  0.12699999809E+01 0. -1.
</event>
<event>
 5   0  0.2304435E-06  0.2899493E+04  0.7818609E-02  0.8273028E-01
       -2   -1    0    0    0  501  0.00000000000E+00  0.00000000000E+00  0.12375558808E+04  0.12375558808E+04  0.25500000920E-02 0. -1.
        2   -1    0    0  501    0  0.00000000000E+00  0.00000000000E+00 -0.16983189988E+04  0.16983189988E+04  0.25500000920E-02 0.  1.
    10030    2    1    2    0    0  0.00000000000E+00  0.00000000000E+00 -0.46076311796E+03  0.29358748796E+04  0.28994928277E+04 0.  0.
        1    1    3    3  502    0  0.83131417296E+03 -0.11515113736E+04  0.64308044796E+02  0.14216881593E+04  0.50400001928E-02 0. -1.
       -1    1    3    3    0  502 -0.83131417296E+03  0.11515113736E+04 -0.52507116276E+03  0.15141867202E+04  0.50400001928E-02 0.  1.
</event>
<event>
 5   0  0.8947674E-07  0.2920813E+04  0.7818609E-02  0.8266712E-01
       -1   -1    0    0    0  501  0.00000000000E+00  0.00000000000E+00  0.12866119565E+04  0.12866119565E+04  0.50400001928E-02 0.  1.
        1   -1    0    0  501    0  0.00000000000E+00  0.00000000000E+00 -0.16576765684E+04  0.16576765684E+04  0.50400001928E-02 0. -1.
    10030    2    1    2    0    0  0.00000000000E+00  0.00000000000E+00 -0.37106461191E+03  0.29442885248E+04  0.29208125533E+04 0.  0.
        3    1    3    3  502    0 -0.88258794151E+03 -0.11021838191E+04  0.19031273067E+03  0.14247770321E+04  0.10100000352E+00 0.  1.
       -3    1    3    3    0  502  0.88258794151E+03  0.11021838191E+04 -0.56137734258E+03  0.15195114927E+04  0.10100000352E+00 0. -1.
</event>
<event>
 5   0  0.2378690E-06  0.2899769E+04  0.7818609E-02  0.8272946E-01
       -2   -1    0    0    0  501  0.00000000000E+00  0.00000000000E+00  0.82431288706E+03  0.82431288706E+03  0.25500000920E-02 0.  1.
        2   -1    0    0  501    0  0.00000000000E+00  0.00000000000E+00 -0.25502025203E+04  0.25502025203E+04  0.25500000920E-02 0. -1.
    10030    2    1    2    0    0  0.00000000000E+00  0.00000000000E+00 -0.17258896332E+04  0.33745154073E+04  0.28997688198E+04 0.  0.
        3    1    3    3  502    0  0.32725687315E+03  0.86533831836E+03 -0.21620726926E+04  0.23516942413E+04  0.10100000352E+00 0. -1.
       -3    1    3    3    0  502 -0.32725687315E+03 -0.86533831836E+03  0.43618305937E+03  0.10228211661E+04  0.10100000352E+00 0.  1.
</event>
<event>
 5   0  0.8947674E-07  0.2901573E+04  0.7818609E-02  0.8272410E-01
       -1   -1    0    0    0  501  0.00000000000E+00  0.00000000000E+00  0.11402902079E+04  0.11402902079E+04  0.50400001928E-02 0.  1.
        1   -1    0    0  501    0  0.00000000000E+00  0.00000000000E+00 -0.18458293517E+04  0.18458293517E+04  0.50400001928E-02 0. -1.
    10030    2    1    2    0    0  0.00000000000E+00  0.00000000000E+00 -0.70553914379E+03  0.29861195595E+04  0.29015727702E+04 0.  0.
        3    1    3    3  502    0  0.77368247733E+03  0.11746863106E+03  0.90446410696E+03  0.11960095259E+04  0.10100000352E+00 0.  1.
       -3    1    3    3    0  502 -0.77368247733E+03 -0.11746863106E+03 -0.16100032507E+04  0.17901100337E+04  0.10100000352E+00 0. -1.
</event>
<event>
 5   0  0.8263673E-07  0.2913936E+04  0.7818609E-02  0.8268743E-01
       -1   -1    0    0    0  501  0.00000000000E+00  0.00000000000E+00  0.11430242134E+04  0.11430242134E+04  0.50400001928E-02 0. -1.
        1   -1    0    0  501    0  0.00000000000E+00  0.00000000000E+00 -0.18571401916E+04  0.18571401916E+04  0.50400001928E-02 0.  1.
    10030    2    1    2    0    0  0.00000000000E+00  0.00000000000E+00 -0.71411597819E+03  0.30001644049E+04  0.29139363113E+04 0.  0.
        5    1    3    3  502    0 -0.13110601653E+04 -0.51085244574E+03 -0.74624517144E+03  0.15927187210E+04  0.46999998093E+01 0. -1.
       -5    1    3    3    0  502  0.13110601653E+04  0.51085244574E+03  0.32129193254E+02  0.14074456840E+04  0.46999998093E+01 0.  1.
</event>
<event>
 5   0  0.8357118E-07  0.2905670E+04  0.7818609E-02  0.8271193E-01
       -1   -1    0    0    0  501  0.00000000000E+00  0.00000000000E+00  0.17936883534E+04  0.17936883534E+04  0.50400001928E-02 0. -1.
        1   -1    0    0  501    0  0.00000000000E+00  0.00000000000E+00 -0.11767534725E+04  0.11767534725E+04  0.50400001928E-02 0.  1.
    10030    2    1    2    0    0  0.00000000000E+00  0.00000000000E+00  0.61693488094E+03  0.29704418260E+04  0.29056696292E+04 0.  0.
        1    1    3    3  502    0  0.10874916267E+04  0.91335672971E+03  0.62168006242E+03  0.15502724450E+04  0.50400001928E-02 0.  1.
       -1    1    3    3    0  502 -0.10874916267E+04 -0.91335672971E+03 -0.47451814845E+01  0.14201693809E+04  0.50400001928E-02 0. -1.
</event>
<event>
 5   0  0.8357118E-07  0.2921327E+04  0.7818609E-02  0.8266560E-01
        1   -1    0    0  501    0  0.00000000000E+00  0.00000000000E+00  0.24600645026E+04  0.24600645026E+04  0.50400001928E-02 0.  1.
       -1   -1    0    0    0  501  0.00000000000E+00  0.00000000000E+00 -0.86726903352E+03  0.86726903353E+03  0.50400001928E-02 0. -1.
    10030    2    1    2    0    0  0.00000000000E+00  0.00000000000E+00  0.15927954691E+04  0.33273335361E+04  0.29213269338E+04 0.  0.
        1    1    3    3  502    0  0.82427713994E+03  0.92855119553E+03 -0.79875361167E+02  0.12441945987E+04  0.50400001928E-02 0.  1.
       -1    1    3    3    0  502 -0.82427713994E+03 -0.92855119553E+03  0.16726708302E+04  0.20831389374E+04  0.50400001928E-02 0. -1.
</event>
<event>
 5   0  0.2378690E-06  0.2887319E+04  0.7818609E-02  0.8276660E-01
        2   -1    0    0  501    0  0.00000000000E+00  0.00000000000E+00  0.16247078200E+04  0.16247078200E+04  0.25500000920E-02 0. -1.
       -2   -1    0    0    0  501  0.00000000000E+00  0.00000000000E+00 -0.12827861558E+04  0.12827861558E+04  0.25500000920E-02 0.  1.
    10030    2    1    2    0    0  0.00000000000E+00  0.00000000000E+00  0.34192166429E+03  0.29074939758E+04  0.28873189631E+04 0.  0.
        3    1    3    3  502    0  0.44430574689E+03  0.96744871999E+03  0.11528578055E+04  0.15692181978E+04  0.10100000352E+00 0. -1.
       -3    1    3    3    0  502 -0.44430574689E+03 -0.96744871999E+03 -0.81093614121E+03  0.13382757780E+04  0.10100000352E+00 0.  1.
</event>
<event>
 5   0  0.8357118E-07  0.2880606E+04  0.7818609E-02  0.8278671E-01
        1   -1    0    0  501    0  0.00000000000E+00  0.00000000000E+00  0.16041229142E+04  0.16041229142E+04  0.50400001928E-02 0. -1.
       -1   -1    0    0    0  501  0.00000000000E+00  0.00000000000E+00 -0.12932132681E+04  0.12932132681E+04  0.50400001928E-02 0.  1.
    10030    2    1    2    0    0  0.00000000000E+00  0.00000000000E+00  0.31090964613E+03  0.28973361823E+04  0.28806062114E+04 0.  0.
        1    1    3    3  502    0  0.38499432828E+03 -0.13703394788E+03  0.15445894020E+04  0.15977344449E+04  0.50400001928E-02 0. -1.
       -1    1    3    3    0  502 -0.38499432828E+03  0.13703394788E+03 -0.12336797559E+04  0.12996017374E+04  0.50400001928E-02 0.  1.
</event>
<event>
 5   0  0.8483636E-07  0.2885253E+04  0.7818609E-02  0.8277279E-01
        1   -1    0    0  501    0  0.00000000000E+00  0.00000000000E+00  0.14636118165E+04  0.14636118166E+04  0.50400001928E-02 0.  1.
       -1   -1    0    0    0  501  0.00000000000E+00  0.00000000000E+00 -0.14219421059E+04  0.14219421059E+04  0.50400001928E-02 0. -1.
    10030    2    1    2    0    0  0.00000000000E+00  0.00000000000E+00  0.41669710688E+02  0.28855539224E+04  0.28852530347E+04 0.  0.
        2    1    3    3  502    0  0.10542900334E+04  0.49182438316E+01  0.10056301886E+04  0.14569981949E+04  0.25500000920E-02 0.  1.
       -2    1    3    3    0  502 -0.10542900334E+04 -0.49182438316E+01 -0.96396047788E+03  0.14285557275E+04  0.25500000920E-02 0. -1.
</event>
<event>
 5   0  0.8263673E-07  0.2881460E+04  0.7818609E-02  0.8278415E-01
        1   -1    0    0  501    0  0.00000000000E+00  0.00000000000E+00  0.15839243939E+04  0.15839243939E+04  0.50400001928E-02 0. -1.
       -1   -1    0    0    0  501  0.00000000000E+00  0.00000000000E+00 -0.13104811698E+04  0.13104811698E+04  0.50400001928E-02 0.  1.
    10030    2    1    2    0    0  0.00000000000E+00  0.00000000000E+00  0.27344322405E+03  0.28944055637E+04  0.28814601109E+04 0.  0.
        5    1    3    3  502    0 -0.49239946391E+03 -0.35159537276E+01 -0.12233226676E+04  0.13187152964E+04  0.46999998093E+01 0.  1.
       -5    1    3    3    0  502  0.49239946391E+03  0.35159537276E+01  0.14967658917E+04  0.15756902673E+04  0.46999998093E+01 0. -1.
</event>
<event>
 5   0  0.2304435E-06  0.2888505E+04  0.7818609E-02  0.8276306E-01
        2   -1    0    0  501    0  0.00000000000E+00  0.00000000000E+00  0.16139756570E+04  0.16139756570E+04  0.25500000920E-02 0. -1.
       -2   -1    0    0    0  501  0.00000000000E+00  0.00000000000E+00 -0.12923767975E+04  0.12923767975E+04  0.25500000920E-02 0.  1.
    10030    2    1    2    0    0  0.00000000000E+00  0.00000000000E+00  0.32159885949E+03  0.29063524545E+04  0.28885045895E+04 0.  0.
        1    1    3    3  502    0 -0.14279473600E+04 -0.21598579226E+03  0.14725649198E+03  0.14516776501E+04  0.50400001928E-02 0. -1.
       -1    1    3    3    0  502  0.14279473600E+04  0.21598579226E+03  0.17434236750E+03  0.14546748044E+04  0.50400001928E-02 0.  1.
</event>
<event>
 5   0  0.2378690E-06  0.2893199E+04  0.7818609E-02  0.8274904E-01
        2   -1    0    0  501    0  0.00000000000E+00  0.00000000000E+00  0.26003098900E+04  0.26003098900E+04  0.25500000920E-02 0. -1.
       -2   -1    0    0    0  501  0.00000000000E+00  0.00000000000E+00 -0.80476950347E+03  0.80476950347E+03  0.25500000920E-02 0.  1.
    10030    2    1    2    0    0  0.00000000000E+00  0.00000000000E+00  0.17955403865E+04  0.34050793934E+04  0.28931989901E+04 0.  0.
        3    1    3    3  502    0  0.20797817840E+03 -0.24494169701E+03 -0.76223656420E+03  0.82719764725E+03  0.10100000352E+00 0.  1.
       -3    1    3    3    0  502 -0.20797817840E+03  0.24494169701E+03  0.25577769507E+04  0.25778817462E+04  0.10100000352E+00 0. -1.
</event>
<event>
 5   0  0.8357118E-07  0.2885392E+04  0.7818609E-02  0.8277237E-01
        1   -1    0    0  501    0  0.00000000000E+00  0.00000000000E+00  0.13472488231E+04  0.13472488231E+04  0.50400001928E-02 0. -1.
       -1   -1    0    0    0  501  0.00000000000E+00  0.00000000000E+00 -0.15449057578E+04  0.15449057578E+04  0.50400001928E-02 0.  1.
    10030    2    1    2    0    0  0.00000000000E+00  0.00000000000E+00 -0.19765693473E+03  0.28921545809E+04  0.28853924960E+04 0.  0.
        1    1    3    3  502    0  0.59634743687E+03 -0.47863699280E+02  0.12170509902E+04  0.13561468622E+04  0.50400001928E-02 0. -1.
       -1    1    3    3    0  502 -0.59634743687E+03  0.47863699280E+02 -0.14147079249E+04  0.15360077187E+04  0.50400001928E-02 0.  1.
</event>
<event>
 5   0  0.8483636E-07  0.2892629E+04  0.7818609E-02  0.8275074E-01
       -1   -1    0    0    0  501  0.00000000000E+00  0.00000000000E+00  0.89649523274E+03  0.89649523275E+03  0.50400001928E-02 0.  1.
        1   -1    0    0  501    0  0.00000000000E+00  0.00000000000E+00 -0.23333366671E+04  0.23333366671E+04  0.50400001928E-02 0. -1.
    10030    2    1    2    0    0  0.00000000000E+00  0.00000000000E+00 -0.14368414344E+04  0.32298318998E+04  0.28926286996E+04 0.  0.
        2    1    3    3  502    0 -0.11355627955E+04  0.87181782990E+03 -0.48889494419E+03  0.15128078059E+04  0.25500000920E-02 0.  1.
       -2    1    3    3    0  502  0.11355627955E+04 -0.87181782990E+03 -0.94794649016E+03  0.17170240940E+04  0.25500000920E-02 0. -1.
</event>
<event>
 5   0  0.8355946E-07  0.2902056E+04  0.7818609E-02  0.8272266E-01
        1   -1    0    0  501    0  0.00000000000E+00  0.00000000000E+00  0.12238217223E+04  0.12238217223E+04  0.50400001928E-02 0.  1.
       -1   -1    0    0    0  501  0.00000000000E+00  0.00000000000E+00 -0.17204155192E+04  0.17204155192E+04  0.50400001928E-02 0. -1.
    10030    2    1    2    0    0  0.00000000000E+00  0.00000000000E+00 -0.49659379695E+03  0.29442372415E+04  0.29020557430E+04 0.  0.
        4    1    3    3  502    0 -0.55781816856E+03  0.13223110862E+04 -0.31147166037E+02  0.14354927645E+04  0.12699999809E+01 0.  1.
       -4    1    3    3    0  502  0.55781816856E+03 -0.13223110862E+04 -0.46544663091E+03  0.15087444771E+04  0.12699999809E+01 0. -1.
</event>
<event>
 5   0  0.8947674E-07  0.2893190E+04  0.7818609E-02  0.8274906E-01
       -1   -1    0    0    0  501  0.00000000000E+00  0.00000000000E+00  0.16710443441E+04  0.16710443441E+04  0.50400001928E-02 0. -1.
        1   -1    0    0  501    0  0.00000000000E+00  0.00000000000E+00 -0.12522933733E+04  0.12522933733E+04  0.50400001928E-02 0.  1.
    10030    2    1    2    0    0  0.00000000000E+00  0.00000000000E+00  0.41875097083E+03  0.29233377175E+04  0.28931904595E+04 0.  0.
        3    1    3    3  502    0 -0.72453615512E+03  0.10635742282E+04 -0.45818648382E+03  0.13660445246E+04  0.10100000352E+00 0.  1.
       -3    1    3    3    0  502  0.72453615512E+03 -0.10635742282E+04  0.87693745464E+03  0.15572931929E+04  0.10100000352E+00 0. -1.
</event>
<event>
 5   0  0.8357118E-07  0.2877700E+04  0.7818609E-02  0.8279543E-01
       -1   -1    0    0    0  501  0.00000000000E+00  0.00000000000E+00  0.15863330667E+04  0.15863330667E+04  0.50400001928E-02 0.  1.
        1   -1    0    0  501    0  0.00000000000E+00  0.00000000000E+00 -0.13050788487E+04  0.13050788487E+04  0.50400001928E-02 0. -1.
    10030    2    1    2    0    0  0.00000000000E+00  0.00000000000E+00  0.28125421802E+03  0.28914119155E+04  0.28777002849E+04 0.  0.
        1    1    3    3  502    0  0.78229098523E+03 -0.23337999059E+03  0.13311119844E+04  0.15615071312E+04  0.50400001928E-02 0.  1.
       -1    1    3    3    0  502 -0.78229098523E+03  0.23337999059E+03 -0.10498577664E+04  0.13299047843E+04  0.50400001928E-02 0. -1.
</event>
<event>
 5   0  0.2360103E-06  0.2911644E+04  0.7818609E-02  0.8269421E-01
       -2   -1    0    0    0  501  0.00000000000E+00  0.00000000000E+00  0.10309735748E+04  0.10309735748E+04  0.25500000920E-02 0. -1.
        2   -1    0    0  501    0  0.00000000000E+00  0.00000000000E+00 -0.20557445743E+04  0.20557445743E+04  0.25500000920E-02 0.  1.
    10030    2    1    2    0    0  0.00000000000E+00  0.00000000000E+00 -0.10247709995E+04  0.30867181491E+04  0.29116444376E+04 0.  0.
        4    1    3    3  502    0  0.92476673436E+03 -0.25574852837E+03  0.64835431950E+03  0.11580007596E+04  0.12699999809E+01 0. -1.
       -4    1    3    3    0  502 -0.92476673436E+03  0.25574852837E+03 -0.16731253190E+04  0.19287173895E+04  0.12699999809E+01 0.  1.
</event>
<event>
 5   0  0.2360103E-06  0.2891494E+04  0.7818609E-02  0.8275413E-01
       -2   -1    0    0    0  501  0.00000000000E+00  0.00000000000E+00  0.10566125617E+04  0.10566125617E+04  0.25500000920E-02 0.  1.
        2   -1    0    0  501    0  0.00000000000E+00  0.00000000000E+00 -0.19781943084E+04  0.19781943084E+04  0.25500000920E-02 0. -1.
    10030    2    1    2    0    0  0.00000000000E+00  0.00000000000E+00 -0.92158174669E+03  0.30348068701E+04  0.28914943927E+04 0.  0.
        4    1    3    3  502    0  0.12584217805E+04  0.26181395966E+03 -0.11554174872E+04  0.17283411439E+04  0.12699999809E+01 0. -1.
       -4    1    3    3    0  502 -0.12584217805E+04 -0.26181395966E+03  0.23383574047E+03  0.13064657262E+04  0.12699999809E+01 0.  1.
</event>
<event>
 5   0  0.8357118E-07  0.2896976E+04  0.7818609E-02  0.8273778E-01
        1   -1    0    0  501    0  0.00000000000E+00  0.00000000000E+00  0.24033855246E+04  0.24033855247E+04  0.50400001928E-02 0. -1.
       -1   -1    0    0    0  501  0.00000000000E+00  0.00000000000E+00 -0.87298387158E+03  0.87298387160E+03  0.50400001928E-02 0.  1.
    10030    2    1    2    0    0  0.00000000000E+00  0.00000000000E+00  0.15304016531E+04  0.32763693962E+04  0.28969755265E+04 0.  0.
        1    1    3    3  502    0  0.11067781945E+03  0.13816180955E+04  0.12410102312E+04  0.18604366519E+04  0.50400001928E-02 0. -1.
       -1    1    3    3    0  502 -0.11067781945E+03 -0.13816180955E+04  0.28939142187E+03  0.14159327444E+04  0.50400001928E-02 0.  1.
</event>
<event>
 5   0  0.8355946E-07  0.2894612E+04  0.7818609E-02  0.8274482E-01
       -1   -1    0    0    0  501  0.00000000000E+00  0.00000000000E+00  0.13831409779E+04  0.13831409779E+04  0.50400001928E-02 0.  1.
        1   -1    0    0  501    0  0.00000000000E+00  0.00000000000E+00 -0.15144472850E+04  0.15144472850E+04  0.50400001928E-02 0. -1.
    10030    2    1    2    0    0  0.00000000000E+00  0.00000000000E+00 -0.13130630717E+03  0.28975882629E+04  0.28946116139E+04 0.  0.
        4    1    3    3  502    0  0.52641071983E+03  0.49805498849E+03  0.11884421954E+04  0.13919638940E+04  0.12699999809E+01 0.  1.
       -4    1    3    3    0  502 -0.52641071983E+03 -0.49805498849E+03 -0.13197485025E+04  0.15056243689E+04  0.12699999809E+01 0. -1.
</event>
<event>
 5   0  0.2360103E-06  0.2902619E+04  0.7818609E-02  0.8272099E-01
       -2   -1    0    0    0  501  0.00000000000E+00  0.00000000000E+00  0.14194902003E+04  0.14194902003E+04  0.25500000920E-02 0.  1.
        2   -1    0    0  501    0  0.00000000000E+00  0.00000000000E+00 -0.14838418729E+04  0.14838418729E+04  0.25500000920E-02 0. -1.
    10030    2    1    2    0    0  0.00000000000E+00  0.00000000000E+00 -0.64351672668E+02  0.29033320732E+04  0.29026188158E+04 0.  0.
        4    1    3    3  502    0  0.14475770665E+04  0.13782945762E+02 -0.13529361000E+03  0.14539516178E+04  0.12699999809E+01 0.  1.
       -4    1    3    3    0  502 -0.14475770665E+04 -0.13782945762E+02  0.70941937336E+02  0.14493804554E+04  0.12699999809E+01 0. -1.
</event>
<event>
 5   0  0.2360103E-06  0.2892584E+04  0.7818609E-02  0.8275087E-01
       -2   -1    0    0    0  501  0.00000000000E+00  0.00000000000E+00  0.23409436455E+04  0.23409436455E+04  0.25500000920E-02 0.  1.
        2   -1    0    0  501    0  0.00000000000E+00  0.00000000000E+00 -0.89355444649E+03  0.89355444650E+03  0.25500000920E-02 0. -1.
    10030    2    1    2    0    0  0.00000000000E+00  0.00000000000E+00  0.14473891990E+04  0.32344980920E+04  0.28925840375E+04 0.  0.
        4    1    3    3  502    0 -0.80788923077E+03 -0.98133274263E+03 -0.47833545715E+02  0.12720018168E+04  0.12699999809E+01 0.  1.
       -4    1    3    3    0  502  0.80788923077E+03  0.98133274263E+03  0.14952227447E+04  0.19624962752E+04  0.12699999809E+01 0. -1.
</event>
<event>
 5   0  0.2325590E-06  0.2877230E+04  0.7818609E-02  0.8279685E-01
       -2   -1    0    0    0  501  0.00000000000E+00  0.00000000000E+00  0.13462116676E+04  0.13462116676E+04  0.25500000920E-02 0.  1.
        2   -1    0    0  501    0  0.00000000000E+00  0.00000000000E+00 -0.15373605384E+04  0.15373605384E+04  0.25500000920E-02 0. -1.
    10030    2    1    2    0    0  0.00000000000E+00  0.00000000000E+00 -0.19114887086E+03  0.28835722060E+04  0.28772297052E+04 0.  0.
        5    1    3    3  502    0  0.38532005743E+03  0.13494777324E+04 -0.41254509076E+03  0.14627977436E+04  0.46999998093E+01 0.  1.
       -5    1    3    3    0  502 -0.38532005743E+03 -0.13494777324E+04  0.22139621990E+03  0.14207744624E+04  0.46999998093E+01 0. -1.
</event>
<event>
 5   0  0.2304435E-06  0.2900554E+04  0.7818609E-02  0.8272713E-01
        2   -1    0    0  501    0  0.00000000000E+00  0.00000000000E+00  0.17610756493E+04  0.17610756493E+04  0.25500000920E-02 0.  1.
       -2   -1    0    0    0  501  0.00000000000E+00  0.00000000000E+00 -0.11943291655E+04  0.11943291655E+04  0.25500000920E-02 0. -1.
    10030    2    1    2    0    0  0.00000000000E+00  0.00000000000E+00  0.56674648382E+03  0.29554048148E+04  0.29005544370E+04 0.  0.
        1    1    3    3  502    0  0.75562958193E+03  0.21508740573E+02 -0.97771724023E+03  0.12358679917E+04  0.50400001928E-02 0. -1.
       -1    1    3    3    0  502 -0.75562958193E+03 -0.21508740573E+02  0.15444637241E+04  0.17195368231E+04  0.50400001928E-02 0.  1.
</event>
<event>
 5   0  0.7621125E-07  0.2902143E+04  0.7818609E-02  0.8272240E-01
        3   -1    0    0  501    0  0.00000000000E+00  0.00000000000E+00  0.12687221916E+04  0.12687221957E+04  0.10100000352E+00 0. -1.
       -3   -1    0    0    0  501  0.00000000000E+00  0.00000000000E+00 -0.16596289668E+04  0.16596289698E+04  0.10100000352E+00 0.  1.
    10030    2    1    2    0    0  0.00000000000E+00  0.00000000000E+00 -0.39090677511E+03  0.29283511655E+04  0.29021427328E+04 0.  0.
        2    1    3    3  502    0 -0.90268662291E+03 -0.59701951163E+03 -0.11707914122E+04  0.15943738480E+04  0.25500000920E-02 0.  1.
       -2    1    3    3    0  502  0.90268662291E+03  0.59701951163E+03  0.77988463705E+03  0.13339773175E+04  0.25500000920E-02 0. -1.
</event>
<event>
 5   0  0.2325590E-06  0.2905884E+04  0.7818609E-02  0.8271129E-01
        2   -1    0    0  501    0  0.00000000000E+00  0.00000000000E+00  0.14414097129E+04  0.14414097129E+04  0.25500000920E-02 0. -1.
       -2   -1    0    0    0  501  0.00000000000E+00  0.00000000000E+00 -0.14645668417E+04  0.14645668417E+04  0.25500000920E-02 0.  1.
    10030    2    1    2    0    0  0.00000000000E+00  0.00000000000E+00 -0.23157128845E+02  0.29059765546E+04  0.29058842859E+04 0.  0.
        5    1    3    3  502    0 -0.14068338090E+03 -0.75402860275E+03  0.12224248924E+04  0.14431547578E+04  0.46999998093E+01 0. -1.
       -5    1    3    3    0  502  0.14068338090E+03  0.75402860275E+03 -0.12455820213E+04  0.14628217968E+04  0.46999998093E+01 0.  1.
</event>
<event>
 5   0  0.8483636E-07  0.2923877E+04  0.7818609E-02  0.8265809E-01
       -1   -1    0    0    0  501  0.00000000000E+00  0.00000000000E+00  0.87421091312E+03  0.87421091313E+03  0.50400001928E-02 0.  1.
        1   -1    0    0  501    0  0.00000000000E+00  0.00000000000E+00 -0.24447927129E+04  0.24447927129E+04  0.50400001928E-02 0. -1.
    10030    2    1    2    0    0  0.00000000000E+00  0.00000000000E+00 -0.15705817998E+04  0.33190036260E+04  0.29238771999E+04 0.  0.
        2    1    3    3  502    0  0.11004671028E+04 -0.59440920345E+03  0.73907458726E+02  0.12529215689E+04  0.25500000920E-02 0.  1.
       -2    1    3    3    0  502 -0.11004671028E+04  0.59440920345E+03 -0.16444892585E+04  0.20660820571E+04  0.25500000920E-02 0. -1.
</event>
<event>
 5   0  0.2325590E-06  0.2911633E+04  0.7818609E-02  0.8269425E-01
       -2   -1    0    0    0  501  0.00000000000E+00  0.00000000000E+00  0.71440832929E+03  0.71440832929E+03  0.25500000920E-02 0.  1.
        2   -1    0    0  501    0  0.00000000000E+00  0.00000000000E+00 -0.29666540821E+04  0.29666540821E+04  0.25500000920E-02 0. -1.
    10030    2    1    2    0    0  0.00000000000E+00  0.00000000000E+00 -0.22522457528E+04  0.36810624114E+04  0.29116334841E+04 0.  0.
        5    1    3    3  502    0 -0.14042480419E+04  0.37705789865E+03 -0.10341261212E+04  0.17842432980E+04  0.46999998093E+01 0.  1.
       -5    1    3    3    0  502  0.14042480419E+04 -0.37705789865E+03 -0.12181196317E+04  0.18968191134E+04  0.46999998093E+01 0. -1.
</event>
<event>
 5   0  0.8947674E-07  0.2904261E+04  0.7818609E-02  0.8271611E-01
        1   -1    0    0  501    0  0.00000000000E+00  0.00000000000E+00  0.16589310429E+04  0.16589310430E+04  0.50400001928E-02 0.  1.
       -1   -1    0    0    0  501  0.00000000000E+00  0.00000000000E+00 -0.12711093761E+04  0.12711093761E+04  0.50400001928E-02 0. -1.
    10030    2    1    2    0    0  0.00000000000E+00  0.00000000000E+00  0.38782166688E+03  0.29300404190E+04  0.29042608719E+04 0.  0.
        3    1    3    3  502    0  0.61563557948E+01  0.71689652933E+03 -0.10801145020E+04  0.12963895565E+04  0.10100000352E+00 0. -1.
       -3    1    3    3    0  502 -0.61563557948E+01 -0.71689652933E+03  0.14679361689E+04  0.16336508625E+04  0.10100000352E+00 0.  1.
</event>
<event>
 5   0  0.8355946E-07  0.2882660E+04  0.7818609E-02  0.8278055E-01
        1   -1    0    0  501    0  0.00000000000E+00  0.00000000000E+00  0.19205200321E+04  0.19205200321E+04  0.50400001928E-02 0. -1.
       -1   -1    0    0    0  501  0.00000000000E+00  0.00000000000E+00 -0.10817031988E+04  0.10817031988E+04  0.50400001928E-02 0.  1.
    10030    2    1    2    0    0  0.00000000000E+00  0.00000000000E+00  0.83881683333E+03  0.30022232309E+04  0.28826603422E+04 0.  0.
        4    1    3    3  502    0 -0.36104486898E+03  0.18602687508E+03  0.18596886857E+04  0.19035238418E+04  0.12699999809E+01 0. -1.
       -4    1    3    3    0  502  0.36104486898E+03 -0.18602687508E+03 -0.10208718524E+04  0.10986993891E+04  0.12699999809E+01 0.  1.
</event>
<event>
 5   0  0.8947674E-07  0.2909874E+04  0.7818609E-02  0.8269946E-01
        1   -1    0    0  501    0  0.00000000000E+00  0.00000000000E+00  0.15998354215E+04  0.15998354215E+04  0.50400001928E-02 0.  1.
       -1   -1    0    0    0  501  0.00000000000E+00  0.00000000000E+00 -0.13231622621E+04  0.13231622621E+04  0.50400001928E-02 0. -1.
    10030    2    1    2    0    0  0.00000000000E+00  0.00000000000E+00  0.27667315938E+03  0.29229976836E+04  0.29098741247E+04 0.  0.
        3    1    3    3  502    0  0.10523057207E+03  0.93675188962E+03  0.12516057378E+04  0.15668741204E+04  0.10100000352E+00 0.  1.
       -3    1    3    3    0  502 -0.10523057207E+03 -0.93675188962E+03 -0.97493257846E+03  0.13561235632E+04  0.10100000352E+00 0. -1.
</event>
<event>
 5   0  0.8947674E-07  0.2899357E+04  0.7818609E-02  0.8273069E-01
        1   -1    0    0  501    0  0.00000000000E+00  0.00000000000E+00  0.15969454847E+04  0.15969454847E+04  0.50400001928E-02 0. -1.
       -1   -1    0    0    0  501  0.00000000000E+00  0.00000000000E+00 -0.13159923563E+04  0.13159923563E+04  0.50400001928E-02 0.  1.
    10030    2    1    2    0    0  0.00000000000E+00  0.00000000000E+00  0.28095312839E+03  0.29129378411E+04  0.28993572056E+04 0.  0.
        3    1    3    3  502    0  0.10978613796E+04  0.89116763663E+03  0.46148635458E+03  0.14874303450E+04  0.10100000352E+00 0.  1.
       -3    1    3    3    0  502 -0.10978613796E+04 -0.89116763663E+03 -0.18053322619E+03  0.14255074961E+04  0.10100000352E+00 0. -1.
</event>
<event>
 5   0  0.2425845E-06  0.2906050E+04  0.7818609E-02  0.8271080E-01
        2   -1    0    0  501    0  0.00000000000E+00  0.00000000000E+00  0.19798866862E+04  0.19798866862E+04  0.25500000920E-02 0.  1.
       -2   -1    0    0    0  501  0.00000000000E+00  0.00000000000E+00 -0.10663649115E+04  0.10663649115E+04  0.25500000920E-02 0. -1.
    10030    2    1    2    0    0  0.00000000000E+00  0.00000000000E+00  0.91352177472E+03  0.30462515977E+04  0.29060500277E+04 0.  0.
        2    1    3    3  502    0 -0.93622551766E+03  0.10917169703E+04  0.23960078825E+03  0.14580029839E+04  0.25500000920E-02 0. -1.
       -2    1    3    3    0  502  0.93622551766E+03 -0.10917169703E+04  0.67392098647E+03  0.15882486138E+04  0.25500000920E-02 0.  1.
</event>
<event>
 5   0  0.8263673E-07  0.2899992E+04  0.7818609E-02  0.8272880E-01
       -1   -1    0    0    0  501  0.00000000000E+00  0.00000000000E+00  0.10079338964E+04  0.10079338964E+04  0.50400001928E-02 0.  1.
        1   -1    0    0  501    0  0.00000000000E+00  0.00000000000E+00 -0.20859393029E+04  0.20859393030E+04  0.50400001928E-02 0. -1.
    10030    2    1    2    0    0  0.00000000000E+00  0.00000000000E+00 -0.10780054066E+04  0.30938731993E+04  0.28999923650E+04 0.  0.
        5    1    3    3  502    0 -0.46199056012E+03 -0.70662064775E+03 -0.17966797232E+04  0.19851519175E+04  0.46999998093E+01 0. -1.
       -5    1    3    3    0  502  0.46199056012E+03  0.70662064775E+03  0.71867431667E+03  0.11087212819E+04  0.46999998093E+01 0.  1.
</event>
<event>
 5   0  0.8483636E-07  0.2922696E+04  0.7818609E-02  0.8266157E-01
       -1   -1    0    0    0  501  0.00000000000E+00  0.00000000000E+00  0.91548846855E+03  0.91548846856E+03  0.50400001928E-02 0. -1.
        1   -1    0    0  501    0  0.00000000000E+00  0.00000000000E+00 -0.23326756053E+04  0.23326756053E+04  0.50400001928E-02 0.  1.
    10030    2    1    2    0    0  0.00000000000E+00  0.00000000000E+00 -0.14171871368E+04  0.32481640739E+04  0.29226957540E+04 0.  0.
        2    1    3    3  502    0 -0.78208331380E+03  0.28781808231E+03 -0.20427076851E+04  0.22061614277E+04  0.25500000920E-02 0.  1.
       -2    1    3    3    0  502  0.78208331380E+03 -0.28781808231E+03  0.62552054836E+03  0.10420026462E+04  0.25500000920E-02 0. -1.
</event>
<event>
 5   0  0.8947674E-07  0.2907847E+04  0.7818609E-02  0.8270547E-01
       -1   -1    0    0    0  501  0.00000000000E+00  0.00000000000E+00  0.14848803810E+04  0.14848803810E+04  0.50400001928E-02 0. -1.
        1   -1    0    0  501    0  0.00000000000E+00  0.00000000000E+00 -0.14236116444E+04  0.14236116444E+04  0.50400001928E-02 0.  1.
    10030    2    1    2    0    0  0.00000000000E+00  0.00000000000E+00  0.61268736628E+02  0.29084920254E+04  0.29078466266E+04 0.  0.
        3    1    3    3  502    0  0.45557598160E+03 -0.13306370931E+03  0.14052164965E+04  0.14832022242E+04  0.10100000352E+00 0. -1.
       -3    1    3    3    0  502 -0.45557598160E+03  0.13306370931E+03 -0.13439477599E+04  0.14252898011E+04  0.10100000352E+00 0.  1.
</event>
<event>
 5   0  0.2304435E-06  0.2904434E+04  0.7818609E-02  0.8271559E-01
        2   -1    0    0  501    0  0.00000000000E+00  0.00000000000E+00  0.18733174319E+04  0.18733174319E+04  0.25500000920E-02 0. -1.
       -2   -1    0    0    0  501  0.00000000000E+00  0.00000000000E+00 -0.11257753426E+04  0.11257753426E+04  0.25500000920E-02 0.  1.
    10030    2    1    2    0    0  0.00000000000E+00  0.00000000000E+00  0.74754208925E+03  0.29990927745E+04  0.29044342470E+04 0.  0.
        1    1    3    3  502    0  0.13739912128E+03 -0.62429951520E+03  0.17202262727E+04  0.18351585307E+04  0.50400001928E-02 0. -1.
       -1    1    3    3    0  502 -0.13739912128E+03  0.62429951520E+03 -0.97268418349E+03  0.11639342439E+04  0.50400001928E-02 0.  1.
</event>
<event>
 5   0  0.2425845E-06  0.2897171E+04  0.7818609E-02  0.8273720E-01
       -2   -1    0    0    0  501  0.00000000000E+00  0.00000000000E+00  0.13426160474E+04  0.13426160474E+04  0.25500000920E-02 0.  1.
        2   -1    0    0  501    0  0.00000000000E+00  0.00000000000E+00 -0.15629187998E+04  0.15629187998E+04  0.25500000920E-02 0. -1.
    10030    2    1    2    0    0  0.00000000000E+00  0.00000000000E+00 -0.22030275246E+03  0.29055348472E+04  0.28971709383E+04 0.  0.
        2    1    3    3  502    0 -0.12729129810E+04 -0.53148366642E+03 -0.55371491410E+03  0.14863991897E+04  0.25500000920E-02 0. -1.
       -2    1    3    3    0  502  0.12729129810E+04  0.53148366642E+03  0.33341216164E+03  0.14191356575E+04  0.25500000920E-02 0.  1.
</event>
<event>
 5   0  0.8947674E-07  0.2901021E+04  0.7818609E-02  0.8272574E-01
        1   -1    0    0  501    0  0.00000000000E+00  0.00000000000E+00  0.14722836506E+04  0.14722836506E+04  0.50400001928E-02 0.  1.
       -1   -1    0    0    0  501  0.00000000000E+00  0.00000000000E+00 -0.14290597234E+04  0.14290597234E+04  0.50400001928E-02 0. -1.
    10030    2    1    2    0    0  0.00000000000E+00  0.00000000000E+00  0.43223927152E+02  0.29013433740E+04  0.29010213832E+04 0.  0.
        3    1    3    3  502    0  0.58179909804E+03 -0.77925485209E+03  0.10979530200E+04  0.14667069098E+04  0.10100000352E+00 0.  1.
       -3    1    3    3    0  502 -0.58179909804E+03  0.77925485209E+03 -0.10547290928E+04  0.14346364642E+04  0.10100000352E+00 0. -1.
</event>
<event>
 5   0  0.2304435E-06  0.2954617E+04  0.7818609E-02  0.8256810E-01
        2   -1    0    0  501    0  0.00000000000E+00  0.00000000000E+00  0.20374591027E+04  0.20374591027E+04  0.25500000920E-02 0.  1.
       -2   -1    0    0    0  501  0.00000000000E+00  0.00000000000E+00 -0.10711578268E+04  0.10711578268E+04  0.25500000920E-02 0. -1.
    10030    2    1    2    0    0  0.00000000000E+00  0.00000000000E+00  0.96630127587E+03  0.31086169295E+04  0.29546169056E+04 0.  0.
        1    1    3    3  502    0  0.83368693867E+03  0.25842734701E+03 -0.77087162103E+03  0.11645006061E+04  0.50400001928E-02 0. -1.
       -1    1    3    3    0  502 -0.83368693867E+03 -0.25842734701E+03  0.17371728969E+04  0.19441163235E+04  0.50400001928E-02 0.  1.
</event>
<event>
 5   0  0.8357118E-07  0.2903085E+04  0.7818609E-02  0.8271960E-01
       -1   -1    0    0    0  501  0.00000000000E+00  0.00000000000E+00  0.11267452596E+04  0.11267452596E+04  0.50400001928E-02 0. -1.
        1   -1    0    0  501    0  0.00000000000E+00  0.00000000000E+00 -0.18699667691E+04  0.18699667691E+04  0.50400001928E-02 0.  1.
    10030    2    1    2    0    0  0.00000000000E+00  0.00000000000E+00 -0.74322150951E+03  0.29967120288E+04  0.29030853882E+04 0.  0.
        1    1    3    3  502    0 -0.11230259556E+04  0.87787602637E+03 -0.65453518047E+03  0.15685247582E+04  0.50400001928E-02 0. -1.
       -1    1    3    3    0  502  0.11230259556E+04 -0.87787602637E+03 -0.88686329040E+02  0.14281872705E+04  0.50400001928E-02 0.  1.
</event>
<event>
 5   0  0.8947674E-07  0.2831688E+04  0.7818609E-02  0.8293497E-01
        1   -1    0    0  501    0  0.00000000000E+00  0.00000000000E+00  0.15655434608E+04  0.15655434608E+04  0.50400001928E-02 0. -1.
       -1   -1    0    0    0  501  0.00000000000E+00  0.00000000000E+00 -0.12804594139E+04  0.12804594139E+04  0.50400001928E-02 0.  1.
    10030    2    1    2    0    0  0.00000000000E+00  0.00000000000E+00  0.28508404691E+03  0.28460028746E+04  0.28316884449E+04 0.  0.
        3    1    3    3  502    0  0.71495760785E+03  0.54358742342E+03 -0.95750588983E+03  0.13128096614E+04  0.10100000352E+00 0.  1.
       -3    1    3    3    0  502 -0.71495760785E+03 -0.54358742342E+03  0.12425899367E+04  0.15331932132E+04  0.10100000352E+00 0. -1.
</event>
<event>
 5   0  0.2304435E-06  0.2898227E+04  0.7818609E-02  0.8273405E-01
        2   -1    0    0  501    0  0.00000000000E+00  0.00000000000E+00  0.14411348330E+04  0.14411348330E+04  0.25500000920E-02 0.  1.
       -2   -1    0    0    0  501  0.00000000000E+00  0.00000000000E+00 -0.14571365665E+04  0.14571365665E+04  0.25500000920E-02 0. -1.
    10030    2    1    2    0    0  0.00000000000E+00  0.00000000000E+00 -0.16001733433E+02  0.28982713995E+04  0.28982272253E+04 0.  0.
        1    1    3    3  502    0 -0.21193631730E+02  0.13085045966E+04 -0.63034210695E+03  0.14525717267E+04  0.50400001928E-02 0. -1.
       -1    1    3    3    0  502  0.21193631730E+02 -0.13085045966E+04  0.61434037352E+03  0.14456996728E+04  0.50400001928E-02 0.  1.
</event>
<event>
 5   0  0.8483636E-07  0.2906533E+04  0.7818609E-02  0.8270936E-01
        1   -1    0    0  501    0  0.00000000000E+00  0.00000000000E+00  0.12483215061E+04  0.12483215061E+04  0.50400001928E-02 0.  1.
       -1   -1    0    0    0  501  0.00000000000E+00  0.00000000000E+00 -0.16918590263E+04  0.16918590263E+04  0.50400001928E-02 0. -1.
    10030    2    1    2    0    0  0.00000000000E+00  0.00000000000E+00 -0.44353752013E+03  0.29401805324E+04  0.29065333357E+04 0.  0.
        2    1    3    3  502    0  0.31723316654E+03 -0.30099900995E+03 -0.16237226813E+04  0.16815803971E+04  0.25500000920E-02 0. -1.
       -2    1    3    3    0  502 -0.31723316654E+03  0.30099900995E+03  0.11801851612E+04  0.12586001353E+04  0.25500000920E-02 0.  1.
</event>
<event>
 5   0  0.2304435E-06  0.2894225E+04  0.7818609E-02  0.8274598E-01
        2   -1    0    0  501    0  0.00000000000E+00  0.00000000000E+00  0.18617186474E+04  0.18617186474E+04  0.25500000920E-02 0. -1.
       -2   -1    0    0    0  501  0.00000000000E+00  0.00000000000E+00 -0.11248394898E+04  0.11248394898E+04  0.25500000920E-02 0.  1.
    10030    2    1    2    0    0  0.00000000000E+00  0.00000000000E+00  0.73687915756E+03  0.29865581372E+04  0.28942250456E+04 0.  0.
        1    1    3    3  502    0 -0.43728579845E+03 -0.62411880397E+03  0.16378858417E+04  0.18064919544E+04  0.50400001928E-02 0. -1.
       -1    1    3    3    0  502  0.43728579845E+03  0.62411880397E+03 -0.90100668412E+03  0.11800661828E+04  0.50400001928E-02 0.  1.
</event>
<event>
 5   0  0.2325590E-06  0.2913616E+04  0.7818609E-02  0.8268838E-01
        2   -1    0    0  501    0  0.00000000000E+00  0.00000000000E+00  0.13800994792E+04  0.13800994792E+04  0.25500000920E-02 0.  1.
       -2   -1    0    0    0  501  0.00000000000E+00  0.00000000000E+00 -0.15377806124E+04  0.15377806124E+04  0.25500000920E-02 0. -1.
    10030    2    1    2    0    0  0.00000000000E+00  0.00000000000E+00 -0.15768113323E+03  0.29178800916E+04  0.29136164623E+04 0.  0.
        5    1    3    3  502    0 -0.65154468750E+03  0.72922679729E+03 -0.11602289841E+04  0.15173778657E+04  0.46999998093E+01 0. -1.
       -5    1    3    3    0  502  0.65154468750E+03 -0.72922679729E+03  0.10025478508E+04  0.14005022260E+04  0.46999998093E+01 0.  1.
</event>
<event>
 5   0  0.2360103E-06  0.2915243E+04  0.7818609E-02  0.8268357E-01
        2   -1    0    0  501    0  0.00000000000E+00  0.00000000000E+00  0.11379198448E+04  0.11379198448E+04  0.25500000920E-02 0. -1.
       -2   -1    0    0    0  501  0.00000000000E+00  0.00000000000E+00 -0.18671446517E+04  0.18671446517E+04  0.25500000920E-02 0.  1.
    10030    2    1    2    0    0  0.00000000000E+00  0.00000000000E+00 -0.72922480688E+03  0.30050644965E+04  0.29152433533E+04 0.  0.
        4    1    3    3  502    0  0.77104674434E+03  0.12348728103E+04 -0.43919781806E+03  0.15206315385E+04  0.12699999809E+01 0.  1.
       -4    1    3    3    0  502 -0.77104674434E+03 -0.12348728103E+04 -0.29002698882E+03  0.14844329580E+04  0.12699999809E+01 0. -1.
</event>
<event>
 5   0  0.8947674E-07  0.2896330E+04  0.7818609E-02  0.8273970E-01
        1   -1    0    0  501    0  0.00000000000E+00  0.00000000000E+00  0.72348222465E+03  0.72348222466E+03  0.50400001928E-02 0.  1.
       -1   -1    0    0    0  501  0.00000000000E+00  0.00000000000E+00 -0.28987338756E+04  0.28987338756E+04  0.50400001928E-02 0. -1.
    10030    2    1    2    0    0  0.00000000000E+00  0.00000000000E+00 -0.21752516509E+04  0.36222161003E+04  0.28963303907E+04 0.  0.
        3    1    3    3  502    0 -0.65844149493E+03  0.12535286356E+04 -0.70766870499E+03  0.15829321681E+04  0.10100000352E+00 0.  1.
       -3    1    3    3    0  502  0.65844149493E+03 -0.12535286356E+04 -0.14675829459E+04  0.20392839322E+04  0.10100000352E+00 0. -1.
</event>
<event>
 5   0  0.8947674E-07  0.2891287E+04  0.7818609E-02  0.8275475E-01
       -1   -1    0    0    0  501  0.00000000000E+00  0.00000000000E+00  0.93292595487E+03  0.93292595489E+03  0.50400001928E-02 0. -1.
        1   -1    0    0  501    0  0.00000000000E+00  0.00000000000E+00 -0.22401403036E+04  0.22401403036E+04  0.50400001928E-02 0.  1.
    10030    2    1    2    0    0  0.00000000000E+00  0.00000000000E+00 -0.13072143487E+04  0.31730662585E+04  0.28912869327E+04 0.  0.
        3    1    3    3  502    0 -0.49843201132E+03  0.13453437097E+04 -0.84838930597E+03  0.16667779072E+04  0.10100000352E+00 0. -1.
       -3    1    3    3    0  502  0.49843201132E+03 -0.13453437097E+04 -0.45882504272E+03  0.15062883513E+04  0.10100000352E+00 0.  1.
</event>
<event>
 5   0  0.2378690E-06  0.2900535E+04  0.7818609E-02  0.8272718E-01
        2   -1    0    0  501    0  0.00000000000E+00  0.00000000000E+00  0.21205918820E+04  0.21205918820E+04  0.25500000920E-02 0.  1.
       -2   -1    0    0    0  501  0.00000000000E+00  0.00000000000E+00 -0.99183403358E+03  0.99183403358E+03  0.25500000920E-02 0. -1.
    10030    2    1    2    0    0  0.00000000000E+00  0.00000000000E+00  0.11287578484E+04  0.31124259156E+04  0.29005345714E+04 0.  0.
        3    1    3    3  502    0 -0.75324318266E+03  0.79558367877E+03 -0.45527310512E+03  0.11864241622E+04  0.10100000352E+00 0. -1.
       -3    1    3    3    0  502  0.75324318266E+03 -0.79558367877E+03  0.15840309536E+04  0.19260017534E+04  0.10100000352E+00 0.  1.
</event>
<event>
 5   0  0.2360103E-06  0.2918241E+04  0.7818609E-02  0.8267471E-01
       -2   -1    0    0    0  501  0.00000000000E+00  0.00000000000E+00  0.16288056446E+04  0.16288056446E+04  0.25500000920E-02 0.  1.
        2   -1    0    0  501    0  0.00000000000E+00  0.00000000000E+00 -0.13071128531E+04  0.13071128531E+04  0.25500000920E-02 0. -1.
    10030    2    1    2    0    0  0.00000000000E+00  0.00000000000E+00  0.32169279152E+03  0.29359184978E+04  0.29182411095E+04 0.  0.
        4    1    3    3  502    0 -0.89154342920E+03 -0.92912981085E+02  0.13191453484E+04  0.15948757228E+04  0.12699999809E+01 0.  1.
       -4    1    3    3    0  502  0.89154342920E+03  0.92912981085E+02 -0.99745255684E+03  0.13410427750E+04  0.12699999809E+01 0. -1.
</event>
<event>
 5   0  0.8355946E-07  0.2911607E+04  0.7818609E-02  0.8269432E-01
       -1   -1    0    0    0  501  0.00000000000E+00  0.00000000000E+00  0.24787026946E+04  0.24787026946E+04  0.50400001928E-02 0.  1.
        1   -1    0    0  501    0  0.00000000000E+00  0.00000000000E+00 -0.85502948649E+03  0.85502948651E+03  0.50400001928E-02 0. -1.
    10030    2    1    2    0    0  0.00000000000E+00  0.00000000000E+00  0.16236732081E+04  0.33337321811E+04  0.29116070423E+04 0.  0.
        4    1    3    3  502    0  0.38054038104E+03  0.13993924404E+04  0.95780291358E+03  0.17379580599E+04  0.12699999809E+01 0.  1.
       -4    1    3    3    0  502 -0.38054038104E+03 -0.13993924404E+04  0.66587029452E+03  0.15957741212E+04  0.12699999809E+01 0. -1.
</event>
<event>
 5   0  0.8357118E-07  0.2905190E+04  0.7818609E-02  0.8271335E-01
        1   -1    0    0  501    0  0.00000000000E+00  0.00000000000E+00  0.18797276978E+04  0.18797276978E+04  0.50400001928E-02 0. -1.
       -1   -1    0    0    0  501  0.00000000000E+00  0.00000000000E+00 -0.11225199880E+04  0.11225199880E+04  0.50400001928E-02 0.  1.
    10030    2    1    2    0    0  0.00000000000E+00  0.00000000000E+00  0.75720770986E+03  0.30022476858E+04  0.29051897788E+04 0.  0.
        1    1    3    3  502    0 -0.80537611498E+02  0.10937641571E+03  0.18731505934E+04  0.18780688626E+04  0.50400001928E-02 0. -1.
       -1    1    3    3    0  502  0.80537611498E+02 -0.10937641571E+03 -0.11159428835E+04  0.11241788232E+04  0.50400001928E-02 0.  1.
</event>
<event>
 5   0  0.8483636E-07  0.2871811E+04  0.7818609E-02  0.8281314E-01
       -1   -1    0    0    0  501  0.00000000000E+00  0.00000000000E+00  0.15513836284E+04  0.15513836284E+04  0.50400001928E-02 0. -1.
        1   -1    0    0  501    0  0.00000000000E+00  0.00000000000E+00 -0.13290231197E+04  0.13290231197E+04  0.50400001928E-02 0.  1.
    10030    2    1    2    0    0  0.00000000000E+00  0.00000000000E+00  0.22236050865E+03  0.28804067481E+04  0.28718110730E+04 0.  0.
        2    1    3    3  502    0  0.45825672986E+03 -0.38790208333E+03 -0.11970847911E+04  0.13392084430E+04  0.25500000920E-02 0.  1.
       -2    1    3    3    0  502 -0.45825672986E+03  0.38790208333E+03  0.14194452997E+04  0.15411983051E+04  0.25500000920E-02 0. -1.
</event>
<event>
 5   0  0.2360103E-06  0.2898149E+04  0.7818609E-02  0.8273429E-01
        2   -1    0    0  501    0  0.00000000000E+00  0.00000000000E+00  0.15133714262E+04  0.15133714262E+04  0.25500000920E-02 0.  1.
       -2   -1    0    0    0  501  0.00000000000E+00  0.00000000000E+00 -0.13875088434E+04  0.13875088434E+04  0.25500000920E-02 0. -1.
    10030    2    1    2    0    0  0.00000000000E+00  0.00000000000E+00  0.12586258279E+03  0.29008802697E+04  0.28981485381E+04 0.  0.
        4    1    3    3  502    0 -0.45542776381E+03 -0.83804284780E+03 -0.10290068543E+04  0.14030634276E+04  0.12699999809E+01 0.  1.
       -4    1    3    3    0  502  0.45542776381E+03  0.83804284780E+03  0.11548694371E+04  0.14978168421E+04  0.12699999809E+01 0. -1.
</event>
<event>
 5   0  0.2360103E-06  0.2898089E+04  0.7818609E-02  0.8273446E-01
       -2   -1    0    0    0  501  0.00000000000E+00  0.00000000000E+00  0.13788364873E+04  0.13788364873E+04  0.25500000920E-02 0. -1.
        2   -1    0    0  501    0  0.00000000000E+00  0.00000000000E+00 -0.15228277995E+04  0.15228277995E+04  0.25500000920E-02 0.  1.
    10030    2    1    2    0    0  0.00000000000E+00  0.00000000000E+00 -0.14399131216E+03  0.29016642868E+04  0.28980893939E+04 0.  0.
        4    1    3    3  502    0 -0.22082916154E+03  0.10960502473E+04  0.85089906387E+03  0.14050346946E+04  0.12699999809E+01 0. -1.
       -4    1    3    3    0  502  0.22082916154E+03 -0.10960502473E+04 -0.99489037603E+03  0.14966295922E+04  0.12699999809E+01 0.  1.
</event>
<event>
 5   0  0.2325590E-06  0.2845239E+04  0.7818609E-02  0.8289360E-01
       -2   -1    0    0    0  501  0.00000000000E+00  0.00000000000E+00  0.13120699870E+04  0.13120699870E+04  0.25500000920E-02 0. -1.
        2   -1    0    0  501    0  0.00000000000E+00  0.00000000000E+00 -0.15424832705E+04  0.15424832705E+04  0.25500000920E-02 0.  1.
    10030    2    1    2    0    0  0.00000000000E+00  0.00000000000E+00 -0.23041328348E+03  0.28545532576E+04  0.28452388334E+04 0.  0.
        5    1    3    3  502    0  0.11569077851E+04  0.66516048318E+03 -0.60971964530E+03  0.14671926348E+04  0.46999998093E+01 0.  1.
       -5    1    3    3    0  502 -0.11569077851E+04 -0.66516048318E+03  0.37930636183E+03  0.13873606228E+04  0.46999998093E+01 0. -1.
</event>
<event>
 5   0  0.8947674E-07  0.2909186E+04  0.7818609E-02  0.8270150E-01
       -1   -1    0    0    0  501  0.00000000000E+00  0.00000000000E+00  0.98573688424E+03  0.98573688425E+03  0.50400001928E-02 0. -1.
        1   -1    0    0  501    0  0.00000000000E+00  0.00000000000E+00 -0.21464557489E+04  0.21464557489E+04  0.50400001928E-02 0.  1.
    10030    2    1    2    0    0  0.00000000000E+00  0.00000000000E+00 -0.11607188646E+04  0.31321926332E+04  0.29091858669E+04 0.  0.
        3    1    3    3  502    0  0.52467960491E+03 -0.11067574654E+04  0.26441419021E+03  0.12530425568E+04  0.10100000352E+00 0. -1.
       -3    1    3    3    0  502 -0.52467960491E+03  0.11067574654E+04 -0.14251330549E+04  0.18791500763E+04  0.10100000352E+00 0.  1.
</event>
<event>
 5   0  0.8483636E-07  0.2899475E+04  0.7818609E-02  0.8273034E-01
       -1   -1    0    0    0  501  0.00000000000E+00  0.00000000000E+00  0.13207402991E+04  0.13207402991E+04  0.50400001928E-02 0. -1.
        1   -1    0    0  501    0  0.00000000000E+00  0.00000000000E+00 -0.15913335163E+04  0.15913335164E+04  0.50400001928E-02 0.  1.
    10030    2    1    2    0    0  0.00000000000E+00  0.00000000000E+00 -0.27059321723E+03  0.29120738155E+04  0.28994746451E+04 0.  0.
        2    1    3    3  502    0  0.68735842644E+03 -0.44609088817E+03  0.10658431393E+04  0.13444256337E+04  0.25500000920E-02 0. -1.
       -2    1    3    3    0  502 -0.68735842644E+03  0.44609088817E+03 -0.13364363565E+04  0.15676481818E+04  0.25500000920E-02 0.  1.
</event>
<event>
 5   0  0.2304435E-06  0.2900141E+04  0.7818609E-02  0.8272836E-01
        2   -1    0    0  501    0  0.00000000000E+00  0.00000000000E+00  0.17046845044E+04  0.17046845044E+04  0.25500000920E-02 0.  1.
       -2   -1    0    0    0  501  0.00000000000E+00  0.00000000000E+00 -0.12334857124E+04  0.12334857124E+04  0.25500000920E-02 0. -1.
    10030    2    1    2    0    0  0.00000000000E+00  0.00000000000E+00  0.47119879190E+03  0.29381702168E+04  0.29001406727E+04 0.  0.
        1    1    3    3  502    0  0.58334000855E+03  0.12450976411E+03 -0.11034415774E+04  0.12543410867E+04  0.50400001928E-02 0. -1.
       -1    1    3    3    0  502 -0.58334000855E+03 -0.12450976411E+03  0.15746403693E+04  0.16838291302E+04  0.50400001928E-02 0.  1.
</event>
<event>
 5   0  0.8355946E-07  0.2904261E+04  0.7818609E-02  0.8271611E-01
       -1   -1    0    0    0  501  0.00000000000E+00  0.00000000000E+00  0.96393991242E+03  0.96393991244E+03  0.50400001928E-02 0. -1.
        1   -1    0    0  501    0  0.00000000000E+00  0.00000000000E+00 -0.21875673332E+04  0.21875673332E+04  0.50400001928E-02 0.  1.
    10030    2    1    2    0    0  0.00000000000E+00  0.00000000000E+00 -0.12236274207E+04  0.31515072456E+04  0.29042613268E+04 0.  0.
        4    1    3    3  502    0 -0.10295471941E+04 -0.65292653877E+02 -0.17208013726E+04  0.20063373426E+04  0.12699999809E+01 0.  1.
       -4    1    3    3    0  502  0.10295471941E+04  0.65292653877E+02  0.49717395182E+03  0.11451699030E+04  0.12699999809E+01 0. -1.
</event>
<event>
 5   0  0.2304435E-06  0.2917640E+04  0.7818609E-02  0.8267648E-01
       -2   -1    0    0    0  501  0.00000000000E+00  0.00000000000E+00  0.10078792568E+04  0.10078792568E+04  0.25500000920E-02 0.  1.
        2   -1    0    0  501    0  0.00000000000E+00  0.00000000000E+00 -0.21115182241E+04  0.21115182242E+04  0.25500000920E-02 0. -1.
    10030    2    1    2    0    0  0.00000000000E+00  0.00000000000E+00 -0.11036389674E+04  0.31193974809E+04  0.29176397436E+04 0.  0.
        1    1    3    3  502    0  0.16447105874E+03 -0.29794175705E+03 -0.20684829806E+04  0.20962924083E+04  0.50400001928E-02 0. -1.
       -1    1    3    3    0  502 -0.16447105874E+03  0.29794175705E+03  0.96484401324E+03  0.10231050726E+04  0.50400001928E-02 0.  1.
</event>
<event>
 5   0  0.2425845E-06  0.2875101E+04  0.7818609E-02  0.8280324E-01
        2   -1    0    0  501    0  0.00000000000E+00  0.00000000000E+00  0.18907832443E+04  0.18907832443E+04  0.25500000920E-02 0.  1.
       -2   -1    0    0    0  501  0.00000000000E+00  0.00000000000E+00 -0.10929608577E+04  0.10929608577E+04  0.25500000920E-02 0. -1.
    10030    2    1    2    0    0  0.00000000000E+00  0.00000000000E+00  0.79782238668E+03  0.29837441020E+04  0.28751014427E+04 0.  0.
        2    1    3    3  502    0 -0.32237251945E+03  0.10900478708E+04 -0.51435569389E+03  0.12476739084E+04  0.25500000920E-02 0. -1.
       -2    1    3    3    0  502  0.32237251945E+03 -0.10900478708E+04  0.13121780806E+04  0.17360701936E+04  0.25500000920E-02 0.  1.
</event>
<event>
 5   0  0.8357118E-07  0.2896718E+04  0.7818609E-02  0.8273855E-01
       -1   -1    0    0    0  501  0.00000000000E+00  0.00000000000E+00  0.12774599659E+04  0.12774599659E+04  0.50400001928E-02 0.  1.
        1   -1    0    0  501    0  0.00000000000E+00  0.00000000000E+00 -0.16421214236E+04  0.16421214236E+04  0.50400001928E-02 0. -1.
    10030    2    1    2    0    0  0.00000000000E+00  0.00000000000E+00 -0.36466145770E+03  0.29195813895E+04  0.28967184038E+04 0.  0.
        1    1    3    3  502    0 -0.23741444132E+03 -0.35313051474E+03 -0.15776989945E+04  0.16340749355E+04  0.50400001928E-02 0. -1.
       -1    1    3    3    0  502  0.23741444132E+03  0.35313051474E+03  0.12130375368E+04  0.12855064540E+04  0.50400001928E-02 0.  1.
</event>
<event>
 5   0  0.2360103E-06  0.2905879E+04  0.7818609E-02  0.8271131E-01
        2   -1    0    0  501    0  0.00000000000E+00  0.00000000000E+00  0.21790444206E+04  0.21790444206E+04  0.25500000920E-02 0.  1.
       -2   -1    0    0    0  501  0.00000000000E+00  0.00000000000E+00 -0.96878826064E+03  0.96878826064E+03  0.25500000920E-02 0. -1.
    10030    2    1    2    0    0  0.00000000000E+00  0.00000000000E+00  0.12102561600E+04  0.31478326813E+04  0.29058786307E+04 0.  0.
        4    1    3    3  502    0 -0.63557764134E+03 -0.11127820163E+03 -0.80506704152E+03  0.10317346222E+04  0.12699999809E+01 0. -1.
       -4    1    3    3    0  502  0.63557764134E+03  0.11127820163E+03  0.20153232015E+04  0.21160980591E+04  0.12699999809E+01 0.  1.
</event>
<event>
 5   0  0.8947674E-07  0.2901660E+04  0.7818609E-02  0.8272384E-01
        1   -1    0    0  501    0  0.00000000000E+00  0.00000000000E+00  0.20072209177E+04  0.20072209177E+04  0.50400001928E-02 0. -1.
       -1   -1    0    0    0  501  0.00000000000E+00  0.00000000000E+00 -0.10486673377E+04  0.10486673377E+04  0.50400001928E-02 0.  1.
    10030    2    1    2    0    0  0.00000000000E+00  0.00000000000E+00  0.95855357997E+03  0.30558882554E+04  0.29016595362E+04 0.  0.
        3    1    3    3  502    0 -0.75753694365E+03  0.12234610917E+04  0.67400381262E+03  0.15890249883E+04  0.10100000352E+00 0.  1.
       -3    1    3    3    0  502  0.75753694365E+03 -0.12234610917E+04  0.28454976735E+03  0.14668632671E+04  0.10100000352E+00 0. -1.
</event>
<event>
 5   0  0.2325590E-06  0.2789382E+04  0.7818609E-02  0.8306572E-01
        2   -1    0    0  501    0  0.00000000000E+00  0.00000000000E+00  0.18453820180E+04  0.18453820180E+04  0.25500000920E-02 0.  1.
       -2   -1    0    0    0  501  0.00000000000E+00  0.00000000000E+00 -0.10540704918E+04  0.10540704918E+04  0.25500000920E-02 0. -1.
    10030    2    1    2    0    0  0.00000000000E+00  0.00000000000E+00  0.79131152624E+03  0.28994525098E+04  0.27893818177E+04 0.  0.
        5    1    3    3  502    0  0.40034020223E+03  0.13354281175E+04  0.35539619499E+03  0.14387387115E+04  0.46999998093E+01 0.  1.
       -5    1    3    3    0  502 -0.40034020223E+03 -0.13354281175E+04  0.43591533125E+03  0.14607137983E+04  0.46999998093E+01 0. -1.
</event>
<event>
 5   0  0.2325590E-06  0.2907346E+04  0.7818609E-02  0.8270695E-01
        2   -1    0    0  501    0  0.00000000000E+00  0.00000000000E+00  0.16699548653E+04  0.16699548653E+04  0.25500000920E-02 0.  1.
       -2   -1    0    0    0  501  0.00000000000E+00  0.00000000000E+00 -0.12654023535E+04  0.12654023535E+04  0.25500000920E-02 0. -1.
    10030    2    1    2    0    0  0.00000000000E+00  0.00000000000E+00  0.40455251174E+03  0.29353572188E+04  0.29073457426E+04 0.  0.
        5    1    3    3  502    0 -0.53440909320E+03 -0.57553969729E+03  0.14372967223E+04  0.16378897948E+04  0.46999998093E+01 0.  1.
       -5    1    3    3    0  502  0.53440909320E+03  0.57553969729E+03 -0.10327442105E+04  0.12974674240E+04  0.46999998093E+01 0. -1.
</event>
<event>
 5   0  0.2304435E-06  0.2898168E+04  0.7818609E-02  0.8273423E-01
        2   -1    0    0  501    0  0.00000000000E+00  0.00000000000E+00  0.16372804016E+04  0.16372804016E+04  0.25500000920E-02 0. -1.
       -2   -1    0    0    0  501  0.00000000000E+00  0.00000000000E+00 -0.12825194524E+04  0.12825194524E+04  0.25500000920E-02 0.  1.
    10030    2    1    2    0    0  0.00000000000E+00  0.00000000000E+00  0.35476094917E+03  0.29197998541E+04  0.28981676723E+04 0.  0.
        1    1    3    3  502    0 -0.10605134729E+04  0.54522921288E+03 -0.65209980064E+03  0.13591165773E+04  0.50400001928E-02 0. -1.
       -1    1    3    3    0  502  0.10605134729E+04 -0.54522921288E+03  0.10068607498E+04  0.15606832767E+04  0.50400001928E-02 0.  1.
</event>
<event>
 5   0  0.8355946E-07  0.2914087E+04  0.7818609E-02  0.8268698E-01
       -1   -1    0    0    0  501  0.00000000000E+00  0.00000000000E+00  0.11615634391E+04  0.11615634391E+04  0.50400001928E-02 0.  1.
        1   -1    0    0  501    0  0.00000000000E+00  0.00000000000E+00 -0.18276884078E+04  0.18276884079E+04  0.50400001928E-02 0. -1.
    10030    2    1    2    0    0  0.00000000000E+00  0.00000000000E+00 -0.66612496879E+03  0.29892518469E+04  0.29140871865E+04 0.  0.
        4    1    3    3  502    0 -0.13697155759E+04 -0.41043333719E+03 -0.62028126541E+03  0.15586297650E+04  0.12699999809E+01 0. -1.
       -4    1    3    3    0  502  0.13697155759E+04  0.41043333719E+03 -0.45843703372E+02  0.14306220819E+04  0.12699999809E+01 0.  1.
</event>
<event>
 5   0  0.8947674E-07  0.2897033E+04  0.7818609E-02  0.8273761E-01
        1   -1    0    0  501    0  0.00000000000E+00  0.00000000000E+00  0.23069945946E+04  0.23069945946E+04  0.50400001928E-02 0. -1.
       -1   -1    0    0    0  501  0.00000000000E+00  0.00000000000E+00 -0.90949493261E+03  0.90949493262E+03  0.50400001928E-02 0.  1.
    10030    2    1    2    0    0  0.00000000000E+00  0.00000000000E+00  0.13974996620E+04  0.32164895272E+04  0.28970328913E+04 0.  0.
        3    1    3    3  502    0 -0.61374702009E+03 -0.20936762762E+03  0.21368304630E+04  0.22330617201E+04  0.10100000352E+00 0. -1.
       -3    1    3    3    0  502  0.61374702009E+03  0.20936762762E+03 -0.73933080103E+03  0.98342780707E+03  0.10100000352E+00 0.  1.
</event>
<event>
 5   0  0.8947674E-07  0.2900979E+04  0.7818609E-02  0.8272586E-01
       -1   -1    0    0    0  501  0.00000000000E+00  0.00000000000E+00  0.10854846468E+04  0.10854846468E+04  0.50400001928E-02 0.  1.
        1   -1    0    0  501    0  0.00000000000E+00  0.00000000000E+00 -0.19382312494E+04  0.19382312494E+04  0.50400001928E-02 0. -1.
    10030    2    1    2    0    0  0.00000000000E+00  0.00000000000E+00 -0.85274660267E+03  0.30237158962E+04  0.29009793265E+04 0.  0.
        3    1    3    3  502    0 -0.20643482174E+03 -0.31669763043E+03 -0.18859804431E+04  0.19234955074E+04  0.10100000352E+00 0. -1.
       -3    1    3    3    0  502  0.20643482174E+03  0.31669763043E+03  0.10332338405E+04  0.11002203889E+04  0.10100000352E+00 0.  1.
</event>
<event>
 5   0  0.2360103E-06  0.2913040E+04  0.7818609E-02  0.8269008E-01
       -2   -1    0    0    0  501  0.00000000000E+00  0.00000000000E+00  0.10521265435E+04  0.10521265435E+04  0.25500000920E-02 0. -1.
        2   -1    0    0  501    0  0.00000000000E+00  0.00000000000E+00 -0.20163455228E+04  0.20163455228E+04  0.25500000920E-02 0.  1.
    10030    2    1    2    0    0  0.00000000000E+00  0.00000000000E+00 -0.96421897928E+03  0.30684720663E+04  0.29130400927E+04 0.  0.
        4    1    3    3  502    0 -0.11142278882E+04  0.50790353529E+03  0.34862771028E+03  0.12731899628E+04  0.12699999809E+01 0. -1.
       -4    1    3    3    0  502  0.11142278882E+04 -0.50790353529E+03 -0.13128466896E+04  0.17952821035E+04  0.12699999809E+01 0.  1.
</event>
<event>
 5   0  0.8263673E-07  0.2899278E+04  0.7818609E-02  0.8273092E-01
       -1   -1    0    0    0  501  0.00000000000E+00  0.00000000000E+00  0.16685782282E+04  0.16685782282E+04  0.50400001928E-02 0. -1.
        1   -1    0    0  501    0  0.00000000000E+00  0.00000000000E+00 -0.12594273805E+04  0.12594273805E+04  0.50400001928E-02 0.  1.
    10030    2    1    2    0    0  0.00000000000E+00  0.00000000000E+00  0.40915084768E+03  0.29280056087E+04  0.28992779150E+04 0.  0.
        5    1    3    3  502    0  0.10988153293E+03 -0.72371389970E+03 -0.10590600388E+04  0.12874261205E+04  0.46999998093E+01 0.  1.
       -5    1    3    3    0  502 -0.10988153293E+03  0.72371389970E+03  0.14682108865E+04  0.16405794882E+04  0.46999998093E+01 0. -1.
</event>
<event>
 5   0  0.8357118E-07  0.2895699E+04  0.7818609E-02  0.8274158E-01
        1   -1    0    0  501    0  0.00000000000E+00  0.00000000000E+00  0.85525764727E+03  0.85525764729E+03  0.50400001928E-02 0. -1.
       -1   -1    0    0    0  501  0.00000000000E+00  0.00000000000E+00 -0.24510372871E+04  0.24510372871E+04  0.50400001928E-02 0.  1.
    10030    2    1    2    0    0  0.00000000000E+00  0.00000000000E+00 -0.15957796398E+04  0.33062949344E+04  0.28956991443E+04 0.  0.
        1    1    3    3  502    0  0.52218998726E+01 -0.10439599068E+04 -0.19433264239E+04  0.22059911934E+04  0.50400001928E-02 0.  1.
       -1    1    3    3    0  502 -0.52218998726E+01  0.10439599068E+04  0.34754678408E+03  0.11003037410E+04  0.50400001928E-02 0. -1.
</event>
<event>
 5   0  0.8483636E-07  0.2911933E+04  0.7818609E-02  0.8269336E-01
        1   -1    0    0  501    0  0.00000000000E+00  0.00000000000E+00  0.15834846654E+04  0.15834846654E+04  0.50400001928E-02 0. -1.
       -1   -1    0    0    0  501  0.00000000000E+00  0.00000000000E+00 -0.13387177641E+04  0.13387177641E+04  0.50400001928E-02 0.  1.
    10030    2    1    2    0    0  0.00000000000E+00  0.00000000000E+00  0.24476690130E+03  0.29222024295E+04  0.29119334132E+04 0.  0.
        2    1    3    3  502    0  0.75478437358E+03  0.56443539886E+03  0.12360502793E+04  0.15543831777E+04  0.25500000920E-02 0. -1.
       -2    1    3    3    0  502 -0.75478437358E+03 -0.56443539886E+03 -0.99128337799E+03  0.13678192518E+04  0.25500000920E-02 0.  1.
</event>
<event>
 5   0  0.2378690E-06  0.2897926E+04  0.7818609E-02  0.8273495E-01
        2   -1    0    0  501    0  0.00000000000E+00  0.00000000000E+00  0.20104282316E+04  0.20104282316E+04  0.25500000920E-02 0. -1.
       -2   -1    0    0    0  501  0.00000000000E+00  0.00000000000E+00 -0.10443021257E+04  0.10443021257E+04  0.25500000920E-02 0.  1.
    10030    2    1    2    0    0  0.00000000000E+00  0.00000000000E+00  0.96612610588E+03  0.30547303573E+04  0.28979264835E+04 0.  0.
        3    1    3    3  502    0  0.11394248016E+04  0.66748960270E+03 -0.14558126357E+03  0.13285424957E+04  0.10100000352E+00 0.  1.
       -3    1    3    3    0  502 -0.11394248016E+04 -0.66748960270E+03  0.11117073694E+04  0.17261878617E+04  0.10100000352E+00 0. -1.
</event>
<event>
 5   0  0.2360103E-06  0.2897721E+04  0.7818609E-02  0.8273556E-01
        2   -1    0    0  501    0  0.00000000000E+00  0.00000000000E+00  0.14767014890E+04  0.14767014890E+04  0.25500000920E-02 0.  1.
       -2   -1    0    0    0  501  0.00000000000E+00  0.00000000000E+00 -0.14215445624E+04  0.14215445624E+04  0.25500000920E-02 0. -1.
    10030    2    1    2    0    0  0.00000000000E+00  0.00000000000E+00  0.55156926582E+02  0.28982460514E+04  0.28977211542E+04 0.  0.
        4    1    3    3  502    0 -0.31885086301E+03  0.76136179454E+03 -0.11633755307E+04  0.14264578134E+04  0.12699999809E+01 0. -1.
       -4    1    3    3    0  502  0.31885086301E+03 -0.76136179454E+03  0.12185324573E+04  0.14717882380E+04  0.12699999809E+01 0.  1.
</event>
<event>
 5   0  0.2378690E-06  0.2848810E+04  0.7818609E-02  0.8288273E-01
        2   -1    0    0  501    0  0.00000000000E+00  0.00000000000E+00  0.18183972333E+04  0.18183972333E+04  0.25500000920E-02 0. -1.
       -2   -1    0    0    0  501  0.00000000000E+00  0.00000000000E+00 -0.11157789288E+04  0.11157789288E+04  0.25500000920E-02 0.  1.
    10030    2    1    2    0    0  0.00000000000E+00  0.00000000000E+00  0.70261830446E+03  0.29341761621E+04  0.28488097986E+04 0.  0.
        3    1    3    3  502    0  0.83319517106E+03  0.78181104168E+03 -0.52475917332E+03  0.12573046163E+04  0.10100000352E+00 0.  1.
       -3    1    3    3    0  502 -0.83319517106E+03 -0.78181104168E+03  0.12273774778E+04  0.16768715458E+04  0.10100000352E+00 0. -1.
</event>
<event>
 5   0  0.2378690E-06  0.2934006E+04  0.7818609E-02  0.8262831E-01
        2   -1    0    0  501    0  0.00000000000E+00  0.00000000000E+00  0.22630316619E+04  0.22630316619E+04  0.25500000920E-02 0. -1.
       -2   -1    0    0    0  501  0.00000000000E+00  0.00000000000E+00 -0.95097970371E+03  0.95097970372E+03  0.25500000920E-02 0.  1.
    10030    2    1    2    0    0  0.00000000000E+00  0.00000000000E+00  0.13120519581E+04  0.32140113656E+04  0.29340055755E+04 0.  0.
        3    1    3    3  502    0  0.14343177619E+04  0.25976268457E+03  0.47485461729E+03  0.15330463177E+04  0.10100000352E+00 0.  1.
       -3    1    3    3    0  502 -0.14343177619E+04 -0.25976268457E+03  0.83719734086E+03  0.16809650479E+04  0.10100000352E+00 0. -1.
</event>
<event>
 5   0  0.8263673E-07  0.2908807E+04  0.7818609E-02  0.8270262E-01
       -1   -1    0    0    0  501  0.00000000000E+00  0.00000000000E+00  0.13988287131E+04  0.13988287132E+04  0.50400001928E-02 0. -1.
        1   -1    0    0  501    0  0.00000000000E+00  0.00000000000E+00 -0.15121858025E+04  0.15121858025E+04  0.50400001928E-02 0.  1.
    10030    2    1    2    0    0  0.00000000000E+00  0.00000000000E+00 -0.11335708932E+03  0.29110145156E+04  0.29088065732E+04 0.  0.
        5    1    3    3  502    0  0.77033360804E+03 -0.11452745179E+04 -0.51550145982E+03  0.14733741664E+04  0.46999998093E+01 0. -1.
       -5    1    3    3    0  502 -0.77033360804E+03  0.11452745179E+04  0.40214437051E+03  0.14376403492E+04  0.46999998093E+01 0.  1.
</event>
<event>
 5   0  0.8355946E-07  0.2899060E+04  0.7818609E-02  0.8273157E-01
       -1   -1    0    0    0  501  0.00000000000E+00  0.00000000000E+00  0.13929992197E+04  0.13929992197E+04  0.50400001928E-02 0.  1.
        1   -1    0    0  501    0  0.00000000000E+00  0.00000000000E+00 -0.15083547989E+04  0.15083547990E+04  0.50400001928E-02 0. -1.
    10030    2    1    2    0    0  0.00000000000E+00  0.00000000000E+00 -0.11535557921E+03  0.29013540187E+04  0.28990598877E+04 0.  0.
        4    1    3    3  502    0  0.88406128916E+03 -0.56351673406E+03 -0.10594794014E+04  0.14905078623E+04  0.12699999809E+01 0. -1.
       -4    1    3    3    0  502 -0.88406128916E+03  0.56351673406E+03  0.94412382221E+03  0.14108461564E+04  0.12699999809E+01 0.  1.
</event>
<event>
 5   0  0.8263673E-07  0.2905918E+04  0.7818609E-02  0.8271119E-01
       -1   -1    0    0    0  501  0.00000000000E+00  0.00000000000E+00  0.16039208126E+04  0.16039208126E+04  0.50400001928E-02 0.  1.
        1   -1    0    0  501    0  0.00000000000E+00  0.00000000000E+00 -0.13162058710E+04  0.13162058710E+04  0.50400001928E-02 0. -1.
    10030    2    1    2    0    0  0.00000000000E+00  0.00000000000E+00  0.28771494159E+03  0.29201266835E+04  0.29059180925E+04 0.  0.
        5    1    3    3  502    0  0.90644515737E+03  0.44853406057E+02 -0.99633274773E+03  0.13477224067E+04  0.46999998093E+01 0. -1.
       -5    1    3    3    0  502 -0.90644515737E+03 -0.44853406057E+02  0.12840476893E+04  0.15724042768E+04  0.46999998093E+01 0.  1.
</event>
<event>
 5   0  0.8947674E-07  0.2892001E+04  0.7818609E-02  0.8275262E-01
        1   -1    0    0  501    0  0.00000000000E+00  0.00000000000E+00  0.22003229569E+04  0.22003229569E+04  0.50400001928E-02 0.  1.
       -1   -1    0    0    0  501  0.00000000000E+00  0.00000000000E+00 -0.95027724547E+03  0.95027724549E+03  0.50400001928E-02 0. -1.
    10030    2    1    2    0    0  0.00000000000E+00  0.00000000000E+00  0.12500457114E+04  0.31506002024E+04  0.28920005800E+04 0.  0.
        3    1    3    3  502    0 -0.62830097139E+03 -0.47698429484E+02 -0.79284640395E+03  0.10127401845E+04  0.10100000352E+00 0. -1.
       -3    1    3    3    0  502  0.62830097139E+03  0.47698429484E+02  0.20428921154E+04  0.21378600179E+04  0.10100000352E+00 0.  1.
</event>
<event>
 5   0  0.2360103E-06  0.2944940E+04  0.7818609E-02  0.8259631E-01
       -2   -1    0    0    0  501  0.00000000000E+00  0.00000000000E+00  0.10384715934E+04  0.10384715935E+04  0.25500000920E-02 0. -1.
        2   -1    0    0  501    0  0.00000000000E+00  0.00000000000E+00 -0.20878456181E+04  0.20878456181E+04  0.25500000920E-02 0.  1.
    10030    2    1    2    0    0  0.00000000000E+00  0.00000000000E+00 -0.10493740246E+04  0.31263172115E+04  0.29449403158E+04 0.  0.
        4    1    3    3  502    0  0.10752625262E+04 -0.99674767040E+03 -0.38040716331E+03  0.15147298906E+04  0.12699999809E+01 0.  1.
       -4    1    3    3    0  502 -0.10752625262E+04  0.99674767040E+03 -0.66896686133E+03  0.16115873210E+04  0.12699999809E+01 0. -1.
</event>
<event>
 5   0  0.2304435E-06  0.2896893E+04  0.7818609E-02  0.8273802E-01
        2   -1    0    0  501    0  0.00000000000E+00  0.00000000000E+00  0.10024040936E+04  0.10024040937E+04  0.25500000920E-02 0.  1.
       -2   -1    0    0    0  501  0.00000000000E+00  0.00000000000E+00 -0.20929660225E+04  0.20929660225E+04  0.25500000920E-02 0. -1.
    10030    2    1    2    0    0  0.00000000000E+00  0.00000000000E+00 -0.10905619288E+04  0.30953701161E+04  0.28968933075E+04 0.  0.
        1    1    3    3  502    0  0.11085979949E+04 -0.42620777214E+03 -0.14311523503E+04  0.18597955880E+04  0.50400001928E-02 0. -1.
       -1    1    3    3    0  502 -0.11085979949E+04  0.42620777214E+03  0.34059042144E+03  0.12355745281E+04  0.50400001928E-02 0.  1.
</event>
<event>
 5   0  0.2360103E-06  0.2939839E+04  0.7818609E-02  0.8261122E-01
        2   -1    0    0  501    0  0.00000000000E+00  0.00000000000E+00  0.15448203709E+04  0.15448203709E+04  0.25500000920E-02 0. -1.
       -2   -1    0    0    0  501  0.00000000000E+00  0.00000000000E+00 -0.13986504289E+04  0.13986504289E+04  0.25500000920E-02 0.  1.
    10030    2    1    2    0    0  0.00000000000E+00  0.00000000000E+00  0.14616994207E+03  0.29434707998E+04  0.29398392298E+04 0.  0.
        4    1    3    3  502    0 -0.47703016944E+03 -0.15591258801E+03 -0.13102133733E+04  0.14030421284E+04  0.12699999809E+01 0.  1.
       -4    1    3    3    0  502  0.47703016944E+03  0.15591258801E+03  0.14563833153E+04  0.15404286714E+04  0.12699999809E+01 0. -1.
</event>
<event>
 5   0  0.8947674E-07  0.2899363E+04  0.7818609E-02  0.8273067E-01
       -1   -1    0    0    0  501  0.00000000000E+00  0.00000000000E+00  0.89461869833E+03  0.89461869834E+03  0.50400001928E-02 0. -1.
        1   -1    0    0  501    0  0.00000000000E+00  0.00000000000E+00 -0.23491307680E+04  0.23491307680E+04  0.50400001928E-02 0.  1.
    10030    2    1    2    0    0  0.00000000000E+00  0.00000000000E+00 -0.14545120697E+04  0.32437494663E+04  0.28993629024E+04 0.  0.
        3    1    3    3  502    0 -0.11125944881E+04  0.86635184602E+03 -0.11035792709E+04  0.17906197903E+04  0.10100000352E+00 0.  1.
       -3    1    3    3    0  502  0.11125944881E+04 -0.86635184602E+03 -0.35093279875E+03  0.14531296760E+04  0.10100000352E+00 0. -1.
</event>
<event>
 5   0  0.2378690E-06  0.2887453E+04  0.7818609E-02  0.8276621E-01
        2   -1    0    0  501    0  0.00000000000E+00  0.00000000000E+00  0.19120130407E+04  0.19120130407E+04  0.25500000920E-02 0. -1.
       -2   -1    0    0    0  501  0.00000000000E+00  0.00000000000E+00 -0.10901314462E+04  0.10901314462E+04  0.25500000920E-02 0.  1.
    10030    2    1    2    0    0  0.00000000000E+00  0.00000000000E+00  0.82188159450E+03  0.30021444870E+04  0.28874525390E+04 0.  0.
        3    1    3    3  502    0  0.10948272850E+04 -0.94070406448E+03  0.38200347652E+03  0.14931502226E+04  0.10100000352E+00 0. -1.
       -3    1    3    3    0  502 -0.10948272850E+04  0.94070406448E+03  0.43987811798E+03  0.15089942644E+04  0.10100000352E+00 0.  1.
</event>
<event>
 5   0  0.2325590E-06  0.2911292E+04  0.7818609E-02  0.8269526E-01
       -2   -1    0    0    0  501  0.00000000000E+00  0.00000000000E+00  0.87411877011E+03  0.87411877011E+03  0.25500000920E-02 0.  1.
        2   -1    0    0  501    0  0.00000000000E+00  0.00000000000E+00 -0.24240479072E+04  0.24240479072E+04  0.25500000920E-02 0. -1.
    10030    2    1    2    0    0  0.00000000000E+00  0.00000000000E+00 -0.15499291370E+04  0.32981666773E+04  0.29112923421E+04 0.  0.
        5    1    3    3  502    0 -0.76794797717E+03 -0.55214763399E+03 -0.20284689111E+04  0.22381508704E+04  0.46999998093E+01 0. -1.
       -5    1    3    3    0  502  0.76794797717E+03  0.55214763399E+03  0.47853977409E+03  0.10600158068E+04  0.46999998093E+01 0.  1.
</event>
<event>
 5   0  0.2304435E-06  0.2899558E+04  0.7818609E-02  0.8273009E-01
        2   -1    0    0  501    0  0.00000000000E+00  0.00000000000E+00  0.14963811411E+04  0.14963811411E+04  0.25500000920E-02 0. -1.
       -2   -1    0    0    0  501  0.00000000000E+00  0.00000000000E+00 -0.14046283299E+04  0.14046283299E+04  0.25500000920E-02 0.  1.
    10030    2    1    2    0    0  0.00000000000E+00  0.00000000000E+00  0.91752811213E+02  0.29010094710E+04  0.28995581340E+04 0.  0.
        1    1    3    3  502    0 -0.31472701785E+03  0.52381377943E+03 -0.12694775725E+04  0.14089028633E+04  0.50400001928E-02 0.  1.
       -1    1    3    3    0  502  0.31472701785E+03 -0.52381377943E+03  0.13612303837E+04  0.14921066077E+04  0.50400001928E-02 0. -1.
</event>
<event>
 5   0  0.8947674E-07  0.2879668E+04  0.7818609E-02  0.8278953E-01
        1   -1    0    0  501    0  0.00000000000E+00  0.00000000000E+00  0.18944630971E+04  0.18944630971E+04  0.50400001928E-02 0. -1.
       -1   -1    0    0    0  501  0.00000000000E+00  0.00000000000E+00 -0.10943056922E+04  0.10943056922E+04  0.50400001928E-02 0.  1.
    10030    2    1    2    0    0  0.00000000000E+00  0.00000000000E+00  0.80015740485E+03  0.29887687893E+04  0.28796678634E+04 0.  0.
        3    1    3    3  502    0  0.69214721136E+03 -0.11413726773E+04 -0.16011323222E+03  0.13444090181E+04  0.10100000352E+00 0.  1.
       -3    1    3    3    0  502 -0.69214721136E+03  0.11413726773E+04  0.96027063706E+03  0.16443597712E+04  0.10100000352E+00 0. -1.
</event>
<event>
 5   0  0.8355946E-07  0.2904469E+04  0.7818609E-02  0.8271549E-01
       -1   -1    0    0    0  501  0.00000000000E+00  0.00000000000E+00  0.93019592477E+03  0.93019592478E+03  0.50400001928E-02 0.  1.
        1   -1    0    0  501    0  0.00000000000E+00  0.00000000000E+00 -0.22672483465E+04  0.22672483465E+04  0.50400001928E-02 0. -1.
    10030    2    1    2    0    0  0.00000000000E+00  0.00000000000E+00 -0.13370524218E+04  0.31974442713E+04  0.29044690891E+04 0.  0.
        4    1    3    3  502    0  0.11498202769E+04 -0.85815998170E+03 -0.91581400890E+03  0.17021287070E+04  0.12699999809E+01 0. -1.
       -4    1    3    3    0  502 -0.11498202769E+04  0.85815998170E+03 -0.42123841286E+03  0.14953155643E+04  0.12699999809E+01 0.  1.
</event>
<event>
 5   0  0.8947674E-07  0.2906124E+04  0.7818609E-02  0.8271058E-01
       -1   -1    0    0    0  501  0.00000000000E+00  0.00000000000E+00  0.82895902772E+03  0.82895902774E+03  0.50400001928E-02 0. -1.
        1   -1    0    0  501    0  0.00000000000E+00  0.00000000000E+00 -0.25470359770E+04  0.25470359770E+04  0.50400001928E-02 0.  1.
    10030    2    1    2    0    0  0.00000000000E+00  0.00000000000E+00 -0.17180769493E+04  0.33759950048E+04  0.29061235123E+04 0.  0.
        3    1    3    3  502    0  0.69018080693E+03 -0.11285955179E+04 -0.16076047406E+03  0.13326369834E+04  0.10100000352E+00 0.  1.
       -3    1    3    3    0  502 -0.69018080693E+03  0.11285955179E+04 -0.15573164753E+04  0.20433580214E+04  0.10100000352E+00 0. -1.
</event>
<event>
 5   0  0.2304435E-06  0.2886348E+04  0.7818609E-02  0.8276951E-01
       -2   -1    0    0    0  501  0.00000000000E+00  0.00000000000E+00  0.18987733605E+04  0.18987733605E+04  0.25500000920E-02 0.  1.
        2   -1    0    0  501    0  0.00000000000E+00  0.00000000000E+00 -0.10968927013E+04  0.10968927013E+04  0.25500000920E-02 0. -1.
    10030    2    1    2    0    0  0.00000000000E+00  0.00000000000E+00  0.80188065915E+03  0.29956660618E+04  0.28863476164E+04 0.  0.
        1    1    3    3  502    0  0.62423559211E+03 -0.94816052129E+03  0.13257976938E+04  0.17453990872E+04  0.50400001928E-02 0.  1.
       -1    1    3    3    0  502 -0.62423559211E+03  0.94816052129E+03 -0.52391703469E+03  0.12502669746E+04  0.50400001928E-02 0. -1.
</event>
<event>
 5   0  0.2325590E-06  0.2901597E+04  0.7818609E-02  0.8272403E-01
        2   -1    0    0  501    0  0.00000000000E+00  0.00000000000E+00  0.15554480476E+04  0.15554480476E+04  0.25500000920E-02 0.  1.
       -2   -1    0    0    0  501  0.00000000000E+00  0.00000000000E+00 -0.13531894826E+04  0.13531894826E+04  0.25500000920E-02 0. -1.
    10030    2    1    2    0    0  0.00000000000E+00  0.00000000000E+00  0.20225856498E+03  0.29086375302E+04  0.29015967595E+04 0.  0.
        5    1    3    3  502    0 -0.27098810429E+03 -0.71759425895E+03  0.13355465247E+04  0.15401567072E+04  0.46999998093E+01 0.  1.
       -5    1    3    3    0  502  0.27098810429E+03  0.71759425895E+03 -0.11332879597E+04  0.13684808230E+04  0.46999998093E+01 0. -1.
</event>
<event>
 5   0  0.2425845E-06  0.2924340E+04  0.7818609E-02  0.8265672E-01
        2   -1    0    0  501    0  0.00000000000E+00  0.00000000000E+00  0.13668216058E+04  0.13668216058E+04  0.25500000920E-02 0. -1.
       -2   -1    0    0    0  501  0.00000000000E+00  0.00000000000E+00 -0.15641701494E+04  0.15641701494E+04  0.25500000920E-02 0.  1.
    10030    2    1    2    0    0  0.00000000000E+00  0.00000000000E+00 -0.19734854365E+03  0.29309917552E+04  0.29243403053E+04 0.  0.
        2    1    3    3  502    0  0.34559058481E+03 -0.13848687566E+04  0.21929679220E+03  0.14440863577E+04  0.25500000920E-02 0. -1.
       -2    1    3    3    0  502 -0.34559058481E+03  0.13848687566E+04 -0.41664533585E+03  0.14869053975E+04  0.25500000920E-02 0.  1.
</event>
<event>
 5   0  0.2378690E-06  0.2901520E+04  0.7818609E-02  0.8272425E-01
       -2   -1    0    0    0  501  0.00000000000E+00  0.00000000000E+00  0.90536398038E+03  0.90536398038E+03  0.25500000920E-02 0.  1.
        2   -1    0    0  501    0  0.00000000000E+00  0.00000000000E+00 -0.23247057396E+04  0.23247057396E+04  0.25500000920E-02 0. -1.
    10030    2    1    2    0    0  0.00000000000E+00  0.00000000000E+00 -0.14193417592E+04  0.32300697200E+04  0.29015201820E+04 0.  0.
        3    1    3    3  502    0 -0.43602285224E+03 -0.12581119340E+04 -0.68479967311E+02  0.13332858216E+04  0.10100000352E+00 0.  1.
       -3    1    3    3    0  502  0.43602285224E+03  0.12581119340E+04 -0.13508617919E+04  0.18967838983E+04  0.10100000352E+00 0. -1.
</event>
<event>
 5   0  0.2425845E-06  0.2901068E+04  0.7818609E-02  0.8272560E-01
        2   -1    0    0  501    0  0.00000000000E+00  0.00000000000E+00  0.27338420136E+04  0.27338420136E+04  0.25500000920E-02 0.  1.
       -2   -1    0    0    0  501  0.00000000000E+00  0.00000000000E+00 -0.76963059328E+03  0.76963059328E+03  0.25500000920E-02 0. -1.
    10030    2    1    2    0    0  0.00000000000E+00  0.00000000000E+00  0.19642114203E+04  0.35034726069E+04  0.29010677006E+04 0.  0.
        2    1    3    3  502    0 -0.12879055342E+03  0.13475182596E+04  0.35267127225E+03  0.13988457717E+04  0.25500000920E-02 0. -1.
       -2    1    3    3    0  502  0.12879055342E+03 -0.13475182596E+04  0.16115401481E+04  0.21046268352E+04  0.25500000920E-02 0.  1.
</event>
<event>
 5   0  0.2378690E-06  0.2884254E+04  0.7818609E-02  0.8277578E-01
       -2   -1    0    0    0  501  0.00000000000E+00  0.00000000000E+00  0.86107060961E+03  0.86107060962E+03  0.25500000920E-02 0.  1.
        2   -1    0    0  501    0  0.00000000000E+00  0.00000000000E+00 -0.24152835219E+04  0.24152835219E+04  0.25500000920E-02 0. -1.
    10030    2    1    2    0    0  0.00000000000E+00  0.00000000000E+00 -0.15542129123E+04  0.32763541315E+04  0.28842535635E+04 0.  0.
        3    1    3    3  502    0  0.49085592458E+03 -0.80246347814E+00  0.76325769388E+03  0.90747038526E+03  0.10100000352E+00 0.  1.
       -3    1    3    3    0  502 -0.49085592458E+03  0.80246347814E+00 -0.23174706062E+04  0.23688837463E+04  0.10100000352E+00 0. -1.
</event>
<event>
 5   0  0.2378690E-06  0.2912159E+04  0.7818609E-02  0.8269269E-01
       -2   -1    0    0    0  501  0.00000000000E+00  0.00000000000E+00  0.14987857676E+04  0.14987857676E+04  0.25500000920E-02 0.  1.
        2   -1    0    0  501    0  0.00000000000E+00  0.00000000000E+00 -0.14145896704E+04  0.14145896704E+04  0.25500000920E-02 0. -1.
    10030    2    1    2    0    0  0.00000000000E+00  0.00000000000E+00  0.84196097188E+02  0.29133754380E+04  0.29121585568E+04 0.  0.
        3    1    3    3  502    0 -0.13241253769E+04  0.60561908488E+03  0.32909172744E+02  0.14564221619E+04  0.10100000352E+00 0. -1.
       -3    1    3    3    0  502  0.13241253769E+04 -0.60561908488E+03  0.51286924445E+02  0.14569532761E+04  0.10100000352E+00 0.  1.
</event>
<event>
 5   0  0.2360103E-06  0.2885636E+04  0.7818609E-02  0.8277164E-01
       -2   -1    0    0    0  501  0.00000000000E+00  0.00000000000E+00  0.76846657733E+03  0.76846657734E+03  0.25500000920E-02 0.  1.
        2   -1    0    0  501    0  0.00000000000E+00  0.00000000000E+00 -0.27089323487E+04  0.27089323487E+04  0.25500000920E-02 0. -1.
    10030    2    1    2    0    0  0.00000000000E+00  0.00000000000E+00 -0.19404657713E+04  0.34773989260E+04  0.28856361311E+04 0.  0.
        4    1    3    3  502    0  0.84269727631E+02  0.13994981544E+03 -0.26977508092E+04  0.27026928015E+04  0.12699999809E+01 0. -1.
       -4    1    3    3    0  502 -0.84269727631E+02 -0.13994981544E+03  0.75728503788E+03  0.77470612449E+03  0.12699999809E+01 0.  1.
</event>
<event>
 5   0  0.8263673E-07  0.2902921E+04  0.7818609E-02  0.8272009E-01
        1   -1    0    0  501    0  0.00000000000E+00  0.00000000000E+00  0.16964403645E+04  0.16964403645E+04  0.50400001928E-02 0.  1.
       -1   -1    0    0    0  501  0.00000000000E+00  0.00000000000E+00 -0.12418578298E+04  0.12418578299E+04  0.50400001928E-02 0. -1.
    10030    2    1    2    0    0  0.00000000000E+00  0.00000000000E+00  0.45458253466E+03  0.29382981944E+04  0.29029211147E+04 0.  0.
        5    1    3    3  502    0 -0.38016514901E+03 -0.13247645797E+04 -0.23343598850E+03  0.13978702310E+04  0.46999998093E+01 0. -1.
       -5    1    3    3    0  502  0.38016514901E+03  0.13247645797E+04  0.68801852315E+03  0.15404279633E+04  0.46999998093E+01 0.  1.
</event>
<event>
 5   0  0.8355946E-07  0.2896730E+04  0.7818609E-02  0.8273851E-01
        1   -1    0    0  501    0  0.00000000000E+00  0.00000000000E+00  0.19763012211E+04  0.19763012211E+04  0.50400001928E-02 0. -1.
       -1   -1    0    0    0  501  0.00000000000E+00  0.00000000000E+00 -0.10614584665E+04  0.10614584666E+04  0.50400001928E-02 0.  1.
    10030    2    1    2    0    0  0.00000000000E+00  0.00000000000E+00  0.91484275454E+03  0.30377596876E+04  0.28967303386E+04 0.  0.
        4    1    3    3  502    0  0.12480719592E+04 -0.55096247222E+03  0.96742860894E+03  0.16724721186E+04  0.12699999809E+01 0. -1.
       -4    1    3    3    0  502 -0.12480719592E+04  0.55096247222E+03 -0.52585854401E+02  0.13652875690E+04  0.12699999809E+01 0.  1.
</event>
<event>
 5   0  0.8483636E-07  0.2894917E+04  0.7818609E-02  0.8274391E-01
       -1   -1    0    0    0  501  0.00000000000E+00  0.00000000000E+00  0.86187347328E+03  0.86187347330E+03  0.50400001928E-02 0.  1.
        1   -1    0    0  501    0  0.00000000000E+00  0.00000000000E+00 -0.24309093243E+04  0.24309093243E+04  0.50400001928E-02 0. -1.
    10030    2    1    2    0    0  0.00000000000E+00  0.00000000000E+00 -0.15690358510E+04  0.32927827976E+04  0.28949171060E+04 0.  0.
        2    1    3    3  502    0  0.93626461491E+03 -0.20491698331E+03  0.44924824781E+03  0.10584925070E+04  0.25500000920E-02 0.  1.
       -2    1    3    3    0  502 -0.93626461491E+03  0.20491698331E+03 -0.20182840988E+04  0.22342902906E+04  0.25500000920E-02 0. -1.
</event>
<event>
 5   0  0.8947674E-07  0.2903296E+04  0.7818609E-02  0.8271898E-01
       -1   -1    0    0    0  501  0.00000000000E+00  0.00000000000E+00  0.20242357306E+04  0.20242357306E+04  0.50400001928E-02 0.  1.
        1   -1    0    0  501    0  0.00000000000E+00  0.00000000000E+00 -0.10410256129E+04  0.10410256129E+04  0.50400001928E-02 0. -1.
    10030    2    1    2    0    0  0.00000000000E+00  0.00000000000E+00  0.98321011767E+03  0.30652613435E+04  0.29032955359E+04 0.  0.
        3    1    3    3  502    0 -0.54625156058E+03  0.30459677209E+03 -0.89148029944E+03  0.10889936159E+04  0.10100000352E+00 0. -1.
       -3    1    3    3    0  502  0.54625156058E+03 -0.30459677209E+03  0.18746904171E+04  0.19762677276E+04  0.10100000352E+00 0.  1.
</event>
<event>
 5   0  0.2304435E-06  0.2898362E+04  0.7818609E-02  0.8273365E-01
        2   -1    0    0  501    0  0.00000000000E+00  0.00000000000E+00  0.18927117095E+04  0.18927117095E+04  0.25500000920E-02 0. -1.
       -2   -1    0    0    0  501  0.00000000000E+00  0.00000000000E+00 -0.11095854976E+04  0.11095854976E+04  0.25500000920E-02 0.  1.
    10030    2    1    2    0    0  0.00000000000E+00  0.00000000000E+00  0.78312621193E+03  0.30022972071E+04  0.28983619263E+04 0.  0.
        1    1    3    3  502    0  0.10107892505E+04 -0.98962019421E+03  0.65501710733E+02  0.14160979881E+04  0.50400001928E-02 0. -1.
       -1    1    3    3    0  502 -0.10107892505E+04  0.98962019421E+03  0.71762450120E+03  0.15861992190E+04  0.50400001928E-02 0.  1.
</event>
<event>
 5   0  0.8947674E-07  0.2903106E+04  0.7818609E-02  0.8271954E-01
       -1   -1    0    0    0  501  0.00000000000E+00  0.00000000000E+00  0.12823067430E+04  0.12823067430E+04  0.50400001928E-02 0.  1.
        1   -1    0    0  501    0  0.00000000000E+00  0.00000000000E+00 -0.16431372141E+04  0.16431372142E+04  0.50400001928E-02 0. -1.
    10030    2    1    2    0    0  0.00000000000E+00  0.00000000000E+00 -0.36083047113E+03  0.29254439572E+04  0.29031058744E+04 0.  0.
        3    1    3    3  502    0  0.11324596425E+04 -0.74336745734E+03  0.34508167417E+03  0.13979060736E+04  0.10100000352E+00 0.  1.
       -3    1    3    3    0  502 -0.11324596425E+04  0.74336745734E+03 -0.70591214530E+03  0.15275378836E+04  0.10100000352E+00 0. -1.
</event>
<event>
 5   0  0.2378690E-06  0.2938826E+04  0.7818609E-02  0.8261418E-01
       -2   -1    0    0    0  501  0.00000000000E+00  0.00000000000E+00  0.13130395035E+04  0.13130395035E+04  0.25500000920E-02 0.  1.
        2   -1    0    0  501    0  0.00000000000E+00  0.00000000000E+00 -0.16444093035E+04  0.16444093035E+04  0.25500000920E-02 0. -1.
    10030    2    1    2    0    0  0.00000000000E+00  0.00000000000E+00 -0.33136979996E+03  0.29574488070E+04  0.29388258712E+04 0.  0.
        3    1    3    3  502    0  0.10524666463E+04  0.11194230853E+03  0.86006673759E+03  0.13637932121E+04  0.10100000352E+00 0.  1.
       -3    1    3    3    0  502 -0.10524666463E+04 -0.11194230853E+03 -0.11914365375E+04  0.15936555949E+04  0.10100000352E+00 0. -1.
</event>
<event>
 5   0  0.8357118E-07  0.2873830E+04  0.7818609E-02  0.8280707E-01
        1   -1    0    0  501    0  0.00000000000E+00  0.00000000000E+00  0.18556801470E+04  0.18556801470E+04  0.50400001928E-02 0. -1.
       -1   -1    0    0    0  501  0.00000000000E+00  0.00000000000E+00 -0.11126508965E+04  0.11126508965E+04  0.50400001928E-02 0.  1.
    10030    2    1    2    0    0  0.00000000000E+00  0.00000000000E+00  0.74302925053E+03  0.29683310436E+04  0.28738296256E+04 0.  0.
        1    1    3    3  502    0  0.50776183700E+03  0.54290753917E+02 -0.10157653565E+04  0.11369031747E+04  0.50400001928E-02 0.  1.
       -1    1    3    3    0  502 -0.50776183700E+03 -0.54290753917E+02  0.17587946071E+04  0.18314278689E+04  0.50400001928E-02 0. -1.
</event>
<event>
 5   0  0.2360103E-06  0.2882548E+04  0.7818609E-02  0.8278089E-01
        2   -1    0    0  501    0  0.00000000000E+00  0.00000000000E+00  0.21041718569E+04  0.21041718569E+04  0.25500000920E-02 0.  1.
       -2   -1    0    0    0  501  0.00000000000E+00  0.00000000000E+00 -0.98721508041E+03  0.98721508041E+03  0.25500000920E-02 0. -1.
    10030    2    1    2    0    0  0.00000000000E+00  0.00000000000E+00  0.11169567764E+04  0.30913869373E+04  0.28825476155E+04 0.  0.
        4    1    3    3  502    0 -0.20031285651E+03 -0.13057712039E+03  0.20827506767E+04  0.20964321165E+04  0.12699999809E+01 0.  1.
       -4    1    3    3    0  502  0.20031285651E+03  0.13057712039E+03 -0.96579390022E+03  0.99495482081E+03  0.12699999809E+01 0. -1.
</event>
<event>
 5   0  0.2360103E-06  0.2897757E+04  0.7818609E-02  0.8273545E-01
       -2   -1    0    0    0  501  0.00000000000E+00  0.00000000000E+00  0.12079304148E+04  0.12079304148E+04  0.25500000920E-02 0.  1.
        2   -1    0    0  501    0  0.00000000000E+00  0.00000000000E+00 -0.17378889983E+04  0.17378889983E+04  0.25500000920E-02 0. -1.
    10030    2    1    2    0    0  0.00000000000E+00  0.00000000000E+00 -0.52995858352E+03  0.29458194130E+04  0.28977570488E+04 0.  0.
        4    1    3    3  502    0 -0.31543667428E+03 -0.14123159693E+04 -0.19230460042E+03  0.14598353896E+04  0.12699999809E+01 0.  1.
       -4    1    3    3    0  502  0.31543667428E+03  0.14123159693E+04 -0.33765398310E+03  0.14859840234E+04  0.12699999809E+01 0. -1.
</event>
<event>
 5   0  0.8263673E-07  0.2890464E+04  0.7818609E-02  0.8275720E-01
        1   -1    0    0  501    0  0.00000000000E+00  0.00000000000E+00  0.21058616505E+04  0.21058616505E+04  0.50400001928E-02 0. -1.
       -1   -1    0    0    0  501  0.00000000000E+00  0.00000000000E+00 -0.99184834053E+03  0.99184834054E+03  0.50400001928E-02 0.  1.
    10030    2    1    2    0    0  0.00000000000E+00  0.00000000000E+00  0.11140133099E+04  0.30977099910E+04  0.28904638959E+04 0.  0.
        5    1    3    3  502    0 -0.15220765339E+02 -0.13316589754E+04 -0.44603727139E+02  0.13325009872E+04  0.46999998093E+01 0.  1.
       -5    1    3    3    0  502  0.15220765339E+02  0.13316589754E+04  0.11586170371E+04  0.17652090038E+04  0.46999998093E+01 0. -1.
</event>
<event>
 5   0  0.8947674E-07  0.2849649E+04  0.7818609E-02  0.8288018E-01
        1   -1    0    0  501    0  0.00000000000E+00  0.00000000000E+00  0.16234502703E+04  0.16234502703E+04  0.50400001928E-02 0.  1.
       -1   -1    0    0    0  501  0.00000000000E+00  0.00000000000E+00 -0.12505005498E+04  0.12505005498E+04  0.50400001928E-02 0. -1.
    10030    2    1    2    0    0  0.00000000000E+00  0.00000000000E+00  0.37294972046E+03  0.28739508201E+04  0.28496494209E+04 0.  0.
        3    1    3    3  502    0 -0.61302120955E+03 -0.12366877100E+04 -0.16999936484E+03  0.13907161068E+04  0.10100000352E+00 0.  1.
       -3    1    3    3    0  502  0.61302120955E+03  0.12366877100E+04  0.54294908529E+03  0.14832347133E+04  0.10100000352E+00 0. -1.
</event>
<event>
 5   0  0.8483636E-07  0.2915352E+04  0.7818609E-02  0.8268324E-01
        1   -1    0    0  501    0  0.00000000000E+00  0.00000000000E+00  0.14233917163E+04  0.14233917163E+04  0.50400001928E-02 0. -1.
       -1   -1    0    0    0  501  0.00000000000E+00  0.00000000000E+00 -0.14927858331E+04  0.14927858331E+04  0.50400001928E-02 0.  1.
    10030    2    1    2    0    0  0.00000000000E+00  0.00000000000E+00 -0.69394116784E+02  0.29161775494E+04  0.29153517723E+04 0.  0.
        2    1    3    3  502    0  0.66550163221E+03 -0.20901373275E+02  0.12623929162E+04  0.14272228855E+04  0.25500000920E-02 0. -1.
       -2    1    3    3    0  502 -0.66550163221E+03  0.20901373275E+02 -0.13317870330E+04  0.14889546639E+04  0.25500000920E-02 0.  1.
</event>
<event>
 5   0  0.2360103E-06  0.2900712E+04  0.7818609E-02  0.8272666E-01
        2   -1    0    0  501    0  0.00000000000E+00  0.00000000000E+00  0.16262210881E+04  0.16262210881E+04  0.25500000920E-02 0. -1.
       -2   -1    0    0    0  501  0.00000000000E+00  0.00000000000E+00 -0.12935093970E+04  0.12935093970E+04  0.25500000920E-02 0.  1.
    10030    2    1    2    0    0  0.00000000000E+00  0.00000000000E+00  0.33271169115E+03  0.29197304851E+04  0.29007118155E+04 0.  0.
        4    1    3    3  502    0 -0.10020359102E+04 -0.32782328873E+03 -0.83615961091E+03  0.13456257213E+04  0.12699999809E+01 0.  1.
       -4    1    3    3    0  502  0.10020359102E+04  0.32782328873E+03  0.11688713021E+04  0.15741047639E+04  0.12699999809E+01 0. -1.
</event>
<event>
 5   0  0.8947674E-07  0.2892550E+04  0.7818609E-02  0.8275097E-01
        1   -1    0    0  501    0  0.00000000000E+00  0.00000000000E+00  0.13849827483E+04  0.13849827483E+04  0.50400001928E-02 0. -1.
       -1   -1    0    0    0  501  0.00000000000E+00  0.00000000000E+00 -0.15102798352E+04  0.15102798352E+04  0.50400001928E-02 0.  1.
    10030    2    1    2    0    0  0.00000000000E+00  0.00000000000E+00 -0.12529708690E+03  0.28952625834E+04  0.28925500976E+04 0.  0.
        3    1    3    3  502    0 -0.65444448790E+03  0.42707567479E+03  0.11554644397E+04  0.13949155176E+04  0.10100000352E+00 0. -1.
       -3    1    3    3    0  502  0.65444448790E+03 -0.42707567479E+03 -0.12807615266E+04  0.15003470658E+04  0.10100000352E+00 0.  1.
</event>
<event>
 5   0  0.2425845E-06  0.2922095E+04  0.7818609E-02  0.8266334E-01
       -2   -1    0    0    0  501  0.00000000000E+00  0.00000000000E+00  0.16434730323E+04  0.16434730323E+04  0.25500000920E-02 0.  1.
        2   -1    0    0  501    0  0.00000000000E+00  0.00000000000E+00 -0.12988712454E+04  0.12988712454E+04  0.25500000920E-02 0. -1.
    10030    2    1    2    0    0  0.00000000000E+00  0.00000000000E+00  0.34460178698E+03  0.29423442777E+04  0.29220950459E+04 0.  0.
        2    1    3    3  502    0 -0.73748566181E+03  0.69398073317E+03 -0.88816651687E+03  0.13469722050E+04  0.25500000920E-02 0. -1.
       -2    1    3    3    0  502  0.73748566181E+03 -0.69398073317E+03  0.12327683038E+04  0.15953720727E+04  0.25500000920E-02 0.  1.
</event>
<event>
 5   0  0.2360103E-06  0.2915840E+04  0.7818609E-02  0.8268180E-01
       -2   -1    0    0    0  501  0.00000000000E+00  0.00000000000E+00  0.11204202658E+04  0.11204202658E+04  0.25500000920E-02 0. -1.
        2   -1    0    0  501    0  0.00000000000E+00  0.00000000000E+00 -0.18970835856E+04  0.18970835856E+04  0.25500000920E-02 0.  1.
    10030    2    1    2    0    0  0.00000000000E+00  0.00000000000E+00 -0.77666331980E+03  0.30175038514E+04  0.29158401158E+04 0.  0.
        4    1    3    3  502    0  0.48965039703E+03 -0.10637881270E+04  0.51035077636E+03  0.12774436263E+04  0.12699999809E+01 0. -1.
       -4    1    3    3    0  502 -0.48965039703E+03  0.10637881270E+04 -0.12870140962E+04  0.17400602251E+04  0.12699999809E+01 0.  1.
</event>
<event>
 5   0  0.8263673E-07  0.2854542E+04  0.7818609E-02  0.8286533E-01
       -1   -1    0    0    0  501  0.00000000000E+00  0.00000000000E+00  0.30890511466E+04  0.30890511466E+04  0.50400001928E-02 0.  1.
        1   -1    0    0  501    0  0.00000000000E+00  0.00000000000E+00 -0.65945883010E+03  0.65945883012E+03  0.50400001928E-02 0. -1.
    10030    2    1    2    0    0  0.00000000000E+00  0.00000000000E+00  0.24295923165E+04  0.37485099767E+04  0.28545416832E+04 0.  0.
        5    1    3    3  502    0  0.11990713551E+04  0.32277539775E+03  0.29078072669E+03  0.12753554771E+04  0.46999998093E+01 0. -1.
       -5    1    3    3    0  502 -0.11990713551E+04 -0.32277539775E+03  0.21388115898E+04  0.24731544996E+04  0.46999998093E+01 0.  1.
</event>
<event>
 5   0  0.8483636E-07  0.2910168E+04  0.7818609E-02  0.8269859E-01
        1   -1    0    0  501    0  0.00000000000E+00  0.00000000000E+00  0.15669090875E+04  0.15669090875E+04  0.50400001928E-02 0.  1.
       -1   -1    0    0    0  501  0.00000000000E+00  0.00000000000E+00 -0.13512397740E+04  0.13512397740E+04  0.50400001928E-02 0. -1.
    10030    2    1    2    0    0  0.00000000000E+00  0.00000000000E+00  0.21566931344E+03  0.29181488615E+04  0.29101682984E+04 0.  0.
        2    1    3    3  502    0  0.28889144937E+03 -0.59830609808E+03 -0.11902583127E+04  0.13631373032E+04  0.25500000920E-02 0. -1.
       -2    1    3    3    0  502 -0.28889144937E+03  0.59830609808E+03  0.14059276261E+04  0.15550115583E+04  0.25500000920E-02 0.  1.
</event>
<event>
 5   0  0.2425845E-06  0.2813238E+04  0.7818609E-02  0.8299170E-01
       -2   -1    0    0    0  501  0.00000000000E+00  0.00000000000E+00  0.11725802406E+04  0.11725802406E+04  0.25500000920E-02 0.  1.
        2   -1    0    0  501    0  0.00000000000E+00  0.00000000000E+00 -0.16873707677E+04  0.16873707677E+04  0.25500000920E-02 0. -1.
    10030    2    1    2    0    0  0.00000000000E+00  0.00000000000E+00 -0.51479052719E+03  0.28599510083E+04  0.28132384334E+04 0.  0.
        2    1    3    3  502    0  0.54234074130E+03 -0.58175959660E+03  0.92204124672E+03  0.12176772021E+04  0.25500000920E-02 0.  1.
       -2    1    3    3    0  502 -0.54234074130E+03  0.58175959660E+03 -0.14368317739E+04  0.16422738062E+04  0.25500000920E-02 0. -1.
</event>
<event>
 5   0  0.2378690E-06  0.2902461E+04  0.7818609E-02  0.8272146E-01
       -2   -1    0    0    0  501  0.00000000000E+00  0.00000000000E+00  0.16656771858E+04  0.16656771858E+04  0.25500000920E-02 0. -1.
        2   -1    0    0  501    0  0.00000000000E+00  0.00000000000E+00 -0.12643929345E+04  0.12643929345E+04  0.25500000920E-02 0.  1.
    10030    2    1    2    0    0  0.00000000000E+00  0.00000000000E+00  0.40128425136E+03  0.29300701203E+04  0.29024613451E+04 0.  0.
        3    1    3    3  502    0 -0.36170644015E+03 -0.10598499633E+04  0.11324371715E+04  0.15926479370E+04  0.10100000352E+00 0. -1.
       -3    1    3    3    0  502  0.36170644015E+03  0.10598499633E+04 -0.73115292014E+03  0.13374221833E+04  0.10100000352E+00 0.  1.
</event>
<event>
 5   0  0.2325590E-06  0.2915864E+04  0.7818609E-02  0.8268173E-01
       -2   -1    0    0    0  501  0.00000000000E+00  0.00000000000E+00  0.10373109533E+04  0.10373109533E+04  0.25500000920E-02 0. -1.
        2   -1    0    0  501    0  0.00000000000E+00  0.00000000000E+00 -0.20491120576E+04  0.20491120576E+04  0.25500000920E-02 0.  1.
    10030    2    1    2    0    0  0.00000000000E+00  0.00000000000E+00 -0.10118011043E+04  0.30864230109E+04  0.29158644563E+04 0.  0.
        5    1    3    3  502    0 -0.11784368335E+04  0.56853682597E+03 -0.11866333893E+04  0.17663715305E+04  0.46999998093E+01 0.  1.
       -5    1    3    3    0  502  0.11784368335E+04 -0.56853682597E+03  0.17483228497E+03  0.13200514804E+04  0.46999998093E+01 0. -1.
</event>
<event>
 5   0  0.8483636E-07  0.2921241E+04  0.7818609E-02  0.8266586E-01
        1   -1    0    0  501    0  0.00000000000E+00  0.00000000000E+00  0.23665181568E+04  0.23665181568E+04  0.50400001928E-02 0.  1.
       -1   -1    0    0    0  501  0.00000000000E+00  0.00000000000E+00 -0.90149813599E+03  0.90149813601E+03  0.50400001928E-02 0. -1.
    10030    2    1    2    0    0  0.00000000000E+00  0.00000000000E+00  0.14650200208E+04  0.32680162928E+04  0.29212406318E+04 0.  0.
        2    1    3    3  502    0  0.95054573609E+03  0.43961902016E+03  0.18715120441E+04  0.21446117155E+04  0.25500000920E-02 0.  1.
       -2    1    3    3    0  502 -0.95054573609E+03 -0.43961902016E+03 -0.40649202327E+03  0.11234045773E+04  0.25500000920E-02 0. -1.
</event>
<event>
 5   0  0.2425845E-06  0.2896988E+04  0.7818609E-02  0.8273774E-01
       -2   -1    0    0    0  501  0.00000000000E+00  0.00000000000E+00  0.18331519984E+04  0.18331519984E+04  0.25500000920E-02 0. -1.
        2   -1    0    0  501    0  0.00000000000E+00  0.00000000000E+00 -0.11445506163E+04  0.11445506163E+04  0.25500000920E-02 0.  1.
    10030    2    1    2    0    0  0.00000000000E+00  0.00000000000E+00  0.68860138210E+03  0.29777026147E+04  0.28969882634E+04 0.  0.
        2    1    3    3  502    0 -0.11320945519E+04 -0.43803770144E+03 -0.46804817907E+03  0.13009935435E+04  0.25500000920E-02 0.  1.
       -2    1    3    3    0  502  0.11320945519E+04  0.43803770144E+03  0.11566495612E+04  0.16767090713E+04  0.25500000920E-02 0. -1.
</event>
<event>
 5   0  0.8483636E-07  0.2907562E+04  0.7818609E-02  0.8270631E-01
        1   -1    0    0  501    0  0.00000000000E+00  0.00000000000E+00  0.15229084865E+04  0.15229084865E+04  0.50400001928E-02 0. -1.
       -1   -1    0    0    0  501  0.00000000000E+00  0.00000000000E+00 -0.13877913552E+04  0.13877913552E+04  0.50400001928E-02 0.  1.
    10030    2    1    2    0    0  0.00000000000E+00  0.00000000000E+00  0.13511713129E+03  0.29106998417E+04  0.29075620251E+04 0.  0.
        2    1    3    3  502    0 -0.66090799790E+02  0.36285299914E+03  0.14752941003E+04  0.15206981867E+04  0.25500000920E-02 0. -1.
       -2    1    3    3    0  502  0.66090799790E+02 -0.36285299914E+03 -0.13401769690E+04  0.13900016550E+04  0.25500000920E-02 0.  1.
</event>
<event>
 5   0  0.2325590E-06  0.2918930E+04  0.7818609E-02  0.8267267E-01
       -2   -1    0    0    0  501  0.00000000000E+00  0.00000000000E+00  0.12444300253E+04  0.12444300253E+04  0.25500000920E-02 0. -1.
        2   -1    0    0  501    0  0.00000000000E+00  0.00000000000E+00 -0.17116578149E+04  0.17116578149E+04  0.25500000920E-02 0.  1.
    10030    2    1    2    0    0  0.00000000000E+00  0.00000000000E+00 -0.46722778960E+03  0.29560878403E+04  0.29189301999E+04 0.  0.
        5    1    3    3  502    0 -0.99358286859E+03  0.34992690250E+03  0.78937389801E+03  0.13163544335E+04  0.46999998093E+01 0. -1.
       -5    1    3    3    0  502  0.99358286859E+03 -0.34992690250E+03 -0.12566016876E+04  0.16397334067E+04  0.46999998093E+01 0.  1.
</event>
<event>
 5   0  0.8357118E-07  0.2900032E+04  0.7818609E-02  0.8272868E-01
       -1   -1    0    0    0  501  0.00000000000E+00  0.00000000000E+00  0.17714846145E+04  0.17714846145E+04  0.50400001928E-02 0. -1.
        1   -1    0    0  501    0  0.00000000000E+00  0.00000000000E+00 -0.11868837550E+04  0.11868837551E+04  0.50400001928E-02 0.  1.
    10030    2    1    2    0    0  0.00000000000E+00  0.00000000000E+00  0.58460085942E+03  0.29583683695E+04  0.29000319386E+04 0.  0.
        1    1    3    3  502    0  0.10282706794E+04  0.45062516277E+03  0.12284436783E+04  0.16641747199E+04  0.50400001928E-02 0. -1.
       -1    1    3    3    0  502 -0.10282706794E+04 -0.45062516277E+03 -0.64384281892E+03  0.12941936497E+04  0.50400001928E-02 0.  1.
</event>
<event>
 5   0  0.8355946E-07  0.2891132E+04  0.7818609E-02  0.8275521E-01
       -1   -1    0    0    0  501  0.00000000000E+00  0.00000000000E+00  0.14381054079E+04  0.14381054079E+04  0.50400001928E-02 0.  1.
        1   -1    0    0  501    0  0.00000000000E+00  0.00000000000E+00 -0.14530656803E+04  0.14530656803E+04  0.50400001928E-02 0. -1.
    10030    2    1    2    0    0  0.00000000000E+00  0.00000000000E+00 -0.14960272435E+02  0.28911710882E+04  0.28911323822E+04 0.  0.
        4    1    3    3  502    0 -0.13110539790E+04  0.60876654478E+03 -0.21649239113E+02  0.14456588617E+04  0.12699999809E+01 0. -1.
       -4    1    3    3    0  502  0.13110539790E+04 -0.60876654478E+03  0.66889666775E+01  0.14455122265E+04  0.12699999809E+01 0.  1.
</event>
<event>
 5   0  0.8357118E-07  0.2903405E+04  0.7818609E-02  0.8271865E-01
       -1   -1    0    0    0  501  0.00000000000E+00  0.00000000000E+00  0.88224246453E+03  0.88224246455E+03  0.50400001928E-02 0. -1.
        1   -1    0    0  501    0  0.00000000000E+00  0.00000000000E+00 -0.23887312968E+04  0.23887312968E+04  0.50400001928E-02 0.  1.
    10030    2    1    2    0    0  0.00000000000E+00  0.00000000000E+00 -0.15064888323E+04  0.32709737614E+04  0.29034050261E+04 0.  0.
        1    1    3    3  502    0  0.12581668960E+04  0.53974670714E+03 -0.12972060582E+04  0.18860153773E+04  0.50400001928E-02 0. -1.
       -1    1    3    3    0  502 -0.12581668960E+04 -0.53974670714E+03 -0.20928277413E+03  0.13849583841E+04  0.50400001928E-02 0.  1.
</event>
<event>
 5   0  0.2325590E-06  0.2901648E+04  0.7818609E-02  0.8272387E-01
        2   -1    0    0  501    0  0.00000000000E+00  0.00000000000E+00  0.18180703053E+04  0.18180703053E+04  0.25500000920E-02 0. -1.
       -2   -1    0    0    0  501  0.00000000000E+00  0.00000000000E+00 -0.11577605147E+04  0.11577605147E+04  0.25500000920E-02 0.  1.
    10030    2    1    2    0    0  0.00000000000E+00  0.00000000000E+00  0.66030979056E+03  0.29758308200E+04  0.29016478163E+04 0.  0.
        5    1    3    3  502    0  0.25694023855E+01 -0.87764528132E+03 -0.85462891591E+03  0.12250226592E+04  0.46999998093E+01 0.  1.
       -5    1    3    3    0  502 -0.25694023855E+01  0.87764528132E+03  0.15149387065E+04  0.17508081608E+04  0.46999998093E+01 0. -1.
</event>
<event>
 5   0  0.8263673E-07  0.2902621E+04  0.7818609E-02  0.8272098E-01
       -1   -1    0    0    0  501  0.00000000000E+00  0.00000000000E+00  0.18971184544E+04  0.18971184544E+04  0.50400001928E-02 0.  1.
        1   -1    0    0  501    0  0.00000000000E+00  0.00000000000E+00 -0.11102638888E+04  0.11102638888E+04  0.50400001928E-02 0. -1.
    10030    2    1    2    0    0  0.00000000000E+00  0.00000000000E+00  0.78685456554E+03  0.30073823432E+04  0.29026209624E+04 0.  0.
        5    1    3    3  502    0  0.61418823632E+03 -0.12542374123E+04  0.80257389400E+03  0.16107407058E+04  0.46999998093E+01 0. -1.
       -5    1    3    3    0  502 -0.61418823632E+03  0.12542374123E+04 -0.15719328459E+02  0.13966416374E+04  0.46999998093E+01 0.  1.
</event>
<event>
 5   0  0.8947674E-07  0.2910053E+04  0.7818609E-02  0.8269893E-01
       -1   -1    0    0    0  501  0.00000000000E+00  0.00000000000E+00  0.10569643842E+04  0.10569643842E+04  0.50400001928E-02 0. -1.
        1   -1    0    0  501    0  0.00000000000E+00  0.00000000000E+00 -0.20030025394E+04  0.20030025394E+04  0.50400001928E-02 0.  1.
    10030    2    1    2    0    0  0.00000000000E+00  0.00000000000E+00 -0.94603815515E+03  0.30599669236E+04  0.29100531580E+04 0.  0.
        3    1    3    3  502    0 -0.13861329170E+04  0.36204123068E+03 -0.20562784884E+03  0.14473151484E+04  0.10100000352E+00 0. -1.
       -3    1    3    3    0  502  0.13861329170E+04 -0.36204123068E+03 -0.74041030630E+03  0.16126517752E+04  0.10100000352E+00 0.  1.
</event>
<event>
 5   0  0.2304435E-06  0.2934356E+04  0.7818609E-02  0.8262728E-01
        2   -1    0    0  501    0  0.00000000000E+00  0.00000000000E+00  0.11292196576E+04  0.11292196576E+04  0.25500000920E-02 0. -1.
       -2   -1    0    0    0  501  0.00000000000E+00  0.00000000000E+00 -0.19062822060E+04  0.19062822060E+04  0.25500000920E-02 0.  1.
    10030    2    1    2    0    0  0.00000000000E+00  0.00000000000E+00 -0.77706254832E+03  0.30355018636E+04  0.29343560384E+04 0.  0.
        1    1    3    3  502    0  0.42767841792E+03 -0.12116802953E+04 -0.11211324557E+04  0.17052905765E+04  0.50400001928E-02 0.  1.
       -1    1    3    3    0  502 -0.42767841792E+03  0.12116802953E+04  0.34406990740E+03  0.13302112871E+04  0.50400001928E-02 0. -1.
</event>
<event>
 5   0  0.8947674E-07  0.2901557E+04  0.7818609E-02  0.8272414E-01
       -1   -1    0    0    0  501  0.00000000000E+00  0.00000000000E+00  0.17858117456E+04  0.17858117456E+04  0.50400001928E-02 0.  1.
        1   -1    0    0  501    0  0.00000000000E+00  0.00000000000E+00 -0.11786002062E+04  0.11786002062E+04  0.50400001928E-02 0. -1.
    10030    2    1    2    0    0  0.00000000000E+00  0.00000000000E+00  0.60721153939E+03  0.29644119518E+04  0.29015568866E+04 0.  0.
        3    1    3    3  502    0 -0.12099240666E+04  0.36040389891E+03  0.10338985967E+04  0.16317945752E+04  0.10100000352E+00 0. -1.
       -3    1    3    3    0  502  0.12099240666E+04 -0.36040389891E+03 -0.42668705735E+03  0.13326173766E+04  0.10100000352E+00 0.  1.
</event>
<event>
 5   0  0.2378690E-06  0.2813475E+04  0.7818609E-02  0.8299097E-01
        2   -1    0    0  501    0  0.00000000000E+00  0.00000000000E+00  0.16040119678E+04  0.16040119678E+04  0.25500000920E-02 0.  1.
       -2   -1    0    0    0  501  0.00000000000E+00  0.00000000000E+00 -0.12337252102E+04  0.12337252102E+04  0.25500000920E-02 0. -1.
    10030    2    1    2    0    0  0.00000000000E+00  0.00000000000E+00  0.37028675763E+03  0.28377371780E+04  0.28134747215E+04 0.  0.
        3    1    3    3  502    0 -0.53197573178E+03  0.27022016743E+02 -0.11280759625E+04  0.12475110244E+04  0.10100000352E+00 0. -1.
       -3    1    3    3    0  502  0.53197573178E+03 -0.27022016743E+02  0.14983627201E+04  0.15902261537E+04  0.10100000352E+00 0.  1.
</event>
<event>
 5   0  0.8357118E-07  0.2906240E+04  0.7818609E-02  0.8271023E-01
       -1   -1    0    0    0  501  0.00000000000E+00  0.00000000000E+00  0.15507079103E+04  0.15507079103E+04  0.50400001928E-02 0. -1.
        1   -1    0    0  501    0  0.00000000000E+00  0.00000000000E+00 -0.13616738474E+04  0.13616738474E+04  0.50400001928E-02 0.  1.
    10030    2    1    2    0    0  0.00000000000E+00  0.00000000000E+00  0.18903406290E+03  0.29123817577E+04  0.29062404625E+04 0.  0.
        1    1    3    3  502    0  0.82541013981E+01 -0.12535405390E+04  0.83100296577E+03  0.15039939967E+04  0.50400001928E-02 0. -1.
       -1    1    3    3    0  502 -0.82541013981E+01  0.12535405390E+04 -0.64196890287E+03  0.14083877610E+04  0.50400001928E-02 0.  1.
</event>
<event>
 5   0  0.8357118E-07  0.2880367E+04  0.7818609E-02  0.8278743E-01
       -1   -1    0    0    0  501  0.00000000000E+00  0.00000000000E+00  0.12435705474E+04  0.12435705474E+04  0.50400001928E-02 0. -1.
        1   -1    0    0  501    0  0.00000000000E+00  0.00000000000E+00 -0.16678816911E+04  0.16678816911E+04  0.50400001928E-02 0.  1.
    10030    2    1    2    0    0  0.00000000000E+00  0.00000000000E+00 -0.42431114374E+03  0.29114522385E+04  0.28803670236E+04 0.  0.
        1    1    3    3  502    0  0.29425395899E+03 -0.69771029836E+03  0.10261136394E+04  0.12752624255E+04  0.50400001928E-02 0. -1.
       -1    1    3    3    0  502 -0.29425395899E+03  0.69771029836E+03 -0.14504247831E+04  0.16361898131E+04  0.50400001928E-02 0.  1.
</event>
<event>
 5   0  0.2304435E-06  0.2912431E+04  0.7818609E-02  0.8269188E-01
       -2   -1    0    0    0  501  0.00000000000E+00  0.00000000000E+00  0.12727834132E+04  0.12727834132E+04  0.25500000920E-02 0.  1.
        2   -1    0    0  501    0  0.00000000000E+00  0.00000000000E+00 -0.16660836363E+04  0.16660836363E+04  0.25500000920E-02 0. -1.
    10030    2    1    2    0    0  0.00000000000E+00  0.00000000000E+00 -0.39330022310E+03  0.29388670494E+04  0.29124310239E+04 0.  0.
        1    1    3    3  502    0  0.10323753403E+04 -0.53373532709E+03  0.68874886987E+03  0.13509430959E+04  0.50400001928E-02 0.  1.
       -1    1    3    3    0  502 -0.10323753403E+04  0.53373532709E+03 -0.10820490930E+04  0.15879239535E+04  0.50400001928E-02 0. -1.
</event>
<event>
 5   0  0.8947674E-07  0.2908319E+04  0.7818609E-02  0.8270406E-01
        1   -1    0    0  501    0  0.00000000000E+00  0.00000000000E+00  0.20575200151E+04  0.20575200151E+04  0.50400001928E-02 0.  1.
       -1   -1    0    0    0  501  0.00000000000E+00  0.00000000000E+00 -0.10277326740E+04  0.10277326740E+04  0.50400001928E-02 0. -1.
    10030    2    1    2    0    0  0.00000000000E+00  0.00000000000E+00  0.10297873410E+04  0.30852526891E+04  0.29083194783E+04 0.  0.
        3    1    3    3  502    0  0.55944250003E+03  0.53396893024E+03  0.18212667728E+04  0.19786640436E+04  0.10100000352E+00 0.  1.
       -3    1    3    3    0  502 -0.55944250003E+03 -0.53396893024E+03 -0.79147943179E+03  0.11065886455E+04  0.10100000352E+00 0. -1.
</event>
<event>
 5   0  0.8357118E-07  0.2924453E+04  0.7818609E-02  0.8265639E-01
        1   -1    0    0  501    0  0.00000000000E+00  0.00000000000E+00  0.20580082653E+04  0.20580082653E+04  0.50400001928E-02 0. -1.
       -1   -1    0    0    0  501  0.00000000000E+00  0.00000000000E+00 -0.10389203388E+04  0.10389203388E+04  0.50400001928E-02 0.  1.
    10030    2    1    2    0    0  0.00000000000E+00  0.00000000000E+00  0.10190879265E+04  0.30969286041E+04  0.29244532099E+04 0.  0.
        1    1    3    3  502    0  0.58829121306E+02 -0.17618822215E+03 -0.10263755479E+04  0.10430483788E+04  0.50400001928E-02 0.  1.
       -1    1    3    3    0  502 -0.58829121306E+02  0.17618822215E+03  0.20454634744E+04  0.20538802254E+04  0.50400001928E-02 0. -1.
</event>
<event>
 5   0  0.2378690E-06  0.2893843E+04  0.7818609E-02  0.8274712E-01
        2   -1    0    0  501    0  0.00000000000E+00  0.00000000000E+00  0.18662340552E+04  0.18662340552E+04  0.25500000920E-02 0. -1.
       -2   -1    0    0    0  501  0.00000000000E+00  0.00000000000E+00 -0.11218214064E+04  0.11218214064E+04  0.25500000920E-02 0.  1.
    10030    2    1    2    0    0  0.00000000000E+00  0.00000000000E+00  0.74441264875E+03  0.29880554616E+04  0.28938426443E+04 0.  0.
        3    1    3    3  502    0  0.10067427147E+04 -0.61170967443E+02  0.14434348560E+04  0.17609023183E+04  0.10100000352E+00 0. -1.
       -3    1    3    3    0  502 -0.10067427147E+04  0.61170967443E+02 -0.69902220723E+03  0.12271531433E+04  0.10100000352E+00 0.  1.
</event>
<event>
 5   0  0.2325590E-06  0.2896961E+04  0.7818609E-02  0.8273782E-01
       -2   -1    0    0    0  501  0.00000000000E+00  0.00000000000E+00  0.12149922192E+04  0.12149922192E+04  0.25500000920E-02 0.  1.
        2   -1    0    0  501    0  0.00000000000E+00  0.00000000000E+00 -0.17268388002E+04  0.17268388002E+04  0.25500000920E-02 0. -1.
    10030    2    1    2    0    0  0.00000000000E+00  0.00000000000E+00 -0.51184658102E+03  0.29418310194E+04  0.28969609635E+04 0.  0.
        5    1    3    3  502    0  0.25839454692E+03  0.89455749749E+03 -0.13826457213E+04  0.16669529504E+04  0.46999998093E+01 0. -1.
       -5    1    3    3    0  502 -0.25839454692E+03 -0.89455749749E+03  0.87079914028E+03  0.12748780690E+04  0.46999998093E+01 0.  1.
</event>
<event>
 5   0  0.2425845E-06  0.2907947E+04  0.7818609E-02  0.8270517E-01
        2   -1    0    0  501    0  0.00000000000E+00  0.00000000000E+00  0.18544609681E+04  0.18544609681E+04  0.25500000920E-02 0.  1.
       -2   -1    0    0    0  501  0.00000000000E+00  0.00000000000E+00 -0.11399745309E+04  0.11399745309E+04  0.25500000920E-02 0. -1.
    10030    2    1    2    0    0  0.00000000000E+00  0.00000000000E+00  0.71448643718E+03  0.29944354990E+04  0.29079465416E+04 0.  0.
        2    1    3    3  502    0  0.12565667898E+04  0.14440769582E+03  0.10956657938E+04  0.16734088597E+04  0.25500000920E-02 0.  1.
       -2    1    3    3    0  502 -0.12565667898E+04 -0.14440769582E+03 -0.38117935663E+03  0.13210266393E+04  0.25500000920E-02 0. -1.
</event>
<event>
 5   0  0.2425845E-06  0.2902216E+04  0.7818609E-02  0.8272219E-01
       -2   -1    0    0    0  501  0.00000000000E+00  0.00000000000E+00  0.10504935370E+04  0.10504935370E+04  0.25500000920E-02 0.  1.
        2   -1    0    0  501    0  0.00000000000E+00  0.00000000000E+00 -0.20044995819E+04  0.20044995819E+04  0.25500000920E-02 0. -1.
    10030    2    1    2    0    0  0.00000000000E+00  0.00000000000E+00 -0.95400604488E+03  0.30549931189E+04  0.29022156059E+04 0.  0.
        2    1    3    3  502    0  0.13794886254E+04  0.28907931255E+03 -0.84036745898E+03  0.16409671486E+04  0.25500000920E-02 0. -1.
       -2    1    3    3    0  502 -0.13794886254E+04 -0.28907931255E+03 -0.11363858589E+03  0.14140259703E+04  0.25500000920E-02 0.  1.
</event>
<event>
 5   0  0.2378690E-06  0.2907646E+04  0.7818609E-02  0.8270606E-01
       -2   -1    0    0    0  501  0.00000000000E+00  0.00000000000E+00  0.11175085363E+04  0.11175085363E+04  0.25500000920E-02 0.  1.
        2   -1    0    0  501    0  0.00000000000E+00  0.00000000000E+00 -0.18913520247E+04  0.18913520247E+04  0.25500000920E-02 0. -1.
    10030    2    1    2    0    0  0.00000000000E+00  0.00000000000E+00 -0.77384348841E+03  0.30088605610E+04  0.29076464934E+04 0.  0.
        3    1    3    3  502    0 -0.21201263382E+03 -0.93999736623E+03  0.73957564672E+03  0.12147084230E+04  0.10100000352E+00 0.  1.
       -3    1    3    3    0  502  0.21201263382E+03  0.93999736623E+03 -0.15134191351E+04  0.17941521380E+04  0.10100000352E+00 0. -1.
</event>
<event>
 5   0  0.8483636E-07  0.2911629E+04  0.7818609E-02  0.8269426E-01
        1   -1    0    0  501    0  0.00000000000E+00  0.00000000000E+00  0.16150052362E+04  0.16150052362E+04  0.50400001928E-02 0. -1.
       -1   -1    0    0    0  501  0.00000000000E+00  0.00000000000E+00 -0.13123152684E+04  0.13123152684E+04  0.50400001928E-02 0.  1.
    10030    2    1    2    0    0  0.00000000000E+00  0.00000000000E+00  0.30268996782E+03  0.29273205046E+04  0.29116291178E+04 0.  0.
        2    1    3    3  502    0 -0.10858310155E+04  0.42134997138E+03  0.10294540383E+04  0.15544582367E+04  0.25500000920E-02 0. -1.
       -2    1    3    3    0  502  0.10858310155E+04 -0.42134997138E+03 -0.72676407045E+03  0.13728622679E+04  0.25500000920E-02 0.  1.
</event>
<event>
 5   0  0.2304435E-06  0.2891078E+04  0.7818609E-02  0.8275537E-01
       -2   -1    0    0    0  501  0.00000000000E+00  0.00000000000E+00  0.18538136971E+04  0.18538136971E+04  0.25500000920E-02 0.  1.
        2   -1    0    0  501    0  0.00000000000E+00  0.00000000000E+00 -0.11271809111E+04  0.11271809111E+04  0.25500000920E-02 0. -1.
    10030    2    1    2    0    0  0.00000000000E+00  0.00000000000E+00  0.72663278598E+03  0.29809946081E+04  0.28910782847E+04 0.  0.
        1    1    3    3  502    0  0.41618398072E+03  0.88694214009E+03  0.14592504688E+04  0.17576368784E+04  0.50400001928E-02 0.  1.
       -1    1    3    3    0  502 -0.41618398072E+03 -0.88694214009E+03 -0.73261768282E+03  0.12233577297E+04  0.50400001928E-02 0. -1.
</event>
<event>
 5   0  0.8947674E-07  0.2897623E+04  0.7818609E-02  0.8273585E-01
       -1   -1    0    0    0  501  0.00000000000E+00  0.00000000000E+00  0.97018576172E+03  0.97018576173E+03  0.50400001928E-02 0.  1.
        1   -1    0    0  501    0  0.00000000000E+00  0.00000000000E+00 -0.21635591143E+04  0.21635591143E+04  0.50400001928E-02 0. -1.
    10030    2    1    2    0    0  0.00000000000E+00  0.00000000000E+00 -0.11933733526E+04  0.31337448761E+04  0.28976226444E+04 0.  0.
        3    1    3    3  502    0 -0.31601514661E+03  0.12397886756E+04  0.13849684495E+03  0.12869043940E+04  0.10100000352E+00 0. -1.
       -3    1    3    3    0  502  0.31601514661E+03 -0.12397886756E+04 -0.13318701976E+04  0.18468404821E+04  0.10100000352E+00 0.  1.
</event>
<event>
 5   0  0.8947674E-07  0.2909162E+04  0.7818609E-02  0.8270157E-01
        1   -1    0    0  501    0  0.00000000000E+00  0.00000000000E+00  0.14775206094E+04  0.14775206094E+04  0.50400001928E-02 0. -1.
       -1   -1    0    0    0  501  0.00000000000E+00  0.00000000000E+00 -0.14319970633E+04  0.14319970633E+04  0.50400001928E-02 0.  1.
    10030    2    1    2    0    0  0.00000000000E+00  0.00000000000E+00  0.45523546091E+02  0.29095176726E+04  0.29091615105E+04 0.  0.
        3    1    3    3  502    0  0.72977184088E+03 -0.12458249085E+04 -0.15377760179E+03  0.14519966265E+04  0.10100000352E+00 0. -1.
       -3    1    3    3    0  502 -0.72977184088E+03  0.12458249085E+04  0.19930114788E+03  0.14575210462E+04  0.10100000352E+00 0.  1.
</event>
<event>
 5   0  0.8355946E-07  0.2911875E+04  0.7818609E-02  0.8269353E-01
        1   -1    0    0  501    0  0.00000000000E+00  0.00000000000E+00  0.18164109034E+04  0.18164109034E+04  0.50400001928E-02 0. -1.
       -1   -1    0    0    0  501  0.00000000000E+00  0.00000000000E+00 -0.11670012607E+04  0.11670012607E+04  0.50400001928E-02 0.  1.
    10030    2    1    2    0    0  0.00000000000E+00  0.00000000000E+00  0.64940964269E+03  0.29834121641E+04  0.29118748697E+04 0.  0.
        4    1    3    3  502    0  0.71320663732E+03 -0.33975974959E+03 -0.92830881587E+03  0.12189582706E+04  0.12699999809E+01 0.  1.
       -4    1    3    3    0  502 -0.71320663732E+03  0.33975974959E+03  0.15777184586E+04  0.17644538935E+04  0.12699999809E+01 0. -1.
</event>
<event>
 5   0  0.2360103E-06  0.2914781E+04  0.7818609E-02  0.8268493E-01
        2   -1    0    0  501    0  0.00000000000E+00  0.00000000000E+00  0.15510953612E+04  0.15510953612E+04  0.25500000920E-02 0. -1.
       -2   -1    0    0    0  501  0.00000000000E+00  0.00000000000E+00 -0.13693467768E+04  0.13693467768E+04  0.25500000920E-02 0.  1.
    10030    2    1    2    0    0  0.00000000000E+00  0.00000000000E+00  0.18174858441E+03  0.29204421381E+04  0.29147812498E+04 0.  0.
        4    1    3    3  502    0  0.15206756067E+03  0.47660954069E+03  0.14623660538E+04  0.15455734487E+04  0.12699999809E+01 0. -1.
       -4    1    3    3    0  502 -0.15206756067E+03 -0.47660954069E+03 -0.12806174694E+04  0.13748686894E+04  0.12699999809E+01 0.  1.
</event>
<event>
 5   0  0.8947674E-07  0.2908401E+04  0.7818609E-02  0.8270382E-01
       -1   -1    0    0    0  501  0.00000000000E+00  0.00000000000E+00  0.72509811867E+03  0.72509811869E+03  0.50400001928E-02 0.  1.
        1   -1    0    0  501    0  0.00000000000E+00  0.00000000000E+00 -0.29164307981E+04  0.29164307981E+04  0.50400001928E-02 0. -1.
    10030    2    1    2    0    0  0.00000000000E+00  0.00000000000E+00 -0.21913326794E+04  0.36415289168E+04  0.29084005810E+04 0.  0.
        3    1    3    3  502    0 -0.39486586645E+03 -0.57845307219E+03 -0.26913451517E+04  0.27809828739E+04  0.10100000352E+00 0. -1.
       -3    1    3    3    0  502  0.39486586645E+03  0.57845307219E+03  0.50001247230E+03  0.86054604285E+03  0.10100000352E+00 0.  1.
</event>
<event>
 5   0  0.2325590E-06  0.2757921E+04  0.7818609E-02  0.8316453E-01
       -2   -1    0    0    0  501  0.00000000000E+00  0.00000000000E+00  0.26271016303E+04  0.26271016303E+04  0.25500000920E-02 0. -1.
        2   -1    0    0  501    0  0.00000000000E+00  0.00000000000E+00 -0.72381343374E+03  0.72381343374E+03  0.25500000920E-02 0.  1.
    10030    2    1    2    0    0  0.00000000000E+00  0.00000000000E+00  0.19032881966E+04  0.33509150640E+04  0.27579205585E+04 0.  0.
        5    1    3    3  502    0 -0.20838301500E+03  0.12612443537E+04  0.32341131862E+03  0.13186272300E+04  0.46999998093E+01 0. -1.
       -5    1    3    3    0  502  0.20838301500E+03 -0.12612443537E+04  0.15798768779E+04  0.20322878340E+04  0.46999998093E+01 0.  1.
</event>
<event>
 5   0  0.8947674E-07  0.2878876E+04  0.7818609E-02  0.8279190E-01
        1   -1    0    0  501    0  0.00000000000E+00  0.00000000000E+00  0.16602234792E+04  0.16602234792E+04  0.50400001928E-02 0. -1.
       -1   -1    0    0    0  501  0.00000000000E+00  0.00000000000E+00 -0.12480136720E+04  0.12480136720E+04  0.50400001928E-02 0.  1.
    10030    2    1    2    0    0  0.00000000000E+00  0.00000000000E+00  0.41220980714E+03  0.29082371512E+04  0.28788758922E+04 0.  0.
        3    1    3    3  502    0  0.13001334421E+04 -0.32506076331E+03  0.73679124363E+03  0.15293373774E+04  0.10100000352E+00 0. -1.
       -3    1    3    3    0  502 -0.13001334421E+04  0.32506076331E+03 -0.32458143649E+03  0.13788997738E+04  0.10100000352E+00 0.  1.
</event>
<event>
 5   0  0.2304435E-06  0.2899237E+04  0.7818609E-02  0.8273105E-01
       -2   -1    0    0    0  501  0.00000000000E+00  0.00000000000E+00  0.13866634868E+04  0.13866634868E+04  0.25500000920E-02 0.  1.
        2   -1    0    0  501    0  0.00000000000E+00  0.00000000000E+00 -0.15154315544E+04  0.15154315544E+04  0.25500000920E-02 0. -1.
    10030    2    1    2    0    0  0.00000000000E+00  0.00000000000E+00 -0.12876806762E+03  0.29020950413E+04  0.28992368674E+04 0.  0.
        1    1    3    3  502    0  0.12748962574E+04  0.30274456909E+03  0.55621012124E+03  0.14235113066E+04  0.50400001928E-02 0.  1.
       -1    1    3    3    0  502 -0.12748962574E+04 -0.30274456909E+03 -0.68497818886E+03  0.14785837346E+04  0.50400001928E-02 0. -1.
</event>
<event>
 5   0  0.8947674E-07  0.2881211E+04  0.7818609E-02  0.8278490E-01
        1   -1    0    0  501    0  0.00000000000E+00  0.00000000000E+00  0.12458424794E+04  0.12458424794E+04  0.50400001928E-02 0.  1.
       -1   -1    0    0    0  501  0.00000000000E+00  0.00000000000E+00 -0.16658153733E+04  0.16658153733E+04  0.50400001928E-02 0. -1.
    10030    2    1    2    0    0  0.00000000000E+00  0.00000000000E+00 -0.41997289394E+03  0.29116578527E+04  0.28812105476E+04 0.  0.
        3    1    3    3  502    0 -0.28976230568E+03 -0.50648898899E+03 -0.15410424888E+04  0.16478183311E+04  0.10100000352E+00 0. -1.
       -3    1    3    3    0  502  0.28976230568E+03  0.50648898899E+03  0.11210695948E+04  0.12638395216E+04  0.10100000352E+00 0.  1.
</event>
<event>
 5   0  0.2325590E-06  0.2891811E+04  0.7818609E-02  0.8275318E-01
       -2   -1    0    0    0  501  0.00000000000E+00  0.00000000000E+00  0.11481034034E+04  0.11481034034E+04  0.25500000920E-02 0.  1.
        2   -1    0    0  501    0  0.00000000000E+00  0.00000000000E+00 -0.18209527422E+04  0.18209527422E+04  0.25500000920E-02 0. -1.
    10030    2    1    2    0    0  0.00000000000E+00  0.00000000000E+00 -0.67284933876E+03  0.29690561456E+04  0.28918105337E+04 0.  0.
        5    1    3    3  502    0  0.60306481987E+02  0.81777960644E+03  0.88627646635E+03  0.12074387857E+04  0.46999998093E+01 0.  1.
       -5    1    3    3    0  502 -0.60306481987E+02 -0.81777960644E+03 -0.15591258051E+04  0.17616173599E+04  0.46999998093E+01 0. -1.
</event>
<event>
 5   0  0.2378690E-06  0.2902240E+04  0.7818609E-02  0.8272211E-01
       -2   -1    0    0    0  501  0.00000000000E+00  0.00000000000E+00  0.14644426123E+04  0.14644426123E+04  0.25500000920E-02 0. -1.
        2   -1    0    0  501    0  0.00000000000E+00  0.00000000000E+00 -0.14379187319E+04  0.14379187319E+04  0.25500000920E-02 0.  1.
    10030    2    1    2    0    0  0.00000000000E+00  0.00000000000E+00  0.26523880360E+02  0.29023613442E+04  0.29022401445E+04 0.  0.
        3    1    3    3  502    0 -0.22381332585E+03 -0.12623798507E+04  0.69303598629E+03  0.14573929398E+04  0.10100000352E+00 0. -1.
       -3    1    3    3    0  502  0.22381332585E+03  0.12623798507E+04 -0.66651210593E+03  0.14449684045E+04  0.10100000352E+00 0.  1.
</event>
<event>
 5   0  0.2378690E-06  0.2896279E+04  0.7818609E-02  0.8273985E-01
       -2   -1    0    0    0  501  0.00000000000E+00  0.00000000000E+00  0.12895047735E+04  0.12895047735E+04  0.25500000920E-02 0.  1.
        2   -1    0    0  501    0  0.00000000000E+00  0.00000000000E+00 -0.16262898373E+04  0.16262898373E+04  0.25500000920E-02 0. -1.
    10030    2    1    2    0    0  0.00000000000E+00  0.00000000000E+00 -0.33678506381E+03  0.29157946109E+04  0.28962793432E+04 0.  0.
        3    1    3    3  502    0  0.50224304302E+03 -0.10021562310E+04  0.75459647991E+03  0.13512886602E+04  0.10100000352E+00 0.  1.
       -3    1    3    3    0  502 -0.50224304302E+03  0.10021562310E+04 -0.10913815437E+04  0.15645059507E+04  0.10100000352E+00 0. -1.
</event>
<event>
 5   0  0.8357118E-07  0.2894355E+04  0.7818609E-02  0.8274559E-01
       -1   -1    0    0    0  501  0.00000000000E+00  0.00000000000E+00  0.74639264475E+03  0.74639264477E+03  0.50400001928E-02 0.  1.
        1   -1    0    0  501    0  0.00000000000E+00  0.00000000000E+00 -0.28059254828E+04  0.28059254828E+04  0.50400001928E-02 0. -1.
    10030    2    1    2    0    0  0.00000000000E+00  0.00000000000E+00 -0.20595328380E+04  0.35523181275E+04  0.28943546031E+04 0.  0.
        1    1    3    3  502    0  0.45768082829E+02  0.54181933550E+03 -0.26757843422E+04  0.27304733574E+04  0.50400001928E-02 0. -1.
       -1    1    3    3    0  502 -0.45768082829E+02 -0.54181933550E+03  0.61625150417E+03  0.82184477010E+03  0.50400001928E-02 0.  1.
</event>
<event>
 5   0  0.8355946E-07  0.2897459E+04  0.7818609E-02  0.8273634E-01
        1   -1    0    0  501    0  0.00000000000E+00  0.00000000000E+00  0.13712815289E+04  0.13712815289E+04  0.50400001928E-02 0. -1.
       -1   -1    0    0    0  501  0.00000000000E+00  0.00000000000E+00 -0.15305518123E+04  0.15305518123E+04  0.50400001928E-02 0.  1.
    10030    2    1    2    0    0  0.00000000000E+00  0.00000000000E+00 -0.15927028347E+03  0.29018333412E+04  0.28974591830E+04 0.  0.
        4    1    3    3  502    0  0.91290206941E+03  0.54148812734E+03 -0.10671339368E+04  0.15051166175E+04  0.12699999809E+01 0.  1.
       -4    1    3    3    0  502 -0.91290206941E+03 -0.54148812734E+03  0.90786365331E+03  0.13967167237E+04  0.12699999809E+01 0. -1.
</event>
<event>
 5   0  0.8357118E-07  0.2903258E+04  0.7818609E-02  0.8271909E-01
       -1   -1    0    0    0  501  0.00000000000E+00  0.00000000000E+00  0.12333857155E+04  0.12333857155E+04  0.50400001928E-02 0. -1.
        1   -1    0    0  501    0  0.00000000000E+00  0.00000000000E+00 -0.17084898993E+04  0.17084898993E+04  0.50400001928E-02 0.  1.
    10030    2    1    2    0    0  0.00000000000E+00  0.00000000000E+00 -0.47510418379E+03  0.29418756149E+04  0.29032581952E+04 0.  0.
        1    1    3    3  502    0 -0.11819293583E+04 -0.42400970899E+03  0.50048047394E+03  0.13517477377E+04  0.50400001928E-02 0. -1.
       -1    1    3    3    0  502  0.11819293583E+04  0.42400970899E+03 -0.97558465773E+03  0.15901278772E+04  0.50400001928E-02 0.  1.
</event>
<event>
 5   0  0.7621125E-07  0.2876303E+04  0.7818609E-02  0.8279963E-01
        3   -1    0    0  501    0  0.00000000000E+00  0.00000000000E+00  0.18542343761E+04  0.18542343788E+04  0.10100000352E+00 0.  1.
       -3   -1    0    0    0  501  0.00000000000E+00  0.00000000000E+00 -0.11154363497E+04  0.11154363543E+04  0.10100000352E+00 0. -1.
    10030    2    1    2    0    0  0.00000000000E+00  0.00000000000E+00  0.73879802639E+03  0.29696707331E+04  0.28763034852E+04 0.  0.
        3    1    3    3  502    0 -0.69439157433E+03 -0.12129925287E+04  0.19655448069E+02  0.13978257689E+04  0.10100000352E+00 0. -1.
       -3    1    3    3    0  502  0.69439157433E+03  0.12129925287E+04  0.71914257832E+03  0.15718449642E+04  0.10100000352E+00 0.  1.
</event>
<event>
 5   0  0.8263673E-07  0.2889039E+04  0.7818609E-02  0.8276146E-01
       -1   -1    0    0    0  501  0.00000000000E+00  0.00000000000E+00  0.15890277124E+04  0.15890277124E+04  0.50400001928E-02 0. -1.
        1   -1    0    0  501    0  0.00000000000E+00  0.00000000000E+00 -0.13131526560E+04  0.13131526560E+04  0.50400001928E-02 0.  1.
    10030    2    1    2    0    0  0.00000000000E+00  0.00000000000E+00  0.27587505642E+03  0.29021803684E+04  0.28890385674E+04 0.  0.
        5    1    3    3  502    0 -0.66608312793E+03 -0.12735429594E+04  0.28363336895E+03  0.14649397191E+04  0.46999998093E+01 0. -1.
       -5    1    3    3    0  502  0.66608312793E+03  0.12735429594E+04 -0.77583125285E+01  0.14372406493E+04  0.46999998093E+01 0.  1.
</event>
<event>
 5   0  0.8355946E-07  0.2909661E+04  0.7818609E-02  0.8270009E-01
       -1   -1    0    0    0  501  0.00000000000E+00  0.00000000000E+00  0.15298443430E+04  0.15298443430E+04  0.50400001928E-02 0.  1.
        1   -1    0    0  501    0  0.00000000000E+00  0.00000000000E+00 -0.13834952177E+04  0.13834952177E+04  0.50400001928E-02 0. -1.
    10030    2    1    2    0    0  0.00000000000E+00  0.00000000000E+00  0.14634912525E+03  0.29133395607E+04  0.29096613771E+04 0.  0.
        4    1    3    3  502    0 -0.99778133490E+03 -0.96477994706E+03 -0.36345327077E+03  0.14347361540E+04  0.12699999809E+01 0. -1.
       -4    1    3    3    0  502  0.99778133490E+03  0.96477994706E+03  0.50980239601E+03  0.14786034067E+04  0.12699999809E+01 0.  1.
</event>
<event>
 5   0  0.8483636E-07  0.2895750E+04  0.7818609E-02  0.8274143E-01
        1   -1    0    0  501    0  0.00000000000E+00  0.00000000000E+00  0.14785439074E+04  0.14785439074E+04  0.50400001928E-02 0.  1.
       -1   -1    0    0    0  501  0.00000000000E+00  0.00000000000E+00 -0.14178425944E+04  0.14178425944E+04  0.50400001928E-02 0. -1.
    10030    2    1    2    0    0  0.00000000000E+00  0.00000000000E+00  0.60701312982E+02  0.28963865018E+04  0.28957503549E+04 0.  0.
        2    1    3    3  502    0 -0.55273979583E+03  0.26654276447E+02  0.13685948035E+04  0.14762396379E+04  0.25500000920E-02 0.  1.
       -2    1    3    3    0  502  0.55273979583E+03 -0.26654276447E+02 -0.13078934905E+04  0.14201468638E+04  0.25500000920E-02 0. -1.
</event>
<event>
 5   0  0.2425845E-06  0.2887339E+04  0.7818609E-02  0.8276654E-01
        2   -1    0    0  501    0  0.00000000000E+00  0.00000000000E+00  0.11335189365E+04  0.11335189365E+04  0.25500000920E-02 0. -1.
       -2   -1    0    0    0  501  0.00000000000E+00  0.00000000000E+00 -0.18386826389E+04  0.18386826389E+04  0.25500000920E-02 0.  1.
    10030    2    1    2    0    0  0.00000000000E+00  0.00000000000E+00 -0.70516370240E+03  0.29722015754E+04  0.28873389752E+04 0.  0.
        2    1    3    3  502    0  0.61745527974E+03 -0.27236049498E+02 -0.16956076229E+04  0.18047376640E+04  0.25500000920E-02 0.  1.
       -2    1    3    3    0  502 -0.61745527974E+03  0.27236049498E+02  0.99044392050E+03  0.11674639115E+04  0.25500000920E-02 0. -1.
</event>
<event>
 5   0  0.8263673E-07  0.2904056E+04  0.7818609E-02  0.8271672E-01
        1   -1    0    0  501    0  0.00000000000E+00  0.00000000000E+00  0.18476260051E+04  0.18476260051E+04  0.50400001928E-02 0.  1.
       -1   -1    0    0    0  501  0.00000000000E+00  0.00000000000E+00 -0.11411318208E+04  0.11411318208E+04  0.50400001928E-02 0. -1.
    10030    2    1    2    0    0  0.00000000000E+00  0.00000000000E+00  0.70649418422E+03  0.29887578259E+04  0.29040556657E+04 0.  0.
        5    1    3    3  502    0 -0.84885105418E+02 -0.66394964773E+03  0.16793668675E+04  0.18078522566E+04  0.46999998093E+01 0.  1.
       -5    1    3    3    0  502  0.84885105418E+02  0.66394964773E+03 -0.97287268329E+03  0.11809055694E+04  0.46999998093E+01 0. -1.
</event>
<event>
 5   0  0.8947674E-07  0.2884817E+04  0.7818609E-02  0.8277409E-01
        1   -1    0    0  501    0  0.00000000000E+00  0.00000000000E+00  0.14036304065E+04  0.14036304065E+04  0.50400001928E-02 0. -1.
       -1   -1    0    0    0  501  0.00000000000E+00  0.00000000000E+00 -0.14822577845E+04  0.14822577845E+04  0.50400001928E-02 0.  1.
    10030    2    1    2    0    0  0.00000000000E+00  0.00000000000E+00 -0.78627377994E+02  0.28858881910E+04  0.28848168723E+04 0.  0.
        3    1    3    3  502    0  0.66122763116E+03 -0.11705305702E+04  0.48354501611E+03  0.14286985647E+04  0.10100000352E+00 0. -1.
       -3    1    3    3    0  502 -0.66122763116E+03  0.11705305702E+04 -0.56217239410E+03  0.14571896263E+04  0.10100000352E+00 0.  1.
</event>
<event>
 5   0  0.2425845E-06  0.2903221E+04  0.7818609E-02  0.8271920E-01
        2   -1    0    0  501    0  0.00000000000E+00  0.00000000000E+00  0.18491933957E+04  0.18491933957E+04  0.25500000920E-02 0. -1.
       -2   -1    0    0    0  501  0.00000000000E+00  0.00000000000E+00 -0.11395093231E+04  0.11395093231E+04  0.25500000920E-02 0.  1.
    10030    2    1    2    0    0  0.00000000000E+00  0.00000000000E+00  0.70968407267E+03  0.29887027188E+04  0.29032210488E+04 0.  0.
        2    1    3    3  502    0  0.79362977495E+03  0.92584269396E+03 -0.45583441468E+03  0.13018517301E+04  0.25500000920E-02 0.  1.
       -2    1    3    3    0  502 -0.79362977495E+03 -0.92584269396E+03  0.11655184873E+04  0.16868509887E+04  0.25500000920E-02 0. -1.
</event>
<event>
 5   0  0.8483636E-07  0.2903755E+04  0.7818609E-02  0.8271761E-01
        1   -1    0    0  501    0  0.00000000000E+00  0.00000000000E+00  0.15922905206E+04  0.15922905206E+04  0.50400001928E-02 0.  1.
       -1   -1    0    0    0  501  0.00000000000E+00  0.00000000000E+00 -0.13238461809E+04  0.13238461809E+04  0.50400001928E-02 0. -1.
    10030    2    1    2    0    0  0.00000000000E+00  0.00000000000E+00  0.26844433971E+03  0.29161367015E+04  0.29037546209E+04 0.  0.
        2    1    3    3  502    0 -0.20095086430E+02 -0.19426455419E+03 -0.13105943585E+04  0.13250660746E+04  0.25500000920E-02 0. -1.
       -2    1    3    3    0  502  0.20095086430E+02  0.19426455419E+03  0.15790386982E+04  0.15910706269E+04  0.25500000920E-02 0.  1.
</event>
<event>
 5   0  0.8263673E-07  0.2884738E+04  0.7818609E-02  0.8277433E-01
       -1   -1    0    0    0  501  0.00000000000E+00  0.00000000000E+00  0.13048877592E+04  0.13048877592E+04  0.50400001928E-02 0.  1.
        1   -1    0    0  501    0  0.00000000000E+00  0.00000000000E+00 -0.15943349313E+04  0.15943349313E+04  0.50400001928E-02 0. -1.
    10030    2    1    2    0    0  0.00000000000E+00  0.00000000000E+00 -0.28944717206E+03  0.28992226905E+04  0.28847378640E+04 0.  0.
        5    1    3    3  502    0  0.10036363551E+04 -0.97376819618E+03 -0.49990383857E+03  0.14850711670E+04  0.46999998093E+01 0.  1.
       -5    1    3    3    0  502 -0.10036363551E+04  0.97376819618E+03  0.21045666651E+03  0.14141515236E+04  0.46999998093E+01 0. -1.
</event>
<event>
 5   0  0.2304435E-06  0.2920051E+04  0.7818609E-02  0.8266937E-01
       -2   -1    0    0    0  501  0.00000000000E+00  0.00000000000E+00  0.12849207621E+04  0.12849207621E+04  0.25500000920E-02 0.  1.
        2   -1    0    0  501    0  0.00000000000E+00  0.00000000000E+00 -0.16589927876E+04  0.16589927876E+04  0.25500000920E-02 0. -1.
    10030    2    1    2    0    0  0.00000000000E+00  0.00000000000E+00 -0.37407202553E+03  0.29439135497E+04  0.29200508741E+04 0.  0.
        1    1    3    3  502    0 -0.59334977117E+03  0.11231717232E+04  0.53863468880E+03  0.13797485273E+04  0.50400001928E-02 0.  1.
       -1    1    3    3    0  502  0.59334977117E+03 -0.11231717232E+04 -0.91270671433E+03  0.15641650223E+04  0.50400001928E-02 0. -1.
</event>
<event>
 5   0  0.2425845E-06  0.2902417E+04  0.7818609E-02  0.8272159E-01
        2   -1    0    0  501    0  0.00000000000E+00  0.00000000000E+00  0.14510348654E+04  0.14510348654E+04  0.25500000920E-02 0.  1.
       -2   -1    0    0    0  501  0.00000000000E+00  0.00000000000E+00 -0.14513822028E+04  0.14513822028E+04  0.25500000920E-02 0. -1.
    10030    2    1    2    0    0  0.00000000000E+00  0.00000000000E+00 -0.34733738711E+00  0.29024170683E+04  0.29024170475E+04 0.  0.
        2    1    3    3  502    0 -0.78463438890E+03 -0.89036800087E+03  0.83505078507E+03  0.14511085814E+04  0.25500000920E-02 0.  1.
       -2    1    3    3    0  502  0.78463438890E+03  0.89036800087E+03 -0.83539812245E+03  0.14513084869E+04  0.25500000920E-02 0. -1.
</event>
<event>
 5   0  0.2304435E-06  0.2904420E+04  0.7818609E-02  0.8271564E-01
       -2   -1    0    0    0  501  0.00000000000E+00  0.00000000000E+00  0.13111831613E+04  0.13111831613E+04  0.25500000920E-02 0.  1.
        2   -1    0    0  501    0  0.00000000000E+00  0.00000000000E+00 -0.16084049573E+04  0.16084049573E+04  0.25500000920E-02 0. -1.
    10030    2    1    2    0    0  0.00000000000E+00  0.00000000000E+00 -0.29722179597E+03  0.29195881186E+04  0.29044197332E+04 0.  0.
        1    1    3    3  502    0  0.25402940234E+03  0.48626164335E+03 -0.15002267466E+04  0.15973921292E+04  0.50400001928E-02 0. -1.
       -1    1    3    3    0  502 -0.25402940234E+03 -0.48626164335E+03  0.12030049507E+04  0.13221959894E+04  0.50400001928E-02 0.  1.
</event>
<event>
 5   0  0.2325590E-06  0.2898595E+04  0.7818609E-02  0.8273296E-01
        2   -1    0    0  501    0  0.00000000000E+00  0.00000000000E+00  0.22415490193E+04  0.22415490193E+04  0.25500000920E-02 0. -1.
       -2   -1    0    0    0  501  0.00000000000E+00  0.00000000000E+00 -0.93705872587E+03  0.93705872587E+03  0.25500000920E-02 0.  1.
    10030    2    1    2    0    0  0.00000000000E+00  0.00000000000E+00  0.13044902934E+04  0.31786077452E+04  0.28985948789E+04 0.  0.
        5    1    3    3  502    0 -0.13531265952E+04 -0.46660667863E+03  0.90174968163E+03  0.16916997232E+04  0.46999998093E+01 0.  1.
       -5    1    3    3    0  502  0.13531265952E+04  0.46660667863E+03  0.40274061179E+03  0.14869080219E+04  0.46999998093E+01 0. -1.
</event>
<event>
 5   0  0.2360103E-06  0.2913271E+04  0.7818609E-02  0.8268940E-01
       -2   -1    0    0    0  501  0.00000000000E+00  0.00000000000E+00  0.97417038222E+03  0.97417038223E+03  0.25500000920E-02 0. -1.
        2   -1    0    0  501    0  0.00000000000E+00  0.00000000000E+00 -0.21780444378E+04  0.21780444378E+04  0.25500000920E-02 0.  1.
    10030    2    1    2    0    0  0.00000000000E+00  0.00000000000E+00 -0.12038740556E+04  0.31522148200E+04  0.29132705899E+04 0.  0.
        4    1    3    3  502    0  0.11931182738E+04  0.20725538797E+02 -0.15058111128E+04  0.19213093149E+04  0.12699999809E+01 0.  1.
       -4    1    3    3    0  502 -0.11931182738E+04 -0.20725538797E+02  0.30193705719E+03  0.12309055052E+04  0.12699999809E+01 0. -1.
</event>
<event>
 5   0  0.2304435E-06  0.2895734E+04  0.7818609E-02  0.8274148E-01
        2   -1    0    0  501    0  0.00000000000E+00  0.00000000000E+00  0.20687303161E+04  0.20687303161E+04  0.25500000920E-02 0.  1.
       -2   -1    0    0    0  501  0.00000000000E+00  0.00000000000E+00 -0.10133358898E+04  0.10133358898E+04  0.25500000920E-02 0. -1.
    10030    2    1    2    0    0  0.00000000000E+00  0.00000000000E+00  0.10553944263E+04  0.30820662058E+04  0.28957338797E+04 0.  0.
        1    1    3    3  502    0  0.65158069833E+03 -0.12636810347E+04  0.81893090589E+03  0.16407604921E+04  0.50400001928E-02 0.  1.
       -1    1    3    3    0  502 -0.65158069833E+03  0.12636810347E+04  0.23646352040E+03  0.14413057137E+04  0.50400001928E-02 0. -1.
</event>
<event>
 5   0  0.8355946E-07  0.2777720E+04  0.7818609E-02  0.8310219E-01
        1   -1    0    0  501    0  0.00000000000E+00  0.00000000000E+00  0.11431656234E+04  0.11431656234E+04  0.50400001928E-02 0.  1.
       -1   -1    0    0    0  501  0.00000000000E+00  0.00000000000E+00 -0.16873596466E+04  0.16873596466E+04  0.50400001928E-02 0. -1.
    10030    2    1    2    0    0  0.00000000000E+00  0.00000000000E+00 -0.54419402321E+03  0.28305252700E+04  0.27777195987E+04 0.  0.
        4    1    3    3  502    0 -0.47983573561E+03  0.11037910715E+04  0.43413888077E+03  0.12794824123E+04  0.12699999809E+01 0.  1.
       -4    1    3    3    0  502  0.47983573561E+03 -0.11037910715E+04 -0.97833290398E+03  0.15510428577E+04  0.12699999809E+01 0. -1.
</event>
<event>
 5   0  0.2425845E-06  0.2904326E+04  0.7818609E-02  0.8271592E-01
       -2   -1    0    0    0  501  0.00000000000E+00  0.00000000000E+00  0.10192016854E+04  0.10192016854E+04  0.25500000920E-02 0.  1.
        2   -1    0    0  501    0  0.00000000000E+00  0.00000000000E+00 -0.20690479535E+04  0.20690479535E+04  0.25500000920E-02 0. -1.
    10030    2    1    2    0    0  0.00000000000E+00  0.00000000000E+00 -0.10498462681E+04  0.30882496389E+04  0.29043258504E+04 0.  0.
        2    1    3    3  502    0 -0.28459803492E+03  0.13054899268E+04 -0.11296912367E+04  0.17497149141E+04  0.25500000920E-02 0.  1.
       -2    1    3    3    0  502  0.28459803492E+03 -0.13054899268E+04  0.79844968651E+02  0.13385347248E+04  0.25500000920E-02 0. -1.
</event>
<event>
 5   0  0.2378690E-06  0.2906011E+04  0.7818609E-02  0.8271091E-01
        2   -1    0    0  501    0  0.00000000000E+00  0.00000000000E+00  0.21975782776E+04  0.21975782776E+04  0.25500000920E-02 0.  1.
       -2   -1    0    0    0  501  0.00000000000E+00  0.00000000000E+00 -0.96070514087E+03  0.96070514088E+03  0.25500000920E-02 0. -1.
    10030    2    1    2    0    0  0.00000000000E+00  0.00000000000E+00  0.12368731368E+04  0.31582834185E+04  0.29060108388E+04 0.  0.
        3    1    3    3  502    0  0.91922559110E+03 -0.41861429957E+03  0.17536263126E+04  0.20237141284E+04  0.10100000352E+00 0.  1.
       -3    1    3    3    0  502 -0.91922559110E+03  0.41861429957E+03 -0.51675317582E+03  0.11345692901E+04  0.10100000352E+00 0. -1.
</event>
<event>
 5   0  0.8483636E-07  0.2893125E+04  0.7818609E-02  0.8274926E-01
        1   -1    0    0  501    0  0.00000000000E+00  0.00000000000E+00  0.13745832415E+04  0.13745832415E+04  0.50400001928E-02 0.  1.
       -1   -1    0    0    0  501  0.00000000000E+00  0.00000000000E+00 -0.15223105365E+04  0.15223105365E+04  0.50400001928E-02 0. -1.
    10030    2    1    2    0    0  0.00000000000E+00  0.00000000000E+00 -0.14772729494E+03  0.28968937780E+04  0.28931246443E+04 0.  0.
        2    1    3    3  502    0  0.48648293821E+03 -0.12196361814E+04  0.53385743653E+03  0.14174561110E+04  0.25500000920E-02 0.  1.
       -2    1    3    3    0  502 -0.48648293821E+03  0.12196361814E+04 -0.68158473147E+03  0.14794376669E+04  0.25500000920E-02 0. -1.
</event>
<event>
 5   0  0.2304435E-06  0.2906601E+04  0.7818609E-02  0.8270916E-01
       -2   -1    0    0    0  501  0.00000000000E+00  0.00000000000E+00  0.12523103966E+04  0.12523103966E+04  0.25500000920E-02 0. -1.
        2   -1    0    0  501    0  0.00000000000E+00  0.00000000000E+00 -0.16865490155E+04  0.16865490155E+04  0.25500000920E-02 0.  1.
    10030    2    1    2    0    0  0.00000000000E+00  0.00000000000E+00 -0.43423861891E+03  0.29388594121E+04  0.29066013600E+04 0.  0.
        1    1    3    3  502    0  0.16098526064E+03 -0.49858653248E+03  0.11534980865E+04  0.12669106598E+04  0.50400001928E-02 0. -1.
       -1    1    3    3    0  502 -0.16098526064E+03  0.49858653248E+03 -0.15877367054E+04  0.16719487522E+04  0.50400001928E-02 0.  1.
</event>
<event>
 5   0  0.8357118E-07  0.2873832E+04  0.7818609E-02  0.8280706E-01
       -1   -1    0    0    0  501  0.00000000000E+00  0.00000000000E+00  0.17605494194E+04  0.17605494194E+04  0.50400001928E-02 0.  1.
        1   -1    0    0  501    0  0.00000000000E+00  0.00000000000E+00 -0.11727744916E+04  0.11727744916E+04  0.50400001928E-02 0. -1.
    10030    2    1    2    0    0  0.00000000000E+00  0.00000000000E+00  0.58777492775E+03  0.29333239110E+04  0.28738319021E+04 0.  0.
        1    1    3    3  502    0 -0.84117929359E+03  0.58846091361E+03  0.13201154780E+04  0.16722959445E+04  0.50400001928E-02 0.  1.
       -1    1    3    3    0  502  0.84117929359E+03 -0.58846091361E+03 -0.73234055022E+03  0.12610279665E+04  0.50400001928E-02 0. -1.
</event>
<event>
 5   0  0.2425845E-06  0.2900012E+04  0.7818609E-02  0.8272874E-01
       -2   -1    0    0    0  501  0.00000000000E+00  0.00000000000E+00  0.14316861681E+04  0.14316861681E+04  0.25500000920E-02 0.  1.
        2   -1    0    0  501    0  0.00000000000E+00  0.00000000000E+00 -0.14685606056E+04  0.14685606056E+04  0.25500000920E-02 0. -1.
    10030    2    1    2    0    0  0.00000000000E+00  0.00000000000E+00 -0.36874437538E+02  0.29002467737E+04  0.29000123490E+04 0.  0.
        2    1    3    3  502    0  0.32905651723E+03  0.15355960951E+03  0.13854779401E+04  0.14322736707E+04  0.25500000920E-02 0.  1.
       -2    1    3    3    0  502 -0.32905651723E+03 -0.15355960951E+03 -0.14223523776E+04  0.14679731031E+04  0.25500000920E-02 0. -1.
</event>
<event>
 5   0  0.8263673E-07  0.2895045E+04  0.7818609E-02  0.8274353E-01
       -1   -1    0    0    0  501  0.00000000000E+00  0.00000000000E+00  0.15753083224E+04  0.15753083224E+04  0.50400001928E-02 0. -1.
        1   -1    0    0  501    0  0.00000000000E+00  0.00000000000E+00 -0.13301022907E+04  0.13301022908E+04  0.50400001928E-02 0.  1.
    10030    2    1    2    0    0  0.00000000000E+00  0.00000000000E+00  0.24520603164E+03  0.29054106132E+04  0.28950448758E+04 0.  0.
        5    1    3    3  502    0 -0.60515879463E+02 -0.67544768814E+03 -0.11608063181E+04  0.13443902518E+04  0.46999998093E+01 0.  1.
       -5    1    3    3    0  502  0.60515879463E+02  0.67544768814E+03  0.14060123497E+04  0.15610203614E+04  0.46999998093E+01 0. -1.
</event>
<event>
 5   0  0.2325590E-06  0.2894192E+04  0.7818609E-02  0.8274607E-01
        2   -1    0    0  501    0  0.00000000000E+00  0.00000000000E+00  0.16965383713E+04  0.16965383713E+04  0.25500000920E-02 0.  1.
       -2   -1    0    0    0  501  0.00000000000E+00  0.00000000000E+00 -0.12343295997E+04  0.12343295997E+04  0.25500000920E-02 0. -1.
    10030    2    1    2    0    0  0.00000000000E+00  0.00000000000E+00  0.46220877161E+03  0.29308679710E+04  0.28941924806E+04 0.  0.
        5    1    3    3  502    0 -0.33102423194E+03 -0.11682898094E+03  0.16527601832E+04  0.16896343883E+04  0.46999998093E+01 0.  1.
       -5    1    3    3    0  502  0.33102423194E+03  0.11682898094E+03 -0.11905514116E+04  0.12412335826E+04  0.46999998093E+01 0. -1.
</event>
<event>
 5   0  0.8355946E-07  0.2903009E+04  0.7818609E-02  0.8271983E-01
        1   -1    0    0  501    0  0.00000000000E+00  0.00000000000E+00  0.13519959290E+04  0.13519959290E+04  0.50400001928E-02 0. -1.
       -1   -1    0    0    0  501  0.00000000000E+00  0.00000000000E+00 -0.15583375413E+04  0.15583375413E+04  0.50400001928E-02 0.  1.
    10030    2    1    2    0    0  0.00000000000E+00  0.00000000000E+00 -0.20634161232E+03  0.29103334703E+04  0.29030094811E+04 0.  0.
        4    1    3    3  502    0 -0.70847794660E+03  0.95794765924E+03 -0.93427358154E+03  0.15140916276E+04  0.12699999809E+01 0.  1.
       -4    1    3    3    0  502  0.70847794660E+03 -0.95794765924E+03  0.72793196922E+03  0.13962418427E+04  0.12699999809E+01 0. -1.
</event>
<event>
 5   0  0.2360103E-06  0.2889067E+04  0.7818609E-02  0.8276138E-01
        2   -1    0    0  501    0  0.00000000000E+00  0.00000000000E+00  0.27120621002E+04  0.27120621002E+04  0.25500000920E-02 0.  1.
       -2   -1    0    0    0  501  0.00000000000E+00  0.00000000000E+00 -0.76940616396E+03  0.76940616396E+03  0.25500000920E-02 0. -1.
    10030    2    1    2    0    0  0.00000000000E+00  0.00000000000E+00  0.19426559363E+04  0.34814682642E+04  0.28890671830E+04 0.  0.
        4    1    3    3  502    0 -0.58044149939E+03 -0.12087747012E+04  0.16187289161E+04  0.21019832371E+04  0.12699999809E+01 0.  1.
       -4    1    3    3    0  502  0.58044149939E+03  0.12087747012E+04  0.32392702021E+03  0.13794850271E+04  0.12699999809E+01 0. -1.
</event>
<event>
 5   0  0.8357118E-07  0.2901575E+04  0.7818609E-02  0.8272409E-01
        1   -1    0    0  501    0  0.00000000000E+00  0.00000000000E+00  0.21458146803E+04  0.21458146803E+04  0.50400001928E-02 0.  1.
       -1   -1    0    0    0  501  0.00000000000E+00  0.00000000000E+00 -0.98087905439E+03  0.98087905441E+03  0.50400001928E-02 0. -1.
    10030    2    1    2    0    0  0.00000000000E+00  0.00000000000E+00  0.11649356259E+04  0.31266937347E+04  0.29015752098E+04 0.  0.
        1    1    3    3  502    0 -0.59705401779E+03 -0.80330598172E+03  0.17141940098E+04  0.19850025450E+04  0.50400001928E-02 0.  1.
       -1    1    3    3    0  502  0.59705401779E+03  0.80330598172E+03 -0.54925838387E+03  0.11416911897E+04  0.50400001928E-02 0. -1.
</event>
<event>
 5   0  0.2304435E-06  0.2909947E+04  0.7818609E-02  0.8269924E-01
        2   -1    0    0  501    0  0.00000000000E+00  0.00000000000E+00  0.15017767755E+04  0.15017767755E+04  0.25500000920E-02 0.  1.
       -2   -1    0    0    0  501  0.00000000000E+00  0.00000000000E+00 -0.14096293288E+04  0.14096293288E+04  0.25500000920E-02 0. -1.
    10030    2    1    2    0    0  0.00000000000E+00  0.00000000000E+00  0.92147446691E+02  0.29114061043E+04  0.29099474827E+04 0.  0.
        1    1    3    3  502    0 -0.10718698069E+03  0.80813652273E+03  0.12518229846E+04  0.14938656141E+04  0.50400001928E-02 0.  1.
       -1    1    3    3    0  502  0.10718698069E+03 -0.80813652273E+03 -0.11596755379E+04  0.14175404902E+04  0.50400001928E-02 0. -1.
</event>
<event>
 5   0  0.8355946E-07  0.2902128E+04  0.7818609E-02  0.8272244E-01
       -1   -1    0    0    0  501  0.00000000000E+00  0.00000000000E+00  0.12260542111E+04  0.12260542111E+04  0.50400001928E-02 0.  1.
        1   -1    0    0  501    0  0.00000000000E+00  0.00000000000E+00 -0.17173689264E+04  0.17173689264E+04  0.50400001928E-02 0. -1.
    10030    2    1    2    0    0  0.00000000000E+00  0.00000000000E+00 -0.49131471523E+03  0.29434231375E+04  0.29021284632E+04 0.  0.
        4    1    3    3  502    0  0.95134008006E+03  0.60329966759E+03  0.68199771410E+03  0.13168678490E+04  0.12699999809E+01 0.  1.
       -4    1    3    3    0  502 -0.95134008006E+03 -0.60329966759E+03 -0.11733124293E+04  0.16265552885E+04  0.12699999809E+01 0. -1.
</event>
<event>
 5   0  0.2378690E-06  0.2899909E+04  0.7818609E-02  0.8272904E-01
       -2   -1    0    0    0  501  0.00000000000E+00  0.00000000000E+00  0.11260551478E+04  0.11260551478E+04  0.25500000920E-02 0. -1.
        2   -1    0    0  501    0  0.00000000000E+00  0.00000000000E+00 -0.18670207578E+04  0.18670207578E+04  0.25500000920E-02 0.  1.
    10030    2    1    2    0    0  0.00000000000E+00  0.00000000000E+00 -0.74096561003E+03  0.29930759057E+04  0.28999091954E+04 0.  0.
        3    1    3    3  502    0 -0.11722340716E+04 -0.80637375258E+03 -0.65873473200E+03  0.15678975747E+04  0.10100000352E+00 0. -1.
       -3    1    3    3    0  502  0.11722340716E+04  0.80637375258E+03 -0.82230878027E+02  0.14251783309E+04  0.10100000352E+00 0.  1.
</event>
<event>
 5   0  0.8947674E-07  0.2826243E+04  0.7818609E-02  0.8295167E-01
        1   -1    0    0  501    0  0.00000000000E+00  0.00000000000E+00  0.10612309654E+04  0.10612309654E+04  0.50400001928E-02 0.  1.
       -1   -1    0    0    0  501  0.00000000000E+00  0.00000000000E+00 -0.18816937916E+04  0.18816937916E+04  0.50400001928E-02 0. -1.
    10030    2    1    2    0    0  0.00000000000E+00  0.00000000000E+00 -0.82046282626E+03  0.29429247570E+04  0.28262425367E+04 0.  0.
        3    1    3    3  502    0  0.55624950957E+02  0.89621145983E+03  0.72597383150E+03  0.11546978523E+04  0.10100000352E+00 0.  1.
       -3    1    3    3    0  502 -0.55624950957E+02 -0.89621145983E+03 -0.15464366578E+04  0.17882269047E+04  0.10100000352E+00 0. -1.
</event>
<event>
 5   0  0.2304435E-06  0.2899754E+04  0.7818609E-02  0.8272951E-01
        2   -1    0    0  501    0  0.00000000000E+00  0.00000000000E+00  0.12944332387E+04  0.12944332387E+04  0.25500000920E-02 0. -1.
       -2   -1    0    0    0  501  0.00000000000E+00  0.00000000000E+00 -0.16239874407E+04  0.16239874407E+04  0.25500000920E-02 0.  1.
    10030    2    1    2    0    0  0.00000000000E+00  0.00000000000E+00 -0.32955420202E+03  0.29184206793E+04  0.28997540050E+04 0.  0.
        1    1    3    3  502    0 -0.11952865376E+04  0.73126644630E+03 -0.53957576799E+03  0.15015333935E+04  0.50400001928E-02 0. -1.
       -1    1    3    3    0  502  0.11952865376E+04 -0.73126644630E+03  0.21002156598E+03  0.14168872858E+04  0.50400001928E-02 0.  1.
</event>
<event>
 5   0  0.8355946E-07  0.2890806E+04  0.7818609E-02  0.8275618E-01
        1   -1    0    0  501    0  0.00000000000E+00  0.00000000000E+00  0.24025991897E+04  0.24025991897E+04  0.50400001928E-02 0.  1.
       -1   -1    0    0    0  501  0.00000000000E+00  0.00000000000E+00 -0.86955420220E+03  0.86955420222E+03  0.50400001928E-02 0. -1.
    10030    2    1    2    0    0  0.00000000000E+00  0.00000000000E+00  0.15330449875E+04  0.32721533919E+04  0.28908062693E+04 0.  0.
        4    1    3    3  502    0  0.11317132940E+04 -0.38404105004E+03  0.16867413282E+04  0.20672107849E+04  0.12699999809E+01 0.  1.
       -4    1    3    3    0  502 -0.11317132940E+04  0.38404105004E+03 -0.15369634077E+03  0.12049426070E+04  0.12699999809E+01 0. -1.
</event>
<event>
 5   0  0.2378690E-06  0.2903255E+04  0.7818609E-02  0.8271910E-01
        2   -1    0    0  501    0  0.00000000000E+00  0.00000000000E+00  0.23502423019E+04  0.23502423019E+04  0.25500000920E-02 0.  1.
       -2   -1    0    0    0  501  0.00000000000E+00  0.00000000000E+00 -0.89659769989E+03  0.89659769989E+03  0.25500000920E-02 0. -1.
    10030    2    1    2    0    0  0.00000000000E+00  0.00000000000E+00  0.14536446020E+04  0.32468400018E+04  0.29032546165E+04 0.  0.
        3    1    3    3  502    0 -0.46215630283E+03  0.63570745179E+03  0.20917114768E+04  0.22344953177E+04  0.10100000352E+00 0.  1.
       -3    1    3    3    0  502  0.46215630283E+03 -0.63570745179E+03 -0.63806687478E+03  0.10123446841E+04  0.10100000352E+00 0. -1.
</event>
<event>
 5   0  0.8355946E-07  0.2894021E+04  0.7818609E-02  0.8274659E-01
        1   -1    0    0  501    0  0.00000000000E+00  0.00000000000E+00  0.15243130479E+04  0.15243130479E+04  0.50400001928E-02 0. -1.
       -1   -1    0    0    0  501  0.00000000000E+00  0.00000000000E+00 -0.13736283591E+04  0.13736283591E+04  0.50400001928E-02 0.  1.
    10030    2    1    2    0    0  0.00000000000E+00  0.00000000000E+00  0.15068468880E+03  0.28979414070E+04  0.28940211684E+04 0.  0.
        4    1    3    3  502    0 -0.13791013778E+04 -0.61274316925E+02 -0.35902268805E+03  0.14263849606E+04  0.12699999809E+01 0.  1.
       -4    1    3    3    0  502  0.13791013778E+04  0.61274316925E+02  0.50970737686E+03  0.14715564465E+04  0.12699999809E+01 0. -1.
</event>
<event>
 5   0  0.7621125E-07  0.2891915E+04  0.7818609E-02  0.8275287E-01
       -3   -1    0    0    0  501  0.00000000000E+00  0.00000000000E+00  0.18158231431E+04  0.18158231459E+04  0.10100000352E+00 0.  1.
        3   -1    0    0  501    0  0.00000000000E+00  0.00000000000E+00 -0.11514302847E+04  0.11514302891E+04  0.10100000352E+00 0. -1.
    10030    2    1    2    0    0  0.00000000000E+00  0.00000000000E+00  0.66439285838E+03  0.29672534350E+04  0.28919154685E+04 0.  0.
        3    1    3    3  502    0 -0.12962297568E+04  0.19739127582E+03 -0.29329004224E+03  0.13435750658E+04  0.10100000352E+00 0. -1.
       -3    1    3    3    0  502  0.12962297568E+04 -0.19739127582E+03  0.95768290062E+03  0.16236783692E+04  0.10100000352E+00 0.  1.
</event>
<event>
 5   0  0.8355946E-07  0.2903413E+04  0.7818609E-02  0.8271863E-01
       -1   -1    0    0    0  501  0.00000000000E+00  0.00000000000E+00  0.13006154630E+04  0.13006154630E+04  0.50400001928E-02 0. -1.
        1   -1    0    0  501    0  0.00000000000E+00  0.00000000000E+00 -0.16203498679E+04  0.16203498679E+04  0.50400001928E-02 0.  1.
    10030    2    1    2    0    0  0.00000000000E+00  0.00000000000E+00 -0.31973440489E+03  0.29209653309E+04  0.29034132284E+04 0.  0.
        4    1    3    3  502    0 -0.13289949999E+04 -0.38250379992E+03 -0.60402637800E+03  0.15091011712E+04  0.12699999809E+01 0.  1.
       -4    1    3    3    0  502  0.13289949999E+04  0.38250379992E+03  0.28429197311E+03  0.14118641597E+04  0.12699999809E+01 0. -1.
</event>
<event>
 5   0  0.8263673E-07  0.2905805E+04  0.7818609E-02  0.8271153E-01
       -1   -1    0    0    0  501  0.00000000000E+00  0.00000000000E+00  0.83444677771E+03  0.83444677772E+03  0.50400001928E-02 0. -1.
        1   -1    0    0  501    0  0.00000000000E+00  0.00000000000E+00 -0.25297302584E+04  0.25297302584E+04  0.50400001928E-02 0.  1.
    10030    2    1    2    0    0  0.00000000000E+00  0.00000000000E+00 -0.16952834807E+04  0.33641770361E+04  0.29058047165E+04 0.  0.
        5    1    3    3  502    0 -0.13067681146E+04 -0.39445825613E+03 -0.14238015225E+04  0.19724282209E+04  0.46999998093E+01 0. -1.
       -5    1    3    3    0  502  0.13067681146E+04  0.39445825613E+03 -0.27148195816E+03  0.13917488152E+04  0.46999998093E+01 0.  1.
</event>
<event>
 5   0  0.2425845E-06  0.2895574E+04  0.7818609E-02  0.8274196E-01
       -2   -1    0    0    0  501  0.00000000000E+00  0.00000000000E+00  0.12015834647E+04  0.12015834647E+04  0.25500000920E-02 0.  1.
        2   -1    0    0  501    0  0.00000000000E+00  0.00000000000E+00 -0.17444372012E+04  0.17444372012E+04  0.25500000920E-02 0. -1.
    10030    2    1    2    0    0  0.00000000000E+00  0.00000000000E+00 -0.54285373654E+03  0.29460206659E+04  0.28955737919E+04 0.  0.
        2    1    3    3  502    0 -0.58001340168E+03 -0.61122441867E+03  0.92640174508E+03  0.12522903135E+04  0.25500000920E-02 0.  1.
       -2    1    3    3    0  502  0.58001340168E+03  0.61122441867E+03 -0.14692554816E+04  0.16937303523E+04  0.25500000920E-02 0. -1.
</event>
<event>
 5   0  0.2360103E-06  0.2910546E+04  0.7818609E-02  0.8269747E-01
        2   -1    0    0  501    0  0.00000000000E+00  0.00000000000E+00  0.14617097275E+04  0.14617097275E+04  0.25500000920E-02 0.  1.
       -2   -1    0    0    0  501  0.00000000000E+00  0.00000000000E+00 -0.14488643506E+04  0.14488643506E+04  0.25500000920E-02 0. -1.
    10030    2    1    2    0    0  0.00000000000E+00  0.00000000000E+00  0.12845376938E+02  0.29105740781E+04  0.29105457324E+04 0.  0.
        4    1    3    3  502    0  0.15537635720E+03 -0.11946224137E+04  0.82285759804E+03  0.14588902506E+04  0.12699999809E+01 0.  1.
       -4    1    3    3    0  502 -0.15537635720E+03  0.11946224137E+04 -0.81001222110E+03  0.14516838275E+04  0.12699999809E+01 0. -1.
</event>
<event>
 5   0  0.2325590E-06  0.2894068E+04  0.7818609E-02  0.8274645E-01
       -2   -1    0    0    0  501  0.00000000000E+00  0.00000000000E+00  0.16644151277E+04  0.16644151277E+04  0.25500000920E-02 0. -1.
        2   -1    0    0  501    0  0.00000000000E+00  0.00000000000E+00 -0.12580440935E+04  0.12580440935E+04  0.25500000920E-02 0.  1.
    10030    2    1    2    0    0  0.00000000000E+00  0.00000000000E+00  0.40637103418E+03  0.29224592212E+04  0.28940681544E+04 0.  0.
        5    1    3    3  502    0  0.13490691263E+04  0.15273745613E+02 -0.32507618284E+03  0.13877742646E+04  0.46999998093E+01 0.  1.
       -5    1    3    3    0  502 -0.13490691263E+04 -0.15273745613E+02  0.73144721702E+03  0.15346849566E+04  0.46999998093E+01 0. -1.
</event>
<event>
 5   0  0.7621125E-07  0.2905368E+04  0.7818609E-02  0.8271282E-01
       -4   -1    0    0    0  501  0.00000000000E+00  0.00000000000E+00  0.12898037058E+04  0.12898043311E+04  0.12699999809E+01 0. -1.
        4   -1    0    0  501    0  0.00000000000E+00  0.00000000000E+00 -0.16361325424E+04  0.16361330353E+04  0.12699999809E+01 0.  1.
    10030    2    1    2    0    0  0.00000000000E+00  0.00000000000E+00 -0.34632883656E+03  0.29259373664E+04  0.29053684463E+04 0.  0.
        5    1    3    3  502    0 -0.18135064622E+03  0.14005390208E+04 -0.51597372592E+03  0.15035453374E+04  0.46999998093E+01 0.  1.
       -5    1    3    3    0  502  0.18135064622E+03 -0.14005390208E+04  0.16964488935E+03  0.14223920290E+04  0.46999998093E+01 0. -1.
</event>
<event>
 5   0  0.8355946E-07  0.2900635E+04  0.7818609E-02  0.8272688E-01
       -1   -1    0    0    0  501  0.00000000000E+00  0.00000000000E+00  0.18268388777E+04  0.18268388777E+04  0.50400001928E-02 0.  1.
        1   -1    0    0  501    0  0.00000000000E+00  0.00000000000E+00 -0.11513994447E+04  0.11513994447E+04  0.50400001928E-02 0. -1.
    10030    2    1    2    0    0  0.00000000000E+00  0.00000000000E+00  0.67543943306E+03  0.29782383224E+04  0.29006352886E+04 0.  0.
        4    1    3    3  502    0 -0.24402815234E+03 -0.79888155038E+02  0.18033142278E+04  0.18215036847E+04  0.12699999809E+01 0.  1.
       -4    1    3    3    0  502  0.24402815234E+03  0.79888155038E+02 -0.11278747947E+04  0.11567346377E+04  0.12699999809E+01 0. -1.
</event>
<event>
 5   0  0.8357118E-07  0.2897517E+04  0.7818609E-02  0.8273617E-01
       -1   -1    0    0    0  501  0.00000000000E+00  0.00000000000E+00  0.14670829719E+04  0.14670829719E+04  0.50400001928E-02 0.  1.
        1   -1    0    0  501    0  0.00000000000E+00  0.00000000000E+00 -0.14306629148E+04  0.14306629148E+04  0.50400001928E-02 0. -1.
    10030    2    1    2    0    0  0.00000000000E+00  0.00000000000E+00  0.36420057123E+02  0.28977458866E+04  0.28975170065E+04 0.  0.
        1    1    3    3  502    0 -0.31016431653E+03  0.47585632053E+03 -0.13146593164E+04  0.14321208955E+04  0.50400001928E-02 0. -1.
       -1    1    3    3    0  502  0.31016431653E+03 -0.47585632053E+03  0.13510793735E+04  0.14656249911E+04  0.50400001928E-02 0.  1.
</event>
<event>
 5   0  0.2378690E-06  0.2899722E+04  0.7818609E-02  0.8272960E-01
        2   -1    0    0  501    0  0.00000000000E+00  0.00000000000E+00  0.13847212250E+04  0.13847212250E+04  0.25500000920E-02 0.  1.
       -2   -1    0    0    0  501  0.00000000000E+00  0.00000000000E+00 -0.15180646924E+04  0.15180646924E+04  0.25500000920E-02 0. -1.
    10030    2    1    2    0    0  0.00000000000E+00  0.00000000000E+00 -0.13334346731E+03  0.29027859174E+04  0.28997216422E+04 0.  0.
        3    1    3    3  502    0 -0.11125469780E+04 -0.90764735995E+03  0.13481660119E+03  0.14421373147E+04  0.10100000352E+00 0. -1.
       -3    1    3    3    0  502  0.11125469780E+04  0.90764735995E+03 -0.26816006850E+03  0.14606486027E+04  0.10100000352E+00 0.  1.
</event>
<event>
 5   0  0.2304435E-06  0.2894687E+04  0.7818609E-02  0.8274460E-01
       -2   -1    0    0    0  501  0.00000000000E+00  0.00000000000E+00  0.83677879372E+03  0.83677879372E+03  0.25500000920E-02 0.  1.
        2   -1    0    0  501    0  0.00000000000E+00  0.00000000000E+00 -0.25034129003E+04  0.25034129003E+04  0.25500000920E-02 0. -1.
    10030    2    1    2    0    0  0.00000000000E+00  0.00000000000E+00 -0.16666341066E+04  0.33401916940E+04  0.28946867374E+04 0.  0.
        1    1    3    3  502    0 -0.88603275798E+03 -0.85727309556E+03  0.41546137993E+02  0.12335709506E+04  0.50400001928E-02 0.  1.
       -1    1    3    3    0  502  0.88603275798E+03  0.85727309556E+03 -0.17081802446E+04  0.21066207434E+04  0.50400001928E-02 0. -1.
</event>
<event>
 5   0  0.2325590E-06  0.2912485E+04  0.7818609E-02  0.8269172E-01
       -2   -1    0    0    0  501  0.00000000000E+00  0.00000000000E+00  0.10973123059E+04  0.10973123059E+04  0.25500000920E-02 0.  1.
        2   -1    0    0  501    0  0.00000000000E+00  0.00000000000E+00 -0.19325788758E+04  0.19325788758E+04  0.25500000920E-02 0. -1.
    10030    2    1    2    0    0  0.00000000000E+00  0.00000000000E+00 -0.83526656990E+03  0.30298911817E+04  0.29124852498E+04 0.  0.
        5    1    3    3  502    0 -0.10412339909E+04 -0.35986723965E+03  0.57309474792E+03  0.12418262093E+04  0.46999998093E+01 0.  1.
       -5    1    3    3    0  502  0.10412339909E+04  0.35986723965E+03 -0.14083613178E+04  0.17880649724E+04  0.46999998093E+01 0. -1.
</event>
<event>
 5   0  0.8947674E-07  0.2904721E+04  0.7818609E-02  0.8271474E-01
       -1   -1    0    0    0  501  0.00000000000E+00  0.00000000000E+00  0.11823079216E+04  0.11823079216E+04  0.50400001928E-02 0.  1.
        1   -1    0    0  501    0  0.00000000000E+00  0.00000000000E+00 -0.17840959548E+04  0.17840959548E+04  0.50400001928E-02 0. -1.
    10030    2    1    2    0    0  0.00000000000E+00  0.00000000000E+00 -0.60178803317E+03  0.29664038764E+04  0.29047208336E+04 0.  0.
        3    1    3    3  502    0 -0.13034908140E+03  0.78240940508E+03  0.94157454044E+03  0.12311449897E+04  0.10100000352E+00 0.  1.
       -3    1    3    3    0  502  0.13034908140E+03 -0.78240940508E+03 -0.15433625736E+04  0.17352588867E+04  0.10100000352E+00 0. -1.
</event>
<event>
 5   0  0.2425845E-06  0.2900610E+04  0.7818609E-02  0.8272696E-01
        2   -1    0    0  501    0  0.00000000000E+00  0.00000000000E+00  0.25524670323E+04  0.25524670323E+04  0.25500000920E-02 0.  1.
       -2   -1    0    0    0  501  0.00000000000E+00  0.00000000000E+00 -0.82405937740E+03  0.82405937740E+03  0.25500000920E-02 0. -1.
    10030    2    1    2    0    0  0.00000000000E+00  0.00000000000E+00  0.17284076549E+04  0.33765264097E+04  0.29006098624E+04 0.  0.
        2    1    3    3  502    0  0.14014560313E+04  0.12814397095E+03  0.12722688777E+04  0.18971473274E+04  0.25500000920E-02 0.  1.
       -2    1    3    3    0  502 -0.14014560313E+04 -0.12814397095E+03  0.45613877725E+03  0.14793790823E+04  0.25500000920E-02 0. -1.
</event>
<event>
 5   0  0.8357118E-07  0.2925161E+04  0.7818609E-02  0.8265431E-01
       -1   -1    0    0    0  501  0.00000000000E+00  0.00000000000E+00  0.11745199177E+04  0.11745199178E+04  0.50400001928E-02 0. -1.
        1   -1    0    0  501    0  0.00000000000E+00  0.00000000000E+00 -0.18212901019E+04  0.18212901019E+04  0.50400001928E-02 0.  1.
    10030    2    1    2    0    0  0.00000000000E+00  0.00000000000E+00 -0.64677018415E+03  0.29958100197E+04  0.29251608508E+04 0.  0.
        1    1    3    3  502    0 -0.12826002491E+04 -0.65383282382E+02 -0.10401476221E+04  0.16526480111E+04  0.50400001928E-02 0.  1.
       -1    1    3    3    0  502  0.12826002491E+04  0.65383282382E+02  0.39337743799E+03  0.13431620086E+04  0.50400001928E-02 0. -1.
</event>
<event>
 5   0  0.2378690E-06  0.2895793E+04  0.7818609E-02  0.8274130E-01
       -2   -1    0    0    0  501  0.00000000000E+00  0.00000000000E+00  0.80566446594E+03  0.80566446594E+03  0.25500000920E-02 0.  1.
        2   -1    0    0  501    0  0.00000000000E+00  0.00000000000E+00 -0.26020815004E+04  0.26020815004E+04  0.25500000920E-02 0. -1.
    10030    2    1    2    0    0  0.00000000000E+00  0.00000000000E+00 -0.17964170345E+04  0.34077459664E+04  0.28957932263E+04 0.  0.
        3    1    3    3  502    0 -0.13003820573E+04  0.21871867948E+03 -0.16018997938E+04  0.20748287436E+04  0.10100000352E+00 0. -1.
       -3    1    3    3    0  502  0.13003820573E+04 -0.21871867948E+03 -0.19451724064E+03  0.13329172228E+04  0.10100000352E+00 0.  1.
</event>
<event>
 5   0  0.2425845E-06  0.2883684E+04  0.7818609E-02  0.8277748E-01
        2   -1    0    0  501    0  0.00000000000E+00  0.00000000000E+00  0.22131639720E+04  0.22131639720E+04  0.25500000920E-02 0. -1.
       -2   -1    0    0    0  501  0.00000000000E+00  0.00000000000E+00 -0.93933793628E+03  0.93933793628E+03  0.25500000920E-02 0.  1.
    10030    2    1    2    0    0  0.00000000000E+00  0.00000000000E+00  0.12738260358E+04  0.31525019083E+04  0.28836843642E+04 0.  0.
        2    1    3    3  502    0  0.58492387519E+02 -0.11187761019E+04  0.16291737202E+04  0.19771920332E+04  0.25500000920E-02 0. -1.
       -2    1    3    3    0  502 -0.58492387519E+02  0.11187761019E+04 -0.35534768446E+03  0.11753098751E+04  0.25500000920E-02 0.  1.
</event>
<event>
 5   0  0.8357118E-07  0.2885779E+04  0.7818609E-02  0.8277121E-01
       -1   -1    0    0    0  501  0.00000000000E+00  0.00000000000E+00  0.82338268055E+03  0.82338268056E+03  0.50400001928E-02 0.  1.
        1   -1    0    0  501    0  0.00000000000E+00  0.00000000000E+00 -0.25285083957E+04  0.25285083957E+04  0.50400001928E-02 0. -1.
    10030    2    1    2    0    0  0.00000000000E+00  0.00000000000E+00 -0.17051257151E+04  0.33518910763E+04  0.28857789386E+04 0.  0.
        1    1    3    3  502    0 -0.95614578928E+03  0.92058540064E+03 -0.15098620739E+04  0.20103173214E+04  0.50400001928E-02 0. -1.
       -1    1    3    3    0  502  0.95614578928E+03 -0.92058540064E+03 -0.19526364121E+03  0.13415737549E+04  0.50400001928E-02 0.  1.
</event>
<event>
 5   0  0.2325590E-06  0.2900242E+04  0.7818609E-02  0.8272805E-01
        2   -1    0    0  501    0  0.00000000000E+00  0.00000000000E+00  0.14567377160E+04  0.14567377160E+04  0.25500000920E-02 0. -1.
       -2   -1    0    0    0  501  0.00000000000E+00  0.00000000000E+00 -0.14435344683E+04  0.14435344683E+04  0.25500000920E-02 0.  1.
    10030    2    1    2    0    0  0.00000000000E+00  0.00000000000E+00  0.13203247741E+02  0.29002721843E+04  0.29002421308E+04 0.  0.
        5    1    3    3  502    0 -0.45563025842E+03 -0.10560711617E+04 -0.87655178726E+03  0.14461156097E+04  0.46999998093E+01 0.  1.
       -5    1    3    3    0  502  0.45563025842E+03  0.10560711617E+04  0.88975503500E+03  0.14541565745E+04  0.46999998093E+01 0. -1.
</event>
<event>
 5   0  0.2425845E-06  0.2880976E+04  0.7818609E-02  0.8278560E-01
        2   -1    0    0  501    0  0.00000000000E+00  0.00000000000E+00  0.10334042445E+04  0.10334042445E+04  0.25500000920E-02 0. -1.
       -2   -1    0    0    0  501  0.00000000000E+00  0.00000000000E+00 -0.20079328764E+04  0.20079328764E+04  0.25500000920E-02 0.  1.
    10030    2    1    2    0    0  0.00000000000E+00  0.00000000000E+00 -0.97452863189E+03  0.30413371209E+04  0.28809764714E+04 0.  0.
        2    1    3    3  502    0  0.81866177608E+03 -0.69118312854E+03  0.52917153753E+03  0.11949743666E+04  0.25500000920E-02 0. -1.
       -2    1    3    3    0  502 -0.81866177608E+03  0.69118312854E+03 -0.15037001694E+04  0.18463627543E+04  0.25500000920E-02 0.  1.
</event>
<event>
 5   0  0.7621125E-07  0.2895611E+04  0.7818609E-02  0.8274185E-01
        4   -1    0    0  501    0  0.00000000000E+00  0.00000000000E+00  0.16556234902E+04  0.16556239773E+04  0.12699999809E+01 0. -1.
       -4   -1    0    0    0  501  0.00000000000E+00  0.00000000000E+00 -0.12660721008E+04  0.12660727378E+04  0.12699999809E+01 0.  1.
    10030    2    1    2    0    0  0.00000000000E+00  0.00000000000E+00  0.38955138936E+03  0.29216967151E+04  0.28956107145E+04 0.  0.
        1    1    3    3  502    0 -0.47615881107E+03  0.75849114027E+03  0.13426110624E+04  0.16138898625E+04  0.50400001928E-02 0. -1.
       -1    1    3    3    0  502  0.47615881107E+03 -0.75849114027E+03 -0.95305967306E+03  0.13078068526E+04  0.50400001928E-02 0.  1.
</event>
<event>
 5   0  0.8357118E-07  0.2898018E+04  0.7818609E-02  0.8273468E-01
       -1   -1    0    0    0  501  0.00000000000E+00  0.00000000000E+00  0.76230372025E+03  0.76230372027E+03  0.50400001928E-02 0. -1.
        1   -1    0    0  501    0  0.00000000000E+00  0.00000000000E+00 -0.27543177471E+04  0.27543177471E+04  0.50400001928E-02 0.  1.
    10030    2    1    2    0    0  0.00000000000E+00  0.00000000000E+00 -0.19920140269E+04  0.35166214674E+04  0.28980177125E+04 0.  0.
        1    1    3    3  502    0  0.13796508025E+04 -0.85571190217E+02 -0.15233627359E+04  0.20570349513E+04  0.50400001928E-02 0. -1.
       -1    1    3    3    0  502 -0.13796508025E+04  0.85571190217E+02 -0.46865129095E+03  0.14595865161E+04  0.50400001928E-02 0.  1.
</event>
<event>
 5   0  0.2360103E-06  0.2912406E+04  0.7818609E-02  0.8269196E-01
       -2   -1    0    0    0  501  0.00000000000E+00  0.00000000000E+00  0.11861841851E+04  0.11861841851E+04  0.25500000920E-02 0.  1.
        2   -1    0    0  501    0  0.00000000000E+00  0.00000000000E+00 -0.17876884168E+04  0.17876884168E+04  0.25500000920E-02 0. -1.
    10030    2    1    2    0    0  0.00000000000E+00  0.00000000000E+00 -0.60150423172E+03  0.29738726020E+04  0.29124063782E+04 0.  0.
        4    1    3    3  502    0 -0.25359359219E+03 -0.76823917903E+03  0.93559684990E+03  0.12368687176E+04  0.12699999809E+01 0.  1.
       -4    1    3    3    0  502  0.25359359219E+03  0.76823917903E+03 -0.15371010816E+04  0.17370038843E+04  0.12699999809E+01 0. -1.
</event>
<event>
 5   0  0.2378690E-06  0.2916044E+04  0.7818609E-02  0.8268120E-01
       -2   -1    0    0    0  501  0.00000000000E+00  0.00000000000E+00  0.13117760572E+04  0.13117760572E+04  0.25500000920E-02 0.  1.
        2   -1    0    0  501    0  0.00000000000E+00  0.00000000000E+00 -0.16205726980E+04  0.16205726980E+04  0.25500000920E-02 0. -1.
    10030    2    1    2    0    0  0.00000000000E+00  0.00000000000E+00 -0.30879664077E+03  0.29323487552E+04  0.29160442138E+04 0.  0.
        3    1    3    3  502    0  0.12737487471E+04  0.43500301959E+03 -0.71803647791E+03  0.15255293808E+04  0.10100000352E+00 0. -1.
       -3    1    3    3    0  502 -0.12737487471E+04 -0.43500301959E+03  0.40923983714E+03  0.14068193744E+04  0.10100000352E+00 0.  1.
</event>
<event>
 5   0  0.7621125E-07  0.2901659E+04  0.7818609E-02  0.8272384E-01
       -4   -1    0    0    0  501  0.00000000000E+00  0.00000000000E+00  0.96611533499E+03  0.96611616972E+03  0.12699999809E+01 0.  1.
        4   -1    0    0  501    0  0.00000000000E+00  0.00000000000E+00 -0.21787297985E+04  0.21787301686E+04  0.12699999809E+01 0. -1.
    10030    2    1    2    0    0  0.00000000000E+00  0.00000000000E+00 -0.12126144635E+04  0.31448463384E+04  0.29016589487E+04 0.  0.
        5    1    3    3  502    0  0.80973701815E+03  0.43344149615E+03  0.61091224035E+03  0.11030781589E+04  0.46999998093E+01 0.  1.
       -5    1    3    3    0  502 -0.80973701815E+03 -0.43344149615E+03 -0.18235267038E+04  0.20417681795E+04  0.46999998093E+01 0. -1.
</event>
<event>
 5   0  0.2378690E-06  0.2897589E+04  0.7818609E-02  0.8273595E-01
        2   -1    0    0  501    0  0.00000000000E+00  0.00000000000E+00  0.14685990856E+04  0.14685990856E+04  0.25500000920E-02 0.  1.
       -2   -1    0    0    0  501  0.00000000000E+00  0.00000000000E+00 -0.14292566916E+04  0.14292566916E+04  0.25500000920E-02 0. -1.
    10030    2    1    2    0    0  0.00000000000E+00  0.00000000000E+00  0.39342394010E+02  0.28978557773E+04  0.28975887013E+04 0.  0.
        3    1    3    3  502    0  0.87673264720E+03  0.84518390197E+03 -0.76526361559E+03  0.14382713146E+04  0.10100000352E+00 0. -1.
       -3    1    3    3    0  502 -0.87673264720E+03 -0.84518390197E+03  0.80460600960E+03  0.14595844627E+04  0.10100000352E+00 0.  1.
</event>
<event>
 5   0  0.8947674E-07  0.2900201E+04  0.7818609E-02  0.8272818E-01
       -1   -1    0    0    0  501  0.00000000000E+00  0.00000000000E+00  0.31793476766E+04  0.31793476766E+04  0.50400001928E-02 0.  1.
        1   -1    0    0  501    0  0.00000000000E+00  0.00000000000E+00 -0.66139088574E+03  0.66139088576E+03  0.50400001928E-02 0. -1.
    10030    2    1    2    0    0  0.00000000000E+00  0.00000000000E+00  0.25179567909E+04  0.38407385624E+04  0.29002010799E+04 0.  0.
        3    1    3    3  502    0  0.25202412850E+02 -0.12832317084E+04  0.36522469474E+03  0.13344316644E+04  0.10100000352E+00 0.  1.
       -3    1    3    3    0  502 -0.25202412850E+02  0.12832317084E+04  0.21527320961E+04  0.25063068980E+04  0.10100000352E+00 0. -1.
</event>
<event>
 5   0  0.8947674E-07  0.2973778E+04  0.7818609E-02  0.8251259E-01
        1   -1    0    0  501    0  0.00000000000E+00  0.00000000000E+00  0.16771272953E+04  0.16771272953E+04  0.50400001928E-02 0.  1.
       -1   -1    0    0    0  501  0.00000000000E+00  0.00000000000E+00 -0.13182297212E+04  0.13182297212E+04  0.50400001928E-02 0. -1.
    10030    2    1    2    0    0  0.00000000000E+00  0.00000000000E+00  0.35889757407E+03  0.29953570165E+04  0.29737780999E+04 0.  0.
        3    1    3    3  502    0 -0.63404468313E+03  0.87237027068E+03  0.12104958836E+04  0.16212164704E+04  0.10100000352E+00 0.  1.
       -3    1    3    3    0  502  0.63404468313E+03 -0.87237027068E+03 -0.85159830955E+03  0.13741405461E+04  0.10100000352E+00 0. -1.
</event>
<event>
 5   0  0.2360103E-06  0.2888453E+04  0.7818609E-02  0.8276321E-01
        2   -1    0    0  501    0  0.00000000000E+00  0.00000000000E+00  0.17382247689E+04  0.17382247689E+04  0.25500000920E-02 0. -1.
       -2   -1    0    0    0  501  0.00000000000E+00  0.00000000000E+00 -0.11999542378E+04  0.11999542378E+04  0.25500000920E-02 0.  1.
    10030    2    1    2    0    0  0.00000000000E+00  0.00000000000E+00  0.53827053114E+03  0.29381790067E+04  0.28884529961E+04 0.  0.
        4    1    3    3  502    0 -0.67895776942E+03  0.22297582853E+03 -0.10074951223E+04  0.12352124947E+04  0.12699999809E+01 0.  1.
       -4    1    3    3    0  502  0.67895776942E+03 -0.22297582853E+03  0.15457656534E+04  0.17029665120E+04  0.12699999809E+01 0. -1.
</event>
<event>
 5   0  0.8263673E-07  0.2915045E+04  0.7818609E-02  0.8268415E-01
       -1   -1    0    0    0  501  0.00000000000E+00  0.00000000000E+00  0.15069571370E+04  0.15069571370E+04  0.50400001928E-02 0. -1.
        1   -1    0    0  501    0  0.00000000000E+00  0.00000000000E+00 -0.14097092967E+04  0.14097092967E+04  0.50400001928E-02 0.  1.
    10030    2    1    2    0    0  0.00000000000E+00  0.00000000000E+00  0.97247840328E+02  0.29166664338E+04  0.29150447584E+04 0.  0.
        5    1    3    3  502    0 -0.28272694521E+03 -0.98158750680E+02  0.14758745309E+04  0.15059207771E+04  0.46999998093E+01 0. -1.
       -5    1    3    3    0  502  0.28272694521E+03  0.98158750680E+02 -0.13786266906E+04  0.14107456567E+04  0.46999998093E+01 0.  1.
</event>
<event>
 5   0  0.8263673E-07  0.2930457E+04  0.7818609E-02  0.8263873E-01
       -1   -1    0    0    0  501  0.00000000000E+00  0.00000000000E+00  0.15573386657E+04  0.15573386657E+04  0.50400001928E-02 0.  1.
        1   -1    0    0  501    0  0.00000000000E+00  0.00000000000E+00 -0.13785661566E+04  0.13785661566E+04  0.50400001928E-02 0. -1.
    10030    2    1    2    0    0  0.00000000000E+00  0.00000000000E+00  0.17877250906E+03  0.29359048223E+04  0.29304568783E+04 0.  0.
        5    1    3    3  502    0  0.56823892459E+03  0.10139472889E+04 -0.80439766347E+03  0.14135283057E+04  0.46999998093E+01 0. -1.
       -5    1    3    3    0  502 -0.56823892459E+03 -0.10139472889E+04  0.98317017253E+03  0.15223765166E+04  0.46999998093E+01 0.  1.
</event>
<event>
 5   0  0.7621125E-07  0.2894752E+04  0.7818609E-02  0.8274441E-01
        3   -1    0    0  501    0  0.00000000000E+00  0.00000000000E+00  0.22009892058E+04  0.22009892081E+04  0.10100000352E+00 0. -1.
       -3   -1    0    0    0  501  0.00000000000E+00  0.00000000000E+00 -0.95179779576E+03  0.95179780112E+03  0.10100000352E+00 0.  1.
    10030    2    1    2    0    0  0.00000000000E+00  0.00000000000E+00  0.12491914100E+04  0.31527870092E+04  0.28947515863E+04 0.  0.
        5    1    3    3  502    0  0.12595286107E+04 -0.30913852243E+03 -0.75251907249E+02  0.12991011842E+04  0.46999998093E+01 0.  1.
       -5    1    3    3    0  502 -0.12595286107E+04  0.30913852243E+03  0.13244433173E+04  0.18536858250E+04  0.46999998093E+01 0. -1.
</event>
<event>
 5   0  0.8947674E-07  0.2887322E+04  0.7818609E-02  0.8276660E-01
       -1   -1    0    0    0  501  0.00000000000E+00  0.00000000000E+00  0.17031382553E+04  0.17031382554E+04  0.50400001928E-02 0.  1.
        1   -1    0    0  501    0  0.00000000000E+00  0.00000000000E+00 -0.12237157121E+04  0.12237157122E+04  0.50400001928E-02 0. -1.
    10030    2    1    2    0    0  0.00000000000E+00  0.00000000000E+00  0.47942254320E+03  0.29268539675E+04  0.28873219724E+04 0.  0.
        3    1    3    3  502    0  0.60927884170E+03  0.72978526480E+03  0.13410253795E+04  0.16438236883E+04  0.10100000352E+00 0.  1.
       -3    1    3    3    0  502 -0.60927884170E+03 -0.72978526480E+03 -0.86160283627E+03  0.12830302792E+04  0.10100000352E+00 0. -1.
</event>
<event>
 5   0  0.2304435E-06  0.2903640E+04  0.7818609E-02  0.8271795E-01
        2   -1    0    0  501    0  0.00000000000E+00  0.00000000000E+00  0.65920902110E+03  0.65920902111E+03  0.25500000920E-02 0. -1.
       -2   -1    0    0    0  501  0.00000000000E+00  0.00000000000E+00 -0.31974390214E+04  0.31974390214E+04  0.25500000920E-02 0.  1.
    10030    2    1    2    0    0  0.00000000000E+00  0.00000000000E+00 -0.25382300003E+04  0.38566480425E+04  0.29036395419E+04 0.  0.
        1    1    3    3  502    0 -0.45933130653E+03 -0.28949094834E+03 -0.30575166254E+04  0.31053499277E+04  0.50400001928E-02 0.  1.
       -1    1    3    3    0  502  0.45933130653E+03  0.28949094834E+03  0.51928662514E+03  0.75129811486E+03  0.50400001928E-02 0. -1.
</event>
<event>
 5   0  0.8483636E-07  0.2905773E+04  0.7818609E-02  0.8271162E-01
       -1   -1    0    0    0  501  0.00000000000E+00  0.00000000000E+00  0.15707954427E+04  0.15707954427E+04  0.50400001928E-02 0. -1.
        1   -1    0    0  501    0  0.00000000000E+00  0.00000000000E+00 -0.13438279463E+04  0.13438279463E+04  0.50400001928E-02 0.  1.
    10030    2    1    2    0    0  0.00000000000E+00  0.00000000000E+00  0.22696749636E+03  0.29146233890E+04  0.29057727467E+04 0.  0.
        2    1    3    3  502    0 -0.10528168552E+04 -0.52464777590E+03 -0.74187399777E+03  0.13907032926E+04  0.25500000920E-02 0.  1.
       -2    1    3    3    0  502  0.10528168552E+04  0.52464777590E+03  0.96884149413E+03  0.15239200964E+04  0.25500000920E-02 0. -1.
</event>
<event>
 5   0  0.8947674E-07  0.2901670E+04  0.7818609E-02  0.8272381E-01
        1   -1    0    0  501    0  0.00000000000E+00  0.00000000000E+00  0.12487743984E+04  0.12487743984E+04  0.50400001928E-02 0.  1.
       -1   -1    0    0    0  501  0.00000000000E+00  0.00000000000E+00 -0.16855904742E+04  0.16855904742E+04  0.50400001928E-02 0. -1.
    10030    2    1    2    0    0  0.00000000000E+00  0.00000000000E+00 -0.43681607575E+03  0.29343648726E+04  0.29016700229E+04 0.  0.
        3    1    3    3  502    0  0.25578059666E+03  0.49652569937E+03 -0.15725103561E+04  0.16687571165E+04  0.10100000352E+00 0. -1.
       -3    1    3    3    0  502 -0.25578059666E+03 -0.49652569937E+03  0.11356942803E+04  0.12656077561E+04  0.10100000352E+00 0.  1.
</event>
<event>
 5   0  0.8483636E-07  0.2880347E+04  0.7818609E-02  0.8278749E-01
        1   -1    0    0  501    0  0.00000000000E+00  0.00000000000E+00  0.22676676081E+04  0.22676676081E+04  0.50400001928E-02 0.  1.
       -1   -1    0    0    0  501  0.00000000000E+00  0.00000000000E+00 -0.91464029922E+03  0.91464029924E+03  0.50400001928E-02 0. -1.
    10030    2    1    2    0    0  0.00000000000E+00  0.00000000000E+00  0.13530273089E+04  0.31823079074E+04  0.28803473260E+04 0.  0.
        2    1    3    3  502    0 -0.99365881867E+03 -0.98612772498E+03  0.10500302419E+04  0.17499626415E+04  0.25500000920E-02 0.  1.
       -2    1    3    3    0  502  0.99365881867E+03  0.98612772498E+03  0.30299706701E+03  0.14323452658E+04  0.25500000920E-02 0. -1.
</event>
<event>
 5   0  0.8947674E-07  0.2895703E+04  0.7818609E-02  0.8274157E-01
        1   -1    0    0  501    0  0.00000000000E+00  0.00000000000E+00  0.14765082874E+04  0.14765082874E+04  0.50400001928E-02 0. -1.
       -1   -1    0    0    0  501  0.00000000000E+00  0.00000000000E+00 -0.14197506472E+04  0.14197506472E+04  0.50400001928E-02 0.  1.
    10030    2    1    2    0    0  0.00000000000E+00  0.00000000000E+00  0.56757640210E+02  0.28962589346E+04  0.28957027448E+04 0.  0.
        3    1    3    3  502    0 -0.30995585588E+03  0.91941512343E+03 -0.10464795293E+04  0.14270655967E+04  0.10100000352E+00 0.  1.
       -3    1    3    3    0  502  0.30995585588E+03 -0.91941512343E+03  0.11032371695E+04  0.14691933379E+04  0.10100000352E+00 0. -1.
</event>
<event>
 5   0  0.2325590E-06  0.2901108E+04  0.7818609E-02  0.8272548E-01
       -2   -1    0    0    0  501  0.00000000000E+00  0.00000000000E+00  0.87443408274E+03  0.87443408275E+03  0.25500000920E-02 0.  1.
        2   -1    0    0  501    0  0.00000000000E+00  0.00000000000E+00 -0.24062498512E+04  0.24062498512E+04  0.25500000920E-02 0. -1.
    10030    2    1    2    0    0  0.00000000000E+00  0.00000000000E+00 -0.15318157685E+04  0.32806839340E+04  0.29011079825E+04 0.  0.
        5    1    3    3  502    0  0.16465563484E+03 -0.43670069301E+02  0.86307484553E+03  0.87973793372E+03  0.46999998093E+01 0.  1.
       -5    1    3    3    0  502 -0.16465563484E+03  0.43670069301E+02 -0.23948906140E+04  0.24009460003E+04  0.46999998093E+01 0. -1.
</event>
<event>
 5   0  0.2304435E-06  0.2903032E+04  0.7818609E-02  0.8271976E-01
        2   -1    0    0  501    0  0.00000000000E+00  0.00000000000E+00  0.20955960053E+04  0.20955960053E+04  0.25500000920E-02 0.  1.
       -2   -1    0    0    0  501  0.00000000000E+00  0.00000000000E+00 -0.10053936437E+04  0.10053936437E+04  0.25500000920E-02 0. -1.
    10030    2    1    2    0    0  0.00000000000E+00  0.00000000000E+00  0.10902023616E+04  0.31009896491E+04  0.29030321415E+04 0.  0.
        1    1    3    3  502    0 -0.10368282576E+04  0.84201112512E+03 -0.61893291626E+02  0.13370962382E+04  0.50400001928E-02 0. -1.
       -1    1    3    3    0  502  0.10368282576E+04 -0.84201112512E+03  0.11520956532E+04  0.17638934108E+04  0.50400001928E-02 0.  1.
</event>
<event>
 5   0  0.8357118E-07  0.2896404E+04  0.7818609E-02  0.8273948E-01
       -1   -1    0    0    0  501  0.00000000000E+00  0.00000000000E+00  0.11386951904E+04  0.11386951904E+04  0.50400001928E-02 0.  1.
        1   -1    0    0  501    0  0.00000000000E+00  0.00000000000E+00 -0.18418356341E+04  0.18418356341E+04  0.50400001928E-02 0. -1.
    10030    2    1    2    0    0  0.00000000000E+00  0.00000000000E+00 -0.70314044368E+03  0.29805308245E+04  0.28964042384E+04 0.  0.
        1    1    3    3  502    0 -0.20507652814E+03  0.41131729530E+02  0.11230702569E+04  0.11423812864E+04  0.50400001928E-02 0.  1.
       -1    1    3    3    0  502  0.20507652814E+03 -0.41131729530E+02 -0.18262107006E+04  0.18381495381E+04  0.50400001928E-02 0. -1.
</event>
<event>
 5   0  0.2425845E-06  0.2892285E+04  0.7818609E-02  0.8275177E-01
        2   -1    0    0  501    0  0.00000000000E+00  0.00000000000E+00  0.71713681935E+03  0.71713681935E+03  0.25500000920E-02 0. -1.
       -2   -1    0    0    0  501  0.00000000000E+00  0.00000000000E+00 -0.29162184439E+04  0.29162184439E+04  0.25500000920E-02 0.  1.
    10030    2    1    2    0    0  0.00000000000E+00  0.00000000000E+00 -0.21990816246E+04  0.36333552633E+04  0.28922846467E+04 0.  0.
        2    1    3    3  502    0 -0.39160882525E+03  0.82299173214E+03  0.31093263774E+03  0.96299115697E+03  0.25500000920E-02 0. -1.
       -2    1    3    3    0  502  0.39160882525E+03 -0.82299173214E+03 -0.25100142623E+04  0.26703641063E+04  0.25500000920E-02 0.  1.
</event>
<event>
 5   0  0.2325590E-06  0.2926851E+04  0.7818609E-02  0.8264933E-01
        2   -1    0    0  501    0  0.00000000000E+00  0.00000000000E+00  0.17700141963E+04  0.17700141963E+04  0.25500000920E-02 0. -1.
       -2   -1    0    0    0  501  0.00000000000E+00  0.00000000000E+00 -0.12099418731E+04  0.12099418731E+04  0.25500000920E-02 0.  1.
    10030    2    1    2    0    0  0.00000000000E+00  0.00000000000E+00  0.56007232322E+03  0.29799560694E+04  0.29268510670E+04 0.  0.
        5    1    3    3  502    0  0.10333557720E+04  0.10336740574E+04  0.20601216008E+03  0.14760654825E+04  0.46999998093E+01 0. -1.
       -5    1    3    3    0  502 -0.10333557720E+04 -0.10336740574E+04  0.35406016314E+03  0.15038905870E+04  0.46999998093E+01 0.  1.
</event>
<event>
 5   0  0.8483636E-07  0.2894769E+04  0.7818609E-02  0.8274436E-01
       -1   -1    0    0    0  501  0.00000000000E+00  0.00000000000E+00  0.13226088286E+04  0.13226088286E+04  0.50400001928E-02 0.  1.
        1   -1    0    0  501    0  0.00000000000E+00  0.00000000000E+00 -0.15839316812E+04  0.15839316812E+04  0.50400001928E-02 0. -1.
    10030    2    1    2    0    0  0.00000000000E+00  0.00000000000E+00 -0.26132285265E+03  0.29065405098E+04  0.28947690930E+04 0.  0.
        2    1    3    3  502    0  0.31128892245E+03 -0.14027036433E+04  0.44529384236E+02  0.14375191026E+04  0.25500000920E-02 0.  1.
       -2    1    3    3    0  502 -0.31128892245E+03  0.14027036433E+04 -0.30585223688E+03  0.14690214073E+04  0.25500000920E-02 0. -1.
</event>
<event>
 5   0  0.2425845E-06  0.2891947E+04  0.7818609E-02  0.8275278E-01
        2   -1    0    0  501    0  0.00000000000E+00  0.00000000000E+00  0.15010910120E+04  0.15010910120E+04  0.25500000920E-02 0. -1.
       -2   -1    0    0    0  501  0.00000000000E+00  0.00000000000E+00 -0.13928794941E+04  0.13928794941E+04  0.25500000920E-02 0.  1.
    10030    2    1    2    0    0  0.00000000000E+00  0.00000000000E+00  0.10821151785E+03  0.28939705061E+04  0.28919466727E+04 0.  0.
        2    1    3    3  502    0  0.26069585698E+03 -0.72871889828E+03 -0.11681602084E+04  0.14012822111E+04  0.25500000920E-02 0.  1.
       -2    1    3    3    0  502 -0.26069585698E+03  0.72871889828E+03  0.12763717262E+04  0.14926882950E+04  0.25500000920E-02 0. -1.
</event>
<event>
 5   0  0.2378690E-06  0.2910675E+04  0.7818609E-02  0.8269708E-01
        2   -1    0    0  501    0  0.00000000000E+00  0.00000000000E+00  0.18268713009E+04  0.18268713009E+04  0.25500000920E-02 0. -1.
       -2   -1    0    0    0  501  0.00000000000E+00  0.00000000000E+00 -0.11593630036E+04  0.11593630036E+04  0.25500000920E-02 0.  1.
    10030    2    1    2    0    0  0.00000000000E+00  0.00000000000E+00  0.66750829725E+03  0.29862343045E+04  0.29106748348E+04 0.  0.
        3    1    3    3  502    0  0.11301099911E+04 -0.58109469063E+03 -0.39401735973E+03  0.13304395219E+04  0.10100000352E+00 0.  1.
       -3    1    3    3    0  502 -0.11301099911E+04  0.58109469063E+03  0.10615256570E+04  0.16557947826E+04  0.10100000352E+00 0. -1.
</event>
<event>
 5   0  0.7621125E-07  0.2880702E+04  0.7818609E-02  0.8278642E-01
       -3   -1    0    0    0  501  0.00000000000E+00  0.00000000000E+00  0.20801309141E+04  0.20801309165E+04  0.10100000352E+00 0.  1.
        3   -1    0    0  501    0  0.00000000000E+00  0.00000000000E+00 -0.99734640705E+03  0.99734641216E+03  0.10100000352E+00 0. -1.
    10030    2    1    2    0    0  0.00000000000E+00  0.00000000000E+00  0.10827845070E+04  0.30774773287E+04  0.28807020707E+04 0.  0.
        1    1    3    3  502    0 -0.10315264872E+04 -0.76124857509E+03  0.12427955567E+04  0.17855215156E+04  0.50400001928E-02 0.  1.
       -1    1    3    3    0  502  0.10315264872E+04  0.76124857509E+03 -0.16001104964E+03  0.12919558131E+04  0.50400001928E-02 0. -1.
</event>
<event>
 5   0  0.8263673E-07  0.2900867E+04  0.7818609E-02  0.8272620E-01
        1   -1    0    0  501    0  0.00000000000E+00  0.00000000000E+00  0.15101987194E+04  0.15101987194E+04  0.50400001928E-02 0. -1.
       -1   -1    0    0    0  501  0.00000000000E+00  0.00000000000E+00 -0.13930333589E+04  0.13930333589E+04  0.50400001928E-02 0.  1.
    10030    2    1    2    0    0  0.00000000000E+00  0.00000000000E+00  0.11716536051E+03  0.29032320783E+04  0.29008669012E+04 0.  0.
        5    1    3    3  502    0 -0.32118089975E+03  0.57380833449E+03  0.13524329087E+04  0.15038317850E+04  0.46999998093E+01 0. -1.
       -5    1    3    3    0  502  0.32118089975E+03 -0.57380833449E+03 -0.12352675482E+04  0.13994002932E+04  0.46999998093E+01 0.  1.
</event>
<event>
 5   0  0.2304435E-06  0.2895408E+04  0.7818609E-02  0.8274245E-01
        2   -1    0    0  501    0  0.00000000000E+00  0.00000000000E+00  0.17664430244E+04  0.17664430244E+04  0.25500000920E-02 0. -1.
       -2   -1    0    0    0  501  0.00000000000E+00  0.00000000000E+00 -0.11864783750E+04  0.11864783750E+04  0.25500000920E-02 0.  1.
    10030    2    1    2    0    0  0.00000000000E+00  0.00000000000E+00  0.57996464934E+03  0.29529213994E+04  0.28954077082E+04 0.  0.
        1    1    3    3  502    0 -0.94266610981E+03 -0.21237598276E+03 -0.80944949442E+03  0.12605282372E+04  0.50400001928E-02 0.  1.
       -1    1    3    3    0  502  0.94266610981E+03  0.21237598276E+03  0.13894141438E+04  0.16923931622E+04  0.50400001928E-02 0. -1.
</event>
<event>
 5   0  0.8355946E-07  0.3077360E+04  0.7818609E-02  0.8221979E-01
        1   -1    0    0  501    0  0.00000000000E+00  0.00000000000E+00  0.16468675052E+04  0.16468675052E+04  0.50400001928E-02 0.  1.
       -1   -1    0    0    0  501  0.00000000000E+00  0.00000000000E+00 -0.14375995544E+04  0.14375995544E+04  0.50400001928E-02 0. -1.
    10030    2    1    2    0    0  0.00000000000E+00  0.00000000000E+00  0.20926795079E+03  0.30844670597E+04  0.30773599021E+04 0.  0.
        4    1    3    3  502    0 -0.62455135904E+02  0.92620536675E+02 -0.14335291253E+04  0.14378757157E+04  0.12699999809E+01 0. -1.
       -4    1    3    3    0  502  0.62455135904E+02 -0.92620536675E+02  0.16427970761E+04  0.16465913440E+04  0.12699999809E+01 0.  1.
</event>
<event>
 5   0  0.8483636E-07  0.2913272E+04  0.7818609E-02  0.8268940E-01
        1   -1    0    0  501    0  0.00000000000E+00  0.00000000000E+00  0.24892726815E+04  0.24892726815E+04  0.50400001928E-02 0. -1.
       -1   -1    0    0    0  501  0.00000000000E+00  0.00000000000E+00 -0.85237275467E+03  0.85237275468E+03  0.50400001928E-02 0.  1.
    10030    2    1    2    0    0  0.00000000000E+00  0.00000000000E+00  0.16368999269E+04  0.33416454362E+04  0.29132718464E+04 0.  0.
        2    1    3    3  502    0  0.12399893118E+04 -0.52783371908E+03  0.14525539678E+04  0.19814375988E+04  0.25500000920E-02 0. -1.
       -2    1    3    3    0  502 -0.12399893118E+04  0.52783371908E+03  0.18434595905E+03  0.13602078374E+04  0.25500000920E-02 0.  1.
</event>
<event>
 5   0  0.2360103E-06  0.2894079E+04  0.7818609E-02  0.8274641E-01
       -2   -1    0    0    0  501  0.00000000000E+00  0.00000000000E+00  0.14853652453E+04  0.14853652453E+04  0.25500000920E-02 0. -1.
        2   -1    0    0  501    0  0.00000000000E+00  0.00000000000E+00 -0.14097022326E+04  0.14097022326E+04  0.25500000920E-02 0.  1.
    10030    2    1    2    0    0  0.00000000000E+00  0.00000000000E+00  0.75663012675E+02  0.28950674779E+04  0.28940785771E+04 0.  0.
        4    1    3    3  502    0  0.15979443186E+03  0.11826611647E+04 -0.78079975792E+03  0.14261386909E+04  0.12699999809E+01 0.  1.
       -4    1    3    3    0  502 -0.15979443186E+03 -0.11826611647E+04  0.85646277060E+03  0.14689287870E+04  0.12699999809E+01 0. -1.
</event>
<event>
 5   0  0.2425845E-06  0.2888079E+04  0.7818609E-02  0.8276433E-01
       -2   -1    0    0    0  501  0.00000000000E+00  0.00000000000E+00  0.10684381628E+04  0.10684381628E+04  0.25500000920E-02 0.  1.
        2   -1    0    0  501    0  0.00000000000E+00  0.00000000000E+00 -0.19516807079E+04  0.19516807079E+04  0.25500000920E-02 0. -1.
    10030    2    1    2    0    0  0.00000000000E+00  0.00000000000E+00 -0.88324254513E+03  0.30201188707E+04  0.28880790501E+04 0.  0.
        2    1    3    3  502    0 -0.12784875205E+04  0.41482312105E+03  0.11037726751E+03  0.13486258573E+04  0.25500000920E-02 0.  1.
       -2    1    3    3    0  502  0.12784875205E+04 -0.41482312105E+03 -0.99361981265E+03  0.16714930134E+04  0.25500000920E-02 0. -1.
</event>
<event>
 5   0  0.2325590E-06  0.2905077E+04  0.7818609E-02  0.8271368E-01
       -2   -1    0    0    0  501  0.00000000000E+00  0.00000000000E+00  0.94169149515E+03  0.94169149515E+03  0.25500000920E-02 0.  1.
        2   -1    0    0  501    0  0.00000000000E+00  0.00000000000E+00 -0.22405092000E+04  0.22405092000E+04  0.25500000920E-02 0. -1.
    10030    2    1    2    0    0  0.00000000000E+00  0.00000000000E+00 -0.12988177049E+04  0.31822006952E+04  0.29050772509E+04 0.  0.
        5    1    3    3  502    0 -0.72055459831E+03  0.11679026871E+04 -0.12791587579E+03  0.13782525809E+04  0.46999998093E+01 0.  1.
       -5    1    3    3    0  502  0.72055459831E+03 -0.11679026871E+04 -0.11709018291E+04  0.18039481143E+04  0.46999998093E+01 0. -1.
</event>
<event>
 5   0  0.8483636E-07  0.2905160E+04  0.7818609E-02  0.8271344E-01
       -1   -1    0    0    0  501  0.00000000000E+00  0.00000000000E+00  0.10760158930E+04  0.10760158930E+04  0.50400001928E-02 0. -1.
        1   -1    0    0  501    0  0.00000000000E+00  0.00000000000E+00 -0.19609274453E+04  0.19609274453E+04  0.50400001928E-02 0.  1.
    10030    2    1    2    0    0  0.00000000000E+00  0.00000000000E+00 -0.88491155232E+03  0.30369433383E+04  0.29051603027E+04 0.  0.
        2    1    3    3  502    0 -0.34415843196E+03 -0.11007067835E+04 -0.13656875200E+04  0.17874850634E+04  0.25500000920E-02 0.  1.
       -2    1    3    3    0  502  0.34415843196E+03  0.11007067835E+04  0.48077596766E+03  0.12494582749E+04  0.25500000920E-02 0. -1.
</event>
<event>
 5   0  0.2360103E-06  0.2904510E+04  0.7818609E-02  0.8271537E-01
       -2   -1    0    0    0  501  0.00000000000E+00  0.00000000000E+00  0.99902038575E+03  0.99902038576E+03  0.25500000920E-02 0. -1.
        2   -1    0    0  501    0  0.00000000000E+00  0.00000000000E+00 -0.21111128557E+04  0.21111128557E+04  0.25500000920E-02 0.  1.
    10030    2    1    2    0    0  0.00000000000E+00  0.00000000000E+00 -0.11120924699E+04  0.31101332414E+04  0.29045101339E+04 0.  0.
        4    1    3    3  502    0 -0.43148717250E+03 -0.13866729341E+04 -0.55561740083E+03  0.15549132822E+04  0.12699999809E+01 0.  1.
       -4    1    3    3    0  502  0.43148717250E+03  0.13866729341E+04 -0.55647506908E+03  0.15552199592E+04  0.12699999809E+01 0. -1.
</event>
<event>
 5   0  0.2378690E-06  0.2853344E+04  0.7818609E-02  0.8286896E-01
       -2   -1    0    0    0  501  0.00000000000E+00  0.00000000000E+00  0.12403408984E+04  0.12403408984E+04  0.25500000920E-02 0. -1.
        2   -1    0    0  501    0  0.00000000000E+00  0.00000000000E+00 -0.16409951086E+04  0.16409951086E+04  0.25500000920E-02 0.  1.
    10030    2    1    2    0    0  0.00000000000E+00  0.00000000000E+00 -0.40065421019E+03  0.28813360070E+04  0.28533442465E+04 0.  0.
        3    1    3    3  502    0  0.44533503098E+03 -0.17888841832E+03  0.11563816796E+04  0.12520155571E+04  0.10100000352E+00 0. -1.
       -3    1    3    3    0  502 -0.44533503098E+03  0.17888841832E+03 -0.15570358898E+04  0.16293204499E+04  0.10100000352E+00 0.  1.
</event>
<event>
 5   0  0.8263673E-07  0.2888236E+04  0.7818609E-02  0.8276386E-01
        1   -1    0    0  501    0  0.00000000000E+00  0.00000000000E+00  0.14149662977E+04  0.14149662977E+04  0.50400001928E-02 0.  1.
       -1   -1    0    0    0  501  0.00000000000E+00  0.00000000000E+00 -0.14738705722E+04  0.14738705722E+04  0.50400001928E-02 0. -1.
    10030    2    1    2    0    0  0.00000000000E+00  0.00000000000E+00 -0.58904274491E+02  0.28888368699E+04  0.28882362693E+04 0.  0.
        5    1    3    3  502    0  0.32507748638E+03 -0.37403940811E+03  0.13272495686E+04  0.14167548688E+04  0.46999998093E+01 0.  1.
       -5    1    3    3    0  502 -0.32507748638E+03  0.37403940811E+03 -0.13861538431E+04  0.14720820010E+04  0.46999998093E+01 0. -1.
</event>
<event>
 5   0  0.2378690E-06  0.2896499E+04  0.7818609E-02  0.8273920E-01
        2   -1    0    0  501    0  0.00000000000E+00  0.00000000000E+00  0.99602220339E+03  0.99602220339E+03  0.25500000920E-02 0.  1.
       -2   -1    0    0    0  501  0.00000000000E+00  0.00000000000E+00 -0.21058034781E+04  0.21058034781E+04  0.25500000920E-02 0. -1.
    10030    2    1    2    0    0  0.00000000000E+00  0.00000000000E+00 -0.11097812747E+04  0.31018256815E+04  0.28964992803E+04 0.  0.
        3    1    3    3  502    0 -0.43951658033E+03  0.12068169103E+04  0.16176065891E+03  0.12945070105E+04  0.10100000352E+00 0.  1.
       -3    1    3    3    0  502  0.43951658033E+03 -0.12068169103E+04 -0.12715419336E+04  0.18073186710E+04  0.10100000352E+00 0. -1.
</event>
<event>
 5   0  0.8483636E-07  0.2885221E+04  0.7818609E-02  0.8277288E-01
        1   -1    0    0  501    0  0.00000000000E+00  0.00000000000E+00  0.16868726709E+04  0.16868726710E+04  0.50400001928E-02 0.  1.
       -1   -1    0    0    0  501  0.00000000000E+00  0.00000000000E+00 -0.12337177037E+04  0.12337177038E+04  0.50400001928E-02 0. -1.
    10030    2    1    2    0    0  0.00000000000E+00  0.00000000000E+00  0.45315496720E+03  0.29205903747E+04  0.28852207390E+04 0.  0.
        2    1    3    3  502    0  0.29952075900E+03  0.38537164751E+02 -0.12013631879E+04  0.12387377880E+04  0.25500000920E-02 0. -1.
       -2    1    3    3    0  502 -0.29952075900E+03 -0.38537164751E+02  0.16545181551E+04  0.16818525868E+04  0.25500000920E-02 0.  1.
</event>
<event>
 5   0  0.8357118E-07  0.2924786E+04  0.7818609E-02  0.8265541E-01
       -1   -1    0    0    0  501  0.00000000000E+00  0.00000000000E+00  0.12581411059E+04  0.12581411060E+04  0.50400001928E-02 0.  1.
        1   -1    0    0  501    0  0.00000000000E+00  0.00000000000E+00 -0.16998038222E+04  0.16998038222E+04  0.50400001928E-02 0. -1.
    10030    2    1    2    0    0  0.00000000000E+00  0.00000000000E+00 -0.44166271622E+03  0.29579449281E+04  0.29247858457E+04 0.  0.
        1    1    3    3  502    0  0.12589221076E+04  0.18052226144E+03 -0.95090192654E+03  0.15879822523E+04  0.50400001928E-02 0. -1.
       -1    1    3    3    0  502 -0.12589221076E+04 -0.18052226144E+03  0.50923921032E+03  0.13699626758E+04  0.50400001928E-02 0.  1.
</event>
<event>
 5   0  0.2360103E-06  0.2898682E+04  0.7818609E-02  0.8273270E-01
        2   -1    0    0  501    0  0.00000000000E+00  0.00000000000E+00  0.19213786512E+04  0.19213786512E+04  0.25500000920E-02 0.  1.
       -2   -1    0    0    0  501  0.00000000000E+00  0.00000000000E+00 -0.10932716345E+04  0.10932716345E+04  0.25500000920E-02 0. -1.
    10030    2    1    2    0    0  0.00000000000E+00  0.00000000000E+00  0.82810701669E+03  0.30146502857E+04  0.28986816165E+04 0.  0.
        4    1    3    3  502    0  0.77646207570E+03  0.61112437608E+03 -0.68865882615E+03  0.12044164354E+04  0.12699999809E+01 0. -1.
       -4    1    3    3    0  502 -0.77646207570E+03 -0.61112437608E+03  0.15167658428E+04  0.18102338503E+04  0.12699999809E+01 0.  1.
</event>
<event>
 5   0  0.2360103E-06  0.2884864E+04  0.7818609E-02  0.8277395E-01
       -2   -1    0    0    0  501  0.00000000000E+00  0.00000000000E+00  0.23446106387E+04  0.23446106387E+04  0.25500000920E-02 0.  1.
        2   -1    0    0  501    0  0.00000000000E+00  0.00000000000E+00 -0.88740105673E+03  0.88740105673E+03  0.25500000920E-02 0. -1.
    10030    2    1    2    0    0  0.00000000000E+00  0.00000000000E+00  0.14572095819E+04  0.32320116954E+04  0.28848639194E+04 0.  0.
        4    1    3    3  502    0 -0.12183802784E+04  0.11847192644E+02 -0.13631750498E+03  0.12260403476E+04  0.12699999809E+01 0. -1.
       -4    1    3    3    0  502  0.12183802784E+04 -0.11847192644E+02  0.15935270869E+04  0.20059713478E+04  0.12699999809E+01 0.  1.
</event>
<event>
 5   0  0.2360103E-06  0.2896986E+04  0.7818609E-02  0.8273775E-01
        2   -1    0    0  501    0  0.00000000000E+00  0.00000000000E+00  0.15617204394E+04  0.15617204394E+04  0.25500000920E-02 0. -1.
       -2   -1    0    0    0  501  0.00000000000E+00  0.00000000000E+00 -0.13434744508E+04  0.13434744508E+04  0.25500000920E-02 0.  1.
    10030    2    1    2    0    0  0.00000000000E+00  0.00000000000E+00  0.21824598857E+03  0.29051948901E+04  0.28969856814E+04 0.  0.
        4    1    3    3  502    0 -0.10914605742E+04  0.65769781199E+03  0.79975244195E+03  0.15044793711E+04  0.12699999809E+01 0. -1.
       -4    1    3    3    0  502  0.10914605742E+04 -0.65769781199E+03 -0.58150645338E+03  0.14007155190E+04  0.12699999809E+01 0.  1.
</event>
<event>
 5   0  0.8947674E-07  0.2873221E+04  0.7818609E-02  0.8280890E-01
       -1   -1    0    0    0  501  0.00000000000E+00  0.00000000000E+00  0.20159513141E+04  0.20159513141E+04  0.50400001928E-02 0. -1.
        1   -1    0    0  501    0  0.00000000000E+00  0.00000000000E+00 -0.10237600473E+04  0.10237600473E+04  0.50400001928E-02 0.  1.
    10030    2    1    2    0    0  0.00000000000E+00  0.00000000000E+00  0.99219126682E+03  0.30397113614E+04  0.28732214761E+04 0.  0.
        3    1    3    3  502    0  0.67935222265E+03  0.22198913817E+03 -0.82233173897E+03  0.10895082005E+04  0.10100000352E+00 0.  1.
       -3    1    3    3    0  502 -0.67935222265E+03 -0.22198913817E+03  0.18145230058E+04  0.19502031609E+04  0.10100000352E+00 0. -1.
</event>
<event>
 5   0  0.2325590E-06  0.2942611E+04  0.7818609E-02  0.8260311E-01
        2   -1    0    0  501    0  0.00000000000E+00  0.00000000000E+00  0.15447197817E+04  0.15447197817E+04  0.25500000920E-02 0.  1.
       -2   -1    0    0    0  501  0.00000000000E+00  0.00000000000E+00 -0.14013806927E+04  0.14013806927E+04  0.25500000920E-02 0. -1.
    10030    2    1    2    0    0  0.00000000000E+00  0.00000000000E+00  0.14333908897E+03  0.29461004744E+04  0.29426114101E+04 0.  0.
        5    1    3    3  502    0  0.36455506700E+03  0.39884722280E+03 -0.12984335692E+04  0.14063894652E+04  0.46999998093E+01 0. -1.
       -5    1    3    3    0  502 -0.36455506700E+03 -0.39884722280E+03  0.14417726582E+04  0.15397110092E+04  0.46999998093E+01 0.  1.
</event>
<event>
 5   0  0.2378690E-06  0.2891127E+04  0.7818609E-02  0.8275522E-01
       -2   -1    0    0    0  501  0.00000000000E+00  0.00000000000E+00  0.17630117729E+04  0.17630117729E+04  0.25500000920E-02 0.  1.
        2   -1    0    0  501    0  0.00000000000E+00  0.00000000000E+00 -0.11852752523E+04  0.11852752523E+04  0.25500000920E-02 0. -1.
    10030    2    1    2    0    0  0.00000000000E+00  0.00000000000E+00  0.57773652061E+03  0.29482870251E+04  0.28911272707E+04 0.  0.
        3    1    3    3  502    0  0.12981416630E+04  0.28216830979E+03  0.87010491958E+03  0.15880407154E+04  0.10100000352E+00 0.  1.
       -3    1    3    3    0  502 -0.12981416630E+04 -0.28216830979E+03 -0.29236839897E+03  0.13602463098E+04  0.10100000352E+00 0. -1.
</event>
<event>
 5   0  0.8483636E-07  0.2902725E+04  0.7818609E-02  0.8272067E-01
       -1   -1    0    0    0  501  0.00000000000E+00  0.00000000000E+00  0.20264590725E+04  0.20264590725E+04  0.50400001928E-02 0. -1.
        1   -1    0    0  501    0  0.00000000000E+00  0.00000000000E+00 -0.10394744945E+04  0.10394744945E+04  0.50400001928E-02 0.  1.
    10030    2    1    2    0    0  0.00000000000E+00  0.00000000000E+00  0.98698457799E+03  0.30659335670E+04  0.29027245960E+04 0.  0.
        2    1    3    3  502    0 -0.67777166773E+03  0.18656700384E+03 -0.84765324256E+03  0.11012255446E+04  0.25500000920E-02 0.  1.
       -2    1    3    3    0  502  0.67777166773E+03 -0.18656700384E+03  0.18346378205E+04  0.19647080224E+04  0.25500000920E-02 0. -1.
</event>
<event>
 5   0  0.8357118E-07  0.2907353E+04  0.7818609E-02  0.8270693E-01
        1   -1    0    0  501    0  0.00000000000E+00  0.00000000000E+00  0.12366822112E+04  0.12366822112E+04  0.50400001928E-02 0. -1.
       -1   -1    0    0    0  501  0.00000000000E+00  0.00000000000E+00 -0.17087462055E+04  0.17087462055E+04  0.50400001928E-02 0.  1.
    10030    2    1    2    0    0  0.00000000000E+00  0.00000000000E+00 -0.47206399430E+03  0.29454284168E+04  0.29073534604E+04 0.  0.
        1    1    3    3  502    0 -0.10782653955E+04 -0.18091658336E+03  0.73452725401E+03  0.13171626172E+04  0.50400001928E-02 0. -1.
       -1    1    3    3    0  502  0.10782653955E+04  0.18091658336E+03 -0.12065912483E+04  0.16282657995E+04  0.50400001928E-02 0.  1.
</event>
<event>
 5   0  0.8483636E-07  0.2896834E+04  0.7818609E-02  0.8273820E-01
        1   -1    0    0  501    0  0.00000000000E+00  0.00000000000E+00  0.13334004517E+04  0.13334004517E+04  0.50400001928E-02 0. -1.
       -1   -1    0    0    0  501  0.00000000000E+00  0.00000000000E+00 -0.15733547522E+04  0.15733547522E+04  0.50400001928E-02 0.  1.
    10030    2    1    2    0    0  0.00000000000E+00  0.00000000000E+00 -0.23995430047E+03  0.29067552039E+04  0.28968340907E+04 0.  0.
        2    1    3    3  502    0 -0.12418946809E+04 -0.49437110510E+03  0.43979248897E+03  0.14071682989E+04  0.25500000920E-02 0. -1.
       -2    1    3    3    0  502  0.12418946809E+04  0.49437110510E+03 -0.67974678945E+03  0.14995869050E+04  0.25500000920E-02 0.  1.
</event>
<event>
 5   0  0.2378690E-06  0.2989366E+04  0.7818609E-02  0.8246774E-01
       -2   -1    0    0    0  501  0.00000000000E+00  0.00000000000E+00  0.22416342431E+04  0.22416342431E+04  0.25500000920E-02 0. -1.
        2   -1    0    0  501    0  0.00000000000E+00  0.00000000000E+00 -0.99662858794E+03  0.99662858794E+03  0.25500000920E-02 0.  1.
    10030    2    1    2    0    0  0.00000000000E+00  0.00000000000E+00  0.12450056551E+04  0.32382628310E+04  0.29893656654E+04 0.  0.
        3    1    3    3  502    0 -0.13112718501E+04  0.62065530983E+03  0.10122207063E+04  0.17689651345E+04  0.10100000352E+00 0. -1.
       -3    1    3    3    0  502  0.13112718501E+04 -0.62065530983E+03  0.23278494881E+03  0.14692976965E+04  0.10100000352E+00 0.  1.
</event>
<event>
 5   0  0.8483636E-07  0.2756977E+04  0.7818609E-02  0.8316751E-01
       -1   -1    0    0    0  501  0.00000000000E+00  0.00000000000E+00  0.10655328454E+04  0.10655328454E+04  0.50400001928E-02 0. -1.
        1   -1    0    0  501    0  0.00000000000E+00  0.00000000000E+00 -0.17833612675E+04  0.17833612675E+04  0.50400001928E-02 0.  1.
    10030    2    1    2    0    0  0.00000000000E+00  0.00000000000E+00 -0.71782842211E+03  0.28488941129E+04  0.27569766091E+04 0.  0.
        2    1    3    3  502    0  0.45972536988E+03 -0.50177456370E+03 -0.15976750228E+04  0.17365743886E+04  0.25500000920E-02 0.  1.
       -2    1    3    3    0  502 -0.45972536988E+03  0.50177456370E+03  0.87984660069E+03  0.11123197244E+04  0.25500000920E-02 0. -1.
</event>
<event>
 5   0  0.2360103E-06  0.2938327E+04  0.7818609E-02  0.8261564E-01
       -2   -1    0    0    0  501  0.00000000000E+00  0.00000000000E+00  0.26960685249E+04  0.26960685249E+04  0.25500000920E-02 0.  1.
        2   -1    0    0  501    0  0.00000000000E+00  0.00000000000E+00 -0.80058859837E+03  0.80058859838E+03  0.25500000920E-02 0. -1.
    10030    2    1    2    0    0  0.00000000000E+00  0.00000000000E+00  0.18954799265E+04  0.34966571232E+04  0.29383272258E+04 0.  0.
        4    1    3    3  502    0 -0.11452460779E+03 -0.90441459528E+03 -0.42329017129E+03  0.10051158281E+04  0.12699999809E+01 0. -1.
       -4    1    3    3    0  502  0.11452460779E+03  0.90441459528E+03  0.23187700978E+04  0.24915412951E+04  0.12699999809E+01 0.  1.
</event>
<event>
 5   0  0.8947674E-07  0.2891801E+04  0.7818609E-02  0.8275321E-01
        1   -1    0    0  501    0  0.00000000000E+00  0.00000000000E+00  0.16708004307E+04  0.16708004307E+04  0.50400001928E-02 0. -1.
       -1   -1    0    0    0  501  0.00000000000E+00  0.00000000000E+00 -0.12512730839E+04  0.12512730839E+04  0.50400001928E-02 0.  1.
    10030    2    1    2    0    0  0.00000000000E+00  0.00000000000E+00  0.41952734677E+03  0.29220735146E+04  0.28918005516E+04 0.  0.
        3    1    3    3  502    0 -0.13590346682E+04  0.47090460403E+03  0.60223811931E+02  0.14395670506E+04  0.10100000352E+00 0.  1.
       -3    1    3    3    0  502  0.13590346682E+04 -0.47090460403E+03  0.35930353484E+03  0.14825064640E+04  0.10100000352E+00 0. -1.
</event>
<event>
 5   0  0.8357118E-07  0.2838042E+04  0.7818609E-02  0.8291554E-01
       -1   -1    0    0    0  501  0.00000000000E+00  0.00000000000E+00  0.11641880698E+04  0.11641880698E+04  0.50400001928E-02 0.  1.
        1   -1    0    0  501    0  0.00000000000E+00  0.00000000000E+00 -0.17296356147E+04  0.17296356147E+04  0.50400001928E-02 0. -1.
    10030    2    1    2    0    0  0.00000000000E+00  0.00000000000E+00 -0.56544754492E+03  0.28938236845E+04  0.28380423871E+04 0.  0.
        1    1    3    3  502    0 -0.21934002677E+03  0.46205907785E+03  0.10669281903E+04  0.11831924620E+04  0.50400001928E-02 0.  1.
       -1    1    3    3    0  502  0.21934002677E+03 -0.46205907785E+03 -0.16323757352E+04  0.17106312226E+04  0.50400001928E-02 0. -1.
</event>
<event>
 5   0  0.2360103E-06  0.2916576E+04  0.7818609E-02  0.8267963E-01
       -2   -1    0    0    0  501  0.00000000000E+00  0.00000000000E+00  0.75036737318E+03  0.75036737319E+03  0.25500000920E-02 0. -1.
        2   -1    0    0  501    0  0.00000000000E+00  0.00000000000E+00 -0.28340829374E+04  0.28340829374E+04  0.25500000920E-02 0.  1.
    10030    2    1    2    0    0  0.00000000000E+00  0.00000000000E+00 -0.20837155643E+04  0.35844503106E+04  0.29165756422E+04 0.  0.
        4    1    3    3  502    0  0.17150582363E+03 -0.13742548171E+03 -0.28136125947E+04  0.28221831012E+04  0.12699999809E+01 0.  1.
       -4    1    3    3    0  502 -0.17150582363E+03  0.13742548171E+03  0.72989703048E+03  0.76226720943E+03  0.12699999809E+01 0. -1.
</event>
<event>
 5   0  0.2325590E-06  0.2778035E+04  0.7818609E-02  0.8310120E-01
        2   -1    0    0  501    0  0.00000000000E+00  0.00000000000E+00  0.15324699558E+04  0.15324699558E+04  0.25500000920E-02 0. -1.
       -2   -1    0    0    0  501  0.00000000000E+00  0.00000000000E+00 -0.12589932204E+04  0.12589932204E+04  0.25500000920E-02 0.  1.
    10030    2    1    2    0    0  0.00000000000E+00  0.00000000000E+00  0.27347673548E+03  0.27914631762E+04  0.27780347621E+04 0.  0.
        5    1    3    3  502    0 -0.54021053836E+03  0.59282448049E+03 -0.10027975922E+04  0.12840924388E+04  0.46999998093E+01 0.  1.
       -5    1    3    3    0  502  0.54021053836E+03 -0.59282448049E+03  0.12762743277E+04  0.15073707374E+04  0.46999998093E+01 0. -1.
</event>
<event>
 5   0  0.8483636E-07  0.2858019E+04  0.7818609E-02  0.8285479E-01
        1   -1    0    0  501    0  0.00000000000E+00  0.00000000000E+00  0.14487626933E+04  0.14487626934E+04  0.50400001928E-02 0.  1.
       -1   -1    0    0    0  501  0.00000000000E+00  0.00000000000E+00 -0.14095254568E+04  0.14095254568E+04  0.50400001928E-02 0. -1.
    10030    2    1    2    0    0  0.00000000000E+00  0.00000000000E+00  0.39237236558E+02  0.28582881502E+04  0.28580188223E+04 0.  0.
        2    1    3    3  502    0 -0.12924183670E+04  0.56314445879E+03 -0.21405052719E+03  0.14259363749E+04  0.25500000920E-02 0.  1.
       -2    1    3    3    0  502  0.12924183670E+04 -0.56314445879E+03  0.25328776375E+03  0.14323517753E+04  0.25500000920E-02 0. -1.
</event>
<event>
 5   0  0.8355946E-07  0.2903477E+04  0.7818609E-02  0.8271844E-01
        1   -1    0    0  501    0  0.00000000000E+00  0.00000000000E+00  0.15413183574E+04  0.15413183574E+04  0.50400001928E-02 0. -1.
       -1   -1    0    0    0  501  0.00000000000E+00  0.00000000000E+00 -0.13673647944E+04  0.13673647945E+04  0.50400001928E-02 0.  1.
    10030    2    1    2    0    0  0.00000000000E+00  0.00000000000E+00  0.17395356295E+03  0.29086831519E+04  0.29034768530E+04 0.  0.
        4    1    3    3  502    0  0.12040211862E+04 -0.58159136496E+03  0.65334645315E+03  0.14882132688E+04  0.12699999809E+01 0. -1.
       -4    1    3    3    0  502 -0.12040211862E+04  0.58159136496E+03 -0.47939289020E+03  0.14204698831E+04  0.12699999809E+01 0.  1.
</event>
<event>
 5   0  0.8357118E-07  0.2903958E+04  0.7818609E-02  0.8271701E-01
        1   -1    0    0  501    0  0.00000000000E+00  0.00000000000E+00  0.95033012718E+03  0.95033012719E+03  0.50400001928E-02 0. -1.
       -1   -1    0    0    0  501  0.00000000000E+00  0.00000000000E+00 -0.22184329221E+04  0.22184329221E+04  0.50400001928E-02 0.  1.
    10030    2    1    2    0    0  0.00000000000E+00  0.00000000000E+00 -0.12681027949E+04  0.31687630493E+04  0.29039584302E+04 0.  0.
        1    1    3    3  502    0 -0.10774374234E+04  0.12290007443E+03  0.41953393199E+03  0.11627487045E+04  0.50400001928E-02 0. -1.
       -1    1    3    3    0  502  0.10774374234E+04 -0.12290007443E+03 -0.16876367269E+04  0.20060143449E+04  0.50400001928E-02 0.  1.
</event>
<event>
 5   0  0.8263673E-07  0.2909463E+04  0.7818609E-02  0.8270067E-01
        1   -1    0    0  501    0  0.00000000000E+00  0.00000000000E+00  0.21236935071E+04  0.21236935071E+04  0.50400001928E-02 0. -1.
       -1   -1    0    0    0  501  0.00000000000E+00  0.00000000000E+00 -0.99649235438E+03  0.99649235439E+03  0.50400001928E-02 0.  1.
    10030    2    1    2    0    0  0.00000000000E+00  0.00000000000E+00  0.11272011527E+04  0.31201858615E+04  0.29094634164E+04 0.  0.
        5    1    3    3  502    0  0.13700200781E+02 -0.57159288887E+02 -0.99521021844E+03  0.99695553998E+03  0.46999998093E+01 0.  1.
       -5    1    3    3    0  502 -0.13700200781E+02  0.57159288887E+02  0.21224113711E+04  0.21232303215E+04  0.46999998093E+01 0. -1.
</event>
<event>
 5   0  0.8947674E-07  0.2938853E+04  0.7818609E-02  0.8261411E-01
        1   -1    0    0  501    0  0.00000000000E+00  0.00000000000E+00  0.15134269169E+04  0.15134269169E+04  0.50400001928E-02 0. -1.
       -1   -1    0    0    0  501  0.00000000000E+00  0.00000000000E+00 -0.14267051045E+04  0.14267051045E+04  0.50400001928E-02 0.  1.
    10030    2    1    2    0    0  0.00000000000E+00  0.00000000000E+00  0.86721812363E+02  0.29401320214E+04  0.29388527745E+04 0.  0.
        3    1    3    3  502    0 -0.10734217537E+04 -0.53741427386E+03  0.89117626804E+03  0.14950730798E+04  0.10100000352E+00 0.  1.
       -3    1    3    3    0  502  0.10734217537E+04  0.53741427386E+03 -0.80445445568E+03  0.14450589416E+04  0.10100000352E+00 0. -1.
</event>
<event>
 5   0  0.2304435E-06  0.2922952E+04  0.7818609E-02  0.8266081E-01
        2   -1    0    0  501    0  0.00000000000E+00  0.00000000000E+00  0.16094548502E+04  0.16094548502E+04  0.25500000920E-02 0. -1.
       -2   -1    0    0    0  501  0.00000000000E+00  0.00000000000E+00 -0.13271026384E+04  0.13271026384E+04  0.25500000920E-02 0.  1.
    10030    2    1    2    0    0  0.00000000000E+00  0.00000000000E+00  0.28235221180E+03  0.29365574886E+04  0.29229517807E+04 0.  0.
        1    1    3    3  502    0  0.13019742921E+03  0.76856577987E+03  0.13831614791E+04  0.15876965723E+04  0.50400001928E-02 0. -1.
       -1    1    3    3    0  502 -0.13019742921E+03 -0.76856577987E+03 -0.11008092673E+04  0.13488609163E+04  0.50400001928E-02 0.  1.
</event>
<event>
 5   0  0.8263673E-07  0.2866193E+04  0.7818609E-02  0.8283008E-01
       -1   -1    0    0    0  501  0.00000000000E+00  0.00000000000E+00  0.18422662818E+04  0.18422662818E+04  0.50400001928E-02 0. -1.
        1   -1    0    0  501    0  0.00000000000E+00  0.00000000000E+00 -0.11148037729E+04  0.11148037729E+04  0.50400001928E-02 0.  1.
    10030    2    1    2    0    0  0.00000000000E+00  0.00000000000E+00  0.72746250883E+03  0.29570700547E+04  0.28661928767E+04 0.  0.
        5    1    3    3  502    0 -0.13670219631E+03  0.35460253504E+03  0.17893216154E+04  0.18292414771E+04  0.46999998093E+01 0. -1.
       -5    1    3    3    0  502  0.13670219631E+03 -0.35460253504E+03 -0.10618591065E+04  0.11278285776E+04  0.46999998093E+01 0.  1.
</event>
<event>
 5   0  0.8357118E-07  0.2906124E+04  0.7818609E-02  0.8271058E-01
       -1   -1    0    0    0  501  0.00000000000E+00  0.00000000000E+00  0.16070857831E+04  0.16070857831E+04  0.50400001928E-02 0.  1.
        1   -1    0    0  501    0  0.00000000000E+00  0.00000000000E+00 -0.13138001728E+04  0.13138001728E+04  0.50400001928E-02 0. -1.
    10030    2    1    2    0    0  0.00000000000E+00  0.00000000000E+00  0.29328561027E+03  0.29208859559E+04  0.29061242778E+04 0.  0.
        1    1    3    3  502    0 -0.11647909858E+04  0.16054314124E+03 -0.71143698177E+03  0.13742833477E+04  0.50400001928E-02 0. -1.
       -1    1    3    3    0  502  0.11647909858E+04 -0.16054314124E+03  0.10047225920E+04  0.15466026082E+04  0.50400001928E-02 0.  1.
</event>
<event>
 5   0  0.8947674E-07  0.2931358E+04  0.7818609E-02  0.8263608E-01
       -1   -1    0    0    0  501  0.00000000000E+00  0.00000000000E+00  0.10399384685E+04  0.10399384685E+04  0.50400001928E-02 0.  1.
        1   -1    0    0  501    0  0.00000000000E+00  0.00000000000E+00 -0.20657130932E+04  0.20657130932E+04  0.50400001928E-02 0. -1.
    10030    2    1    2    0    0  0.00000000000E+00  0.00000000000E+00 -0.10257746247E+04  0.31056515617E+04  0.29313577131E+04 0.  0.
        3    1    3    3  502    0  0.12201001054E+04 -0.68240212898E+03 -0.97940712275E+03  0.17069139565E+04  0.10100000352E+00 0. -1.
       -3    1    3    3    0  502 -0.12201001054E+04  0.68240212898E+03 -0.46367501954E+02  0.13987376052E+04  0.10100000352E+00 0.  1.
</event>
<event>
 5   0  0.8355946E-07  0.2890539E+04  0.7818609E-02  0.8275698E-01
       -1   -1    0    0    0  501  0.00000000000E+00  0.00000000000E+00  0.17688241221E+04  0.17688241221E+04  0.50400001928E-02 0. -1.
        1   -1    0    0  501    0  0.00000000000E+00  0.00000000000E+00 -0.11809000403E+04  0.11809000403E+04  0.50400001928E-02 0.  1.
    10030    2    1    2    0    0  0.00000000000E+00  0.00000000000E+00  0.58792408182E+03  0.29497241624E+04  0.28905393801E+04 0.  0.
        4    1    3    3  502    0  0.11871157412E+04  0.78634906457E+03  0.54644304576E+03  0.15251853164E+04  0.12699999809E+01 0. -1.
       -4    1    3    3    0  502 -0.11871157412E+04 -0.78634906457E+03  0.41481036062E+02  0.14245388459E+04  0.12699999809E+01 0.  1.
</event>
<event>
 5   0  0.8947674E-07  0.2900256E+04  0.7818609E-02  0.8272801E-01
       -1   -1    0    0    0  501  0.00000000000E+00  0.00000000000E+00  0.12106983842E+04  0.12106983842E+04  0.50400001928E-02 0. -1.
        1   -1    0    0  501    0  0.00000000000E+00  0.00000000000E+00 -0.17369073249E+04  0.17369073249E+04  0.50400001928E-02 0.  1.
    10030    2    1    2    0    0  0.00000000000E+00  0.00000000000E+00 -0.52620894077E+03  0.29476057091E+04  0.29002557761E+04 0.  0.
        3    1    3    3  502    0 -0.55916078187E+03  0.65059595653E+03  0.92514333513E+03  0.12616759011E+04  0.10100000352E+00 0. -1.
       -3    1    3    3    0  502  0.55916078187E+03 -0.65059595653E+03 -0.14513522759E+04  0.16859298080E+04  0.10100000352E+00 0.  1.
</event>
<event>
 5   0  0.2304435E-06  0.2892393E+04  0.7818609E-02  0.8275144E-01
       -2   -1    0    0    0  501  0.00000000000E+00  0.00000000000E+00  0.13426431920E+04  0.13426431920E+04  0.25500000920E-02 0.  1.
        2   -1    0    0  501    0  0.00000000000E+00  0.00000000000E+00 -0.15577364955E+04  0.15577364955E+04  0.25500000920E-02 0. -1.
    10030    2    1    2    0    0  0.00000000000E+00  0.00000000000E+00 -0.21509330352E+03  0.29003796874E+04  0.28923929889E+04 0.  0.
        1    1    3    3  502    0  0.12188751778E+03  0.95789703211E+03 -0.11871163920E+04  0.15302511622E+04  0.50400001928E-02 0. -1.
       -1    1    3    3    0  502 -0.12188751778E+03 -0.95789703211E+03  0.97202308850E+03  0.13701285253E+04  0.50400001928E-02 0.  1.
</event>
<event>
 5   0  0.2325590E-06  0.2916062E+04  0.7818609E-02  0.8268115E-01
        2   -1    0    0  501    0  0.00000000000E+00  0.00000000000E+00  0.86378308747E+03  0.86378308747E+03  0.25500000920E-02 0.  1.
       -2   -1    0    0    0  501  0.00000000000E+00  0.00000000000E+00 -0.24610977547E+04  0.24610977547E+04  0.25500000920E-02 0. -1.
    10030    2    1    2    0    0  0.00000000000E+00  0.00000000000E+00 -0.15973146673E+04  0.33248808422E+04  0.29160621510E+04 0.  0.
        5    1    3    3  502    0  0.11933906988E+04  0.82111479013E+03 -0.60984678750E+03  0.15717334548E+04  0.46999998093E+01 0. -1.
       -5    1    3    3    0  502 -0.11933906988E+04 -0.82111479013E+03 -0.98746787976E+03  0.17531473875E+04  0.46999998093E+01 0.  1.
</event>
<event>
 5   0  0.8947674E-07  0.2892613E+04  0.7818609E-02  0.8275079E-01
        1   -1    0    0  501    0  0.00000000000E+00  0.00000000000E+00  0.24681068616E+04  0.24681068616E+04  0.50400001928E-02 0. -1.
       -1   -1    0    0    0  501  0.00000000000E+00  0.00000000000E+00 -0.84753297811E+03  0.84753297813E+03  0.50400001928E-02 0.  1.
    10030    2    1    2    0    0  0.00000000000E+00  0.00000000000E+00  0.16205738835E+04  0.33156398398E+04  0.28926126314E+04 0.  0.
        3    1    3    3  502    0  0.49046329375E+03  0.36771603893E+03 -0.69126320463E+03  0.92391241797E+03  0.10100000352E+00 0.  1.
       -3    1    3    3    0  502 -0.49046329375E+03 -0.36771603893E+03  0.23118370882E+04  0.23917274218E+04  0.10100000352E+00 0. -1.
</event>
<event>
 5   0  0.8483636E-07  0.2864892E+04  0.7818609E-02  0.8283400E-01
        1   -1    0    0  501    0  0.00000000000E+00  0.00000000000E+00  0.13612937009E+04  0.13612937009E+04  0.50400001928E-02 0.  1.
       -1   -1    0    0    0  501  0.00000000000E+00  0.00000000000E+00 -0.15073178195E+04  0.15073178195E+04  0.50400001928E-02 0. -1.
    10030    2    1    2    0    0  0.00000000000E+00  0.00000000000E+00 -0.14602411868E+03  0.28686115204E+04  0.28648924957E+04 0.  0.
        2    1    3    3  502    0  0.42225798962E+03 -0.13502270400E+04 -0.29799772042E+03  0.14457584552E+04  0.25500000920E-02 0. -1.
       -2    1    3    3    0  502 -0.42225798962E+03  0.13502270400E+04  0.15197360174E+03  0.14228530652E+04  0.25500000920E-02 0.  1.
</event>
<event>
 5   0  0.8355946E-07  0.2878906E+04  0.7818609E-02  0.8279181E-01
        1   -1    0    0  501    0  0.00000000000E+00  0.00000000000E+00  0.18719020963E+04  0.18719020963E+04  0.50400001928E-02 0. -1.
       -1   -1    0    0    0  501  0.00000000000E+00  0.00000000000E+00 -0.11069084441E+04  0.11069084442E+04  0.50400001928E-02 0.  1.
    10030    2    1    2    0    0  0.00000000000E+00  0.00000000000E+00  0.76499365213E+03  0.29788105404E+04  0.28789055122E+04 0.  0.
        4    1    3    3  502    0  0.60803453175E+03 -0.63111002400E+03  0.15640603052E+04  0.17928446964E+04  0.12699999809E+01 0. -1.
       -4    1    3    3    0  502 -0.60803453175E+03  0.63111002400E+03 -0.79906665310E+03  0.11859658440E+04  0.12699999809E+01 0.  1.
</event>
<event>
 5   0  0.8483636E-07  0.2844016E+04  0.7818609E-02  0.8289732E-01
       -1   -1    0    0    0  501  0.00000000000E+00  0.00000000000E+00  0.11218900502E+04  0.11218900502E+04  0.50400001928E-02 0. -1.
        1   -1    0    0  501    0  0.00000000000E+00  0.00000000000E+00 -0.18024110752E+04  0.18024110752E+04  0.50400001928E-02 0.  1.
    10030    2    1    2    0    0  0.00000000000E+00  0.00000000000E+00 -0.68052102501E+03  0.29243011255E+04  0.28440162108E+04 0.  0.
        2    1    3    3  502    0 -0.94796033567E+03  0.10561255518E+04 -0.43267009727E+03  0.14836554156E+04  0.25500000920E-02 0. -1.
       -2    1    3    3    0  502  0.94796033567E+03 -0.10561255518E+04 -0.24785092774E+03  0.14406457099E+04  0.25500000920E-02 0.  1.
</event>
<event>
 5   0  0.8357118E-07  0.2922464E+04  0.7818609E-02  0.8266225E-01
       -1   -1    0    0    0  501  0.00000000000E+00  0.00000000000E+00  0.76056027444E+03  0.76056027446E+03  0.50400001928E-02 0.  1.
        1   -1    0    0  501    0  0.00000000000E+00  0.00000000000E+00 -0.28074027593E+04  0.28074027593E+04  0.50400001928E-02 0. -1.
    10030    2    1    2    0    0  0.00000000000E+00  0.00000000000E+00 -0.20468424848E+04  0.35679630337E+04  0.29224640378E+04 0.  0.
        1    1    3    3  502    0 -0.34249983324E+03 -0.16861878180E+03 -0.27454438152E+04  0.27718586133E+04  0.50400001928E-02 0. -1.
       -1    1    3    3    0  502  0.34249983324E+03  0.16861878180E+03  0.69860133042E+03  0.79610442044E+03  0.50400001928E-02 0.  1.
</event>
<event>
 5   0  0.8263673E-07  0.2875138E+04  0.7818609E-02  0.8280313E-01
        1   -1    0    0  501    0  0.00000000000E+00  0.00000000000E+00  0.13715817012E+04  0.13715817012E+04  0.50400001928E-02 0. -1.
       -1   -1    0    0    0  501  0.00000000000E+00  0.00000000000E+00 -0.15067305959E+04  0.15067305959E+04  0.50400001928E-02 0.  1.
    10030    2    1    2    0    0  0.00000000000E+00  0.00000000000E+00 -0.13514889468E+03  0.28783122972E+04  0.28751376413E+04 0.  0.
        5    1    3    3  502    0  0.22346641307E+03  0.13153482003E+03  0.13479682281E+04  0.13726904533E+04  0.46999998093E+01 0. -1.
       -5    1    3    3    0  502 -0.22346641307E+03 -0.13153482003E+03 -0.14831171228E+04  0.15056218438E+04  0.46999998093E+01 0.  1.
</event>
<event>
 5   0  0.2325590E-06  0.2896263E+04  0.7818609E-02  0.8273990E-01
        2   -1    0    0  501    0  0.00000000000E+00  0.00000000000E+00  0.12678273554E+04  0.12678273554E+04  0.25500000920E-02 0.  1.
       -2   -1    0    0    0  501  0.00000000000E+00  0.00000000000E+00 -0.16540779225E+04  0.16540779225E+04  0.25500000920E-02 0. -1.
    10030    2    1    2    0    0  0.00000000000E+00  0.00000000000E+00 -0.38625056708E+03  0.29219052779E+04  0.28962632740E+04 0.  0.
        5    1    3    3  502    0 -0.77450969132E+03 -0.22466157424E+03  0.10203225156E+04  0.13005453512E+04  0.46999998093E+01 0.  1.
       -5    1    3    3    0  502  0.77450969132E+03  0.22466157424E+03 -0.14065730826E+04  0.16213599266E+04  0.46999998093E+01 0. -1.
</event>
<event>
 5   0  0.2360103E-06  0.2939593E+04  0.7818609E-02  0.8261194E-01
        2   -1    0    0  501    0  0.00000000000E+00  0.00000000000E+00  0.17901383689E+04  0.17901383689E+04  0.25500000920E-02 0. -1.
       -2   -1    0    0    0  501  0.00000000000E+00  0.00000000000E+00 -0.12067794567E+04  0.12067794567E+04  0.25500000920E-02 0.  1.
    10030    2    1    2    0    0  0.00000000000E+00  0.00000000000E+00  0.58335891218E+03  0.29969178256E+04  0.29395933108E+04 0.  0.
        4    1    3    3  502    0  0.12483861799E+04 -0.25440900127E+03 -0.45548918835E+03  0.13530203279E+04  0.12699999809E+01 0.  1.
       -4    1    3    3    0  502 -0.12483861799E+04  0.25440900127E+03  0.10388481005E+04  0.16438974977E+04  0.12699999809E+01 0. -1.
</event>
<event>
 5   0  0.8263673E-07  0.2878740E+04  0.7818609E-02  0.8279231E-01
        1   -1    0    0  501    0  0.00000000000E+00  0.00000000000E+00  0.96210837377E+03  0.96210837378E+03  0.50400001928E-02 0.  1.
       -1   -1    0    0    0  501  0.00000000000E+00  0.00000000000E+00 -0.21533808543E+04  0.21533808543E+04  0.50400001928E-02 0. -1.
    10030    2    1    2    0    0  0.00000000000E+00  0.00000000000E+00 -0.11912724805E+04  0.31154892281E+04  0.28787398298E+04 0.  0.
        5    1    3    3  502    0  0.33335189702E+03  0.11778281157E+04 -0.14151154716E+04  0.18710896411E+04  0.46999998093E+01 0. -1.
       -5    1    3    3    0  502 -0.33335189702E+03 -0.11778281157E+04  0.22384299105E+03  0.12443995869E+04  0.46999998093E+01 0.  1.
</event>
<event>
 5   0  0.7621125E-07  0.2904025E+04  0.7818609E-02  0.8271681E-01
        3   -1    0    0  501    0  0.00000000000E+00  0.00000000000E+00  0.11590894553E+04  0.11590894597E+04  0.10100000352E+00 0. -1.
       -3   -1    0    0    0  501  0.00000000000E+00  0.00000000000E+00 -0.18189621465E+04  0.18189621493E+04  0.10100000352E+00 0.  1.
    10030    2    1    2    0    0  0.00000000000E+00  0.00000000000E+00 -0.65987269113E+03  0.29780516090E+04  0.29040246930E+04 0.  0.
        5    1    3    3  502    0 -0.13684598928E+04 -0.20656387946E+02 -0.82728221245E+03  0.15992270363E+04  0.46999998093E+01 0.  1.
       -5    1    3    3    0  502  0.13684598928E+04  0.20656387946E+02  0.16740952132E+03  0.13788245727E+04  0.46999998093E+01 0. -1.
</event>
<event>
 5   0  0.2378690E-06  0.2900840E+04  0.7818609E-02  0.8272628E-01
        2   -1    0    0  501    0  0.00000000000E+00  0.00000000000E+00  0.14284013959E+04  0.14284013959E+04  0.25500000920E-02 0. -1.
       -2   -1    0    0    0  501  0.00000000000E+00  0.00000000000E+00 -0.14727775946E+04  0.14727775946E+04  0.25500000920E-02 0.  1.
    10030    2    1    2    0    0  0.00000000000E+00  0.00000000000E+00 -0.44376198680E+02  0.29011789905E+04  0.29008395833E+04 0.  0.
        3    1    3    3  502    0  0.13715507923E+04  0.23555024513E+03  0.38661646078E+03  0.14443364538E+04  0.10100000352E+00 0. -1.
       -3    1    3    3    0  502 -0.13715507923E+04 -0.23555024513E+03 -0.43099265946E+03  0.14568425367E+04  0.10100000352E+00 0.  1.
</event>
<event>
 5   0  0.2360103E-06  0.2916260E+04  0.7818609E-02  0.8268056E-01
        2   -1    0    0  501    0  0.00000000000E+00  0.00000000000E+00  0.12589073856E+04  0.12589073856E+04  0.25500000920E-02 0. -1.
       -2   -1    0    0    0  501  0.00000000000E+00  0.00000000000E+00 -0.16888800698E+04  0.16888800698E+04  0.25500000920E-02 0.  1.
    10030    2    1    2    0    0  0.00000000000E+00  0.00000000000E+00 -0.42997268429E+03  0.29477874554E+04  0.29162603404E+04 0.  0.
        4    1    3    3  502    0  0.63172017530E+02  0.62730097888E+03  0.11140068353E+04  0.12800429930E+04  0.12699999809E+01 0. -1.
       -4    1    3    3    0  502 -0.63172017530E+02 -0.62730097888E+03 -0.15439795196E+04  0.16677444624E+04  0.12699999809E+01 0.  1.
</event>
<event>
 5   0  0.2360103E-06  0.2926580E+04  0.7818609E-02  0.8265013E-01
       -2   -1    0    0    0  501  0.00000000000E+00  0.00000000000E+00  0.21683454973E+04  0.21683454973E+04  0.25500000920E-02 0. -1.
        2   -1    0    0  501    0  0.00000000000E+00  0.00000000000E+00 -0.98748891010E+03  0.98748891011E+03  0.25500000920E-02 0.  1.
    10030    2    1    2    0    0  0.00000000000E+00  0.00000000000E+00  0.11808565872E+04  0.31558344074E+04  0.29265796636E+04 0.  0.
        4    1    3    3  502    0 -0.49326872463E+03  0.11100025059E+04 -0.28945368265E+03  0.12486811623E+04  0.12699999809E+01 0.  1.
       -4    1    3    3    0  502  0.49326872463E+03 -0.11100025059E+04  0.14703102698E+04  0.19071532451E+04  0.12699999809E+01 0. -1.
</event>
<event>
 5   0  0.8357118E-07  0.2898558E+04  0.7818609E-02  0.8273307E-01
       -1   -1    0    0    0  501  0.00000000000E+00  0.00000000000E+00  0.93488483432E+03  0.93488483433E+03  0.50400001928E-02 0. -1.
        1   -1    0    0  501    0  0.00000000000E+00  0.00000000000E+00 -0.22467048225E+04  0.22467048226E+04  0.50400001928E-02 0.  1.
    10030    2    1    2    0    0  0.00000000000E+00  0.00000000000E+00 -0.13118199882E+04  0.31815896569E+04  0.28985584457E+04 0.  0.
        1    1    3    3  502    0 -0.11489023955E+04  0.66141632022E+03 -0.12987236698E+04  0.18558371247E+04  0.50400001928E-02 0.  1.
       -1    1    3    3    0  502  0.11489023955E+04 -0.66141632022E+03 -0.13096318420E+02  0.13257525322E+04  0.50400001928E-02 0. -1.
</event>
<event>
 5   0  0.8263673E-07  0.3065418E+04  0.7818609E-02  0.8225293E-01
        1   -1    0    0  501    0  0.00000000000E+00  0.00000000000E+00  0.18152143078E+04  0.18152143078E+04  0.50400001928E-02 0. -1.
       -1   -1    0    0    0  501  0.00000000000E+00  0.00000000000E+00 -0.12941702894E+04  0.12941702894E+04  0.50400001928E-02 0.  1.
    10030    2    1    2    0    0  0.00000000000E+00  0.00000000000E+00  0.52104401841E+03  0.31093845972E+04  0.30654177047E+04 0.  0.
        5    1    3    3  502    0 -0.15185067899E+04 -0.14962084239E+03  0.11379224263E+03  0.15301045820E+04  0.46999998093E+01 0. -1.
       -5    1    3    3    0  502  0.15185067899E+04  0.14962084239E+03  0.40725177578E+03  0.15792800152E+04  0.46999998093E+01 0.  1.
</event>
<event>
 5   0  0.8947674E-07  0.2902850E+04  0.7818609E-02  0.8272030E-01
        1   -1    0    0  501    0  0.00000000000E+00  0.00000000000E+00  0.13510472356E+04  0.13510472357E+04  0.50400001928E-02 0.  1.
       -1   -1    0    0    0  501  0.00000000000E+00  0.00000000000E+00 -0.15592600124E+04  0.15592600124E+04  0.50400001928E-02 0. -1.
    10030    2    1    2    0    0  0.00000000000E+00  0.00000000000E+00 -0.20821277677E+03  0.29103072481E+04  0.29028495858E+04 0.  0.
        3    1    3    3  502    0 -0.25390617928E+03 -0.14128180900E+02  0.13285385098E+04  0.13526575826E+04  0.10100000352E+00 0.  1.
       -3    1    3    3    0  502  0.25390617928E+03  0.14128180900E+02 -0.15367512866E+04  0.15576496655E+04  0.10100000352E+00 0. -1.
</event>
<event>
 5   0  0.2304435E-06  0.2889055E+04  0.7818609E-02  0.8276141E-01
        2   -1    0    0  501    0  0.00000000000E+00  0.00000000000E+00  0.10696597870E+04  0.10696597870E+04  0.25500000920E-02 0.  1.
       -2   -1    0    0    0  501  0.00000000000E+00  0.00000000000E+00 -0.19507692371E+04  0.19507692371E+04  0.25500000920E-02 0. -1.
    10030    2    1    2    0    0  0.00000000000E+00  0.00000000000E+00 -0.88110945008E+03  0.30204290241E+04  0.28890547982E+04 0.  0.
        1    1    3    3  502    0 -0.33303762235E+03 -0.13524372183E+04 -0.40179592111E+02  0.13934184177E+04  0.50400001928E-02 0.  1.
       -1    1    3    3    0  502  0.33303762235E+03  0.13524372183E+04 -0.84092985797E+03  0.16270106064E+04  0.50400001928E-02 0. -1.
</event>
<event>
 5   0  0.8355946E-07  0.2895409E+04  0.7818609E-02  0.8274245E-01
       -1   -1    0    0    0  501  0.00000000000E+00  0.00000000000E+00  0.17275700784E+04  0.17275700784E+04  0.50400001928E-02 0. -1.
        1   -1    0    0  501    0  0.00000000000E+00  0.00000000000E+00 -0.12131771627E+04  0.12131771627E+04  0.50400001928E-02 0.  1.
    10030    2    1    2    0    0  0.00000000000E+00  0.00000000000E+00  0.51439291575E+03  0.29407472411E+04  0.28954091704E+04 0.  0.
        4    1    3    3  502    0 -0.27052590826E+03  0.10083079842E+04  0.12758861894E+04  0.16485619306E+04  0.12699999809E+01 0. -1.
       -4    1    3    3    0  502  0.27052590826E+03 -0.10083079842E+04 -0.76149327361E+03  0.12921853105E+04  0.12699999809E+01 0.  1.
</event>
<event>
 5   0  0.2378690E-06  0.2905461E+04  0.7818609E-02  0.8271254E-01
       -2   -1    0    0    0  501  0.00000000000E+00  0.00000000000E+00  0.98806033195E+03  0.98806033196E+03  0.25500000920E-02 0. -1.
        2   -1    0    0  501    0  0.00000000000E+00  0.00000000000E+00 -0.21359288453E+04  0.21359288453E+04  0.25500000920E-02 0.  1.
    10030    2    1    2    0    0  0.00000000000E+00  0.00000000000E+00 -0.11478685133E+04  0.31239891772E+04  0.29054614531E+04 0.  0.
        3    1    3    3  502    0 -0.22486577130E+03  0.95374862106E+03 -0.17270845122E+04  0.19857044014E+04  0.10100000352E+00 0.  1.
       -3    1    3    3    0  502  0.22486577130E+03 -0.95374862106E+03  0.57921599889E+03  0.11382847758E+04  0.10100000352E+00 0. -1.
</event>
<event>
 5   0  0.8263673E-07  0.2895627E+04  0.7818609E-02  0.8274180E-01
        1   -1    0    0  501    0  0.00000000000E+00  0.00000000000E+00  0.25266918219E+04  0.25266918219E+04  0.50400001928E-02 0. -1.
       -1   -1    0    0    0  501  0.00000000000E+00  0.00000000000E+00 -0.82960831192E+03  0.82960831193E+03  0.50400001928E-02 0.  1.
    10030    2    1    2    0    0  0.00000000000E+00  0.00000000000E+00  0.16970835099E+04  0.33563001338E+04  0.28956274188E+04 0.  0.
        5    1    3    3  502    0  0.19906129221E+03  0.77496886632E+02  0.25083166503E+04  0.25174005787E+04  0.46999998093E+01 0. -1.
       -5    1    3    3    0  502 -0.19906129221E+03 -0.77496886632E+02 -0.81123314036E+03  0.83889955508E+03  0.46999998093E+01 0.  1.
</event>
<event>
 5   0  0.2378690E-06  0.2900701E+04  0.7818609E-02  0.8272669E-01
        2   -1    0    0  501    0  0.00000000000E+00  0.00000000000E+00  0.13967064299E+04  0.13967064299E+04  0.25500000920E-02 0. -1.
       -2   -1    0    0    0  501  0.00000000000E+00  0.00000000000E+00 -0.15060548736E+04  0.15060548736E+04  0.25500000920E-02 0.  1.
    10030    2    1    2    0    0  0.00000000000E+00  0.00000000000E+00 -0.10934844366E+03  0.29027613035E+04  0.29007009675E+04 0.  0.
        3    1    3    3  502    0 -0.59307263085E+03 -0.81982220129E+03  0.98513693058E+03  0.14122104551E+04  0.10100000352E+00 0. -1.
       -3    1    3    3    0  502  0.59307263085E+03  0.81982220129E+03 -0.10944853742E+04  0.14905508484E+04  0.10100000352E+00 0.  1.
</event>
<event>
 5   0  0.2304435E-06  0.2897250E+04  0.7818609E-02  0.8273696E-01
        2   -1    0    0  501    0  0.00000000000E+00  0.00000000000E+00  0.27172197654E+04  0.27172197654E+04  0.25500000920E-02 0. -1.
       -2   -1    0    0    0  501  0.00000000000E+00  0.00000000000E+00 -0.77230229662E+03  0.77230229663E+03  0.25500000920E-02 0.  1.
    10030    2    1    2    0    0  0.00000000000E+00  0.00000000000E+00  0.19449174688E+04  0.34895220621E+04  0.28972504657E+04 0.  0.
        1    1    3    3  502    0  0.36907146031E+03  0.12661286795E+03 -0.70782068312E+03  0.80824172165E+03  0.50400001928E-02 0.  1.
       -1    1    3    3    0  502 -0.36907146031E+03 -0.12661286795E+03  0.26527381519E+04  0.26812803404E+04  0.50400001928E-02 0. -1.
</event>
<event>
 5   0  0.8263673E-07  0.2901350E+04  0.7818609E-02  0.8272476E-01
       -1   -1    0    0    0  501  0.00000000000E+00  0.00000000000E+00  0.11223815522E+04  0.11223815522E+04  0.50400001928E-02 0. -1.
        1   -1    0    0  501    0  0.00000000000E+00  0.00000000000E+00 -0.18749938810E+04  0.18749938810E+04  0.50400001928E-02 0.  1.
    10030    2    1    2    0    0  0.00000000000E+00  0.00000000000E+00 -0.75261232884E+03  0.29973754332E+04  0.29013504045E+04 0.  0.
        5    1    3    3  502    0 -0.46323029566E+03  0.94878650450E+03  0.65143463920E+03  0.12406318217E+04  0.46999998093E+01 0. -1.
       -5    1    3    3    0  502  0.46323029566E+03 -0.94878650450E+03 -0.14040469680E+04  0.17567436115E+04  0.46999998093E+01 0.  1.
</event>
<event>
 5   0  0.8483636E-07  0.2866990E+04  0.7818609E-02  0.8282767E-01
       -1   -1    0    0    0  501  0.00000000000E+00  0.00000000000E+00  0.14013758394E+04  0.14013758394E+04  0.50400001928E-02 0. -1.
        1   -1    0    0  501    0  0.00000000000E+00  0.00000000000E+00 -0.14663501565E+04  0.14663501565E+04  0.50400001928E-02 0.  1.
    10030    2    1    2    0    0  0.00000000000E+00  0.00000000000E+00 -0.64974317080E+02  0.28677259958E+04  0.28669898370E+04 0.  0.
        2    1    3    3  502    0 -0.70614481761E+03  0.12461976007E+04  0.24612681405E+02  0.14325692819E+04  0.25500000920E-02 0. -1.
       -2    1    3    3    0  502  0.70614481761E+03 -0.12461976007E+04 -0.89586998485E+02  0.14351567140E+04  0.25500000920E-02 0.  1.
</event>
<event>
 5   0  0.2425845E-06  0.2893055E+04  0.7818609E-02  0.8274947E-01
        2   -1    0    0  501    0  0.00000000000E+00  0.00000000000E+00  0.72229251011E+03  0.72229251011E+03  0.25500000920E-02 0. -1.
       -2   -1    0    0    0  501  0.00000000000E+00  0.00000000000E+00 -0.28969455871E+04  0.28969455871E+04  0.25500000920E-02 0.  1.
    10030    2    1    2    0    0  0.00000000000E+00  0.00000000000E+00 -0.21746530770E+04  0.36192380972E+04  0.28930552015E+04 0.  0.
        2    1    3    3  502    0 -0.15499107441E+03  0.40034619518E+03  0.64076152277E+03  0.77128116677E+03  0.25500000920E-02 0. -1.
       -2    1    3    3    0  502  0.15499107441E+03 -0.40034619518E+03 -0.28154145998E+04  0.28479569305E+04  0.25500000920E-02 0.  1.
</event>
<event>
 5   0  0.2425845E-06  0.2856120E+04  0.7818609E-02  0.8286054E-01
       -2   -1    0    0    0  501  0.00000000000E+00  0.00000000000E+00  0.19794861024E+04  0.19794861024E+04  0.25500000920E-02 0. -1.
        2   -1    0    0  501    0  0.00000000000E+00  0.00000000000E+00 -0.10302450512E+04  0.10302450512E+04  0.25500000920E-02 0.  1.
    10030    2    1    2    0    0  0.00000000000E+00  0.00000000000E+00  0.94924105118E+03  0.30097311535E+04  0.28561202782E+04 0.  0.
        2    1    3    3  502    0  0.75697184871E+03  0.10622369529E+04 -0.13802726239E+03  0.13116421955E+04  0.25500000920E-02 0.  1.
       -2    1    3    3    0  502 -0.75697184871E+03 -0.10622369529E+04  0.10872683136E+04  0.16980889581E+04  0.25500000920E-02 0. -1.
</event>
<event>
 5   0  0.8947674E-07  0.2894044E+04  0.7818609E-02  0.8274652E-01
       -1   -1    0    0    0  501  0.00000000000E+00  0.00000000000E+00  0.10817705696E+04  0.10817705696E+04  0.50400001928E-02 0. -1.
        1   -1    0    0  501    0  0.00000000000E+00  0.00000000000E+00 -0.19355970756E+04  0.19355970756E+04  0.50400001928E-02 0.  1.
    10030    2    1    2    0    0  0.00000000000E+00  0.00000000000E+00 -0.85382650603E+03  0.30173676451E+04  0.28940435041E+04 0.  0.
        3    1    3    3  502    0 -0.37619417037E+03  0.11585619742E+04  0.38744969413E+03  0.12782430041E+04  0.10100000352E+00 0. -1.
       -3    1    3    3    0  502  0.37619417037E+03 -0.11585619742E+04 -0.12412762002E+04  0.17391246411E+04  0.10100000352E+00 0.  1.
</event>
<event>
 5   0  0.8483636E-07  0.2865746E+04  0.7818609E-02  0.8283143E-01
        1   -1    0    0  501    0  0.00000000000E+00  0.00000000000E+00  0.24312077623E+04  0.24312077623E+04  0.50400001928E-02 0.  1.
       -1   -1    0    0    0  501  0.00000000000E+00  0.00000000000E+00 -0.84448782977E+03  0.84448782979E+03  0.50400001928E-02 0. -1.
    10030    2    1    2    0    0  0.00000000000E+00  0.00000000000E+00  0.15867199325E+04  0.32756955921E+04  0.28657462323E+04 0.  0.
        2    1    3    3  502    0 -0.16136129572E+03  0.43413814030E+03  0.23432855548E+04  0.23886189700E+04  0.25500000920E-02 0.  1.
       -2    1    3    3    0  502  0.16136129572E+03 -0.43413814030E+03 -0.75656562227E+03  0.88707662207E+03  0.25500000920E-02 0. -1.
</event>
<event>
 5   0  0.2304435E-06  0.2903253E+04  0.7818609E-02  0.8271910E-01
       -2   -1    0    0    0  501  0.00000000000E+00  0.00000000000E+00  0.83081928658E+03  0.83081928658E+03  0.25500000920E-02 0.  1.
        2   -1    0    0  501    0  0.00000000000E+00  0.00000000000E+00 -0.25363146346E+04  0.25363146346E+04  0.25500000920E-02 0. -1.
    10030    2    1    2    0    0  0.00000000000E+00  0.00000000000E+00 -0.17054953481E+04  0.33671339212E+04  0.29032527381E+04 0.  0.
        1    1    3    3  502    0 -0.99833890523E+03  0.27239890527E+03 -0.20334111478E+04  0.22815877430E+04  0.50400001928E-02 0. -1.
       -1    1    3    3    0  502  0.99833890523E+03 -0.27239890527E+03  0.32791579970E+03  0.10855461782E+04  0.50400001928E-02 0.  1.
</event>
<event>
 5   0  0.8355946E-07  0.2925229E+04  0.7818609E-02  0.8265410E-01
        1   -1    0    0  501    0  0.00000000000E+00  0.00000000000E+00  0.18154914342E+04  0.18154914342E+04  0.50400001928E-02 0.  1.
       -1   -1    0    0    0  501  0.00000000000E+00  0.00000000000E+00 -0.11783265380E+04  0.11783265380E+04  0.50400001928E-02 0. -1.
    10030    2    1    2    0    0  0.00000000000E+00  0.00000000000E+00  0.63716489619E+03  0.29938179722E+04  0.29252293834E+04 0.  0.
        4    1    3    3  502    0  0.13088472912E+04  0.63032517985E+03  0.49241507544E+03  0.15339052394E+04  0.12699999809E+01 0.  1.
       -4    1    3    3    0  502 -0.13088472912E+04 -0.63032517985E+03  0.14474982076E+03  0.14599127328E+04  0.12699999809E+01 0. -1.
</event>
<event>
 5   0  0.2304435E-06  0.2888832E+04  0.7818609E-02  0.8276208E-01
        2   -1    0    0  501    0  0.00000000000E+00  0.00000000000E+00  0.20566042267E+04  0.20566042267E+04  0.25500000920E-02 0.  1.
       -2   -1    0    0    0  501  0.00000000000E+00  0.00000000000E+00 -0.10144573871E+04  0.10144573871E+04  0.25500000920E-02 0. -1.
    10030    2    1    2    0    0  0.00000000000E+00  0.00000000000E+00  0.10421468396E+04  0.30710616137E+04  0.28888318401E+04 0.  0.
        1    1    3    3  502    0  0.48192612449E+03 -0.10336181163E+04  0.14633961352E+04  0.18553025221E+04  0.50400001928E-02 0.  1.
       -1    1    3    3    0  502 -0.48192612449E+03  0.10336181163E+04 -0.42124929559E+03  0.12157590917E+04  0.50400001928E-02 0. -1.
</event>
<event>
 5   0  0.8357118E-07  0.2889665E+04  0.7818609E-02  0.8275959E-01
       -1   -1    0    0    0  501  0.00000000000E+00  0.00000000000E+00  0.95896534761E+03  0.95896534762E+03  0.50400001928E-02 0.  1.
        1   -1    0    0  501    0  0.00000000000E+00  0.00000000000E+00 -0.21768680902E+04  0.21768680902E+04  0.50400001928E-02 0. -1.
    10030    2    1    2    0    0  0.00000000000E+00  0.00000000000E+00 -0.12179027426E+04  0.31358334379E+04  0.28896650774E+04 0.  0.
        1    1    3    3  502    0  0.38664596419E+03 -0.11938640016E+04  0.16810376620E+03  0.12661221237E+04  0.50400001928E-02 0.  1.
       -1    1    3    3    0  502 -0.38664596419E+03  0.11938640016E+04 -0.13860065088E+04  0.18697113142E+04  0.50400001928E-02 0. -1.
</event>
<event>
 5   0  0.2360103E-06  0.2899627E+04  0.7818609E-02  0.8272988E-01
       -2   -1    0    0    0  501  0.00000000000E+00  0.00000000000E+00  0.16550474504E+04  0.16550474504E+04  0.25500000920E-02 0.  1.
        2   -1    0    0  501    0  0.00000000000E+00  0.00000000000E+00 -0.12700299656E+04  0.12700299656E+04  0.25500000920E-02 0. -1.
    10030    2    1    2    0    0  0.00000000000E+00  0.00000000000E+00  0.38501748479E+03  0.29250774160E+04  0.28996274633E+04 0.  0.
        4    1    3    3  502    0 -0.10768017417E+04 -0.24800116328E+03 -0.75431949900E+03  0.13379110910E+04  0.12699999809E+01 0. -1.
       -4    1    3    3    0  502  0.10768017417E+04  0.24800116328E+03  0.11393369838E+04  0.15871663251E+04  0.12699999809E+01 0.  1.
</event>
<event>
 5   0  0.7621125E-07  0.2901173E+04  0.7818609E-02  0.8272529E-01
       -3   -1    0    0    0  501  0.00000000000E+00  0.00000000000E+00  0.21788874643E+04  0.21788874667E+04  0.10100000352E+00 0.  1.
        3   -1    0    0  501    0  0.00000000000E+00  0.00000000000E+00 -0.96572281094E+03  0.96572281622E+03  0.10100000352E+00 0. -1.
    10030    2    1    2    0    0  0.00000000000E+00  0.00000000000E+00  0.12131646534E+04  0.31446102829E+04  0.29011730998E+04 0.  0.
        5    1    3    3  502    0  0.82541318102E+03 -0.11803765859E+04  0.42015157093E+03  0.15003816969E+04  0.46999998093E+01 0.  1.
       -5    1    3    3    0  502 -0.82541318102E+03  0.11803765859E+04  0.79301308246E+03  0.16442285860E+04  0.46999998093E+01 0. -1.
</event>
<event>
 5   0  0.2378690E-06  0.2908356E+04  0.7818609E-02  0.8270396E-01
       -2   -1    0    0    0  501  0.00000000000E+00  0.00000000000E+00  0.14237247952E+04  0.14237247952E+04  0.25500000920E-02 0. -1.
        2   -1    0    0  501    0  0.00000000000E+00  0.00000000000E+00 -0.14852830995E+04  0.14852830995E+04  0.25500000920E-02 0.  1.
    10030    2    1    2    0    0  0.00000000000E+00  0.00000000000E+00 -0.61558304300E+02  0.29090078947E+04  0.29083564958E+04 0.  0.
        3    1    3    3  502    0 -0.32062789501E+03  0.28413778646E+03  0.13591715555E+04  0.14250908238E+04  0.10100000352E+00 0. -1.
       -3    1    3    3    0  502  0.32062789501E+03 -0.28413778646E+03 -0.14207298598E+04  0.14839170709E+04  0.10100000352E+00 0.  1.
</event>
<event>
 5   0  0.2425845E-06  0.2900704E+04  0.7818609E-02  0.8272668E-01
        2   -1    0    0  501    0  0.00000000000E+00  0.00000000000E+00  0.21909540307E+04  0.21909540307E+04  0.25500000920E-02 0.  1.
       -2   -1    0    0    0  501  0.00000000000E+00  0.00000000000E+00 -0.96009359605E+03  0.96009359606E+03  0.25500000920E-02 0. -1.
    10030    2    1    2    0    0  0.00000000000E+00  0.00000000000E+00  0.12308604346E+04  0.31510476267E+04  0.29007040070E+04 0.  0.
        2    1    3    3  502    0 -0.80619339980E+03  0.11918067825E+04  0.41758638429E+03  0.14982421677E+04  0.25500000920E-02 0.  1.
       -2    1    3    3    0  502  0.80619339980E+03 -0.11918067825E+04  0.81327405034E+03  0.16528054591E+04  0.25500000920E-02 0. -1.
</event>
<event>
 5   0  0.2304435E-06  0.2925031E+04  0.7818609E-02  0.8265469E-01
       -2   -1    0    0    0  501  0.00000000000E+00  0.00000000000E+00  0.23357652342E+04  0.23357652342E+04  0.25500000920E-02 0. -1.
        2   -1    0    0  501    0  0.00000000000E+00  0.00000000000E+00 -0.91573931325E+03  0.91573931326E+03  0.25500000920E-02 0.  1.
    10030    2    1    2    0    0  0.00000000000E+00  0.00000000000E+00  0.14200259210E+04  0.32515045475E+04  0.29250313171E+04 0.  0.
        1    1    3    3  502    0 -0.78877585415E+03 -0.21209494226E+03 -0.63857199206E+03  0.10367862854E+04  0.50400001928E-02 0.  1.
       -1    1    3    3    0  502  0.78877585415E+03  0.21209494226E+03  0.20585979131E+04  0.22147182621E+04  0.50400001928E-02 0. -1.
</event>
<event>
 5   0  0.8355946E-07  0.2884445E+04  0.7818609E-02  0.8277521E-01
       -1   -1    0    0    0  501  0.00000000000E+00  0.00000000000E+00  0.13290841351E+04  0.13290841351E+04  0.50400001928E-02 0.  1.
        1   -1    0    0  501    0  0.00000000000E+00  0.00000000000E+00 -0.15649912327E+04  0.15649912327E+04  0.50400001928E-02 0. -1.
    10030    2    1    2    0    0  0.00000000000E+00  0.00000000000E+00 -0.23590709754E+03  0.28940753678E+04  0.28844445004E+04 0.  0.
        4    1    3    3  502    0 -0.10663741591E+04  0.25529500556E+03  0.82201705309E+03  0.13704171028E+04  0.12699999809E+01 0.  1.
       -4    1    3    3    0  502  0.10663741591E+04 -0.25529500556E+03 -0.10579241506E+04  0.15236582650E+04  0.12699999809E+01 0. -1.
</event>
<event>
 5   0  0.2425845E-06  0.2898131E+04  0.7818609E-02  0.8273434E-01
        2   -1    0    0  501    0  0.00000000000E+00  0.00000000000E+00  0.16613161318E+04  0.16613161318E+04  0.25500000920E-02 0. -1.
       -2   -1    0    0    0  501  0.00000000000E+00  0.00000000000E+00 -0.12639320917E+04  0.12639320917E+04  0.25500000920E-02 0.  1.
    10030    2    1    2    0    0  0.00000000000E+00  0.00000000000E+00  0.39738404014E+03  0.29252482235E+04  0.28981309656E+04 0.  0.
        2    1    3    3  502    0 -0.48722290524E+03  0.54421407202E+02  0.15750650157E+04  0.16495992400E+04  0.25500000920E-02 0. -1.
       -2    1    3    3    0  502  0.48722290524E+03 -0.54421407202E+02 -0.11776809756E+04  0.12756489835E+04  0.25500000920E-02 0.  1.
</event>
<event>
 5   0  0.8263673E-07  0.2879799E+04  0.7818609E-02  0.8278913E-01
        1   -1    0    0  501    0  0.00000000000E+00  0.00000000000E+00  0.14777212432E+04  0.14777212432E+04  0.50400001928E-02 0.  1.
       -1   -1    0    0    0  501  0.00000000000E+00  0.00000000000E+00 -0.14030460442E+04  0.14030460442E+04  0.50400001928E-02 0. -1.
    10030    2    1    2    0    0  0.00000000000E+00  0.00000000000E+00  0.74675198996E+02  0.28807672874E+04  0.28797992601E+04 0.  0.
        5    1    3    3  502    0 -0.13014644759E+04  0.54428963767E+03 -0.25125177211E+03  0.14329028351E+04  0.46999998093E+01 0.  1.
       -5    1    3    3    0  502  0.13014644759E+04 -0.54428963767E+03  0.32592697110E+03  0.14478644523E+04  0.46999998093E+01 0. -1.
</event>
<event>
 5   0  0.8355946E-07  0.2892372E+04  0.7818609E-02  0.8275151E-01
        1   -1    0    0  501    0  0.00000000000E+00  0.00000000000E+00  0.13156529000E+04  0.13156529000E+04  0.50400001928E-02 0.  1.
       -1   -1    0    0    0  501  0.00000000000E+00  0.00000000000E+00 -0.15896702114E+04  0.15896702114E+04  0.50400001928E-02 0. -1.
    10030    2    1    2    0    0  0.00000000000E+00  0.00000000000E+00 -0.27401731144E+03  0.29053231114E+04  0.28923721916E+04 0.  0.
        4    1    3    3  502    0  0.13573910841E+04  0.48696773372E+03 -0.24614357339E+03  0.14629546817E+04  0.12699999809E+01 0. -1.
       -4    1    3    3    0  502 -0.13573910841E+04 -0.48696773372E+03 -0.27873738056E+02  0.14423684298E+04  0.12699999809E+01 0.  1.
</event>
<event>
 5   0  0.8483636E-07  0.2898416E+04  0.7818609E-02  0.8273349E-01
        1   -1    0    0  501    0  0.00000000000E+00  0.00000000000E+00  0.12408797532E+04  0.12408797532E+04  0.50400001928E-02 0.  1.
       -1   -1    0    0    0  501  0.00000000000E+00  0.00000000000E+00 -0.16925118534E+04  0.16925118534E+04  0.50400001928E-02 0. -1.
    10030    2    1    2    0    0  0.00000000000E+00  0.00000000000E+00 -0.45163210026E+03  0.29333916066E+04  0.28984159059E+04 0.  0.
        2    1    3    3  502    0  0.85387702262E+03 -0.10725549089E+04 -0.70129775725E+03  0.15399021224E+04  0.25500000920E-02 0.  1.
       -2    1    3    3    0  502 -0.85387702262E+03  0.10725549089E+04  0.24966565699E+03  0.13934894842E+04  0.25500000920E-02 0. -1.
</event>
<event>
 5   0  0.8263673E-07  0.2895886E+04  0.7818609E-02  0.8274103E-01
       -1   -1    0    0    0  501  0.00000000000E+00  0.00000000000E+00  0.11374614779E+04  0.11374614779E+04  0.50400001928E-02 0.  1.
        1   -1    0    0  501    0  0.00000000000E+00  0.00000000000E+00 -0.18431736556E+04  0.18431736556E+04  0.50400001928E-02 0. -1.
    10030    2    1    2    0    0  0.00000000000E+00  0.00000000000E+00 -0.70571217772E+03  0.29806351336E+04  0.28958860685E+04 0.  0.
        5    1    3    3  502    0 -0.11141330708E+03  0.67866169879E+03 -0.16643203972E+04  0.18008273379E+04  0.46999998093E+01 0. -1.
       -5    1    3    3    0  502  0.11141330708E+03 -0.67866169879E+03  0.95860821945E+03  0.11798077957E+04  0.46999998093E+01 0.  1.
</event>
<event>
 5   0  0.2378690E-06  0.3059398E+04  0.7818609E-02  0.8226970E-01
        2   -1    0    0  501    0  0.00000000000E+00  0.00000000000E+00  0.14810236545E+04  0.14810236545E+04  0.25500000920E-02 0. -1.
       -2   -1    0    0    0  501  0.00000000000E+00  0.00000000000E+00 -0.15799745625E+04  0.15799745625E+04  0.25500000920E-02 0.  1.
    10030    2    1    2    0    0  0.00000000000E+00  0.00000000000E+00 -0.98950908002E+02  0.30609982171E+04  0.30593984380E+04 0.  0.
        3    1    3    3  502    0 -0.51277849227E+03 -0.84679699411E+03  0.11173130478E+04  0.14927810919E+04  0.10100000352E+00 0. -1.
       -3    1    3    3    0  502  0.51277849227E+03  0.84679699411E+03 -0.12162639558E+04  0.15682171252E+04  0.10100000352E+00 0.  1.
</event>
<event>
 5   0  0.2360103E-06  0.2897345E+04  0.7818609E-02  0.8273668E-01
        2   -1    0    0  501    0  0.00000000000E+00  0.00000000000E+00  0.19666092020E+04  0.19666092020E+04  0.25500000920E-02 0. -1.
       -2   -1    0    0    0  501  0.00000000000E+00  0.00000000000E+00 -0.10671420066E+04  0.10671420066E+04  0.25500000920E-02 0.  1.
    10030    2    1    2    0    0  0.00000000000E+00  0.00000000000E+00  0.89946719549E+03  0.30337512086E+04  0.28973445014E+04 0.  0.
        4    1    3    3  502    0  0.18922899094E+03  0.66750059711E+03  0.17813315150E+04  0.19116768131E+04  0.12699999809E+01 0. -1.
       -4    1    3    3    0  502 -0.18922899094E+03 -0.66750059711E+03 -0.88186431956E+03  0.11220743956E+04  0.12699999809E+01 0.  1.
</event>
<event>
 5   0  0.2325590E-06  0.2786643E+04  0.7818609E-02  0.8307427E-01
        2   -1    0    0  501    0  0.00000000000E+00  0.00000000000E+00  0.11711838583E+04  0.11711838583E+04  0.25500000920E-02 0. -1.
       -2   -1    0    0    0  501  0.00000000000E+00  0.00000000000E+00 -0.16575921854E+04  0.16575921854E+04  0.25500000920E-02 0.  1.
    10030    2    1    2    0    0  0.00000000000E+00  0.00000000000E+00 -0.48640832712E+03  0.28287760437E+04  0.27866432934E+04 0.  0.
        5    1    3    3  502    0  0.99261516839E+02 -0.63052856330E+02 -0.16525376512E+04  0.16567230577E+04  0.46999998093E+01 0.  1.
       -5    1    3    3    0  502 -0.99261516839E+02  0.63052856330E+02  0.11661293241E+04  0.11720529859E+04  0.46999998093E+01 0. -1.
</event>
<event>
 5   0  0.8483636E-07  0.2898209E+04  0.7818609E-02  0.8273411E-01
        1   -1    0    0  501    0  0.00000000000E+00  0.00000000000E+00  0.16975269418E+04  0.16975269418E+04  0.50400001928E-02 0.  1.
       -1   -1    0    0    0  501  0.00000000000E+00  0.00000000000E+00 -0.12370368035E+04  0.12370368035E+04  0.50400001928E-02 0. -1.
    10030    2    1    2    0    0  0.00000000000E+00  0.00000000000E+00  0.46049013832E+03  0.29345637453E+04  0.28982086204E+04 0.  0.
        2    1    3    3  502    0  0.75921189942E+03 -0.72010811949E+03  0.12452894398E+04  0.16265620803E+04  0.25500000920E-02 0.  1.
       -2    1    3    3    0  502 -0.75921189942E+03  0.72010811949E+03 -0.78479930150E+03  0.13080016650E+04  0.25500000920E-02 0. -1.
</event>
<event>
 5   0  0.8483636E-07  0.2898472E+04  0.7818609E-02  0.8273332E-01
       -1   -1    0    0    0  501  0.00000000000E+00  0.00000000000E+00  0.84409614650E+03  0.84409614652E+03  0.50400001928E-02 0.  1.
        1   -1    0    0  501    0  0.00000000000E+00  0.00000000000E+00 -0.24882063340E+04  0.24882063340E+04  0.50400001928E-02 0. -1.
    10030    2    1    2    0    0  0.00000000000E+00  0.00000000000E+00 -0.16441101875E+04  0.33323024805E+04  0.28984722722E+04 0.  0.
        2    1    3    3  502    0  0.10343638226E+03  0.14405881521E+04 -0.95949815439E+03  0.17339636725E+04  0.25500000920E-02 0. -1.
       -2    1    3    3    0  502 -0.10343638226E+03 -0.14405881521E+04 -0.68461203308E+03  0.15983388080E+04  0.25500000920E-02 0.  1.
</event>
<event>
 5   0  0.7621125E-07  0.2895856E+04  0.7818609E-02  0.8274111E-01
       -3   -1    0    0    0  501  0.00000000000E+00  0.00000000000E+00  0.28825611197E+04  0.28825611215E+04  0.10100000352E+00 0.  1.
        3   -1    0    0  501    0  0.00000000000E+00  0.00000000000E+00 -0.72730328792E+03  0.72730329494E+03  0.10100000352E+00 0. -1.
    10030    2    1    2    0    0  0.00000000000E+00  0.00000000000E+00  0.21552578318E+04  0.36098644164E+04  0.28958564853E+04 0.  0.
        5    1    3    3  502    0  0.36877896231E+03 -0.12341417589E+04  0.25322793352E+03  0.13127262778E+04  0.46999998093E+01 0. -1.
       -5    1    3    3    0  502 -0.36877896231E+03  0.12341417589E+04  0.19020298982E+04  0.22971381386E+04  0.46999998093E+01 0.  1.
</event>
<event>
 5   0  0.8355946E-07  0.2901188E+04  0.7818609E-02  0.8272524E-01
        1   -1    0    0  501    0  0.00000000000E+00  0.00000000000E+00  0.18318361625E+04  0.18318361626E+04  0.50400001928E-02 0.  1.
       -1   -1    0    0    0  501  0.00000000000E+00  0.00000000000E+00 -0.11486960323E+04  0.11486960323E+04  0.50400001928E-02 0. -1.
    10030    2    1    2    0    0  0.00000000000E+00  0.00000000000E+00  0.68314013028E+03  0.29805321948E+04  0.29011879854E+04 0.  0.
        4    1    3    3  502    0  0.91222103846E+03 -0.14539304461E+03  0.14906104998E+04  0.17536269944E+04  0.12699999809E+01 0.  1.
       -4    1    3    3    0  502 -0.91222103846E+03  0.14539304461E+03 -0.80747036950E+03  0.12269052005E+04  0.12699999809E+01 0. -1.
</event>
<event>
 5   0  0.8947674E-07  0.2880004E+04  0.7818609E-02  0.8278852E-01
        1   -1    0    0  501    0  0.00000000000E+00  0.00000000000E+00  0.21614016312E+04  0.21614016312E+04  0.50400001928E-02 0. -1.
       -1   -1    0    0    0  501  0.00000000000E+00  0.00000000000E+00 -0.95938032958E+03  0.95938032960E+03  0.50400001928E-02 0.  1.
    10030    2    1    2    0    0  0.00000000000E+00  0.00000000000E+00  0.12020213016E+04  0.31207819608E+04  0.28800043120E+04 0.  0.
        3    1    3    3  502    0 -0.61462882337E+03 -0.47356587822E+03 -0.71349116275E+03  0.10540886495E+04  0.10100000352E+00 0.  1.
       -3    1    3    3    0  502  0.61462882337E+03  0.47356587822E+03  0.19155124644E+04  0.20666933113E+04  0.10100000352E+00 0. -1.
</event>
<event>
 5   0  0.2360103E-06  0.2908359E+04  0.7818609E-02  0.8270395E-01
        2   -1    0    0  501    0  0.00000000000E+00  0.00000000000E+00  0.12054760000E+04  0.12054760000E+04  0.25500000920E-02 0. -1.
       -2   -1    0    0    0  501  0.00000000000E+00  0.00000000000E+00 -0.17541939053E+04  0.17541939053E+04  0.25500000920E-02 0.  1.
    10030    2    1    2    0    0  0.00000000000E+00  0.00000000000E+00 -0.54871790533E+03  0.29596699054E+04  0.29083594360E+04 0.  0.
        4    1    3    3  502    0 -0.91047189863E+03  0.51903347916E+03 -0.13002526440E+04  0.16700339463E+04  0.12699999809E+01 0.  1.
       -4    1    3    3    0  502  0.91047189863E+03 -0.51903347916E+03  0.75153473863E+03  0.12896359591E+04  0.12699999809E+01 0. -1.
</event>
<event>
 5   0  0.2325590E-06  0.2893107E+04  0.7818609E-02  0.8274931E-01
        2   -1    0    0  501    0  0.00000000000E+00  0.00000000000E+00  0.23547783585E+04  0.23547783585E+04  0.25500000920E-02 0.  1.
       -2   -1    0    0    0  501  0.00000000000E+00  0.00000000000E+00 -0.88862607696E+03  0.88862607696E+03  0.25500000920E-02 0. -1.
    10030    2    1    2    0    0  0.00000000000E+00  0.00000000000E+00  0.14661522815E+04  0.32434044354E+04  0.28931072948E+04 0.  0.
        5    1    3    3  502    0  0.34201968272E+03  0.26677404758E+03 -0.81399361162E+03  0.92236302267E+03  0.46999998093E+01 0. -1.
       -5    1    3    3    0  502 -0.34201968272E+03 -0.26677404758E+03  0.22801458931E+04  0.23210414128E+04  0.46999998093E+01 0.  1.
</event>
<event>
 5   0  0.8263673E-07  0.2917256E+04  0.7818609E-02  0.8267762E-01
       -1   -1    0    0    0  501  0.00000000000E+00  0.00000000000E+00  0.17500576293E+04  0.17500576293E+04  0.50400001928E-02 0.  1.
        1   -1    0    0  501    0  0.00000000000E+00  0.00000000000E+00 -0.12157288612E+04  0.12157288612E+04  0.50400001928E-02 0. -1.
    10030    2    1    2    0    0  0.00000000000E+00  0.00000000000E+00  0.53432876807E+03  0.29657864905E+04  0.29172559495E+04 0.  0.
        5    1    3    3  502    0 -0.59366579415E+02 -0.12198336335E+04  0.10779624087E+04  0.16289700822E+04  0.46999998093E+01 0.  1.
       -5    1    3    3    0  502  0.59366579415E+02  0.12198336335E+04 -0.54363364061E+03  0.13368164083E+04  0.46999998093E+01 0. -1.
</event>
<event>
 5   0  0.2304435E-06  0.2903461E+04  0.7818609E-02  0.8271848E-01
       -2   -1    0    0    0  501  0.00000000000E+00  0.00000000000E+00  0.11469351524E+04  0.11469351524E+04  0.25500000920E-02 0. -1.
        2   -1    0    0  501    0  0.00000000000E+00  0.00000000000E+00 -0.18375244495E+04  0.18375244495E+04  0.25500000920E-02 0.  1.
    10030    2    1    2    0    0  0.00000000000E+00  0.00000000000E+00 -0.69058929709E+03  0.29844596019E+04  0.29034609586E+04 0.  0.
        1    1    3    3  502    0  0.11844220571E+04  0.82451822478E+03 -0.18330549954E+03  0.14547463073E+04  0.50400001928E-02 0. -1.
       -1    1    3    3    0  502 -0.11844220571E+04 -0.82451822478E+03 -0.50728379755E+03  0.15297132946E+04  0.50400001928E-02 0.  1.
</event>
<event>
 5   0  0.2425845E-06  0.2903294E+04  0.7818609E-02  0.8271898E-01
       -2   -1    0    0    0  501  0.00000000000E+00  0.00000000000E+00  0.11035424602E+04  0.11035424602E+04  0.25500000920E-02 0.  1.
        2   -1    0    0  501    0  0.00000000000E+00  0.00000000000E+00 -0.19095590354E+04  0.19095590355E+04  0.25500000920E-02 0. -1.
    10030    2    1    2    0    0  0.00000000000E+00  0.00000000000E+00 -0.80601657526E+03  0.30131014956E+04  0.29032943191E+04 0.  0.
        2    1    3    3  502    0 -0.85890700602E+03 -0.49039632400E+03  0.69975695276E+03  0.12115566815E+04  0.25500000920E-02 0.  1.
       -2    1    3    3    0  502  0.85890700602E+03  0.49039632400E+03 -0.15057735280E+04  0.18015448141E+04  0.25500000920E-02 0. -1.
</event>
<event>
 5   0  0.2425845E-06  0.2902010E+04  0.7818609E-02  0.8272280E-01
       -2   -1    0    0    0  501  0.00000000000E+00  0.00000000000E+00  0.62463121567E+03  0.62463121568E+03  0.25500000920E-02 0.  1.
        2   -1    0    0  501    0  0.00000000000E+00  0.00000000000E+00 -0.33706537785E+04  0.33706537785E+04  0.25500000920E-02 0. -1.
    10030    2    1    2    0    0  0.00000000000E+00  0.00000000000E+00 -0.27460225629E+04  0.39952849942E+04  0.29020100395E+04 0.  0.
        2    1    3    3  502    0 -0.11400959449E+04 -0.80518342676E+03 -0.19189962754E+04  0.23729066183E+04  0.25500000920E-02 0. -1.
       -2    1    3    3    0  502  0.11400959449E+04  0.80518342676E+03 -0.82702628746E+03  0.16223783759E+04  0.25500000920E-02 0.  1.
</event>
<event>
 5   0  0.8355946E-07  0.2893799E+04  0.7818609E-02  0.8274725E-01
        1   -1    0    0  501    0  0.00000000000E+00  0.00000000000E+00  0.13391580664E+04  0.13391580665E+04  0.50400001928E-02 0.  1.
       -1   -1    0    0    0  501  0.00000000000E+00  0.00000000000E+00 -0.15633091014E+04  0.15633091014E+04  0.50400001928E-02 0. -1.
    10030    2    1    2    0    0  0.00000000000E+00  0.00000000000E+00 -0.22415103499E+03  0.29024671679E+04  0.28937988828E+04 0.  0.
        4    1    3    3  502    0 -0.11484446661E+04  0.59988721062E+03 -0.75799725154E+03  0.15011166720E+04  0.12699999809E+01 0. -1.
       -4    1    3    3    0  502  0.11484446661E+04 -0.59988721062E+03  0.53384621655E+03  0.14013504959E+04  0.12699999809E+01 0.  1.
</event>
<event>
 5   0  0.8357118E-07  0.2899839E+04  0.7818609E-02  0.8272925E-01
        1   -1    0    0  501    0  0.00000000000E+00  0.00000000000E+00  0.21147869272E+04  0.21147869272E+04  0.50400001928E-02 0.  1.
       -1   -1    0    0    0  501  0.00000000000E+00  0.00000000000E+00 -0.99407934048E+03  0.99407934049E+03  0.50400001928E-02 0. -1.
    10030    2    1    2    0    0  0.00000000000E+00  0.00000000000E+00  0.11207075867E+04  0.31088662677E+04  0.28998386120E+04 0.  0.
        1    1    3    3  502    0 -0.70897296148E+03 -0.54520799384E+03  0.17838303924E+04  0.19954812166E+04  0.50400001928E-02 0.  1.
       -1    1    3    3    0  502  0.70897296148E+03  0.54520799384E+03 -0.66312280570E+03  0.11133850511E+04  0.50400001928E-02 0. -1.
</event>
<event>
 5   0  0.2325590E-06  0.2838432E+04  0.7818609E-02  0.8291435E-01
       -2   -1    0    0    0  501  0.00000000000E+00  0.00000000000E+00  0.92651534760E+03  0.92651534761E+03  0.25500000920E-02 0.  1.
        2   -1    0    0  501    0  0.00000000000E+00  0.00000000000E+00 -0.21739244033E+04  0.21739244033E+04  0.25500000920E-02 0. -1.
    10030    2    1    2    0    0  0.00000000000E+00  0.00000000000E+00 -0.12474090557E+04  0.31004397509E+04  0.28384321899E+04 0.  0.
        5    1    3    3  502    0  0.47298166286E+03  0.90098009040E+03 -0.17043024341E+04  0.19849800134E+04  0.46999998093E+01 0. -1.
       -5    1    3    3    0  502 -0.47298166286E+03 -0.90098009040E+03  0.45689337843E+03  0.11154597375E+04  0.46999998093E+01 0.  1.
</event>
<event>
 5   0  0.8263673E-07  0.2868512E+04  0.7818609E-02  0.8282308E-01
       -1   -1    0    0    0  501  0.00000000000E+00  0.00000000000E+00  0.16782418375E+04  0.16782418375E+04  0.50400001928E-02 0.  1.
        1   -1    0    0  501    0  0.00000000000E+00  0.00000000000E+00 -0.12257411201E+04  0.12257411201E+04  0.50400001928E-02 0. -1.
    10030    2    1    2    0    0  0.00000000000E+00  0.00000000000E+00  0.45250071744E+03  0.29039829576E+04  0.28685118299E+04 0.  0.
        5    1    3    3  502    0  0.77957541580E+03  0.97782940128E+03 -0.48470125791E+03  0.13412104855E+04  0.46999998093E+01 0. -1.
       -5    1    3    3    0  502 -0.77957541580E+03 -0.97782940128E+03  0.93720197535E+03  0.15627724721E+04  0.46999998093E+01 0.  1.
</event>
<event>
 5   0  0.2425845E-06  0.2898962E+04  0.7818609E-02  0.8273186E-01
       -2   -1    0    0    0  501  0.00000000000E+00  0.00000000000E+00  0.22729046375E+04  0.22729046375E+04  0.25500000920E-02 0. -1.
        2   -1    0    0  501    0  0.00000000000E+00  0.00000000000E+00 -0.92436554364E+03  0.92436554364E+03  0.25500000920E-02 0.  1.
    10030    2    1    2    0    0  0.00000000000E+00  0.00000000000E+00  0.13485390939E+04  0.31972701811E+04  0.28989616975E+04 0.  0.
        2    1    3    3  502    0  0.86485446617E+03 -0.43634005284E+03 -0.51493731422E+03  0.10970534750E+04  0.25500000920E-02 0.  1.
       -2    1    3    3    0  502 -0.86485446617E+03  0.43634005284E+03  0.18634764081E+04  0.21002167062E+04  0.25500000920E-02 0. -1.
</event>
<event>
 5   0  0.2360103E-06  0.2900872E+04  0.7818609E-02  0.8272618E-01
        2   -1    0    0  501    0  0.00000000000E+00  0.00000000000E+00  0.20173484455E+04  0.20173484455E+04  0.25500000920E-02 0.  1.
       -2   -1    0    0    0  501  0.00000000000E+00  0.00000000000E+00 -0.10428361741E+04  0.10428361741E+04  0.25500000920E-02 0. -1.
    10030    2    1    2    0    0  0.00000000000E+00  0.00000000000E+00  0.97451227133E+03  0.30601846196E+04  0.29008715482E+04 0.  0.
        4    1    3    3  502    0 -0.64743112053E+03 -0.37260262295E+02  0.18558919046E+04  0.19659327958E+04  0.12699999809E+01 0.  1.
       -4    1    3    3    0  502  0.64743112053E+03  0.37260262295E+02 -0.88137963329E+03  0.10942518238E+04  0.12699999809E+01 0. -1.
</event>
<event>
 5   0  0.8355946E-07  0.2908537E+04  0.7818609E-02  0.8270342E-01
       -1   -1    0    0    0  501  0.00000000000E+00  0.00000000000E+00  0.10122220556E+04  0.10122220556E+04  0.50400001928E-02 0. -1.
        1   -1    0    0  501    0  0.00000000000E+00  0.00000000000E+00 -0.20893610800E+04  0.20893610800E+04  0.50400001928E-02 0.  1.
    10030    2    1    2    0    0  0.00000000000E+00  0.00000000000E+00 -0.10771390243E+04  0.31015831356E+04  0.29085373419E+04 0.  0.
        4    1    3    3  502    0 -0.11998877367E+03  0.13878203724E+04 -0.93171697893E+02  0.13961107657E+04  0.12699999809E+01 0. -1.
       -4    1    3    3    0  502  0.11998877367E+03 -0.13878203724E+04 -0.98396732645E+03  0.17054723699E+04  0.12699999809E+01 0.  1.
</event>
<event>
 5   0  0.2325590E-06  0.2900166E+04  0.7818609E-02  0.8272828E-01
       -2   -1    0    0    0  501  0.00000000000E+00  0.00000000000E+00  0.13246256833E+04  0.13246256833E+04  0.25500000920E-02 0.  1.
        2   -1    0    0  501    0  0.00000000000E+00  0.00000000000E+00 -0.15874221608E+04  0.15874221608E+04  0.25500000920E-02 0. -1.
    10030    2    1    2    0    0  0.00000000000E+00  0.00000000000E+00 -0.26279647743E+03  0.29120478441E+04  0.29001656259E+04 0.  0.
        5    1    3    3  502    0  0.78292199374E+03  0.10635011485E+03 -0.13522914713E+04  0.15662028951E+04  0.46999998093E+01 0. -1.
       -5    1    3    3    0  502 -0.78292199374E+03 -0.10635011485E+03  0.10894949939E+04  0.13458449490E+04  0.46999998093E+01 0.  1.
</event>
<event>
 5   0  0.2378690E-06  0.2870945E+04  0.7818609E-02  0.8281575E-01
        2   -1    0    0  501    0  0.00000000000E+00  0.00000000000E+00  0.11404675632E+04  0.11404675632E+04  0.25500000920E-02 0.  1.
       -2   -1    0    0    0  501  0.00000000000E+00  0.00000000000E+00 -0.18067862478E+04  0.18067862478E+04  0.25500000920E-02 0. -1.
    10030    2    1    2    0    0  0.00000000000E+00  0.00000000000E+00 -0.66631868453E+03  0.29472538110E+04  0.28709448683E+04 0.  0.
        3    1    3    3  502    0  0.54621750134E+03 -0.51277261783E+03  0.92384206999E+03  0.11894425151E+04  0.10100000352E+00 0.  1.
       -3    1    3    3    0  502 -0.54621750134E+03  0.51277261783E+03 -0.15901607545E+04  0.17578112958E+04  0.10100000352E+00 0. -1.
</event>
<event>
 5   0  0.2360103E-06  0.2896563E+04  0.7818609E-02  0.8273901E-01
        2   -1    0    0  501    0  0.00000000000E+00  0.00000000000E+00  0.22841045112E+04  0.22841045112E+04  0.25500000920E-02 0. -1.
       -2   -1    0    0    0  501  0.00000000000E+00  0.00000000000E+00 -0.91831156514E+03  0.91831156514E+03  0.25500000920E-02 0.  1.
    10030    2    1    2    0    0  0.00000000000E+00  0.00000000000E+00  0.13657929460E+04  0.32024160763E+04  0.28965631970E+04 0.  0.
        4    1    3    3  502    0 -0.80839013450E+03 -0.82198552469E+03 -0.28622455470E+03  0.11878892713E+04  0.12699999809E+01 0.  1.
       -4    1    3    3    0  502  0.80839013450E+03  0.82198552469E+03  0.16520175007E+04  0.20145268050E+04  0.12699999809E+01 0. -1.
</event>
<event>
 5   0  0.8483636E-07  0.2916483E+04  0.7818609E-02  0.8267990E-01
        1   -1    0    0  501    0  0.00000000000E+00  0.00000000000E+00  0.15193881239E+04  0.15193881239E+04  0.50400001928E-02 0.  1.
       -1   -1    0    0    0  501  0.00000000000E+00  0.00000000000E+00 -0.13995557118E+04  0.13995557118E+04  0.50400001928E-02 0. -1.
    10030    2    1    2    0    0  0.00000000000E+00  0.00000000000E+00  0.11983241207E+03  0.29189438358E+04  0.29164830377E+04 0.  0.
        2    1    3    3  502    0  0.40302057939E+03  0.10970115555E+04 -0.81294830995E+03  0.14236379086E+04  0.25500000920E-02 0. -1.
       -2    1    3    3    0  502 -0.40302057939E+03 -0.10970115555E+04  0.93278072202E+03  0.14953059271E+04  0.25500000920E-02 0.  1.
</event>
<event>
 5   0  0.2325590E-06  0.2889296E+04  0.7818609E-02  0.8276069E-01
       -2   -1    0    0    0  501  0.00000000000E+00  0.00000000000E+00  0.11498123113E+04  0.11498123113E+04  0.25500000920E-02 0.  1.
        2   -1    0    0  501    0  0.00000000000E+00  0.00000000000E+00 -0.18150850889E+04  0.18150850889E+04  0.25500000920E-02 0. -1.
    10030    2    1    2    0    0  0.00000000000E+00  0.00000000000E+00 -0.66527277763E+03  0.29648974002E+04  0.28892955413E+04 0.  0.
        5    1    3    3  502    0 -0.13447384123E+04  0.51768348444E+03 -0.43862253560E+03  0.15062301970E+04  0.46999998093E+01 0.  1.
       -5    1    3    3    0  502  0.13447384123E+04 -0.51768348444E+03 -0.22665024203E+03  0.14586672032E+04  0.46999998093E+01 0. -1.
</event>
<event>
 5   0  0.8263673E-07  0.2954109E+04  0.7818609E-02  0.8256958E-01
       -1   -1    0    0    0  501  0.00000000000E+00  0.00000000000E+00  0.14207316667E+04  0.14207316667E+04  0.50400001928E-02 0. -1.
        1   -1    0    0  501    0  0.00000000000E+00  0.00000000000E+00 -0.15356103725E+04  0.15356103725E+04  0.50400001928E-02 0.  1.
    10030    2    1    2    0    0  0.00000000000E+00  0.00000000000E+00 -0.11487870581E+03  0.29563420392E+04  0.29541091950E+04 0.  0.
        5    1    3    3  502    0 -0.11271937698E+04  0.94398065080E+03 -0.19897796906E+03  0.14836709830E+04  0.46999998093E+01 0.  1.
       -5    1    3    3    0  502  0.11271937698E+04 -0.94398065080E+03  0.84099263256E+02  0.14726710562E+04  0.46999998093E+01 0. -1.
</event>
<event>
 5   0  0.2360103E-06  0.2896481E+04  0.7818609E-02  0.8273925E-01
       -2   -1    0    0    0  501  0.00000000000E+00  0.00000000000E+00  0.20612054506E+04  0.20612054506E+04  0.25500000920E-02 0.  1.
        2   -1    0    0  501    0  0.00000000000E+00  0.00000000000E+00 -0.10175602064E+04  0.10175602064E+04  0.25500000920E-02 0. -1.
    10030    2    1    2    0    0  0.00000000000E+00  0.00000000000E+00  0.10436452443E+04  0.30787656570E+04  0.28964810676E+04 0.  0.
        4    1    3    3  502    0  0.20621128682E+03 -0.13744922021E+04  0.95443395004E+03  0.16860301558E+04  0.12699999809E+01 0. -1.
       -4    1    3    3    0  502 -0.20621128682E+03  0.13744922021E+04  0.89211294244E+02  0.13927355012E+04  0.12699999809E+01 0.  1.
</event>
<event>
 5   0  0.8357118E-07  0.2924402E+04  0.7818609E-02  0.8265654E-01
       -1   -1    0    0    0  501  0.00000000000E+00  0.00000000000E+00  0.93162464534E+03  0.93162464536E+03  0.50400001928E-02 0. -1.
        1   -1    0    0  501    0  0.00000000000E+00  0.00000000000E+00 -0.22949501562E+04  0.22949501562E+04  0.50400001928E-02 0.  1.
    10030    2    1    2    0    0  0.00000000000E+00  0.00000000000E+00 -0.13633255108E+04  0.32265748015E+04  0.29244022469E+04 0.  0.
        1    1    3    3  502    0 -0.71734520453E+03 -0.10258352678E+04  0.15214226541E+03  0.12609795431E+04  0.50400001928E-02 0. -1.
       -1    1    3    3    0  502  0.71734520453E+03  0.10258352678E+04 -0.15154677762E+04  0.19655952584E+04  0.50400001928E-02 0.  1.
</event>
<event>
 5   0  0.2325590E-06  0.2911045E+04  0.7818609E-02  0.8269599E-01
        2   -1    0    0  501    0  0.00000000000E+00  0.00000000000E+00  0.22460007704E+04  0.22460007704E+04  0.25500000920E-02 0.  1.
       -2   -1    0    0    0  501  0.00000000000E+00  0.00000000000E+00 -0.94325227763E+03  0.94325227763E+03  0.25500000920E-02 0. -1.
    10030    2    1    2    0    0  0.00000000000E+00  0.00000000000E+00  0.13027484927E+04  0.31892530480E+04  0.29110447212E+04 0.  0.
        5    1    3    3  502    0  0.32049800658E+03 -0.51208744028E+03 -0.79940637595E+03  0.10020105601E+04  0.46999998093E+01 0. -1.
       -5    1    3    3    0  502 -0.32049800658E+03  0.51208744028E+03  0.21021548687E+04  0.21872424879E+04  0.46999998093E+01 0.  1.
</event>
<event>
 5   0  0.8263673E-07  0.2857108E+04  0.7818609E-02  0.8285755E-01
       -1   -1    0    0    0  501  0.00000000000E+00  0.00000000000E+00  0.12066630157E+04  0.12066630157E+04  0.50400001928E-02 0. -1.
        1   -1    0    0  501    0  0.00000000000E+00  0.00000000000E+00 -0.16912486456E+04  0.16912486456E+04  0.50400001928E-02 0.  1.
    10030    2    1    2    0    0  0.00000000000E+00  0.00000000000E+00 -0.48458562987E+03  0.28979116613E+04  0.28571084621E+04 0.  0.
        5    1    3    3  502    0 -0.10654398432E+04 -0.87744425898E+03  0.13130791179E+03  0.13864827243E+04  0.46999998093E+01 0.  1.
       -5    1    3    3    0  502  0.10654398432E+04  0.87744425898E+03 -0.61589354166E+03  0.15114289370E+04  0.46999998093E+01 0. -1.
</event>
<event>
 5   0  0.8263673E-07  0.2893304E+04  0.7818609E-02  0.8274873E-01
       -1   -1    0    0    0  501  0.00000000000E+00  0.00000000000E+00  0.12200473795E+04  0.12200473795E+04  0.50400001928E-02 0. -1.
        1   -1    0    0  501    0  0.00000000000E+00  0.00000000000E+00 -0.17153448922E+04  0.17153448922E+04  0.50400001928E-02 0.  1.
    10030    2    1    2    0    0  0.00000000000E+00  0.00000000000E+00 -0.49529751267E+03  0.29353922717E+04  0.28933040218E+04 0.  0.
        5    1    3    3  502    0 -0.71323711099E+03 -0.68577499669E+03  0.82306366650E+03  0.12870316281E+04  0.46999998093E+01 0. -1.
       -5    1    3    3    0  502  0.71323711099E+03  0.68577499669E+03 -0.13183611792E+04  0.16483606436E+04  0.46999998093E+01 0.  1.
</event>
<event>
 5   0  0.2325590E-06  0.2943431E+04  0.7818609E-02  0.8260071E-01
       -2   -1    0    0    0  501  0.00000000000E+00  0.00000000000E+00  0.96625895135E+03  0.96625895136E+03  0.25500000920E-02 0.  1.
        2   -1    0    0  501    0  0.00000000000E+00  0.00000000000E+00 -0.22415801263E+04  0.22415801263E+04  0.25500000920E-02 0. -1.
    10030    2    1    2    0    0  0.00000000000E+00  0.00000000000E+00 -0.12753211749E+04  0.32078390776E+04  0.29434312373E+04 0.  0.
        5    1    3    3  502    0  0.28041360740E+03 -0.10499862934E+04 -0.17191879165E+04  0.20338958159E+04  0.46999998093E+01 0. -1.
       -5    1    3    3    0  502 -0.28041360740E+03  0.10499862934E+04  0.44386674159E+03  0.11739432618E+04  0.46999998093E+01 0.  1.
</event>
<event>
 5   0  0.8357118E-07  0.2903878E+04  0.7818609E-02  0.8271725E-01
       -1   -1    0    0    0  501  0.00000000000E+00  0.00000000000E+00  0.13822129560E+04  0.13822129560E+04  0.50400001928E-02 0. -1.
        1   -1    0    0  501    0  0.00000000000E+00  0.00000000000E+00 -0.15251818689E+04  0.15251818689E+04  0.50400001928E-02 0.  1.
    10030    2    1    2    0    0  0.00000000000E+00  0.00000000000E+00 -0.14296891293E+03  0.29073948249E+04  0.29038775039E+04 0.  0.
        1    1    3    3  502    0  0.69614907535E+03 -0.55272814178E+03 -0.12209143063E+04  0.15102197446E+04  0.50400001928E-02 0.  1.
       -1    1    3    3    0  502 -0.69614907535E+03  0.55272814178E+03  0.10779453933E+04  0.13971750802E+04  0.50400001928E-02 0. -1.
</event>
<event>
 5   0  0.8355946E-07  0.2894645E+04  0.7818609E-02  0.8274472E-01
        1   -1    0    0  501    0  0.00000000000E+00  0.00000000000E+00  0.22253354439E+04  0.22253354439E+04  0.50400001928E-02 0. -1.
       -1   -1    0    0    0  501  0.00000000000E+00  0.00000000000E+00 -0.94131541676E+03  0.94131541677E+03  0.50400001928E-02 0.  1.
    10030    2    1    2    0    0  0.00000000000E+00  0.00000000000E+00  0.12840200271E+04  0.31666508607E+04  0.28946450980E+04 0.  0.
        4    1    3    3  502    0 -0.71002085407E+03 -0.41971308307E+03 -0.65905502269E+03  0.10557669350E+04  0.12699999809E+01 0.  1.
       -4    1    3    3    0  502  0.71002085407E+03  0.41971308307E+03  0.19430750498E+04  0.21108839256E+04  0.12699999809E+01 0. -1.
</event>
<event>
 5   0  0.8263673E-07  0.2882884E+04  0.7818609E-02  0.8277988E-01
        1   -1    0    0  501    0  0.00000000000E+00  0.00000000000E+00  0.26241389182E+04  0.26241389182E+04  0.50400001928E-02 0.  1.
       -1   -1    0    0    0  501  0.00000000000E+00  0.00000000000E+00 -0.79178551610E+03  0.79178551612E+03  0.50400001928E-02 0. -1.
    10030    2    1    2    0    0  0.00000000000E+00  0.00000000000E+00  0.18323534021E+04  0.34159244343E+04  0.28828841029E+04 0.  0.
        5    1    3    3  502    0  0.12660976813E+04  0.13580803863E+03  0.17165629393E+04  0.21373014707E+04  0.46999998093E+01 0. -1.
       -5    1    3    3    0  502 -0.12660976813E+04 -0.13580803863E+03  0.11579046281E+03  0.12786229637E+04  0.46999998093E+01 0.  1.
</event>
<event>
 5   0  0.8355946E-07  0.2904697E+04  0.7818609E-02  0.8271481E-01
        1   -1    0    0  501    0  0.00000000000E+00  0.00000000000E+00  0.19167277856E+04  0.19167277856E+04  0.50400001928E-02 0.  1.
       -1   -1    0    0    0  501  0.00000000000E+00  0.00000000000E+00 -0.11004777287E+04  0.11004777288E+04  0.50400001928E-02 0. -1.
    10030    2    1    2    0    0  0.00000000000E+00  0.00000000000E+00  0.81625005686E+03  0.30172055144E+04  0.29046970514E+04 0.  0.
        4    1    3    3  502    0  0.19395462157E+03  0.10266147487E+03  0.18994063224E+04  0.19120417789E+04  0.12699999809E+01 0.  1.
       -4    1    3    3    0  502 -0.19395462157E+03 -0.10266147487E+03 -0.10831562656E+04  0.11051637355E+04  0.12699999809E+01 0. -1.
</event>
<event>
 5   0  0.8355946E-07  0.2874144E+04  0.7818609E-02  0.8280612E-01
        1   -1    0    0  501    0  0.00000000000E+00  0.00000000000E+00  0.20953318031E+04  0.20953318031E+04  0.50400001928E-02 0.  1.
       -1   -1    0    0    0  501  0.00000000000E+00  0.00000000000E+00 -0.98560796474E+03  0.98560796475E+03  0.50400001928E-02 0. -1.
    10030    2    1    2    0    0  0.00000000000E+00  0.00000000000E+00  0.11097238383E+04  0.30809397678E+04  0.28741438474E+04 0.  0.
        4    1    3    3  502    0  0.28790448714E+03  0.46974761583E+01 -0.95436780344E+03  0.99686035990E+03  0.12699999809E+01 0. -1.
       -4    1    3    3    0  502 -0.28790448714E+03 -0.46974761583E+01  0.20640916418E+04  0.20840794079E+04  0.12699999809E+01 0.  1.
</event>
<event>
 5   0  0.8355946E-07  0.3036964E+04  0.7818609E-02  0.8233254E-01
        1   -1    0    0  501    0  0.00000000000E+00  0.00000000000E+00  0.20968531117E+04  0.20968531117E+04  0.50400001928E-02 0.  1.
       -1   -1    0    0    0  501  0.00000000000E+00  0.00000000000E+00 -0.10996419169E+04  0.10996419169E+04  0.50400001928E-02 0. -1.
    10030    2    1    2    0    0  0.00000000000E+00  0.00000000000E+00  0.99721119483E+03  0.31964950286E+04  0.30369639940E+04 0.  0.
        4    1    3    3  502    0 -0.77726742088E+03  0.13040782635E+04  0.53224049612E+03  0.16087406004E+04  0.12699999809E+01 0.  1.
       -4    1    3    3    0  502  0.77726742088E+03 -0.13040782635E+04  0.46497069871E+03  0.15877544282E+04  0.12699999809E+01 0. -1.
</event>
<event>
 5   0  0.8947674E-07  0.2887097E+04  0.7818609E-02  0.8276727E-01
        1   -1    0    0  501    0  0.00000000000E+00  0.00000000000E+00  0.13168582884E+04  0.13168582884E+04  0.50400001928E-02 0. -1.
       -1   -1    0    0    0  501  0.00000000000E+00  0.00000000000E+00 -0.15824269816E+04  0.15824269816E+04  0.50400001928E-02 0.  1.
    10030    2    1    2    0    0  0.00000000000E+00  0.00000000000E+00 -0.26556869320E+03  0.28992852701E+04  0.28870968717E+04 0.  0.
        3    1    3    3  502    0 -0.10989450376E+04 -0.32278676463E+03 -0.10151064445E+04  0.15304615627E+04  0.10100000352E+00 0.  1.
       -3    1    3    3    0  502  0.10989450376E+04  0.32278676463E+03  0.74953775128E+03  0.13688237074E+04  0.10100000352E+00 0. -1.
</event>
<event>
 5   0  0.2425845E-06  0.2896323E+04  0.7818609E-02  0.8273972E-01
        2   -1    0    0  501    0  0.00000000000E+00  0.00000000000E+00  0.16593253141E+04  0.16593253141E+04  0.25500000920E-02 0. -1.
       -2   -1    0    0    0  501  0.00000000000E+00  0.00000000000E+00 -0.12638701251E+04  0.12638701251E+04  0.25500000920E-02 0.  1.
    10030    2    1    2    0    0  0.00000000000E+00  0.00000000000E+00  0.39545518898E+03  0.29231954392E+04  0.28963229739E+04 0.  0.
        2    1    3    3  502    0  0.14352072952E+03 -0.31882274053E+03  0.16160867871E+04  0.16534759276E+04  0.25500000920E-02 0. -1.
       -2    1    3    3    0  502 -0.14352072952E+03  0.31882274053E+03 -0.12206315982E+04  0.12697195116E+04  0.25500000920E-02 0.  1.
</event>
<event>
 5   0  0.8357118E-07  0.2903685E+04  0.7818609E-02  0.8271782E-01
       -1   -1    0    0    0  501  0.00000000000E+00  0.00000000000E+00  0.13976084665E+04  0.13976084665E+04  0.50400001928E-02 0.  1.
        1   -1    0    0  501    0  0.00000000000E+00  0.00000000000E+00 -0.15081811785E+04  0.15081811785E+04  0.50400001928E-02 0. -1.
    10030    2    1    2    0    0  0.00000000000E+00  0.00000000000E+00 -0.11057271202E+03  0.29057896450E+04  0.29036850959E+04 0.  0.
        1    1    3    3  502    0 -0.91332753521E+03  0.96744392363E+03  0.52628186518E+03  0.14307646674E+04  0.50400001928E-02 0.  1.
       -1    1    3    3    0  502  0.91332753521E+03 -0.96744392363E+03 -0.63685457720E+03  0.14750249776E+04  0.50400001928E-02 0. -1.
</event>
<event>
 5   0  0.8357118E-07  0.2916282E+04  0.7818609E-02  0.8268049E-01
        1   -1    0    0  501    0  0.00000000000E+00  0.00000000000E+00  0.21968788904E+04  0.21968788904E+04  0.50400001928E-02 0.  1.
       -1   -1    0    0    0  501  0.00000000000E+00  0.00000000000E+00 -0.96781640573E+03  0.96781640574E+03  0.50400001928E-02 0. -1.
    10030    2    1    2    0    0  0.00000000000E+00  0.00000000000E+00  0.12290624847E+04  0.31646952961E+04  0.29162821753E+04 0.  0.
        1    1    3    3  502    0  0.13377527339E+04  0.42696413412E+03  0.18826804524E+03  0.14168011878E+04  0.50400001928E-02 0. -1.
       -1    1    3    3    0  502 -0.13377527339E+04 -0.42696413412E+03  0.10407944394E+04  0.17478941083E+04  0.50400001928E-02 0.  1.
</event>
<event>
 5   0  0.7621125E-07  0.2889201E+04  0.7818609E-02  0.8276098E-01
       -4   -1    0    0    0  501  0.00000000000E+00  0.00000000000E+00  0.23334236689E+04  0.23334240145E+04  0.12699999809E+01 0.  1.
        4   -1    0    0  501    0  0.00000000000E+00  0.00000000000E+00 -0.89433744047E+03  0.89433834219E+03  0.12699999809E+01 0. -1.
    10030    2    1    2    0    0  0.00000000000E+00  0.00000000000E+00  0.14390862284E+04  0.32277623567E+04  0.28892006954E+04 0.  0.
        2    1    3    3  502    0 -0.90895449760E+03  0.94061337595E+03  0.34574595025E+02  0.13084904296E+04  0.25500000920E-02 0. -1.
       -2    1    3    3    0  502  0.90895449760E+03 -0.94061337595E+03  0.14045116334E+04  0.19192719271E+04  0.25500000920E-02 0.  1.
</event>
<event>
 5   0  0.8483636E-07  0.2873202E+04  0.7818609E-02  0.8280896E-01
       -1   -1    0    0    0  501  0.00000000000E+00  0.00000000000E+00  0.14792624066E+04  0.14792624066E+04  0.50400001928E-02 0.  1.
        1   -1    0    0  501    0  0.00000000000E+00  0.00000000000E+00 -0.13951696808E+04  0.13951696808E+04  0.50400001928E-02 0. -1.
    10030    2    1    2    0    0  0.00000000000E+00  0.00000000000E+00  0.84092725771E+02  0.28744320874E+04  0.28732017399E+04 0.  0.
        2    1    3    3  502    0  0.82451832474E+03 -0.11757000777E+04  0.83548087100E+02  0.14384301942E+04  0.25500000920E-02 0.  1.
       -2    1    3    3    0  502 -0.82451832474E+03  0.11757000777E+04  0.54463867079E+00  0.14360018932E+04  0.25500000920E-02 0. -1.
</event>
<event>
 5   0  0.8263673E-07  0.2895112E+04  0.7818609E-02  0.8274333E-01
       -1   -1    0    0    0  501  0.00000000000E+00  0.00000000000E+00  0.12285685661E+04  0.12285685661E+04  0.50400001928E-02 0. -1.
        1   -1    0    0  501    0  0.00000000000E+00  0.00000000000E+00 -0.17055769354E+04  0.17055769354E+04  0.50400001928E-02 0.  1.
    10030    2    1    2    0    0  0.00000000000E+00  0.00000000000E+00 -0.47700836930E+03  0.29341455015E+04  0.28951118872E+04 0.  0.
        5    1    3    3  502    0 -0.35721926497E+03 -0.79358115729E+02  0.11809116754E+04  0.12363162172E+04  0.46999998093E+01 0. -1.
       -5    1    3    3    0  502  0.35721926497E+03  0.79358115729E+02 -0.16579200447E+04  0.16978292843E+04  0.46999998093E+01 0.  1.
</event>
<event>
 5   0  0.8355946E-07  0.2892003E+04  0.7818609E-02  0.8275261E-01
       -1   -1    0    0    0  501  0.00000000000E+00  0.00000000000E+00  0.16969747126E+04  0.16969747126E+04  0.50400001928E-02 0.  1.
        1   -1    0    0  501    0  0.00000000000E+00  0.00000000000E+00 -0.12321459810E+04  0.12321459810E+04  0.50400001928E-02 0. -1.
    10030    2    1    2    0    0  0.00000000000E+00  0.00000000000E+00  0.46482873164E+03  0.29291206936E+04  0.28920031618E+04 0.  0.
        4    1    3    3  502    0  0.35960918355E+03 -0.11249925831E+04 -0.61255427365E+03  0.13304703785E+04  0.12699999809E+01 0. -1.
       -4    1    3    3    0  502 -0.35960918355E+03  0.11249925831E+04  0.10773830053E+04  0.15986503151E+04  0.12699999809E+01 0.  1.
</event>
<event>
 5   0  0.8355946E-07  0.2897268E+04  0.7818609E-02  0.8273691E-01
        1   -1    0    0  501    0  0.00000000000E+00  0.00000000000E+00  0.19220098003E+04  0.19220098003E+04  0.50400001928E-02 0.  1.
       -1   -1    0    0    0  501  0.00000000000E+00  0.00000000000E+00 -0.10918468137E+04  0.10918468137E+04  0.50400001928E-02 0. -1.
    10030    2    1    2    0    0  0.00000000000E+00  0.00000000000E+00  0.83016298661E+03  0.30138566141E+04  0.28972678692E+04 0.  0.
        4    1    3    3  502    0  0.37126900935E+03  0.13045728648E+04 -0.11410127075E+03  0.13611655850E+04  0.12699999809E+01 0. -1.
       -4    1    3    3    0  502 -0.37126900935E+03 -0.13045728648E+04  0.94426425737E+03  0.16526910291E+04  0.12699999809E+01 0.  1.
</event>
<event>
 5   0  0.2360103E-06  0.2902245E+04  0.7818609E-02  0.8272210E-01
        2   -1    0    0  501    0  0.00000000000E+00  0.00000000000E+00  0.22202322117E+04  0.22202322117E+04  0.25500000920E-02 0.  1.
       -2   -1    0    0    0  501  0.00000000000E+00  0.00000000000E+00 -0.94844008441E+03  0.94844008441E+03  0.25500000920E-02 0. -1.
    10030    2    1    2    0    0  0.00000000000E+00  0.00000000000E+00  0.12717921273E+04  0.31686722961E+04  0.29022454936E+04 0.  0.
        4    1    3    3  502    0 -0.10285253338E+04  0.93613798005E+03  0.10880871551E+04  0.17658295359E+04  0.12699999809E+01 0.  1.
       -4    1    3    3    0  502  0.10285253338E+04 -0.93613798005E+03  0.18370497222E+03  0.14028427602E+04  0.12699999809E+01 0. -1.
</event>
<event>
 5   0  0.8947674E-07  0.2896085E+04  0.7818609E-02  0.8274043E-01
        1   -1    0    0  501    0  0.00000000000E+00  0.00000000000E+00  0.85575200416E+03  0.85575200417E+03  0.50400001928E-02 0. -1.
       -1   -1    0    0    0  501  0.00000000000E+00  0.00000000000E+00 -0.24502744455E+04  0.24502744455E+04  0.50400001928E-02 0.  1.
    10030    2    1    2    0    0  0.00000000000E+00  0.00000000000E+00 -0.15945224413E+04  0.33060264496E+04  0.28960851282E+04 0.  0.
        3    1    3    3  502    0 -0.74678689563E+03 -0.12152377598E+04 -0.51225343658E+03  0.15155517391E+04  0.10100000352E+00 0. -1.
       -3    1    3    3    0  502  0.74678689563E+03  0.12152377598E+04 -0.10822690047E+04  0.17904747106E+04  0.10100000352E+00 0.  1.
</event>
<event>
 5   0  0.2425845E-06  0.2901886E+04  0.7818609E-02  0.8272317E-01
        2   -1    0    0  501    0  0.00000000000E+00  0.00000000000E+00  0.25765572281E+04  0.25765572281E+04  0.25500000920E-02 0.  1.
       -2   -1    0    0    0  501  0.00000000000E+00  0.00000000000E+00 -0.81707283275E+03  0.81707283275E+03  0.25500000920E-02 0. -1.
    10030    2    1    2    0    0  0.00000000000E+00  0.00000000000E+00  0.17594843953E+04  0.33936300608E+04  0.29018855340E+04 0.  0.
        2    1    3    3  502    0  0.88791586633E+03  0.87076790490E+03  0.17537917993E+04  0.21499806988E+04  0.25500000920E-02 0.  1.
       -2    1    3    3    0  502 -0.88791586633E+03 -0.87076790490E+03  0.56925959635E+01  0.12436493620E+04  0.25500000920E-02 0. -1.
</event>
<event>
 5   0  0.2325590E-06  0.2898036E+04  0.7818609E-02  0.8273462E-01
       -2   -1    0    0    0  501  0.00000000000E+00  0.00000000000E+00  0.95089785301E+03  0.95089785302E+03  0.25500000920E-02 0.  1.
        2   -1    0    0  501    0  0.00000000000E+00  0.00000000000E+00 -0.22080746480E+04  0.22080746480E+04  0.25500000920E-02 0. -1.
    10030    2    1    2    0    0  0.00000000000E+00  0.00000000000E+00 -0.12571767950E+04  0.31589725011E+04  0.28980361917E+04 0.  0.
        5    1    3    3  502    0  0.11700227329E+04  0.65075934482E+03 -0.12327399317E+04  0.18199205339E+04  0.46999998093E+01 0. -1.
       -5    1    3    3    0  502 -0.11700227329E+04 -0.65075934482E+03 -0.24436863291E+02  0.13390519672E+04  0.46999998093E+01 0.  1.
</event>
<event>
 5   0  0.2378690E-06  0.2901118E+04  0.7818609E-02  0.8272545E-01
       -2   -1    0    0    0  501  0.00000000000E+00  0.00000000000E+00  0.87945667299E+03  0.87945667299E+03  0.25500000920E-02 0. -1.
        2   -1    0    0  501    0  0.00000000000E+00  0.00000000000E+00 -0.23925245951E+04  0.23925245951E+04  0.25500000920E-02 0.  1.
    10030    2    1    2    0    0  0.00000000000E+00  0.00000000000E+00 -0.15130679221E+04  0.32719812681E+04  0.29011182123E+04 0.  0.
        3    1    3    3  502    0  0.72676400342E+03 -0.55380629565E+03  0.51408782379E+03  0.10484148180E+04  0.10100000352E+00 0. -1.
       -3    1    3    3    0  502 -0.72676400342E+03  0.55380629565E+03 -0.20271557459E+04  0.22235664501E+04  0.10100000352E+00 0.  1.
</event>
<event>
 5   0  0.8483636E-07  0.2893789E+04  0.7818609E-02  0.8274728E-01
       -1   -1    0    0    0  501  0.00000000000E+00  0.00000000000E+00  0.13343609467E+04  0.13343609467E+04  0.50400001928E-02 0. -1.
        1   -1    0    0  501    0  0.00000000000E+00  0.00000000000E+00 -0.15689189217E+04  0.15689189217E+04  0.50400001928E-02 0.  1.
    10030    2    1    2    0    0  0.00000000000E+00  0.00000000000E+00 -0.23455797505E+03  0.29032798684E+04  0.28937893066E+04 0.  0.
        2    1    3    3  502    0  0.80830207282E+03 -0.95425091134E+03 -0.84737233421E+03  0.15106246772E+04  0.25500000920E-02 0.  1.
       -2    1    3    3    0  502 -0.80830207282E+03  0.95425091134E+03  0.61281435916E+03  0.13926551912E+04  0.25500000920E-02 0. -1.
</event>
<event>
 5   0  0.2378690E-06  0.2907499E+04  0.7818609E-02  0.8270650E-01
        2   -1    0    0  501    0  0.00000000000E+00  0.00000000000E+00  0.15368899815E+04  0.15368899815E+04  0.25500000920E-02 0.  1.
       -2   -1    0    0    0  501  0.00000000000E+00  0.00000000000E+00 -0.13751067821E+04  0.13751067821E+04  0.25500000920E-02 0. -1.
    10030    2    1    2    0    0  0.00000000000E+00  0.00000000000E+00  0.16178319943E+03  0.29119967635E+04  0.29074991569E+04 0.  0.
        3    1    3    3  502    0  0.46692925848E+03 -0.66965463749E+03 -0.11238521588E+04  0.13890658555E+04  0.10100000352E+00 0. -1.
       -3    1    3    3    0  502 -0.46692925848E+03  0.66965463749E+03  0.12856353583E+04  0.15229309080E+04  0.10100000352E+00 0.  1.
</event>
<event>
 5   0  0.8263673E-07  0.2891858E+04  0.7818609E-02  0.8275304E-01
        1   -1    0    0  501    0  0.00000000000E+00  0.00000000000E+00  0.18328914175E+04  0.18328914175E+04  0.50400001928E-02 0.  1.
       -1   -1    0    0    0  501  0.00000000000E+00  0.00000000000E+00 -0.11406622204E+04  0.11406622204E+04  0.50400001928E-02 0. -1.
    10030    2    1    2    0    0  0.00000000000E+00  0.00000000000E+00  0.69222919710E+03  0.29735536379E+04  0.28918575304E+04 0.  0.
        5    1    3    3  502    0 -0.85962825361E+03 -0.11571030405E+04  0.22960097341E+03  0.14596529991E+04  0.46999998093E+01 0. -1.
       -5    1    3    3    0  502  0.85962825361E+03  0.11571030405E+04  0.46262822369E+03  0.15139006388E+04  0.46999998093E+01 0.  1.
</event>
<event>
 5   0  0.8947674E-07  0.2895612E+04  0.7818609E-02  0.8274184E-01
        1   -1    0    0  501    0  0.00000000000E+00  0.00000000000E+00  0.24992624054E+04  0.24992624054E+04  0.50400001928E-02 0.  1.
       -1   -1    0    0    0  501  0.00000000000E+00  0.00000000000E+00 -0.83870444442E+03  0.83870444444E+03  0.50400001928E-02 0. -1.
    10030    2    1    2    0    0  0.00000000000E+00  0.00000000000E+00  0.16605579610E+04  0.33379668498E+04  0.28956121890E+04 0.  0.
        3    1    3    3  502    0 -0.20734469384E+03 -0.50260476696E+03  0.23771101044E+04  0.24384945833E+04  0.10100000352E+00 0.  1.
       -3    1    3    3    0  502  0.20734469384E+03  0.50260476696E+03 -0.71655214346E+03  0.89947226657E+03  0.10100000352E+00 0. -1.
</event>
<event>
 5   0  0.8357118E-07  0.2877757E+04  0.7818609E-02  0.8279526E-01
       -1   -1    0    0    0  501  0.00000000000E+00  0.00000000000E+00  0.73358785358E+03  0.73358785360E+03  0.50400001928E-02 0.  1.
        1   -1    0    0  501    0  0.00000000000E+00  0.00000000000E+00 -0.28222542758E+04  0.28222542758E+04  0.50400001928E-02 0. -1.
    10030    2    1    2    0    0  0.00000000000E+00  0.00000000000E+00 -0.20886664222E+04  0.35558421294E+04  0.28777570825E+04 0.  0.
        1    1    3    3  502    0  0.95686451815E+03  0.88553205139E+03 -0.17965615341E+04  0.22197725258E+04  0.50400001928E-02 0. -1.
       -1    1    3    3    0  502 -0.95686451815E+03 -0.88553205139E+03 -0.29210488808E+03  0.13360696036E+04  0.50400001928E-02 0.  1.
</event>
<event>
 5   0  0.2360103E-06  0.2861449E+04  0.7818609E-02  0.8284441E-01
       -2   -1    0    0    0  501  0.00000000000E+00  0.00000000000E+00  0.15232881156E+04  0.15232881156E+04  0.25500000920E-02 0.  1.
        2   -1    0    0  501    0  0.00000000000E+00  0.00000000000E+00 -0.13437856651E+04  0.13437856651E+04  0.25500000920E-02 0. -1.
    10030    2    1    2    0    0  0.00000000000E+00  0.00000000000E+00  0.17950245053E+03  0.28670737808E+04  0.28614490970E+04 0.  0.
        4    1    3    3  502    0  0.61128819492E+03 -0.20085079864E+03 -0.11906326469E+04  0.13533743064E+04  0.12699999809E+01 0. -1.
       -4    1    3    3    0  502 -0.61128819492E+03  0.20085079864E+03  0.13701350974E+04  0.15136994743E+04  0.12699999809E+01 0.  1.
</event>
<event>
 5   0  0.8355946E-07  0.2898025E+04  0.7818609E-02  0.8273465E-01
        1   -1    0    0  501    0  0.00000000000E+00  0.00000000000E+00  0.21551989667E+04  0.21551989667E+04  0.50400001928E-02 0. -1.
       -1   -1    0    0    0  501  0.00000000000E+00  0.00000000000E+00 -0.97421972454E+03  0.97421972455E+03  0.50400001928E-02 0.  1.
    10030    2    1    2    0    0  0.00000000000E+00  0.00000000000E+00  0.11809792422E+04  0.31294186913E+04  0.28980250818E+04 0.  0.
        4    1    3    3  502    0  0.31863457820E+03 -0.15315015182E+03  0.21079134558E+04  0.21373543725E+04  0.12699999809E+01 0. -1.
       -4    1    3    3    0  502 -0.31863457820E+03  0.15315015182E+03 -0.92693421361E+03  0.99206431883E+03  0.12699999809E+01 0.  1.
</event>
<event>
 5   0  0.8483636E-07  0.2771293E+04  0.7818609E-02  0.8312236E-01
        1   -1    0    0  501    0  0.00000000000E+00  0.00000000000E+00  0.19888628299E+04  0.19888628299E+04  0.50400001928E-02 0.  1.
       -1   -1    0    0    0  501  0.00000000000E+00  0.00000000000E+00 -0.96538421153E+03  0.96538421154E+03  0.50400001928E-02 0. -1.
    10030    2    1    2    0    0  0.00000000000E+00  0.00000000000E+00  0.10234786184E+04  0.29542470414E+04  0.27712933983E+04 0.  0.
        2    1    3    3  502    0  0.12807495716E+04 -0.34753733376E+02 -0.50820504494E+02  0.12822285330E+04  0.25500000920E-02 0.  1.
       -2    1    3    3    0  502 -0.12807495716E+04  0.34753733376E+02  0.10742991229E+04  0.16720185084E+04  0.25500000920E-02 0. -1.
</event>
<event>
 5   0  0.8263673E-07  0.2907384E+04  0.7818609E-02  0.8270684E-01
       -1   -1    0    0    0  501  0.00000000000E+00  0.00000000000E+00  0.88378481598E+03  0.88378481600E+03  0.50400001928E-02 0. -1.
        1   -1    0    0  501    0  0.00000000000E+00  0.00000000000E+00 -0.23911036706E+04  0.23911036706E+04  0.50400001928E-02 0.  1.
    10030    2    1    2    0    0  0.00000000000E+00  0.00000000000E+00 -0.15073188546E+04  0.32748884866E+04  0.29073844724E+04 0.  0.
        5    1    3    3  502    0 -0.10849630097E+04 -0.70827580227E+03 -0.14960608572E+04  0.19791461600E+04  0.46999998093E+01 0. -1.
       -5    1    3    3    0  502  0.10849630097E+04  0.70827580227E+03 -0.11257997489E+02  0.12957423266E+04  0.46999998093E+01 0.  1.
</event>
<event>
 5   0  0.2425845E-06  0.2892212E+04  0.7818609E-02  0.8275198E-01
       -2   -1    0    0    0  501  0.00000000000E+00  0.00000000000E+00  0.20813266509E+04  0.20813266509E+04  0.25500000920E-02 0.  1.
        2   -1    0    0  501    0  0.00000000000E+00  0.00000000000E+00 -0.10047543880E+04  0.10047543880E+04  0.25500000920E-02 0. -1.
    10030    2    1    2    0    0  0.00000000000E+00  0.00000000000E+00  0.10765722629E+04  0.30860810389E+04  0.28922116695E+04 0.  0.
        2    1    3    3  502    0 -0.12083864150E+04  0.65297842526E+03  0.55587280242E+02  0.13746521369E+04  0.25500000920E-02 0. -1.
       -2    1    3    3    0  502  0.12083864150E+04 -0.65297842526E+03  0.10209849827E+04  0.17114289020E+04  0.25500000920E-02 0.  1.
</event>
<event>
 5   0  0.2360103E-06  0.2939240E+04  0.7818609E-02  0.8261297E-01
       -2   -1    0    0    0  501  0.00000000000E+00  0.00000000000E+00  0.80909447716E+03  0.80909447717E+03  0.25500000920E-02 0. -1.
        2   -1    0    0  501    0  0.00000000000E+00  0.00000000000E+00 -0.26693825242E+04  0.26693825242E+04  0.25500000920E-02 0.  1.
    10030    2    1    2    0    0  0.00000000000E+00  0.00000000000E+00 -0.18602880471E+04  0.34784770014E+04  0.29392398050E+04 0.  0.
        4    1    3    3  502    0  0.77637908280E+01  0.12234629094E+04  0.33384965363E+02  0.12239436000E+04  0.12699999809E+01 0. -1.
       -4    1    3    3    0  502 -0.77637908280E+01 -0.12234629094E+04 -0.18936730124E+04  0.22545334014E+04  0.12699999809E+01 0.  1.
</event>
<event>
 5   0  0.2425845E-06  0.2895473E+04  0.7818609E-02  0.8274226E-01
       -2   -1    0    0    0  501  0.00000000000E+00  0.00000000000E+00  0.14701563606E+04  0.14701563606E+04  0.25500000920E-02 0.  1.
        2   -1    0    0  501    0  0.00000000000E+00  0.00000000000E+00 -0.14256581500E+04  0.14256581500E+04  0.25500000920E-02 0. -1.
    10030    2    1    2    0    0  0.00000000000E+00  0.00000000000E+00  0.44498210558E+02  0.28958145106E+04  0.28954726020E+04 0.  0.
        2    1    3    3  502    0 -0.21076673391E+03 -0.95974839522E+03 -0.10410795264E+04  0.14315677345E+04  0.25500000920E-02 0. -1.
       -2    1    3    3    0  502  0.21076673391E+03  0.95974839522E+03  0.10855777369E+04  0.14642467761E+04  0.25500000920E-02 0.  1.
</event>
<event>
 5   0  0.8355946E-07  0.2900411E+04  0.7818609E-02  0.8272755E-01
        1   -1    0    0  501    0  0.00000000000E+00  0.00000000000E+00  0.18706930388E+04  0.18706930388E+04  0.50400001928E-02 0.  1.
       -1   -1    0    0    0  501  0.00000000000E+00  0.00000000000E+00 -0.11242339982E+04  0.11242339982E+04  0.50400001928E-02 0. -1.
    10030    2    1    2    0    0  0.00000000000E+00  0.00000000000E+00  0.74645904058E+03  0.29949270370E+04  0.29004114979E+04 0.  0.
        4    1    3    3  502    0  0.63894571367E+02 -0.17734082418E+03 -0.11115295431E+04  0.11274004711E+04  0.12699999809E+01 0. -1.
       -4    1    3    3    0  502 -0.63894571367E+02  0.17734082418E+03  0.18579885837E+04  0.18675265658E+04  0.12699999809E+01 0.  1.
</event>
<event>
 5   0  0.2325590E-06  0.2912551E+04  0.7818609E-02  0.8269153E-01
        2   -1    0    0  501    0  0.00000000000E+00  0.00000000000E+00  0.19683128473E+04  0.19683128473E+04  0.25500000920E-02 0.  1.
       -2   -1    0    0    0  501  0.00000000000E+00  0.00000000000E+00 -0.10774393763E+04  0.10774393763E+04  0.25500000920E-02 0. -1.
    10030    2    1    2    0    0  0.00000000000E+00  0.00000000000E+00  0.89087347102E+03  0.30457522236E+04  0.29125506118E+04 0.  0.
        5    1    3    3  502    0 -0.36717165229E+02 -0.37365067650E+03 -0.10259490658E+04  0.10925001391E+04  0.46999998093E+01 0. -1.
       -5    1    3    3    0  502  0.36717165229E+02  0.37365067650E+03  0.19168225368E+04  0.19532520846E+04  0.46999998093E+01 0.  1.
</event>
<event>
 5   0  0.8483636E-07  0.2898536E+04  0.7818609E-02  0.8273313E-01
       -1   -1    0    0    0  501  0.00000000000E+00  0.00000000000E+00  0.93294944108E+03  0.93294944109E+03  0.50400001928E-02 0.  1.
        1   -1    0    0  501    0  0.00000000000E+00  0.00000000000E+00 -0.22513305635E+04  0.22513305635E+04  0.50400001928E-02 0. -1.
    10030    2    1    2    0    0  0.00000000000E+00  0.00000000000E+00 -0.13183811224E+04  0.31842800046E+04  0.28985359000E+04 0.  0.
        2    1    3    3  502    0  0.11384451339E+04  0.88165093184E+03 -0.47863529800E+03  0.15173850655E+04  0.25500000920E-02 0. -1.
       -2    1    3    3    0  502 -0.11384451339E+04 -0.88165093184E+03 -0.83974582445E+03  0.16668949391E+04  0.25500000920E-02 0.  1.
</event>
<event>
 5   0  0.8357118E-07  0.2915786E+04  0.7818609E-02  0.8268196E-01
        1   -1    0    0  501    0  0.00000000000E+00  0.00000000000E+00  0.16959195413E+04  0.16959195413E+04  0.50400001928E-02 0. -1.
       -1   -1    0    0    0  501  0.00000000000E+00  0.00000000000E+00 -0.12532739964E+04  0.12532739964E+04  0.50400001928E-02 0.  1.
    10030    2    1    2    0    0  0.00000000000E+00  0.00000000000E+00  0.44264554489E+03  0.29491935377E+04  0.29157859051E+04 0.  0.
        1    1    3    3  502    0  0.50714955791E+02  0.11611307900E+04 -0.66890644868E+03  0.13409819370E+04  0.50400001928E-02 0.  1.
       -1    1    3    3    0  502 -0.50714955791E+02 -0.11611307900E+04  0.11115519936E+04  0.16082116007E+04  0.50400001928E-02 0. -1.
</event>
<event>
 5   0  0.8263673E-07  0.2907158E+04  0.7818609E-02  0.8270751E-01
       -1   -1    0    0    0  501  0.00000000000E+00  0.00000000000E+00  0.11450501268E+04  0.11450501268E+04  0.50400001928E-02 0. -1.
        1   -1    0    0  501    0  0.00000000000E+00  0.00000000000E+00 -0.18452400593E+04  0.18452400594E+04  0.50400001928E-02 0.  1.
    10030    2    1    2    0    0  0.00000000000E+00  0.00000000000E+00 -0.70018993252E+03  0.29902901862E+04  0.29071583129E+04 0.  0.
        5    1    3    3  502    0 -0.94343895046E+03  0.70074865146E+03 -0.12299769004E+04  0.17011734160E+04  0.46999998093E+01 0.  1.
       -5    1    3    3    0  502  0.94343895046E+03 -0.70074865146E+03  0.52978696791E+03  0.12891167702E+04  0.46999998093E+01 0. -1.
</event>
<event>
 5   0  0.8355946E-07  0.2898955E+04  0.7818609E-02  0.8273189E-01
       -1   -1    0    0    0  501  0.00000000000E+00  0.00000000000E+00  0.63821648080E+03  0.63821648082E+03  0.50400001928E-02 0. -1.
        1   -1    0    0  501    0  0.00000000000E+00  0.00000000000E+00 -0.32919619371E+04  0.32919619371E+04  0.50400001928E-02 0.  1.
    10030    2    1    2    0    0  0.00000000000E+00  0.00000000000E+00 -0.26537454563E+04  0.39301784179E+04  0.28989545443E+04 0.  0.
        4    1    3    3  502    0  0.91259159120E+01 -0.74467377055E+03 -0.30127510511E+04  0.31034324249E+04  0.12699999809E+01 0.  1.
       -4    1    3    3    0  502 -0.91259159120E+01  0.74467377055E+03  0.35900559487E+03  0.82674599299E+03  0.12699999809E+01 0. -1.
</event>
<event>
 5   0  0.2304435E-06  0.2906096E+04  0.7818609E-02  0.8271066E-01
       -2   -1    0    0    0  501  0.00000000000E+00  0.00000000000E+00  0.17955211222E+04  0.17955211222E+04  0.25500000920E-02 0. -1.
        2   -1    0    0  501    0  0.00000000000E+00  0.00000000000E+00 -0.11758976498E+04  0.11758976499E+04  0.25500000920E-02 0.  1.
    10030    2    1    2    0    0  0.00000000000E+00  0.00000000000E+00  0.61962347239E+03  0.29714187721E+04  0.29060963975E+04 0.  0.
        1    1    3    3  502    0  0.11352840188E+04  0.22802498483E+03 -0.58769067182E+03  0.12985551674E+04  0.50400001928E-02 0.  1.
       -1    1    3    3    0  502 -0.11352840188E+04 -0.22802498483E+03  0.12073141442E+04  0.16728636047E+04  0.50400001928E-02 0. -1.
</event>
<event>
 5   0  0.8357118E-07  0.2901001E+04  0.7818609E-02  0.8272580E-01
        1   -1    0    0  501    0  0.00000000000E+00  0.00000000000E+00  0.14091732508E+04  0.14091732508E+04  0.50400001928E-02 0.  1.
       -1   -1    0    0    0  501  0.00000000000E+00  0.00000000000E+00 -0.14930400181E+04  0.14930400181E+04  0.50400001928E-02 0. -1.
    10030    2    1    2    0    0  0.00000000000E+00  0.00000000000E+00 -0.83866767323E+02  0.29022132689E+04  0.29010012450E+04 0.  0.
        1    1    3    3  502    0 -0.11415884171E+04  0.87680273852E+03  0.13687265086E+03  0.14459395834E+04  0.50400001928E-02 0.  1.
       -1    1    3    3    0  502  0.11415884171E+04 -0.87680273852E+03 -0.22073941818E+03  0.14562736855E+04  0.50400001928E-02 0. -1.
</event>
<event>
 5   0  0.2378690E-06  0.2913264E+04  0.7818609E-02  0.8268942E-01
       -2   -1    0    0    0  501  0.00000000000E+00  0.00000000000E+00  0.72084581495E+03  0.72084581495E+03  0.25500000920E-02 0.  1.
        2   -1    0    0  501    0  0.00000000000E+00  0.00000000000E+00 -0.29434553892E+04  0.29434553892E+04  0.25500000920E-02 0. -1.
    10030    2    1    2    0    0  0.00000000000E+00  0.00000000000E+00 -0.22226095743E+04  0.36643012042E+04  0.29132644911E+04 0.  0.
        3    1    3    3  502    0  0.91580018478E+03  0.76013971256E+03 -0.21676127021E+04  0.24728621469E+04  0.10100000352E+00 0. -1.
       -3    1    3    3    0  502 -0.91580018478E+03 -0.76013971256E+03 -0.54996872164E+02  0.11914390573E+04  0.10100000352E+00 0.  1.
</event>
<event>
 5   0  0.2304435E-06  0.2898946E+04  0.7818609E-02  0.8273191E-01
       -2   -1    0    0    0  501  0.00000000000E+00  0.00000000000E+00  0.21201352969E+04  0.21201352969E+04  0.25500000920E-02 0. -1.
        2   -1    0    0  501    0  0.00000000000E+00  0.00000000000E+00 -0.99096134794E+03  0.99096134794E+03  0.25500000920E-02 0.  1.
    10030    2    1    2    0    0  0.00000000000E+00  0.00000000000E+00  0.11291739489E+04  0.31110966448E+04  0.28989461062E+04 0.  0.
        1    1    3    3  502    0  0.34675990561E+02  0.98419467161E+03  0.17059655810E+04  0.19698122092E+04  0.50400001928E-02 0. -1.
       -1    1    3    3    0  502 -0.34675990561E+02 -0.98419467161E+03 -0.57679163213E+03  0.11412844356E+04  0.50400001928E-02 0.  1.
</event>
<event>
 5   0  0.2304435E-06  0.2873969E+04  0.7818609E-02  0.8280665E-01
       -2   -1    0    0    0  501  0.00000000000E+00  0.00000000000E+00  0.11738083321E+04  0.11738083321E+04  0.25500000920E-02 0.  1.
        2   -1    0    0  501    0  0.00000000000E+00  0.00000000000E+00 -0.17591668852E+04  0.17591668852E+04  0.25500000920E-02 0. -1.
    10030    2    1    2    0    0  0.00000000000E+00  0.00000000000E+00 -0.58535855311E+03  0.29329752173E+04  0.28739692047E+04 0.  0.
        1    1    3    3  502    0  0.94304289144E+02 -0.57387101306E+03 -0.16336990107E+04  0.17341262053E+04  0.50400001928E-02 0. -1.
       -1    1    3    3    0  502 -0.94304289144E+02  0.57387101306E+03  0.10483404575E+04  0.11988490120E+04  0.50400001928E-02 0.  1.
</event>
<event>
 5   0  0.2325590E-06  0.2991514E+04  0.7818609E-02  0.8246158E-01
        2   -1    0    0  501    0  0.00000000000E+00  0.00000000000E+00  0.21344465976E+04  0.21344465977E+04  0.25500000920E-02 0. -1.
       -2   -1    0    0    0  501  0.00000000000E+00  0.00000000000E+00 -0.10481821595E+04  0.10481821595E+04  0.25500000920E-02 0.  1.
    10030    2    1    2    0    0  0.00000000000E+00  0.00000000000E+00  0.10862644381E+04  0.31826287572E+04  0.29915138938E+04 0.  0.
        5    1    3    3  502    0 -0.13550636494E+04 -0.62784837524E+03  0.45491513052E+03  0.15612049648E+04  0.46999998093E+01 0.  1.
       -5    1    3    3    0  502  0.13550636494E+04  0.62784837524E+03  0.63134930758E+03  0.16214237924E+04  0.46999998093E+01 0. -1.
</event>
<event>
 5   0  0.8263673E-07  0.2902107E+04  0.7818609E-02  0.8272251E-01
       -1   -1    0    0    0  501  0.00000000000E+00  0.00000000000E+00  0.22683476802E+04  0.22683476802E+04  0.50400001928E-02 0.  1.
        1   -1    0    0  501    0  0.00000000000E+00  0.00000000000E+00 -0.92823362193E+03  0.92823362194E+03  0.50400001928E-02 0. -1.
    10030    2    1    2    0    0  0.00000000000E+00  0.00000000000E+00  0.13401140582E+04  0.31965813021E+04  0.29021072227E+04 0.  0.
        5    1    3    3  502    0 -0.10022267311E+04  0.45983649067E+03 -0.36884872102E+03  0.11627465277E+04  0.46999998093E+01 0. -1.
       -5    1    3    3    0  502  0.10022267311E+04 -0.45983649067E+03  0.17089627793E+04  0.20338347744E+04  0.46999998093E+01 0.  1.
</event>
<event>
 5   0  0.2378690E-06  0.2900715E+04  0.7818609E-02  0.8272665E-01
        2   -1    0    0  501    0  0.00000000000E+00  0.00000000000E+00  0.12071798791E+04  0.12071798791E+04  0.25500000920E-02 0.  1.
       -2   -1    0    0    0  501  0.00000000000E+00  0.00000000000E+00 -0.17425210558E+04  0.17425210558E+04  0.25500000920E-02 0. -1.
    10030    2    1    2    0    0  0.00000000000E+00  0.00000000000E+00 -0.53534117675E+03  0.29497009349E+04  0.29007146413E+04 0.  0.
        3    1    3    3  502    0 -0.60975286501E+03 -0.12867888904E+04 -0.54784508667E+03  0.15256993328E+04  0.10100000352E+00 0.  1.
       -3    1    3    3    0  502  0.60975286501E+03  0.12867888904E+04  0.12503909920E+02  0.14240016021E+04  0.10100000352E+00 0. -1.
</event>
<event>
 5   0  0.8355946E-07  0.2903234E+04  0.7818609E-02  0.8271916E-01
       -1   -1    0    0    0  501  0.00000000000E+00  0.00000000000E+00  0.13978478309E+04  0.13978478309E+04  0.50400001928E-02 0.  1.
        1   -1    0    0  501    0  0.00000000000E+00  0.00000000000E+00 -0.15074547479E+04  0.15074547479E+04  0.50400001928E-02 0. -1.
    10030    2    1    2    0    0  0.00000000000E+00  0.00000000000E+00 -0.10960691698E+03  0.29053025788E+04  0.29032342996E+04 0.  0.
        4    1    3    3  502    0 -0.68514926444E+03 -0.33564536426E+03 -0.12906340168E+04  0.14992748591E+04  0.12699999809E+01 0. -1.
       -4    1    3    3    0  502  0.68514926444E+03  0.33564536426E+03  0.11810270998E+04  0.14060277197E+04  0.12699999809E+01 0.  1.
</event>
<event>
 5   0  0.8357118E-07  0.2907148E+04  0.7818609E-02  0.8270754E-01
        1   -1    0    0  501    0  0.00000000000E+00  0.00000000000E+00  0.16670791374E+04  0.16670791374E+04  0.50400001928E-02 0. -1.
       -1   -1    0    0    0  501  0.00000000000E+00  0.00000000000E+00 -0.12674130722E+04  0.12674130722E+04  0.50400001928E-02 0.  1.
    10030    2    1    2    0    0  0.00000000000E+00  0.00000000000E+00  0.39966606528E+03  0.29344922096E+04  0.29071483561E+04 0.  0.
        1    1    3    3  502    0 -0.45804593669E+03 -0.53664502267E+03  0.14826459190E+04  0.16419600731E+04  0.50400001928E-02 0. -1.
       -1    1    3    3    0  502  0.45804593669E+03  0.53664502267E+03 -0.10829798537E+04  0.12925321365E+04  0.50400001928E-02 0.  1.
</event>
<event>
 5   0  0.8947674E-07  0.2918535E+04  0.7818609E-02  0.8267384E-01
        1   -1    0    0  501    0  0.00000000000E+00  0.00000000000E+00  0.20546218624E+04  0.20546218624E+04  0.50400001928E-02 0. -1.
       -1   -1    0    0    0  501  0.00000000000E+00  0.00000000000E+00 -0.10364248412E+04  0.10364248412E+04  0.50400001928E-02 0.  1.
    10030    2    1    2    0    0  0.00000000000E+00  0.00000000000E+00  0.10181970212E+04  0.30910467036E+04  0.29185346580E+04 0.  0.
        3    1    3    3  502    0  0.12524767976E+04  0.51760286654E+03 -0.64045195104E+02  0.13567286587E+04  0.10100000352E+00 0.  1.
       -3    1    3    3    0  502 -0.12524767976E+04 -0.51760286654E+03  0.10822422163E+04  0.17343180449E+04  0.10100000352E+00 0. -1.
</event>
<event>
 5   0  0.8947674E-07  0.2897917E+04  0.7818609E-02  0.8273497E-01
       -1   -1    0    0    0  501  0.00000000000E+00  0.00000000000E+00  0.18154135821E+04  0.18154135821E+04  0.50400001928E-02 0. -1.
        1   -1    0    0  501    0  0.00000000000E+00  0.00000000000E+00 -0.11564754760E+04  0.11564754760E+04  0.50400001928E-02 0.  1.
    10030    2    1    2    0    0  0.00000000000E+00  0.00000000000E+00  0.65893810612E+03  0.29718890581E+04  0.28979173808E+04 0.  0.
        3    1    3    3  502    0 -0.61474148659E+03  0.62588016624E+03 -0.85315750594E+03  0.12237282451E+04  0.10100000352E+00 0.  1.
       -3    1    3    3    0  502  0.61474148659E+03 -0.62588016624E+03  0.15120956121E+04  0.17481608130E+04  0.10100000352E+00 0. -1.
</event>
<event>
 5   0  0.2425845E-06  0.2871714E+04  0.7818609E-02  0.8281343E-01
        2   -1    0    0  501    0  0.00000000000E+00  0.00000000000E+00  0.16427529066E+04  0.16427529066E+04  0.25500000920E-02 0.  1.
       -2   -1    0    0    0  501  0.00000000000E+00  0.00000000000E+00 -0.12550189201E+04  0.12550189201E+04  0.25500000920E-02 0. -1.
    10030    2    1    2    0    0  0.00000000000E+00  0.00000000000E+00  0.38773398649E+03  0.28977718267E+04  0.28717144557E+04 0.  0.
        2    1    3    3  502    0 -0.89884590095E+03 -0.29874877046E+02  0.13233399910E+04  0.16000141230E+04  0.25500000920E-02 0.  1.
       -2    1    3    3    0  502  0.89884590095E+03  0.29874877046E+02 -0.93560600449E+03  0.12977577037E+04  0.25500000920E-02 0. -1.
</event>
<event>
 5   0  0.8263673E-07  0.2891780E+04  0.7818609E-02  0.8275327E-01
        1   -1    0    0  501    0  0.00000000000E+00  0.00000000000E+00  0.13149381545E+04  0.13149381545E+04  0.50400001928E-02 0.  1.
       -1   -1    0    0    0  501  0.00000000000E+00  0.00000000000E+00 -0.15898833936E+04  0.15898833936E+04  0.50400001928E-02 0. -1.
    10030    2    1    2    0    0  0.00000000000E+00  0.00000000000E+00 -0.27494523914E+03  0.29048215481E+04  0.28917803066E+04 0.  0.
        5    1    3    3  502    0  0.87095701109E+01 -0.14291744619E+04 -0.35745967583E+03  0.14732328427E+04  0.46999998093E+01 0. -1.
       -5    1    3    3    0  502 -0.87095701109E+01  0.14291744619E+04  0.82514436691E+02  0.14315887054E+04  0.46999998093E+01 0.  1.
</event>
<event>
 5   0  0.2325590E-06  0.2901583E+04  0.7818609E-02  0.8272407E-01
       -2   -1    0    0    0  501  0.00000000000E+00  0.00000000000E+00  0.13427287565E+04  0.13427287565E+04  0.25500000920E-02 0. -1.
        2   -1    0    0  501    0  0.00000000000E+00  0.00000000000E+00 -0.15675514163E+04  0.15675514163E+04  0.25500000920E-02 0.  1.
    10030    2    1    2    0    0  0.00000000000E+00  0.00000000000E+00 -0.22482265977E+03  0.29102801728E+04  0.29015832671E+04 0.  0.
        5    1    3    3  502    0 -0.82448962554E+02 -0.31154112188E+03  0.13063667502E+04  0.13455377654E+04  0.46999998093E+01 0. -1.
       -5    1    3    3    0  502  0.82448962554E+02  0.31154112188E+03 -0.15311894100E+04  0.15647424074E+04  0.46999998093E+01 0.  1.
</event>
<event>
 5   0  0.8483636E-07  0.2904637E+04  0.7818609E-02  0.8271499E-01
        1   -1    0    0  501    0  0.00000000000E+00  0.00000000000E+00  0.14193160225E+04  0.14193160225E+04  0.50400001928E-02 0. -1.
       -1   -1    0    0    0  501  0.00000000000E+00  0.00000000000E+00 -0.14860888693E+04  0.14860888693E+04  0.50400001928E-02 0.  1.
    10030    2    1    2    0    0  0.00000000000E+00  0.00000000000E+00 -0.66772846771E+02  0.29054048918E+04  0.29046374941E+04 0.  0.
        2    1    3    3  502    0  0.29756226013E+03 -0.27535430147E+02  0.13882308616E+04  0.14200304306E+04  0.25500000920E-02 0. -1.
       -2    1    3    3    0  502 -0.29756226013E+03  0.27535430147E+02 -0.14550037084E+04  0.14853744612E+04  0.25500000920E-02 0.  1.
</event>
<event>
 5   0  0.8483636E-07  0.2886196E+04  0.7818609E-02  0.8276996E-01
       -1   -1    0    0    0  501  0.00000000000E+00  0.00000000000E+00  0.33414679776E+04  0.33414679776E+04  0.50400001928E-02 0.  1.
        1   -1    0    0  501    0  0.00000000000E+00  0.00000000000E+00 -0.62323864380E+03  0.62323864382E+03  0.50400001928E-02 0. -1.
    10030    2    1    2    0    0  0.00000000000E+00  0.00000000000E+00  0.27182293338E+04  0.39647066215E+04  0.28861960923E+04 0.  0.
        2    1    3    3  502    0 -0.30621833293E+03 -0.17604548144E+03 -0.56294156274E+03  0.66457872523E+03  0.25500000920E-02 0. -1.
       -2    1    3    3    0  502  0.30621833293E+03  0.17604548144E+03  0.32811708966E+04  0.33001278962E+04  0.25500000920E-02 0.  1.
</event>
<event>
 5   0  0.8357118E-07  0.2902578E+04  0.7818609E-02  0.8272111E-01
        1   -1    0    0  501    0  0.00000000000E+00  0.00000000000E+00  0.26129533786E+04  0.26129533786E+04  0.50400001928E-02 0. -1.
       -1   -1    0    0    0  501  0.00000000000E+00  0.00000000000E+00 -0.80607649227E+03  0.80607649228E+03  0.50400001928E-02 0.  1.
    10030    2    1    2    0    0  0.00000000000E+00  0.00000000000E+00  0.18068768863E+04  0.34190298709E+04  0.29025783668E+04 0.  0.
        1    1    3    3  502    0  0.44823661467E+03 -0.13598556691E+04  0.62439915650E+03  0.15620492342E+04  0.50400001928E-02 0.  1.
       -1    1    3    3    0  502 -0.44823661467E+03  0.13598556691E+04  0.11824777298E+04  0.18569806367E+04  0.50400001928E-02 0. -1.
</event>
<event>
 5   0  0.8483636E-07  0.2897837E+04  0.7818609E-02  0.8273521E-01
       -1   -1    0    0    0  501  0.00000000000E+00  0.00000000000E+00  0.15189119024E+04  0.15189119024E+04  0.50400001928E-02 0.  1.
        1   -1    0    0  501    0  0.00000000000E+00  0.00000000000E+00 -0.13821501327E+04  0.13821501327E+04  0.50400001928E-02 0. -1.
    10030    2    1    2    0    0  0.00000000000E+00  0.00000000000E+00  0.13676176963E+03  0.29010620351E+04  0.28978366327E+04 0.  0.
        2    1    3    3  502    0  0.61754319320E+03  0.87080231312E+03  0.10491181562E+04  0.14967649013E+04  0.25500000920E-02 0. -1.
       -2    1    3    3    0  502 -0.61754319320E+03 -0.87080231312E+03 -0.91235638655E+03  0.14042971338E+04  0.25500000920E-02 0.  1.
</event>
<event>
 5   0  0.2304435E-06  0.2878701E+04  0.7818609E-02  0.8279243E-01
       -2   -1    0    0    0  501  0.00000000000E+00  0.00000000000E+00  0.25096805199E+04  0.25096805199E+04  0.25500000920E-02 0.  1.
        2   -1    0    0  501    0  0.00000000000E+00  0.00000000000E+00 -0.82549542423E+03  0.82549542423E+03  0.25500000920E-02 0. -1.
    10030    2    1    2    0    0  0.00000000000E+00  0.00000000000E+00  0.16841850956E+04  0.33351759441E+04  0.28787009469E+04 0.  0.
        1    1    3    3  502    0  0.99461100130E+03 -0.15933440137E+03 -0.34909034106E+03  0.10660687415E+04  0.50400001928E-02 0. -1.
       -1    1    3    3    0  502 -0.99461100130E+03  0.15933440137E+03  0.20332754367E+04  0.22691072026E+04  0.50400001928E-02 0.  1.
</event>
<event>
 5   0  0.2304435E-06  0.2894379E+04  0.7818609E-02  0.8274552E-01
        2   -1    0    0  501    0  0.00000000000E+00  0.00000000000E+00  0.25736122718E+04  0.25736122718E+04  0.25500000920E-02 0.  1.
       -2   -1    0    0    0  501  0.00000000000E+00  0.00000000000E+00 -0.81378146609E+03  0.81378146609E+03  0.25500000920E-02 0. -1.
    10030    2    1    2    0    0  0.00000000000E+00  0.00000000000E+00  0.17598308057E+04  0.33873937379E+04  0.28943793585E+04 0.  0.
        1    1    3    3  502    0 -0.22552021757E+03  0.50070402948E+03 -0.68710781772E+03  0.87959140905E+03  0.50400001928E-02 0. -1.
       -1    1    3    3    0  502  0.22552021757E+03 -0.50070402948E+03  0.24469386235E+04  0.25078023289E+04  0.50400001928E-02 0.  1.
</event>
<event>
 5   0  0.8355946E-07  0.2897310E+04  0.7818609E-02  0.8273678E-01
        1   -1    0    0  501    0  0.00000000000E+00  0.00000000000E+00  0.16707312835E+04  0.16707312835E+04  0.50400001928E-02 0.  1.
       -1   -1    0    0    0  501  0.00000000000E+00  0.00000000000E+00 -0.12560978528E+04  0.12560978528E+04  0.50400001928E-02 0. -1.
    10030    2    1    2    0    0  0.00000000000E+00  0.00000000000E+00  0.41463343065E+03  0.29268291363E+04  0.28973104616E+04 0.  0.
        4    1    3    3  502    0  0.10083974073E+03 -0.13728581093E+04 -0.24860435764E+03  0.13988258580E+04  0.12699999809E+01 0. -1.
       -4    1    3    3    0  502 -0.10083974073E+03  0.13728581093E+04  0.66323778830E+03  0.15280032782E+04  0.12699999809E+01 0.  1.
</event>
<event>
 5   0  0.2325590E-06  0.2906117E+04  0.7818609E-02  0.8271060E-01
        2   -1    0    0  501    0  0.00000000000E+00  0.00000000000E+00  0.18456942937E+04  0.18456942937E+04  0.25500000920E-02 0. -1.
       -2   -1    0    0    0  501  0.00000000000E+00  0.00000000000E+00 -0.11439482340E+04  0.11439482340E+04  0.25500000920E-02 0.  1.
    10030    2    1    2    0    0  0.00000000000E+00  0.00000000000E+00  0.70174605978E+03  0.29896425277E+04  0.29061168096E+04 0.  0.
        5    1    3    3  502    0 -0.11947335726E+04 -0.29178946918E+03  0.11469534967E+04  0.16816818419E+04  0.46999998093E+01 0. -1.
       -5    1    3    3    0  502  0.11947335726E+04  0.29178946918E+03 -0.44520743695E+03  0.13079606858E+04  0.46999998093E+01 0.  1.
</event>
<event>
 5   0  0.8263673E-07  0.2928132E+04  0.7818609E-02  0.8264556E-01
        1   -1    0    0  501    0  0.00000000000E+00  0.00000000000E+00  0.16918948280E+04  0.16918948280E+04  0.50400001928E-02 0. -1.
       -1   -1    0    0    0  501  0.00000000000E+00  0.00000000000E+00 -0.12669161643E+04  0.12669161643E+04  0.50400001928E-02 0.  1.
    10030    2    1    2    0    0  0.00000000000E+00  0.00000000000E+00  0.42497866374E+03  0.29588109923E+04  0.29281317634E+04 0.  0.
        5    1    3    3  502    0 -0.57057036626E+03 -0.90077879971E+02  0.15718733806E+04  0.16746559593E+04  0.46999998093E+01 0. -1.
       -5    1    3    3    0  502  0.57057036626E+03  0.90077879971E+02 -0.11468947169E+04  0.12841550330E+04  0.46999998093E+01 0.  1.
</event>
<event>
 5   0  0.8483636E-07  0.2849923E+04  0.7818609E-02  0.8287935E-01
       -1   -1    0    0    0  501  0.00000000000E+00  0.00000000000E+00  0.10123660279E+04  0.10123660279E+04  0.50400001928E-02 0. -1.
        1   -1    0    0  501    0  0.00000000000E+00  0.00000000000E+00 -0.20057124928E+04  0.20057124928E+04  0.50400001928E-02 0.  1.
    10030    2    1    2    0    0  0.00000000000E+00  0.00000000000E+00 -0.99334646493E+03  0.30180785207E+04  0.28499229389E+04 0.  0.
        2    1    3    3  502    0 -0.55253813855E+03 -0.73982323249E+03  0.65266444163E+03  0.11307553596E+04  0.25500000920E-02 0. -1.
       -2    1    3    3    0  502  0.55253813855E+03  0.73982323249E+03 -0.16460109066E+04  0.18873231611E+04  0.25500000920E-02 0.  1.
</event>
<event>
 5   0  0.2325590E-06  0.2889320E+04  0.7818609E-02  0.8276062E-01
       -2   -1    0    0    0  501  0.00000000000E+00  0.00000000000E+00  0.14981011506E+04  0.14981011507E+04  0.25500000920E-02 0. -1.
        2   -1    0    0  501    0  0.00000000000E+00  0.00000000000E+00 -0.13931249699E+04  0.13931249700E+04  0.25500000920E-02 0.  1.
    10030    2    1    2    0    0  0.00000000000E+00  0.00000000000E+00  0.10497618070E+03  0.28912261206E+04  0.28893197265E+04 0.  0.
        5    1    3    3  502    0 -0.12081425167E+04 -0.33121153106E+03 -0.66750775360E+03  0.14194710670E+04  0.46999998093E+01 0.  1.
       -5    1    3    3    0  502  0.12081425167E+04  0.33121153106E+03  0.77248393430E+03  0.14717550536E+04  0.46999998093E+01 0. -1.
</event>
<event>
 5   0  0.2304435E-06  0.2894150E+04  0.7818609E-02  0.8274620E-01
       -2   -1    0    0    0  501  0.00000000000E+00  0.00000000000E+00  0.10351684893E+04  0.10351684893E+04  0.25500000920E-02 0.  1.
        2   -1    0    0  501    0  0.00000000000E+00  0.00000000000E+00 -0.20228845339E+04  0.20228845339E+04  0.25500000920E-02 0. -1.
    10030    2    1    2    0    0  0.00000000000E+00  0.00000000000E+00 -0.98771604460E+03  0.30580530232E+04  0.28941501875E+04 0.  0.
        1    1    3    3  502    0  0.19595557823E+03 -0.70692396175E+03 -0.18118503082E+04  0.19547229000E+04  0.50400001928E-02 0. -1.
       -1    1    3    3    0  502 -0.19595557823E+03  0.70692396175E+03  0.82413426359E+03  0.11033301232E+04  0.50400001928E-02 0.  1.
</event>
<event>
 5   0  0.8355946E-07  0.2890945E+04  0.7818609E-02  0.8275577E-01
        1   -1    0    0  501    0  0.00000000000E+00  0.00000000000E+00  0.16419303470E+04  0.16419303470E+04  0.50400001928E-02 0.  1.
       -1   -1    0    0    0  501  0.00000000000E+00  0.00000000000E+00 -0.12725210915E+04  0.12725210915E+04  0.50400001928E-02 0. -1.
    10030    2    1    2    0    0  0.00000000000E+00  0.00000000000E+00  0.36940925546E+03  0.29144514385E+04  0.28909451723E+04 0.  0.
        4    1    3    3  502    0 -0.44272013024E+03 -0.91197143516E+03  0.12234692132E+04  0.15888900342E+04  0.12699999809E+01 0.  1.
       -4    1    3    3    0  502  0.44272013024E+03  0.91197143516E+03 -0.85405995770E+03  0.13255614043E+04  0.12699999809E+01 0. -1.
</event>
<event>
 5   0  0.7621125E-07  0.2885383E+04  0.7818609E-02  0.8277240E-01
        3   -1    0    0  501    0  0.00000000000E+00  0.00000000000E+00  0.10050344815E+04  0.10050344866E+04  0.10100000352E+00 0. -1.
       -3   -1    0    0    0  501  0.00000000000E+00  0.00000000000E+00 -0.20709331080E+04  0.20709331105E+04  0.10100000352E+00 0.  1.
    10030    2    1    2    0    0  0.00000000000E+00  0.00000000000E+00 -0.10658986265E+04  0.30759675970E+04  0.28853832979E+04 0.  0.
        2    1    3    3  502    0  0.56234300291E+03  0.10113434997E+04  0.38553560475E+03  0.12197061244E+04  0.25500000920E-02 0. -1.
       -2    1    3    3    0  502 -0.56234300291E+03 -0.10113434997E+04 -0.14514342313E+04  0.18562614727E+04  0.25500000920E-02 0.  1.
</event>
<event>
 5   0  0.8263673E-07  0.2886423E+04  0.7818609E-02  0.8276929E-01
        1   -1    0    0  501    0  0.00000000000E+00  0.00000000000E+00  0.21845875619E+04  0.21845875619E+04  0.50400001928E-02 0.  1.
       -1   -1    0    0    0  501  0.00000000000E+00  0.00000000000E+00 -0.95343365998E+03  0.95343366000E+03  0.50400001928E-02 0. -1.
    10030    2    1    2    0    0  0.00000000000E+00  0.00000000000E+00  0.12311539019E+04  0.31380212219E+04  0.28864229175E+04 0.  0.
        5    1    3    3  502    0 -0.33259608376E+03 -0.68937607946E+03  0.19457360093E+04  0.20908778639E+04  0.46999998093E+01 0.  1.
       -5    1    3    3    0  502  0.33259608376E+03  0.68937607946E+03 -0.71458210743E+03  0.10471433580E+04  0.46999998093E+01 0. -1.
</event>
<event>
 5   0  0.8947674E-07  0.2917211E+04  0.7818609E-02  0.8267775E-01
        1   -1    0    0  501    0  0.00000000000E+00  0.00000000000E+00  0.18867126090E+04  0.18867126090E+04  0.50400001928E-02 0.  1.
       -1   -1    0    0    0  501  0.00000000000E+00  0.00000000000E+00 -0.11276386148E+04  0.11276386148E+04  0.50400001928E-02 0. -1.
    10030    2    1    2    0    0  0.00000000000E+00  0.00000000000E+00  0.75907399429E+03  0.30143512238E+04  0.29172109920E+04 0.  0.
        3    1    3    3  502    0  0.13273467180E+04  0.21729883310E+03 -0.20357871890E+03  0.13603353989E+04  0.10100000352E+00 0. -1.
       -3    1    3    3    0  502 -0.13273467180E+04 -0.21729883310E+03  0.96265271319E+03  0.16540158249E+04  0.10100000352E+00 0.  1.
</event>
<event>
 5   0  0.8263673E-07  0.2902939E+04  0.7818609E-02  0.8272004E-01
        1   -1    0    0  501    0  0.00000000000E+00  0.00000000000E+00  0.13690133015E+04  0.13690133015E+04  0.50400001928E-02 0.  1.
       -1   -1    0    0    0  501  0.00000000000E+00  0.00000000000E+00 -0.15388918809E+04  0.15388918810E+04  0.50400001928E-02 0. -1.
    10030    2    1    2    0    0  0.00000000000E+00  0.00000000000E+00 -0.16987857945E+03  0.29079051825E+04  0.29029388244E+04 0.  0.
        5    1    3    3  502    0  0.21685012854E+03  0.13963159583E+04 -0.41719806717E+03  0.14733630072E+04  0.46999998093E+01 0. -1.
       -5    1    3    3    0  502 -0.21685012854E+03 -0.13963159583E+04  0.24731948772E+03  0.14345421753E+04  0.46999998093E+01 0.  1.
</event>
<event>
 5   0  0.8355946E-07  0.2893135E+04  0.7818609E-02  0.8274923E-01
        1   -1    0    0  501    0  0.00000000000E+00  0.00000000000E+00  0.17358417827E+04  0.17358417827E+04  0.50400001928E-02 0.  1.
       -1   -1    0    0    0  501  0.00000000000E+00  0.00000000000E+00 -0.12055001877E+04  0.12055001877E+04  0.50400001928E-02 0. -1.
    10030    2    1    2    0    0  0.00000000000E+00  0.00000000000E+00  0.53034159499E+03  0.29413419704E+04  0.28931350434E+04 0.  0.
        4    1    3    3  502    0  0.18069373373E+03 -0.70550025426E+03 -0.10055252424E+04  0.12415568695E+04  0.12699999809E+01 0. -1.
       -4    1    3    3    0  502 -0.18069373373E+03  0.70550025426E+03  0.15358668374E+04  0.16997851009E+04  0.12699999809E+01 0.  1.
</event>
<event>
 5   0  0.8263673E-07  0.2898506E+04  0.7818609E-02  0.8273322E-01
       -1   -1    0    0    0  501  0.00000000000E+00  0.00000000000E+00  0.11186232085E+04  0.11186232085E+04  0.50400001928E-02 0. -1.
        1   -1    0    0  501    0  0.00000000000E+00  0.00000000000E+00 -0.18776070910E+04  0.18776070910E+04  0.50400001928E-02 0.  1.
    10030    2    1    2    0    0  0.00000000000E+00  0.00000000000E+00 -0.75898388257E+03  0.29962302995E+04  0.28985064212E+04 0.  0.
        5    1    3    3  502    0  0.52940090858E+03  0.12229481214E+04 -0.96829722836E+03  0.16472671435E+04  0.46999998093E+01 0.  1.
       -5    1    3    3    0  502 -0.52940090858E+03 -0.12229481214E+04  0.20931334579E+03  0.13489631560E+04  0.46999998093E+01 0. -1.
</event>
<event>
 5   0  0.2360103E-06  0.2909411E+04  0.7818609E-02  0.8270083E-01
        2   -1    0    0  501    0  0.00000000000E+00  0.00000000000E+00  0.11686344354E+04  0.11686344354E+04  0.25500000920E-02 0.  1.
       -2   -1    0    0    0  501  0.00000000000E+00  0.00000000000E+00 -0.18108035744E+04  0.18108035744E+04  0.25500000920E-02 0. -1.
    10030    2    1    2    0    0  0.00000000000E+00  0.00000000000E+00 -0.64216913901E+03  0.29794380097E+04  0.29094105332E+04 0.  0.
        4    1    3    3  502    0 -0.11524230817E+04  0.37451923285E+03 -0.11453313421E+04  0.16673719175E+04  0.12699999809E+01 0. -1.
       -4    1    3    3    0  502  0.11524230817E+04 -0.37451923285E+03  0.50316220313E+03  0.13120660923E+04  0.12699999809E+01 0.  1.
</event>
<event>
 5   0  0.8263673E-07  0.2900085E+04  0.7818609E-02  0.8272852E-01
       -1   -1    0    0    0  501  0.00000000000E+00  0.00000000000E+00  0.70739846056E+03  0.70739846058E+03  0.50400001928E-02 0.  1.
        1   -1    0    0  501    0  0.00000000000E+00  0.00000000000E+00 -0.29723331848E+04  0.29723331848E+04  0.50400001928E-02 0. -1.
    10030    2    1    2    0    0  0.00000000000E+00  0.00000000000E+00 -0.22649347242E+04  0.36797316454E+04  0.29000854603E+04 0.  0.
        5    1    3    3  502    0 -0.10789369104E+04 -0.37228904204E+02  0.95822494231E+02  0.10838334227E+04  0.46999998093E+01 0.  1.
       -5    1    3    3    0  502  0.10789369104E+04  0.37228904204E+02 -0.23607572185E+04  0.25958982226E+04  0.46999998093E+01 0. -1.
</event>
<event>
 5   0  0.2378690E-06  0.2904271E+04  0.7818609E-02  0.8271608E-01
        2   -1    0    0  501    0  0.00000000000E+00  0.00000000000E+00  0.14629223897E+04  0.14629223897E+04  0.25500000920E-02 0.  1.
       -2   -1    0    0    0  501  0.00000000000E+00  0.00000000000E+00 -0.14414286180E+04  0.14414286180E+04  0.25500000920E-02 0. -1.
    10030    2    1    2    0    0  0.00000000000E+00  0.00000000000E+00  0.21493771664E+02  0.29043510078E+04  0.29042714739E+04 0.  0.
        3    1    3    3  502    0 -0.13003785933E+04  0.50172751724E+02  0.65512188395E+03  0.14569442281E+04  0.10100000352E+00 0.  1.
       -3    1    3    3    0  502  0.13003785933E+04 -0.50172751724E+02 -0.63362811228E+03  0.14474067796E+04  0.10100000352E+00 0. -1.
</event>
<event>
 5   0  0.2378690E-06  0.2906818E+04  0.7818609E-02  0.8270852E-01
        2   -1    0    0  501    0  0.00000000000E+00  0.00000000000E+00  0.15348626179E+04  0.15348626179E+04  0.25500000920E-02 0.  1.
       -2   -1    0    0    0  501  0.00000000000E+00  0.00000000000E+00 -0.13762779175E+04  0.13762779175E+04  0.25500000920E-02 0. -1.
    10030    2    1    2    0    0  0.00000000000E+00  0.00000000000E+00  0.15858470041E+03  0.29111405354E+04  0.29068178666E+04 0.  0.
        3    1    3    3  502    0  0.40970670212E+03 -0.61929157803E+03 -0.11719718256E+04  0.13874075143E+04  0.10100000352E+00 0. -1.
       -3    1    3    3    0  502 -0.40970670212E+03  0.61929157803E+03  0.13305565260E+04  0.15237330211E+04  0.10100000352E+00 0.  1.
</event>
<event>
 5   0  0.8483636E-07  0.2899085E+04  0.7818609E-02  0.8273150E-01
       -1   -1    0    0    0  501  0.00000000000E+00  0.00000000000E+00  0.19948291352E+04  0.19948291352E+04  0.50400001928E-02 0. -1.
        1   -1    0    0  501    0  0.00000000000E+00  0.00000000000E+00 -0.10533103289E+04  0.10533103289E+04  0.50400001928E-02 0.  1.
    10030    2    1    2    0    0  0.00000000000E+00  0.00000000000E+00  0.94151880634E+03  0.30481394642E+04  0.28990854645E+04 0.  0.
        2    1    3    3  502    0  0.22009021338E+03 -0.10132647041E+04 -0.59425050478E+03  0.11951061564E+04  0.25500000920E-02 0.  1.
       -2    1    3    3    0  502 -0.22009021338E+03  0.10132647041E+04  0.15357693111E+04  0.18530333077E+04  0.25500000920E-02 0. -1.
</event>
<event>
 5   0  0.2325590E-06  0.2912624E+04  0.7818609E-02  0.8269131E-01
        2   -1    0    0  501    0  0.00000000000E+00  0.00000000000E+00  0.13857866804E+04  0.13857866804E+04  0.25500000920E-02 0. -1.
       -2   -1    0    0    0  501  0.00000000000E+00  0.00000000000E+00 -0.15304268891E+04  0.15304268891E+04  0.25500000920E-02 0.  1.
    10030    2    1    2    0    0  0.00000000000E+00  0.00000000000E+00 -0.14464020871E+03  0.29162135694E+04  0.29126243823E+04 0.  0.
        5    1    3    3  502    0 -0.12243234161E+04 -0.69430149034E+03 -0.44668020194E+03  0.14766745341E+04  0.46999998093E+01 0.  1.
       -5    1    3    3    0  502  0.12243234161E+04  0.69430149034E+03  0.30203999323E+03  0.14395390353E+04  0.46999998093E+01 0. -1.
</event>
<event>
 5   0  0.8263673E-07  0.2899125E+04  0.7818609E-02  0.8273138E-01
       -1   -1    0    0    0  501  0.00000000000E+00  0.00000000000E+00  0.16367566190E+04  0.16367566190E+04  0.50400001928E-02 0. -1.
        1   -1    0    0  501    0  0.00000000000E+00  0.00000000000E+00 -0.12837774585E+04  0.12837774585E+04  0.50400001928E-02 0.  1.
    10030    2    1    2    0    0  0.00000000000E+00  0.00000000000E+00  0.35297916052E+03  0.29205340774E+04  0.28991248696E+04 0.  0.
        5    1    3    3  502    0  0.40117070757E+03  0.90519835073E+03  0.12430275122E+04  0.15891700592E+04  0.46999998093E+01 0. -1.
       -5    1    3    3    0  502 -0.40117070757E+03 -0.90519835073E+03 -0.89004835172E+03  0.13313640183E+04  0.46999998093E+01 0.  1.
</event>
<event>
 5   0  0.8483636E-07  0.2888896E+04  0.7818609E-02  0.8276189E-01
        1   -1    0    0  501    0  0.00000000000E+00  0.00000000000E+00  0.15521695829E+04  0.15521695829E+04  0.50400001928E-02 0.  1.
       -1   -1    0    0    0  501  0.00000000000E+00  0.00000000000E+00 -0.13442024566E+04  0.13442024566E+04  0.50400001928E-02 0. -1.
    10030    2    1    2    0    0  0.00000000000E+00  0.00000000000E+00  0.20796712635E+03  0.28963720395E+04  0.28888960981E+04 0.  0.
        2    1    3    3  502    0 -0.10384404926E+04  0.85106224199E+03  0.63805765285E+03  0.14865339433E+04  0.25500000920E-02 0.  1.
       -2    1    3    3    0  502  0.10384404926E+04 -0.85106224199E+03 -0.43009052649E+03  0.14098380961E+04  0.25500000920E-02 0. -1.
</event>
<event>
 5   0  0.2325590E-06  0.2893199E+04  0.7818609E-02  0.8274904E-01
       -2   -1    0    0    0  501  0.00000000000E+00  0.00000000000E+00  0.13235742585E+04  0.13235742585E+04  0.25500000920E-02 0.  1.
        2   -1    0    0  501    0  0.00000000000E+00  0.00000000000E+00 -0.15810593577E+04  0.15810593577E+04  0.25500000920E-02 0. -1.
    10030    2    1    2    0    0  0.00000000000E+00  0.00000000000E+00 -0.25748509923E+03  0.29046336162E+04  0.28931985531E+04 0.  0.
        5    1    3    3  502    0  0.38119679068E+03 -0.29601343373E+03  0.12403527573E+04  0.13309515388E+04  0.46999998093E+01 0.  1.
       -5    1    3    3    0  502 -0.38119679068E+03  0.29601343373E+03 -0.14978378565E+04  0.15736820774E+04  0.46999998093E+01 0. -1.
</event>
<event>
 5   0  0.2304435E-06  0.2889027E+04  0.7818609E-02  0.8276150E-01
        2   -1    0    0  501    0  0.00000000000E+00  0.00000000000E+00  0.18658430325E+04  0.18658430325E+04  0.25500000920E-02 0. -1.
       -2   -1    0    0    0  501  0.00000000000E+00  0.00000000000E+00 -0.11183250869E+04  0.11183250869E+04  0.25500000920E-02 0.  1.
    10030    2    1    2    0    0  0.00000000000E+00  0.00000000000E+00  0.74751794567E+03  0.29841681194E+04  0.28890268752E+04 0.  0.
        1    1    3    3  502    0  0.28651663947E+03  0.39751937827E+03  0.17773708117E+04  0.18436812206E+04  0.50400001928E-02 0. -1.
       -1    1    3    3    0  502 -0.28651663947E+03 -0.39751937827E+03 -0.10298528660E+04  0.11404868988E+04  0.50400001928E-02 0.  1.
</event>
<event>
 5   0  0.8483636E-07  0.2900755E+04  0.7818609E-02  0.8272653E-01
        1   -1    0    0  501    0  0.00000000000E+00  0.00000000000E+00  0.16218897741E+04  0.16218897741E+04  0.50400001928E-02 0. -1.
       -1   -1    0    0    0  501  0.00000000000E+00  0.00000000000E+00 -0.12970019596E+04  0.12970019596E+04  0.50400001928E-02 0.  1.
    10030    2    1    2    0    0  0.00000000000E+00  0.00000000000E+00  0.32488781451E+03  0.29188917338E+04  0.29007545331E+04 0.  0.
        2    1    3    3  502    0 -0.11897299767E+04 -0.82422347049E+03  0.25679836448E+03  0.14699480082E+04  0.25500000920E-02 0. -1.
       -2    1    3    3    0  502  0.11897299767E+04  0.82422347049E+03  0.68089450030E+02  0.14489437256E+04  0.25500000920E-02 0.  1.
</event>
<event>
 5   0  0.2304435E-06  0.2895310E+04  0.7818609E-02  0.8274274E-01
       -2   -1    0    0    0  501  0.00000000000E+00  0.00000000000E+00  0.10789495667E+04  0.10789495667E+04  0.25500000920E-02 0.  1.
        2   -1    0    0  501    0  0.00000000000E+00  0.00000000000E+00 -0.19423564044E+04  0.19423564044E+04  0.25500000920E-02 0. -1.
    10030    2    1    2    0    0  0.00000000000E+00  0.00000000000E+00 -0.86340683770E+03  0.30213059710E+04  0.28953097249E+04 0.  0.
        1    1    3    3  502    0  0.68640194111E+03 -0.12374217741E+04 -0.75052201796E+03  0.16017626451E+04  0.50400001928E-02 0. -1.
       -1    1    3    3    0  502 -0.68640194111E+03  0.12374217741E+04 -0.11288481974E+03  0.14195433260E+04  0.50400001928E-02 0.  1.
</event>
<event>
 5   0  0.8355946E-07  0.2875394E+04  0.7818609E-02  0.8280236E-01
       -1   -1    0    0    0  501  0.00000000000E+00  0.00000000000E+00  0.15384118182E+04  0.15384118182E+04  0.50400001928E-02 0.  1.
        1   -1    0    0  501    0  0.00000000000E+00  0.00000000000E+00 -0.13435759098E+04  0.13435759098E+04  0.50400001928E-02 0. -1.
    10030    2    1    2    0    0  0.00000000000E+00  0.00000000000E+00  0.19483590835E+03  0.28819877280E+04  0.28753942744E+04 0.  0.
        4    1    3    3  502    0 -0.18821646504E+03  0.11887845940E+04 -0.69072937820E+03  0.13877114021E+04  0.12699999809E+01 0. -1.
       -4    1    3    3    0  502  0.18821646504E+03 -0.11887845940E+04  0.88556528655E+03  0.14942763259E+04  0.12699999809E+01 0.  1.
</event>
<event>
 5   0  0.2378690E-06  0.2925420E+04  0.7818609E-02  0.8265354E-01
       -2   -1    0    0    0  501  0.00000000000E+00  0.00000000000E+00  0.17071482543E+04  0.17071482543E+04  0.25500000920E-02 0. -1.
        2   -1    0    0  501    0  0.00000000000E+00  0.00000000000E+00 -0.12532718457E+04  0.12532718457E+04  0.25500000920E-02 0.  1.
    10030    2    1    2    0    0  0.00000000000E+00  0.00000000000E+00  0.45387640856E+03  0.29604201000E+04  0.29254202047E+04 0.  0.
        3    1    3    3  502    0 -0.29704070613E+03 -0.43415685055E+03  0.16081099183E+04  0.16919642051E+04  0.10100000352E+00 0. -1.
       -3    1    3    3    0  502  0.29704070613E+03  0.43415685055E+03 -0.11542335097E+04  0.12684558948E+04  0.10100000352E+00 0.  1.
</event>
<event>
 5   0  0.8355946E-07  0.2901988E+04  0.7818609E-02  0.8272286E-01
       -1   -1    0    0    0  501  0.00000000000E+00  0.00000000000E+00  0.11579692820E+04  0.11579692820E+04  0.50400001928E-02 0.  1.
        1   -1    0    0  501    0  0.00000000000E+00  0.00000000000E+00 -0.18181692569E+04  0.18181692569E+04  0.50400001928E-02 0. -1.
    10030    2    1    2    0    0  0.00000000000E+00  0.00000000000E+00 -0.66019997492E+03  0.29761385389E+04  0.29019883866E+04 0.  0.
        4    1    3    3  502    0  0.52861432882E+03 -0.59210967124E+03  0.91557809489E+03  0.12117391766E+04  0.12699999809E+01 0.  1.
       -4    1    3    3    0  502 -0.52861432882E+03  0.59210967124E+03 -0.15757780698E+04  0.17643993623E+04  0.12699999809E+01 0. -1.
</event>
<event>
 5   0  0.2378690E-06  0.2900045E+04  0.7818609E-02  0.8272864E-01
       -2   -1    0    0    0  501  0.00000000000E+00  0.00000000000E+00  0.13445097503E+04  0.13445097503E+04  0.25500000920E-02 0.  1.
        2   -1    0    0  501    0  0.00000000000E+00  0.00000000000E+00 -0.15638150459E+04  0.15638150459E+04  0.25500000920E-02 0. -1.
    10030    2    1    2    0    0  0.00000000000E+00  0.00000000000E+00 -0.21930529560E+03  0.29083247962E+04  0.29000445355E+04 0.  0.
        3    1    3    3  502    0  0.11857570537E+04  0.76863006233E+03  0.21647211270E+03  0.14295706169E+04  0.10100000352E+00 0. -1.
       -3    1    3    3    0  502 -0.11857570537E+04 -0.76863006233E+03 -0.43577740830E+03  0.14787541793E+04  0.10100000352E+00 0.  1.
</event>
<event>
 5   0  0.2360103E-06  0.2897536E+04  0.7818609E-02  0.8273611E-01
       -2   -1    0    0    0  501  0.00000000000E+00  0.00000000000E+00  0.13391674441E+04  0.13391674441E+04  0.25500000920E-02 0.  1.
        2   -1    0    0  501    0  0.00000000000E+00  0.00000000000E+00 -0.15673383100E+04  0.15673383100E+04  0.25500000920E-02 0. -1.
    10030    2    1    2    0    0  0.00000000000E+00  0.00000000000E+00 -0.22817086590E+03  0.29065057541E+04  0.28975358073E+04 0.  0.
        4    1    3    3  502    0  0.31730496159E+03 -0.11532729952E+03 -0.15273273329E+04  0.15641973084E+04  0.12699999809E+01 0. -1.
       -4    1    3    3    0  502 -0.31730496159E+03  0.11532729952E+03  0.12991564670E+04  0.13423084457E+04  0.12699999809E+01 0.  1.
</event>
<event>
 5   0  0.2425845E-06  0.2898446E+04  0.7818609E-02  0.8273340E-01
        2   -1    0    0  501    0  0.00000000000E+00  0.00000000000E+00  0.18814171138E+04  0.18814171138E+04  0.25500000920E-02 0. -1.
       -2   -1    0    0    0  501  0.00000000000E+00  0.00000000000E+00 -0.11163116139E+04  0.11163116139E+04  0.25500000920E-02 0.  1.
    10030    2    1    2    0    0  0.00000000000E+00  0.00000000000E+00  0.76510549988E+03  0.29977287277E+04  0.28984463250E+04 0.  0.
        2    1    3    3  502    0  0.66307446387E+03 -0.12819911589E+04  0.51771470201E+03  0.15333615323E+04  0.25500000920E-02 0. -1.
       -2    1    3    3    0  502 -0.66307446387E+03  0.12819911589E+04  0.24739079787E+03  0.14643671954E+04  0.25500000920E-02 0.  1.
</event>
<event>
 5   0  0.2425845E-06  0.2884674E+04  0.7818609E-02  0.8277452E-01
        2   -1    0    0  501    0  0.00000000000E+00  0.00000000000E+00  0.18739518735E+04  0.18739518735E+04  0.25500000920E-02 0.  1.
       -2   -1    0    0    0  501  0.00000000000E+00  0.00000000000E+00 -0.11101331330E+04  0.11101331330E+04  0.25500000920E-02 0. -1.
    10030    2    1    2    0    0  0.00000000000E+00  0.00000000000E+00  0.76381874056E+03  0.29840850065E+04  0.28846740297E+04 0.  0.
        2    1    3    3  502    0  0.76525794263E+03  0.12003948042E+04  0.62178109138E+03  0.15534410611E+04  0.25500000920E-02 0.  1.
       -2    1    3    3    0  502 -0.76525794263E+03 -0.12003948042E+04  0.14203764919E+03  0.14306439454E+04  0.25500000920E-02 0. -1.
</event>
<event>
 5   0  0.8355946E-07  0.2905984E+04  0.7818609E-02  0.8271099E-01
        1   -1    0    0  501    0  0.00000000000E+00  0.00000000000E+00  0.23294634761E+04  0.23294634761E+04  0.50400001928E-02 0.  1.
       -1   -1    0    0    0  501  0.00000000000E+00  0.00000000000E+00 -0.90629716561E+03  0.90629716563E+03  0.50400001928E-02 0. -1.
    10030    2    1    2    0    0  0.00000000000E+00  0.00000000000E+00  0.14231663105E+04  0.32357606417E+04  0.29059842710E+04 0.  0.
        4    1    3    3  502    0  0.13346858049E+04  0.47497351729E+03  0.35215354841E+03  0.14597944288E+04  0.12699999809E+01 0.  1.
       -4    1    3    3    0  502 -0.13346858049E+04 -0.47497351729E+03  0.10710127621E+04  0.17759662129E+04  0.12699999809E+01 0. -1.
</event>
<event>
 5   0  0.2425845E-06  0.2922098E+04  0.7818609E-02  0.8266333E-01
        2   -1    0    0  501    0  0.00000000000E+00  0.00000000000E+00  0.15818069531E+04  0.15818069531E+04  0.25500000920E-02 0.  1.
       -2   -1    0    0    0  501  0.00000000000E+00  0.00000000000E+00 -0.13495103553E+04  0.13495103553E+04  0.25500000920E-02 0. -1.
    10030    2    1    2    0    0  0.00000000000E+00  0.00000000000E+00  0.23229659774E+03  0.29313173084E+04  0.29220984674E+04 0.  0.
        2    1    3    3  502    0  0.69046574001E+03 -0.36171125697E+03 -0.11235039155E+04  0.13674205716E+04  0.25500000920E-02 0. -1.
       -2    1    3    3    0  502 -0.69046574001E+03  0.36171125697E+03  0.13558005132E+04  0.15638967368E+04  0.25500000920E-02 0.  1.
</event>
<event>
 5   0  0.7621125E-07  0.2913288E+04  0.7818609E-02  0.8268935E-01
        4   -1    0    0  501    0  0.00000000000E+00  0.00000000000E+00  0.20877759756E+04  0.20877763618E+04  0.12699999809E+01 0.  1.
       -4   -1    0    0    0  501  0.00000000000E+00  0.00000000000E+00 -0.10163017293E+04  0.10163025228E+04  0.12699999809E+01 0. -1.
    10030    2    1    2    0    0  0.00000000000E+00  0.00000000000E+00  0.10714742463E+04  0.31040788846E+04  0.29132882901E+04 0.  0.
        4    1    3    3  502    0  0.98546918610E+03  0.10127885450E+04  0.15914956521E+03  0.14220479425E+04  0.12699999809E+01 0.  1.
       -4    1    3    3    0  502 -0.98546918610E+03 -0.10127885450E+04  0.91232468110E+03  0.16820309421E+04  0.12699999809E+01 0. -1.
</event>
<event>
 5   0  0.2325590E-06  0.2872915E+04  0.7818609E-02  0.8280982E-01
       -2   -1    0    0    0  501  0.00000000000E+00  0.00000000000E+00  0.16309947496E+04  0.16309947496E+04  0.25500000920E-02 0. -1.
        2   -1    0    0  501    0  0.00000000000E+00  0.00000000000E+00 -0.12651237064E+04  0.12651237064E+04  0.25500000920E-02 0.  1.
    10030    2    1    2    0    0  0.00000000000E+00  0.00000000000E+00  0.36587104319E+03  0.28961184560E+04  0.28729149815E+04 0.  0.
        5    1    3    3  502    0 -0.13188187193E+04  0.29893412992E+03  0.67135213911E+03  0.15097616411E+04  0.46999998093E+01 0. -1.
       -5    1    3    3    0  502  0.13188187193E+04 -0.29893412992E+03 -0.30548109592E+03  0.13863568149E+04  0.46999998093E+01 0.  1.
</event>
<event>
 5   0  0.2378690E-06  0.2891639E+04  0.7818609E-02  0.8275369E-01
       -2   -1    0    0    0  501  0.00000000000E+00  0.00000000000E+00  0.11915710225E+04  0.11915710225E+04  0.25500000920E-02 0. -1.
        2   -1    0    0  501    0  0.00000000000E+00  0.00000000000E+00 -0.17543180004E+04  0.17543180004E+04  0.25500000920E-02 0.  1.
    10030    2    1    2    0    0  0.00000000000E+00  0.00000000000E+00 -0.56274697791E+03  0.29458890228E+04  0.28916393229E+04 0.  0.
        3    1    3    3  502    0  0.53865747953E+03  0.11840505086E+04 -0.92429716519E+03  0.15957608677E+04  0.10100000352E+00 0. -1.
       -3    1    3    3    0  502 -0.53865747953E+03 -0.11840505086E+04  0.36155018728E+03  0.13501281551E+04  0.10100000352E+00 0.  1.
</event>
<event>
 5   0  0.8263673E-07  0.2903228E+04  0.7818609E-02  0.8271918E-01
       -1   -1    0    0    0  501  0.00000000000E+00  0.00000000000E+00  0.18991174733E+04  0.18991174733E+04  0.50400001928E-02 0.  1.
        1   -1    0    0  501    0  0.00000000000E+00  0.00000000000E+00 -0.11095591171E+04  0.11095591171E+04  0.50400001928E-02 0. -1.
    10030    2    1    2    0    0  0.00000000000E+00  0.00000000000E+00  0.78955835621E+03  0.30086765905E+04  0.29032279325E+04 0.  0.
        5    1    3    3  502    0 -0.18187036497E+03  0.42870555706E+03 -0.10300383536E+04  0.11304275227E+04  0.46999998093E+01 0. -1.
       -5    1    3    3    0  502  0.18187036497E+03 -0.42870555706E+03  0.18195967098E+04  0.18782490677E+04  0.46999998093E+01 0.  1.
</event>
<event>
 5   0  0.8357118E-07  0.2909081E+04  0.7818609E-02  0.8270181E-01
        1   -1    0    0  501    0  0.00000000000E+00  0.00000000000E+00  0.23292357739E+04  0.23292357739E+04  0.50400001928E-02 0. -1.
       -1   -1    0    0    0  501  0.00000000000E+00  0.00000000000E+00 -0.90831877344E+03  0.90831877346E+03  0.50400001928E-02 0.  1.
    10030    2    1    2    0    0  0.00000000000E+00  0.00000000000E+00  0.14209170004E+04  0.32375545473E+04  0.29090813541E+04 0.  0.
        1    1    3    3  502    0  0.10958680590E+04 -0.15084972721E+03 -0.34064419335E+03  0.11574631353E+04  0.50400001928E-02 0.  1.
       -1    1    3    3    0  502 -0.10958680590E+04  0.15084972721E+03  0.17615611938E+04  0.20800914121E+04  0.50400001928E-02 0. -1.
</event>
<event>
 5   0  0.2378690E-06  0.2895089E+04  0.7818609E-02  0.8274340E-01
       -2   -1    0    0    0  501  0.00000000000E+00  0.00000000000E+00  0.14405318000E+04  0.14405318000E+04  0.25500000920E-02 0.  1.
        2   -1    0    0  501    0  0.00000000000E+00  0.00000000000E+00 -0.14545910337E+04  0.14545910337E+04  0.25500000920E-02 0. -1.
    10030    2    1    2    0    0  0.00000000000E+00  0.00000000000E+00 -0.14059233622E+02  0.28951228337E+04  0.28950886964E+04 0.  0.
        3    1    3    3  502    0  0.11580055064E+04 -0.39282520535E+02  0.86065841210E+03  0.14433477688E+04  0.10100000352E+00 0.  1.
       -3    1    3    3    0  502 -0.11580055064E+04  0.39282520535E+02 -0.87471764573E+03  0.14517750649E+04  0.10100000352E+00 0. -1.
</event>
<event>
 5   0  0.8483636E-07  0.2862067E+04  0.7818609E-02  0.8284254E-01
        1   -1    0    0  501    0  0.00000000000E+00  0.00000000000E+00  0.21266422750E+04  0.21266422750E+04  0.50400001928E-02 0.  1.
       -1   -1    0    0    0  501  0.00000000000E+00  0.00000000000E+00 -0.96295337754E+03  0.96295337755E+03  0.50400001928E-02 0. -1.
    10030    2    1    2    0    0  0.00000000000E+00  0.00000000000E+00  0.11636888975E+04  0.30895956526E+04  0.28620673378E+04 0.  0.
        2    1    3    3  502    0 -0.88264804762E+03 -0.21055008503E+03  0.17763655437E+04  0.19947113724E+04  0.25500000920E-02 0.  1.
       -2    1    3    3    0  502  0.88264804762E+03  0.21055008503E+03 -0.61267664619E+03  0.10948842802E+04  0.25500000920E-02 0. -1.
</event>
<event>
 5   0  0.2360103E-06  0.2921793E+04  0.7818609E-02  0.8266423E-01
        2   -1    0    0  501    0  0.00000000000E+00  0.00000000000E+00  0.24492450852E+04  0.24492450852E+04  0.25500000920E-02 0. -1.
       -2   -1    0    0    0  501  0.00000000000E+00  0.00000000000E+00 -0.87137833637E+03  0.87137833637E+03  0.25500000920E-02 0.  1.
    10030    2    1    2    0    0  0.00000000000E+00  0.00000000000E+00  0.15778667489E+04  0.33206234216E+04  0.29217933587E+04 0.  0.
        4    1    3    3  502    0  0.63309729941E+03  0.26568985554E+03 -0.67658744404E+03  0.96393748354E+03  0.12699999809E+01 0.  1.
       -4    1    3    3    0  502 -0.63309729941E+03 -0.26568985554E+03  0.22544541929E+04  0.23566859381E+04  0.12699999809E+01 0. -1.
</event>
<event>
 5   0  0.8355946E-07  0.2907652E+04  0.7818609E-02  0.8270605E-01
        1   -1    0    0  501    0  0.00000000000E+00  0.00000000000E+00  0.25339791974E+04  0.25339791974E+04  0.50400001928E-02 0.  1.
       -1   -1    0    0    0  501  0.00000000000E+00  0.00000000000E+00 -0.83410687650E+03  0.83410687652E+03  0.50400001928E-02 0. -1.
    10030    2    1    2    0    0  0.00000000000E+00  0.00000000000E+00  0.16998723209E+04  0.33680860740E+04  0.29076516115E+04 0.  0.
        4    1    3    3  502    0  0.45443158325E+03  0.10923600630E+04 -0.12875142278E+03  0.11900996231E+04  0.12699999809E+01 0.  1.
       -4    1    3    3    0  502 -0.45443158325E+03 -0.10923600630E+04  0.18286237437E+04  0.21779864509E+04  0.12699999809E+01 0. -1.
</event>
<event>
 5   0  0.2360103E-06  0.2881218E+04  0.7818609E-02  0.8278488E-01
       -2   -1    0    0    0  501  0.00000000000E+00  0.00000000000E+00  0.13233620634E+04  0.13233620634E+04  0.25500000920E-02 0.  1.
        2   -1    0    0  501    0  0.00000000000E+00  0.00000000000E+00 -0.15682442732E+04  0.15682442732E+04  0.25500000920E-02 0. -1.
    10030    2    1    2    0    0  0.00000000000E+00  0.00000000000E+00 -0.24488220980E+03  0.28916063366E+04  0.28812184764E+04 0.  0.
        4    1    3    3  502    0  0.37601305708E+03  0.65091358904E+02  0.12717147444E+04  0.13277359332E+04  0.12699999809E+01 0.  1.
       -4    1    3    3    0  502 -0.37601305708E+03 -0.65091358904E+02 -0.15165969542E+04  0.15638704034E+04  0.12699999809E+01 0. -1.
</event>
<event>
 5   0  0.2304435E-06  0.2931015E+04  0.7818609E-02  0.8263709E-01
       -2   -1    0    0    0  501  0.00000000000E+00  0.00000000000E+00  0.18968968982E+04  0.18968968982E+04  0.25500000920E-02 0.  1.
        2   -1    0    0  501    0  0.00000000000E+00  0.00000000000E+00 -0.11322241669E+04  0.11322241669E+04  0.25500000920E-02 0. -1.
    10030    2    1    2    0    0  0.00000000000E+00  0.00000000000E+00  0.76467273132E+03  0.30291210651E+04  0.29310151895E+04 0.  0.
        1    1    3    3  502    0  0.12848139846E+04  0.65905877869E+03  0.64092547012E+03  0.15798388864E+04  0.50400001928E-02 0.  1.
       -1    1    3    3    0  502 -0.12848139846E+04 -0.65905877869E+03  0.12374726119E+03  0.14492821787E+04  0.50400001928E-02 0. -1.
</event>
<event>
 5   0  0.2425845E-06  0.2894334E+04  0.7818609E-02  0.8274565E-01
       -2   -1    0    0    0  501  0.00000000000E+00  0.00000000000E+00  0.10608907688E+04  0.10608907688E+04  0.25500000920E-02 0. -1.
        2   -1    0    0  501    0  0.00000000000E+00  0.00000000000E+00 -0.19740886020E+04  0.19740886020E+04  0.25500000920E-02 0.  1.
    10030    2    1    2    0    0  0.00000000000E+00  0.00000000000E+00 -0.91319783318E+03  0.30349793708E+04  0.28943340337E+04 0.  0.
        2    1    3    3  502    0 -0.10518596870E+04  0.64442283947E+03 -0.12500749566E+04  0.17562394467E+04  0.25500000920E-02 0.  1.
       -2    1    3    3    0  502  0.10518596870E+04 -0.64442283947E+03  0.33687712339E+03  0.12787399241E+04  0.25500000920E-02 0. -1.
</event>
<event>
 5   0  0.8947674E-07  0.2978914E+04  0.7818609E-02  0.8249778E-01
       -1   -1    0    0    0  501  0.00000000000E+00  0.00000000000E+00  0.13034070561E+04  0.13034070561E+04  0.50400001928E-02 0. -1.
        1   -1    0    0  501    0  0.00000000000E+00  0.00000000000E+00 -0.17020637066E+04  0.17020637066E+04  0.50400001928E-02 0.  1.
    10030    2    1    2    0    0  0.00000000000E+00  0.00000000000E+00 -0.39865665045E+03  0.30054707627E+04  0.29789137921E+04 0.  0.
        3    1    3    3  502    0 -0.12424861452E+04 -0.81571274799E+03 -0.10191327675E+03  0.14898138925E+04  0.10100000352E+00 0.  1.
       -3    1    3    3    0  502  0.12424861452E+04  0.81571274799E+03 -0.29674337370E+03  0.15156568702E+04  0.10100000352E+00 0. -1.
</event>
<event>
 5   0  0.8357118E-07  0.2900201E+04  0.7818609E-02  0.8272818E-01
        1   -1    0    0  501    0  0.00000000000E+00  0.00000000000E+00  0.18288430659E+04  0.18288430659E+04  0.50400001928E-02 0.  1.
       -1   -1    0    0    0  501  0.00000000000E+00  0.00000000000E+00 -0.11497935750E+04  0.11497935750E+04  0.50400001928E-02 0. -1.
    10030    2    1    2    0    0  0.00000000000E+00  0.00000000000E+00  0.67904949088E+03  0.29786366409E+04  0.29002013770E+04 0.  0.
        1    1    3    3  502    0 -0.10724802468E+04  0.33334779777E+03  0.12816430312E+04  0.17040960928E+04  0.50400001928E-02 0.  1.
       -1    1    3    3    0  502  0.10724802468E+04 -0.33334779777E+03 -0.60259354029E+03  0.12745405481E+04  0.50400001928E-02 0. -1.
</event>
<event>
 5   0  0.8483636E-07  0.2903389E+04  0.7818609E-02  0.8271870E-01
        1   -1    0    0  501    0  0.00000000000E+00  0.00000000000E+00  0.18873293843E+04  0.18873293843E+04  0.50400001928E-02 0.  1.
       -1   -1    0    0    0  501  0.00000000000E+00  0.00000000000E+00 -0.11166130898E+04  0.11166130898E+04  0.50400001928E-02 0. -1.
    10030    2    1    2    0    0  0.00000000000E+00  0.00000000000E+00  0.77071629450E+03  0.30039424741E+04  0.29033888443E+04 0.  0.
        2    1    3    3  502    0  0.63349391880E+03  0.10403361474E+04 -0.43180747029E+03  0.12923124762E+04  0.25500000920E-02 0. -1.
       -2    1    3    3    0  502 -0.63349391880E+03 -0.10403361474E+04  0.12025237648E+04  0.17116299979E+04  0.25500000920E-02 0.  1.
</event>
<event>
 5   0  0.2425845E-06  0.2898525E+04  0.7818609E-02  0.8273317E-01
       -2   -1    0    0    0  501  0.00000000000E+00  0.00000000000E+00  0.18067344365E+04  0.18067344365E+04  0.25500000920E-02 0. -1.
        2   -1    0    0  501    0  0.00000000000E+00  0.00000000000E+00 -0.11625179262E+04  0.11625179262E+04  0.25500000920E-02 0.  1.
    10030    2    1    2    0    0  0.00000000000E+00  0.00000000000E+00  0.64421651037E+03  0.29692523627E+04  0.28985245697E+04 0.  0.
        2    1    3    3  502    0  0.84208226393E+03 -0.11615029329E+04  0.11174508792E+03  0.14389852560E+04  0.25500000920E-02 0. -1.
       -2    1    3    3    0  502 -0.84208226393E+03  0.11615029329E+04  0.53247142246E+03  0.15302671067E+04  0.25500000920E-02 0.  1.
</event>
<event>
 5   0  0.2325590E-06  0.2864284E+04  0.7818609E-02  0.8283584E-01
        2   -1    0    0  501    0  0.00000000000E+00  0.00000000000E+00  0.14196980898E+04  0.14196980898E+04  0.25500000920E-02 0.  1.
       -2   -1    0    0    0  501  0.00000000000E+00  0.00000000000E+00 -0.14446948552E+04  0.14446948552E+04  0.25500000920E-02 0. -1.
    10030    2    1    2    0    0  0.00000000000E+00  0.00000000000E+00 -0.24996765322E+02  0.28643929450E+04  0.28642838730E+04 0.  0.
        5    1    3    3  502    0 -0.87156158465E+03 -0.30773987500E+03  0.10814742638E+04  0.14226496757E+04  0.46999998093E+01 0.  1.
       -5    1    3    3    0  502  0.87156158465E+03  0.30773987500E+03 -0.11064710291E+04  0.14417432693E+04  0.46999998093E+01 0. -1.
</event>
<event>
 5   0  0.8357118E-07  0.2901066E+04  0.7818609E-02  0.8272560E-01
        1   -1    0    0  501    0  0.00000000000E+00  0.00000000000E+00  0.12563718018E+04  0.12563718018E+04  0.50400001928E-02 0. -1.
       -1   -1    0    0    0  501  0.00000000000E+00  0.00000000000E+00 -0.16747004468E+04  0.16747004468E+04  0.50400001928E-02 0.  1.
    10030    2    1    2    0    0  0.00000000000E+00  0.00000000000E+00 -0.41832864502E+03  0.29310722486E+04  0.29010662990E+04 0.  0.
        1    1    3    3  502    0 -0.97372408617E+03 -0.25694258845E+03 -0.12639394262E+04  0.16160757912E+04  0.50400001928E-02 0.  1.
       -1    1    3    3    0  502  0.97372408617E+03  0.25694258845E+03  0.84561078118E+03  0.13149964574E+04  0.50400001928E-02 0. -1.
</event>
<event>
 5   0  0.2304435E-06  0.2919843E+04  0.7818609E-02  0.8266998E-01
        2   -1    0    0  501    0  0.00000000000E+00  0.00000000000E+00  0.17116056426E+04  0.17116056426E+04  0.25500000920E-02 0.  1.
       -2   -1    0    0    0  501  0.00000000000E+00  0.00000000000E+00 -0.12452466070E+04  0.12452466070E+04  0.25500000920E-02 0. -1.
    10030    2    1    2    0    0  0.00000000000E+00  0.00000000000E+00  0.46635903560E+03  0.29568522495E+04  0.29198432279E+04 0.  0.
        1    1    3    3  502    0  0.21224127015E+03 -0.60219008962E+03  0.15627149171E+04  0.16881223809E+04  0.50400001928E-02 0.  1.
       -1    1    3    3    0  502 -0.21224127015E+03  0.60219008962E+03 -0.10963558815E+04  0.12687298687E+04  0.50400001928E-02 0. -1.
</event>
<event>
 5   0  0.8357118E-07  0.2900675E+04  0.7818609E-02  0.8272677E-01
        1   -1    0    0  501    0  0.00000000000E+00  0.00000000000E+00  0.19786475686E+04  0.19786475686E+04  0.50400001928E-02 0. -1.
       -1   -1    0    0    0  501  0.00000000000E+00  0.00000000000E+00 -0.10630891537E+04  0.10630891537E+04  0.50400001928E-02 0.  1.
    10030    2    1    2    0    0  0.00000000000E+00  0.00000000000E+00  0.91555841488E+03  0.30417367222E+04  0.29006749346E+04 0.  0.
        1    1    3    3  502    0  0.81640772423E+03  0.75938498637E+03 -0.51484575143E+03  0.12281096358E+04  0.50400001928E-02 0.  1.
       -1    1    3    3    0  502 -0.81640772423E+03 -0.75938498637E+03  0.14304041663E+04  0.18136270865E+04  0.50400001928E-02 0. -1.
</event>
<event>
 5   0  0.2325590E-06  0.2904844E+04  0.7818609E-02  0.8271438E-01
        2   -1    0    0  501    0  0.00000000000E+00  0.00000000000E+00  0.19219120340E+04  0.19219120340E+04  0.25500000920E-02 0.  1.
       -2   -1    0    0    0  501  0.00000000000E+00  0.00000000000E+00 -0.10976203072E+04  0.10976203072E+04  0.25500000920E-02 0. -1.
    10030    2    1    2    0    0  0.00000000000E+00  0.00000000000E+00  0.82429172683E+03  0.30195323412E+04  0.29048440076E+04 0.  0.
        5    1    3    3  502    0  0.78521374487E+03 -0.10627037522E+04  0.10389522375E+04  0.16808758823E+04  0.46999998093E+01 0.  1.
       -5    1    3    3    0  502 -0.78521374487E+03  0.10627037522E+04 -0.21466051068E+03  0.13386564589E+04  0.46999998093E+01 0. -1.
</event>
<event>
 5   0  0.2304435E-06  0.2899905E+04  0.7818609E-02  0.8272906E-01
       -2   -1    0    0    0  501  0.00000000000E+00  0.00000000000E+00  0.13095783564E+04  0.13095783564E+04  0.25500000920E-02 0.  1.
        2   -1    0    0  501    0  0.00000000000E+00  0.00000000000E+00 -0.16053729721E+04  0.16053729721E+04  0.25500000920E-02 0. -1.
    10030    2    1    2    0    0  0.00000000000E+00  0.00000000000E+00 -0.29579461568E+03  0.29149513286E+04  0.28999046179E+04 0.  0.
        1    1    3    3  502    0 -0.66003349356E+03  0.32912182599E+03  0.11069374784E+04  0.13301413346E+04  0.50400001928E-02 0.  1.
       -1    1    3    3    0  502  0.66003349356E+03 -0.32912182599E+03 -0.14027320941E+04  0.15848099939E+04  0.50400001928E-02 0. -1.
</event>
<event>
 5   0  0.2325590E-06  0.2854701E+04  0.7818609E-02  0.8286484E-01
        2   -1    0    0  501    0  0.00000000000E+00  0.00000000000E+00  0.89015322559E+03  0.89015322559E+03  0.25500000920E-02 0.  1.
       -2   -1    0    0    0  501  0.00000000000E+00  0.00000000000E+00 -0.22887408469E+04  0.22887408469E+04  0.25500000920E-02 0. -1.
    10030    2    1    2    0    0  0.00000000000E+00  0.00000000000E+00 -0.13985876213E+04  0.31788940725E+04  0.28547014186E+04 0.  0.
        5    1    3    3  502    0 -0.11316363941E+04 -0.39674050120E+03  0.16276908961E+03  0.12101734670E+04  0.46999998093E+01 0.  1.
       -5    1    3    3    0  502  0.11316363941E+04  0.39674050120E+03 -0.15613567109E+04  0.19687206055E+04  0.46999998093E+01 0. -1.
</event>
<event>
 5   0  0.2325590E-06  0.2901273E+04  0.7818609E-02  0.8272499E-01
        2   -1    0    0  501    0  0.00000000000E+00  0.00000000000E+00  0.13933734385E+04  0.13933734385E+04  0.25500000920E-02 0.  1.
       -2   -1    0    0    0  501  0.00000000000E+00  0.00000000000E+00 -0.15102525768E+04  0.15102525768E+04  0.25500000920E-02 0. -1.
    10030    2    1    2    0    0  0.00000000000E+00  0.00000000000E+00 -0.11687913836E+03  0.29036260153E+04  0.29012727041E+04 0.  0.
        5    1    3    3  502    0  0.11575057189E+04  0.67068097098E+03  0.50298896611E+03  0.14292139253E+04  0.46999998093E+01 0.  1.
       -5    1    3    3    0  502 -0.11575057189E+04 -0.67068097098E+03 -0.61986810446E+03  0.14744120900E+04  0.46999998093E+01 0. -1.
</event>
<event>
 5   0  0.8483636E-07  0.2893449E+04  0.7818609E-02  0.8274829E-01
       -1   -1    0    0    0  501  0.00000000000E+00  0.00000000000E+00  0.83131576093E+03  0.83131576095E+03  0.50400001928E-02 0. -1.
        1   -1    0    0  501    0  0.00000000000E+00  0.00000000000E+00 -0.25177096823E+04  0.25177096823E+04  0.50400001928E-02 0.  1.
    10030    2    1    2    0    0  0.00000000000E+00  0.00000000000E+00 -0.16863939214E+04  0.33490254433E+04  0.28934489734E+04 0.  0.
        2    1    3    3  502    0 -0.33957218230E+03 -0.13902150408E+04 -0.10887419853E+04  0.17981563439E+04  0.25500000920E-02 0. -1.
       -2    1    3    3    0  502  0.33957218230E+03  0.13902150408E+04 -0.59765193606E+03  0.15508690993E+04  0.25500000920E-02 0.  1.
</event>
<event>
 5   0  0.2378690E-06  0.2892061E+04  0.7818609E-02  0.8275243E-01
       -2   -1    0    0    0  501  0.00000000000E+00  0.00000000000E+00  0.12078122552E+04  0.12078122553E+04  0.25500000920E-02 0. -1.
        2   -1    0    0  501    0  0.00000000000E+00  0.00000000000E+00 -0.17312332550E+04  0.17312332550E+04  0.25500000920E-02 0.  1.
    10030    2    1    2    0    0  0.00000000000E+00  0.00000000000E+00 -0.52342099974E+03  0.29390455102E+04  0.28920613701E+04 0.  0.
        3    1    3    3  502    0  0.45844667474E+03  0.34519968056E+03 -0.16105519649E+04  0.17097408619E+04  0.10100000352E+00 0.  1.
       -3    1    3    3    0  502 -0.45844667474E+03 -0.34519968056E+03  0.10871309651E+04  0.12293046484E+04  0.10100000352E+00 0. -1.
</event>
<event>
 5   0  0.8483636E-07  0.2892588E+04  0.7818609E-02  0.8275086E-01
       -1   -1    0    0    0  501  0.00000000000E+00  0.00000000000E+00  0.13585776561E+04  0.13585776561E+04  0.50400001928E-02 0. -1.
        1   -1    0    0  501    0  0.00000000000E+00  0.00000000000E+00 -0.15396733596E+04  0.15396733596E+04  0.50400001928E-02 0.  1.
    10030    2    1    2    0    0  0.00000000000E+00  0.00000000000E+00 -0.18109570353E+03  0.28982510158E+04  0.28925876472E+04 0.  0.
        2    1    3    3  502    0  0.56900775760E+03 -0.13176522773E+04 -0.26919014955E+03  0.14602878787E+04  0.25500000920E-02 0.  1.
       -2    1    3    3    0  502 -0.56900775760E+03  0.13176522773E+04  0.88094446021E+02  0.14379631371E+04  0.25500000920E-02 0. -1.
</event>
<event>
 5   0  0.2360103E-06  0.2894735E+04  0.7818609E-02  0.8274446E-01
        2   -1    0    0  501    0  0.00000000000E+00  0.00000000000E+00  0.32910424280E+04  0.32910424280E+04  0.25500000920E-02 0. -1.
       -2   -1    0    0    0  501  0.00000000000E+00  0.00000000000E+00 -0.63653762648E+03  0.63653762648E+03  0.25500000920E-02 0.  1.
    10030    2    1    2    0    0  0.00000000000E+00  0.00000000000E+00  0.26545048015E+04  0.39275800545E+04  0.28947347621E+04 0.  0.
        4    1    3    3  502    0 -0.64055873977E+03  0.97020324741E+03  0.15751895497E+03  0.11732108397E+04  0.12699999809E+01 0.  1.
       -4    1    3    3    0  502  0.64055873977E+03 -0.97020324741E+03  0.24969858466E+04  0.27543692148E+04  0.12699999809E+01 0. -1.
</event>
<event>
 5   0  0.8947674E-07  0.2906651E+04  0.7818609E-02  0.8270901E-01
        1   -1    0    0  501    0  0.00000000000E+00  0.00000000000E+00  0.13905424831E+04  0.13905424831E+04  0.50400001928E-02 0. -1.
       -1   -1    0    0    0  501  0.00000000000E+00  0.00000000000E+00 -0.15189427355E+04  0.15189427355E+04  0.50400001928E-02 0.  1.
    10030    2    1    2    0    0  0.00000000000E+00  0.00000000000E+00 -0.12840025239E+03  0.29094852186E+04  0.29066505831E+04 0.  0.
        3    1    3    3  502    0 -0.12526608885E+04 -0.72555586773E+03 -0.19302596440E+03  0.14604279003E+04  0.10100000352E+00 0.  1.
       -3    1    3    3    0  502  0.12526608885E+04  0.72555586773E+03  0.64625712017E+02  0.14490573183E+04  0.10100000352E+00 0. -1.
</event>
<event>
 5   0  0.2378690E-06  0.2914247E+04  0.7818609E-02  0.8268651E-01
       -2   -1    0    0    0  501  0.00000000000E+00  0.00000000000E+00  0.10682823966E+04  0.10682823966E+04  0.25500000920E-02 0. -1.
        2   -1    0    0  501    0  0.00000000000E+00  0.00000000000E+00 -0.19874975540E+04  0.19874975540E+04  0.25500000920E-02 0.  1.
    10030    2    1    2    0    0  0.00000000000E+00  0.00000000000E+00 -0.91921515748E+03  0.30557799506E+04  0.29142468325E+04 0.  0.
        3    1    3    3  502    0 -0.28276116351E+03  0.18984813716E+03 -0.19451751651E+04  0.19747664733E+04  0.10100000352E+00 0.  1.
       -3    1    3    3    0  502  0.28276116351E+03 -0.18984813716E+03  0.10259600076E+04  0.10810134774E+04  0.10100000352E+00 0. -1.
</event>
<event>
 5   0  0.8355946E-07  0.2931684E+04  0.7818609E-02  0.8263513E-01
       -1   -1    0    0    0  501  0.00000000000E+00  0.00000000000E+00  0.19360825191E+04  0.19360825191E+04  0.50400001928E-02 0. -1.
        1   -1    0    0  501    0  0.00000000000E+00  0.00000000000E+00 -0.11098144400E+04  0.11098144400E+04  0.50400001928E-02 0.  1.
    10030    2    1    2    0    0  0.00000000000E+00  0.00000000000E+00  0.82626807915E+03  0.30458969591E+04  0.29316837052E+04 0.  0.
        4    1    3    3  502    0 -0.63079692372E+03 -0.74933178755E+03 -0.71989641371E+03  0.12155884773E+04  0.12699999809E+01 0.  1.
       -4    1    3    3    0  502  0.63079692372E+03  0.74933178755E+03  0.15461644929E+04  0.18303084818E+04  0.12699999809E+01 0. -1.
</event>
<event>
 5   0  0.2304435E-06  0.2902847E+04  0.7818609E-02  0.8272031E-01
        2   -1    0    0  501    0  0.00000000000E+00  0.00000000000E+00  0.27085863790E+04  0.27085863790E+04  0.25500000920E-02 0. -1.
       -2   -1    0    0    0  501  0.00000000000E+00  0.00000000000E+00 -0.77775980628E+03  0.77775980629E+03  0.25500000920E-02 0.  1.
    10030    2    1    2    0    0  0.00000000000E+00  0.00000000000E+00  0.19308265727E+04  0.34863461853E+04  0.29028466149E+04 0.  0.
        1    1    3    3  502    0 -0.22686142605E+03 -0.12366311030E+04  0.94447877183E+02  0.12608104509E+04  0.50400001928E-02 0.  1.
       -1    1    3    3    0  502  0.22686142605E+03  0.12366311030E+04  0.18363786955E+04  0.22255357344E+04  0.50400001928E-02 0. -1.
</event>
<event>
 5   0  0.8263673E-07  0.2806759E+04  0.7818609E-02  0.8301173E-01
        1   -1    0    0  501    0  0.00000000000E+00  0.00000000000E+00  0.35777276461E+04  0.35777276461E+04  0.50400001928E-02 0.  1.
       -1   -1    0    0    0  501  0.00000000000E+00  0.00000000000E+00 -0.55048163472E+03  0.55048163474E+03  0.50400001928E-02 0. -1.
    10030    2    1    2    0    0  0.00000000000E+00  0.00000000000E+00  0.30272460114E+04  0.41282092808E+04  0.28067585313E+04 0.  0.
        5    1    3    3  502    0 -0.28466074395E+03 -0.11940055110E+04  0.51307154923E+03  0.13303929510E+04  0.46999998093E+01 0. -1.
       -5    1    3    3    0  502  0.28466074395E+03  0.11940055110E+04  0.25141744621E+04  0.27978163298E+04  0.46999998093E+01 0.  1.
</event>
<event>
 5   0  0.8355946E-07  0.2898992E+04  0.7818609E-02  0.8273177E-01
        1   -1    0    0  501    0  0.00000000000E+00  0.00000000000E+00  0.25369718760E+04  0.25369718760E+04  0.50400001928E-02 0.  1.
       -1   -1    0    0    0  501  0.00000000000E+00  0.00000000000E+00 -0.82816813609E+03  0.82816813611E+03  0.50400001928E-02 0. -1.
    10030    2    1    2    0    0  0.00000000000E+00  0.00000000000E+00  0.17088037399E+04  0.33651400121E+04  0.28989924249E+04 0.  0.
        4    1    3    3  502    0  0.83678916915E+03 -0.86799837985E+03 -0.79588771964E+02  0.12082935432E+04  0.12699999809E+01 0. -1.
       -4    1    3    3    0  502 -0.83678916915E+03  0.86799837985E+03  0.17883925118E+04  0.21568464689E+04  0.12699999809E+01 0.  1.
</event>
<event>
 5   0  0.2378690E-06  0.2894470E+04  0.7818609E-02  0.8274525E-01
        2   -1    0    0  501    0  0.00000000000E+00  0.00000000000E+00  0.16389419986E+04  0.16389419986E+04  0.25500000920E-02 0.  1.
       -2   -1    0    0    0  501  0.00000000000E+00  0.00000000000E+00 -0.12779516540E+04  0.12779516540E+04  0.25500000920E-02 0. -1.
    10030    2    1    2    0    0  0.00000000000E+00  0.00000000000E+00  0.36099034462E+03  0.29168936526E+04  0.28944696494E+04 0.  0.
        3    1    3    3  502    0  0.49986695312E+03  0.34385863779E+03 -0.11436029126E+04  0.12945784509E+04  0.10100000352E+00 0. -1.
       -3    1    3    3    0  502 -0.49986695312E+03 -0.34385863779E+03  0.15045932572E+04  0.16223152017E+04  0.10100000352E+00 0.  1.
</event>
<event>
 5   0  0.8263673E-07  0.2901795E+04  0.7818609E-02  0.8272343E-01
        1   -1    0    0  501    0  0.00000000000E+00  0.00000000000E+00  0.14584361934E+04  0.14584361934E+04  0.50400001928E-02 0. -1.
       -1   -1    0    0    0  501  0.00000000000E+00  0.00000000000E+00 -0.14433982162E+04  0.14433982162E+04  0.50400001928E-02 0.  1.
    10030    2    1    2    0    0  0.00000000000E+00  0.00000000000E+00  0.15037977258E+02  0.29018344096E+04  0.29017954442E+04 0.  0.
        5    1    3    3  502    0 -0.55384868816E+03 -0.47946898713E+03 -0.12448728644E+04  0.14444270205E+04  0.46999998093E+01 0.  1.
       -5    1    3    3    0  502  0.55384868816E+03  0.47946898713E+03  0.12599108416E+04  0.14574073891E+04  0.46999998093E+01 0. -1.
</event>
<event>
 5   0  0.8947674E-07  0.2890837E+04  0.7818609E-02  0.8275609E-01
        1   -1    0    0  501    0  0.00000000000E+00  0.00000000000E+00  0.14074658508E+04  0.14074658508E+04  0.50400001928E-02 0. -1.
       -1   -1    0    0    0  501  0.00000000000E+00  0.00000000000E+00 -0.14843947828E+04  0.14843947828E+04  0.50400001928E-02 0.  1.
    10030    2    1    2    0    0  0.00000000000E+00  0.00000000000E+00 -0.76928932006E+02  0.28918606336E+04  0.28908372254E+04 0.  0.
        3    1    3    3  502    0 -0.99559308607E+03  0.82463893606E+03 -0.68522253451E+03  0.14631352979E+04  0.10100000352E+00 0.  1.
       -3    1    3    3    0  502  0.99559308607E+03 -0.82463893606E+03  0.60829360251E+03  0.14287253357E+04  0.10100000352E+00 0. -1.
</event>
<event>
 5   0  0.8483636E-07  0.2881299E+04  0.7818609E-02  0.8278463E-01
       -1   -1    0    0    0  501  0.00000000000E+00  0.00000000000E+00  0.78558440613E+03  0.78558440615E+03  0.50400001928E-02 0.  1.
        1   -1    0    0  501    0  0.00000000000E+00  0.00000000000E+00 -0.26419451828E+04  0.26419451828E+04  0.50400001928E-02 0. -1.
    10030    2    1    2    0    0  0.00000000000E+00  0.00000000000E+00 -0.18563607767E+04  0.34275295890E+04  0.28812989692E+04 0.  0.
        2    1    3    3  502    0  0.12577945758E+04  0.51016174272E+03 -0.15025860839E+04  0.20248647210E+04  0.25500000920E-02 0. -1.
       -2    1    3    3    0  502 -0.12577945758E+04 -0.51016174272E+03 -0.35377469274E+03  0.14026648680E+04  0.25500000920E-02 0.  1.
</event>
<event>
 5   0  0.2425845E-06  0.2883137E+04  0.7818609E-02  0.8277912E-01
       -2   -1    0    0    0  501  0.00000000000E+00  0.00000000000E+00  0.69152621568E+03  0.69152621568E+03  0.25500000920E-02 0.  1.
        2   -1    0    0  501    0  0.00000000000E+00  0.00000000000E+00 -0.30051203309E+04  0.30051203309E+04  0.25500000920E-02 0. -1.
    10030    2    1    2    0    0  0.00000000000E+00  0.00000000000E+00 -0.23135941152E+04  0.36966465465E+04  0.28831368265E+04 0.  0.
        2    1    3    3  502    0 -0.13050141659E+04  0.38626963398E+03 -0.54746239845E+03  0.14669632856E+04  0.25500000920E-02 0.  1.
       -2    1    3    3    0  502  0.13050141659E+04 -0.38626963398E+03 -0.17661317167E+04  0.22296832610E+04  0.25500000920E-02 0. -1.
</event>
<event>
 5   0  0.8355946E-07  0.2898680E+04  0.7818609E-02  0.8273270E-01
        1   -1    0    0  501    0  0.00000000000E+00  0.00000000000E+00  0.16492320394E+04  0.16492320394E+04  0.50400001928E-02 0. -1.
       -1   -1    0    0    0  501  0.00000000000E+00  0.00000000000E+00 -0.12736756918E+04  0.12736756919E+04  0.50400001928E-02 0.  1.
    10030    2    1    2    0    0  0.00000000000E+00  0.00000000000E+00  0.37555634757E+03  0.29229077313E+04  0.28986802230E+04 0.  0.
        4    1    3    3  502    0 -0.50110760680E+03 -0.10329127155E+04 -0.70424418407E+03  0.13468403747E+04  0.12699999809E+01 0.  1.
       -4    1    3    3    0  502  0.50110760680E+03  0.10329127155E+04  0.10798005316E+04  0.15760673565E+04  0.12699999809E+01 0. -1.
</event>
<event>
 5   0  0.8483636E-07  0.2904972E+04  0.7818609E-02  0.8271400E-01
        1   -1    0    0  501    0  0.00000000000E+00  0.00000000000E+00  0.14623244897E+04  0.14623244897E+04  0.50400001928E-02 0.  1.
       -1   -1    0    0    0  501  0.00000000000E+00  0.00000000000E+00 -0.14427138146E+04  0.14427138146E+04  0.50400001928E-02 0. -1.
    10030    2    1    2    0    0  0.00000000000E+00  0.00000000000E+00  0.19610675172E+02  0.29050383043E+04  0.29049721119E+04 0.  0.
        2    1    3    3  502    0 -0.19760638998E+02 -0.14245562525E+04 -0.27298148564E+03  0.14506101789E+04  0.25500000920E-02 0.  1.
       -2    1    3    3    0  502  0.19760638998E+02  0.14245562525E+04  0.29259216081E+03  0.14544281254E+04  0.25500000920E-02 0. -1.
</event>
<event>
 5   0  0.8947674E-07  0.2882180E+04  0.7818609E-02  0.8278199E-01
        1   -1    0    0  501    0  0.00000000000E+00  0.00000000000E+00  0.16094614496E+04  0.16094614496E+04  0.50400001928E-02 0.  1.
       -1   -1    0    0    0  501  0.00000000000E+00  0.00000000000E+00 -0.12903321601E+04  0.12903321601E+04  0.50400001928E-02 0. -1.
    10030    2    1    2    0    0  0.00000000000E+00  0.00000000000E+00  0.31912928948E+03  0.28997936096E+04  0.28821796396E+04 0.  0.
        3    1    3    3  502    0 -0.13199855524E+04 -0.46139093084E+03  0.51025818269E+03  0.14884914756E+04  0.10100000352E+00 0.  1.
       -3    1    3    3    0  502  0.13199855524E+04  0.46139093084E+03 -0.19112889321E+03  0.14113021341E+04  0.10100000352E+00 0. -1.
</event>
<event>
 5   0  0.2304435E-06  0.2864378E+04  0.7818609E-02  0.8283556E-01
        2   -1    0    0  501    0  0.00000000000E+00  0.00000000000E+00  0.83944319327E+03  0.83944319327E+03  0.25500000920E-02 0. -1.
       -2   -1    0    0    0  501  0.00000000000E+00  0.00000000000E+00 -0.24434836957E+04  0.24434836957E+04  0.25500000920E-02 0.  1.
    10030    2    1    2    0    0  0.00000000000E+00  0.00000000000E+00 -0.16040405024E+04  0.32829268890E+04  0.28643782964E+04 0.  0.
        1    1    3    3  502    0  0.84847521562E+03  0.71792997666E+03 -0.18372368688E+04  0.21472710484E+04  0.50400001928E-02 0.  1.
       -1    1    3    3    0  502 -0.84847521562E+03 -0.71792997666E+03  0.23319636643E+03  0.11356558406E+04  0.50400001928E-02 0. -1.
</event>
<event>
 5   0  0.2360103E-06  0.2903215E+04  0.7818609E-02  0.8271922E-01
       -2   -1    0    0    0  501  0.00000000000E+00  0.00000000000E+00  0.10799328700E+04  0.10799328700E+04  0.25500000920E-02 0. -1.
        2   -1    0    0  501    0  0.00000000000E+00  0.00000000000E+00 -0.19511994418E+04  0.19511994418E+04  0.25500000920E-02 0.  1.
    10030    2    1    2    0    0  0.00000000000E+00  0.00000000000E+00 -0.87126657183E+03  0.30311323118E+04  0.29032150544E+04 0.  0.
        4    1    3    3  502    0 -0.79454496511E+03 -0.11165383957E+04 -0.93547896206E+03  0.16592414508E+04  0.12699999809E+01 0.  1.
       -4    1    3    3    0  502  0.79454496511E+03  0.11165383957E+04  0.64212390229E+02  0.13718908610E+04  0.12699999809E+01 0. -1.
</event>
<event>
 5   0  0.8357118E-07  0.2902247E+04  0.7818609E-02  0.8272209E-01
        1   -1    0    0  501    0  0.00000000000E+00  0.00000000000E+00  0.15908210706E+04  0.15908210706E+04  0.50400001928E-02 0. -1.
       -1   -1    0    0    0  501  0.00000000000E+00  0.00000000000E+00 -0.13236933983E+04  0.13236933983E+04  0.50400001928E-02 0.  1.
    10030    2    1    2    0    0  0.00000000000E+00  0.00000000000E+00  0.26712767237E+03  0.29145144689E+04  0.29022469564E+04 0.  0.
        1    1    3    3  502    0  0.17546021033E+03  0.42448037915E+03  0.15158957437E+04  0.15839538451E+04  0.50400001928E-02 0. -1.
       -1    1    3    3    0  502 -0.17546021033E+03 -0.42448037915E+03 -0.12487680713E+04  0.13305606238E+04  0.50400001928E-02 0.  1.
</event>
<event>
 5   0  0.2304435E-06  0.2897783E+04  0.7818609E-02  0.8273537E-01
        2   -1    0    0  501    0  0.00000000000E+00  0.00000000000E+00  0.15732193562E+04  0.15732193562E+04  0.25500000920E-02 0.  1.
       -2   -1    0    0    0  501  0.00000000000E+00  0.00000000000E+00 -0.13343887237E+04  0.13343887237E+04  0.25500000920E-02 0. -1.
    10030    2    1    2    0    0  0.00000000000E+00  0.00000000000E+00  0.23883063245E+03  0.29076080799E+04  0.28977827170E+04 0.  0.
        1    1    3    3  502    0  0.61859968809E+03 -0.11646287194E+04  0.72166751930E+03  0.15032729748E+04  0.50400001928E-02 0. -1.
       -1    1    3    3    0  502 -0.61859968809E+03  0.11646287194E+04 -0.48283688685E+03  0.14043351051E+04  0.50400001928E-02 0.  1.
</event>
<event>
 5   0  0.2360103E-06  0.2898996E+04  0.7818609E-02  0.8273176E-01
        2   -1    0    0  501    0  0.00000000000E+00  0.00000000000E+00  0.14049619649E+04  0.14049619649E+04  0.25500000920E-02 0.  1.
       -2   -1    0    0    0  501  0.00000000000E+00  0.00000000000E+00 -0.14954460350E+04  0.14954460350E+04  0.25500000920E-02 0. -1.
    10030    2    1    2    0    0  0.00000000000E+00  0.00000000000E+00 -0.90484070103E+02  0.29004080000E+04  0.28989962400E+04 0.  0.
        4    1    3    3  502    0  0.10378436574E+04 -0.78088801788E+03 -0.68909068733E+03  0.14702901557E+04  0.12699999809E+01 0. -1.
       -4    1    3    3    0  502 -0.10378436574E+04  0.78088801788E+03  0.59860661723E+03  0.14301178443E+04  0.12699999809E+01 0.  1.
</event>
<event>
 5   0  0.2325590E-06  0.2878351E+04  0.7818609E-02  0.8279348E-01
       -2   -1    0    0    0  501  0.00000000000E+00  0.00000000000E+00  0.87968225397E+03  0.87968225398E+03  0.25500000920E-02 0. -1.
        2   -1    0    0  501    0  0.00000000000E+00  0.00000000000E+00 -0.23545162609E+04  0.23545162609E+04  0.25500000920E-02 0.  1.
    10030    2    1    2    0    0  0.00000000000E+00  0.00000000000E+00 -0.14748340069E+04  0.32341985149E+04  0.28783510359E+04 0.  0.
        5    1    3    3  502    0  0.12290675124E+04 -0.26321556155E+03  0.50177713147E+02  0.12579464515E+04  0.46999998093E+01 0. -1.
       -5    1    3    3    0  502 -0.12290675124E+04  0.26321556155E+03 -0.15250117201E+04  0.19762520634E+04  0.46999998093E+01 0.  1.
</event>
<event>
 5   0  0.2304435E-06  0.2899496E+04  0.7818609E-02  0.8273027E-01
        2   -1    0    0  501    0  0.00000000000E+00  0.00000000000E+00  0.18965684519E+04  0.18965684519E+04  0.25500000920E-02 0. -1.
       -2   -1    0    0    0  501  0.00000000000E+00  0.00000000000E+00 -0.11081959066E+04  0.11081959066E+04  0.25500000920E-02 0.  1.
    10030    2    1    2    0    0  0.00000000000E+00  0.00000000000E+00  0.78837254524E+03  0.30047643585E+04  0.28994960907E+04 0.  0.
        1    1    3    3  502    0  0.13602598506E+04  0.26635085370E+03 -0.46115325073E+02  0.13868584144E+04  0.50400001928E-02 0.  1.
       -1    1    3    3    0  502 -0.13602598506E+04 -0.26635085370E+03  0.83448787031E+03  0.16179059441E+04  0.50400001928E-02 0. -1.
</event>
<event>
 5   0  0.2325590E-06  0.2903355E+04  0.7818609E-02  0.8271880E-01
       -2   -1    0    0    0  501  0.00000000000E+00  0.00000000000E+00  0.10701797013E+04  0.10701797013E+04  0.25500000920E-02 0. -1.
        2   -1    0    0  501    0  0.00000000000E+00  0.00000000000E+00 -0.19691714297E+04  0.19691714298E+04  0.25500000920E-02 0.  1.
    10030    2    1    2    0    0  0.00000000000E+00  0.00000000000E+00 -0.89899172841E+03  0.30393511311E+04  0.29033548130E+04 0.  0.
        5    1    3    3  502    0 -0.89790449186E+02  0.31755830198E+03  0.10303833718E+04  0.10819508227E+04  0.46999998093E+01 0. -1.
       -5    1    3    3    0  502  0.89790449186E+02 -0.31755830198E+03 -0.19293751002E+04  0.19574003084E+04  0.46999998093E+01 0.  1.
</event>
<event>
 5   0  0.2304435E-06  0.2926601E+04  0.7818609E-02  0.8265006E-01
       -2   -1    0    0    0  501  0.00000000000E+00  0.00000000000E+00  0.81642401626E+03  0.81642401627E+03  0.25500000920E-02 0. -1.
        2   -1    0    0  501    0  0.00000000000E+00  0.00000000000E+00 -0.26227168344E+04  0.26227168344E+04  0.25500000920E-02 0.  1.
    10030    2    1    2    0    0  0.00000000000E+00  0.00000000000E+00 -0.18062928181E+04  0.34391408506E+04  0.29266014498E+04 0.  0.
        1    1    3    3  502    0  0.79278567913E+03  0.47789740452E+03  0.42862210227E+03  0.10201039010E+04  0.50400001928E-02 0. -1.
       -1    1    3    3    0  502 -0.79278567913E+03 -0.47789740452E+03 -0.22349149204E+04  0.24190369496E+04  0.50400001928E-02 0.  1.
</event>
<event>
 5   0  0.8355946E-07  0.2898929E+04  0.7818609E-02  0.8273196E-01
        1   -1    0    0  501    0  0.00000000000E+00  0.00000000000E+00  0.19364368444E+04  0.19364368444E+04  0.50400001928E-02 0. -1.
       -1   -1    0    0    0  501  0.00000000000E+00  0.00000000000E+00 -0.10849552423E+04  0.10849552423E+04  0.50400001928E-02 0.  1.
    10030    2    1    2    0    0  0.00000000000E+00  0.00000000000E+00  0.85148160212E+03  0.30213920867E+04  0.28989289786E+04 0.  0.
        4    1    3    3  502    0 -0.11089872513E+04 -0.75882649225E+03  0.99208843325E+03  0.16703027992E+04  0.12699999809E+01 0.  1.
       -4    1    3    3    0  502  0.11089872513E+04  0.75882649225E+03 -0.14060683113E+03  0.13510892875E+04  0.12699999809E+01 0. -1.
</event>
<event>
 5   0  0.8947674E-07  0.2905045E+04  0.7818609E-02  0.8271378E-01
        1   -1    0    0  501    0  0.00000000000E+00  0.00000000000E+00  0.20334526693E+04  0.20334526693E+04  0.50400001928E-02 0.  1.
       -1   -1    0    0    0  501  0.00000000000E+00  0.00000000000E+00 -0.10375560368E+04  0.10375560368E+04  0.50400001928E-02 0. -1.
    10030    2    1    2    0    0  0.00000000000E+00  0.00000000000E+00  0.99589663252E+03  0.30710087062E+04  0.29050446418E+04 0.  0.
        3    1    3    3  502    0  0.20013530568E+03 -0.12646629959E+04 -0.22708728298E+03  0.13003827430E+04  0.10100000352E+00 0. -1.
       -3    1    3    3    0  502 -0.20013530568E+03  0.12646629959E+04  0.12229839155E+04  0.17706259632E+04  0.10100000352E+00 0.  1.
</event>
<event>
 5   0  0.2304435E-06  0.2898376E+04  0.7818609E-02  0.8273361E-01
        2   -1    0    0  501    0  0.00000000000E+00  0.00000000000E+00  0.27420253822E+04  0.27420253822E+04  0.25500000920E-02 0. -1.
       -2   -1    0    0    0  501  0.00000000000E+00  0.00000000000E+00 -0.76591022360E+03  0.76591022361E+03  0.25500000920E-02 0.  1.
    10030    2    1    2    0    0  0.00000000000E+00  0.00000000000E+00  0.19761151586E+04  0.35079356058E+04  0.28983755958E+04 0.  0.
        1    1    3    3  502    0  0.13440712114E+03 -0.91567034612E+03  0.23377728514E+04  0.25142989802E+04  0.50400001928E-02 0. -1.
       -1    1    3    3    0  502 -0.13440712114E+03  0.91567034612E+03 -0.36165769281E+03  0.99363662562E+03  0.50400001928E-02 0.  1.
</event>
<event>
 5   0  0.8483636E-07  0.2892180E+04  0.7818609E-02  0.8275208E-01
        1   -1    0    0  501    0  0.00000000000E+00  0.00000000000E+00  0.20983379227E+04  0.20983379227E+04  0.50400001928E-02 0.  1.
       -1   -1    0    0    0  501  0.00000000000E+00  0.00000000000E+00 -0.99658674994E+03  0.99658674996E+03  0.50400001928E-02 0. -1.
    10030    2    1    2    0    0  0.00000000000E+00  0.00000000000E+00  0.11017511728E+04  0.30949246727E+04  0.28921796422E+04 0.  0.
        2    1    3    3  502    0 -0.31438518286E+02 -0.99679088092E+03 -0.56971769525E+03  0.11485463391E+04  0.25500000920E-02 0. -1.
       -2    1    3    3    0  502  0.31438518286E+02  0.99679088092E+03  0.16714688680E+04  0.19463783336E+04  0.25500000920E-02 0.  1.
</event>
<event>
 5   0  0.2425845E-06  0.2901053E+04  0.7818609E-02  0.8272564E-01
       -2   -1    0    0    0  501  0.00000000000E+00  0.00000000000E+00  0.13481930980E+04  0.13481930980E+04  0.25500000920E-02 0. -1.
        2   -1    0    0  501    0  0.00000000000E+00  0.00000000000E+00 -0.15606272174E+04  0.15606272174E+04  0.25500000920E-02 0.  1.
    10030    2    1    2    0    0  0.00000000000E+00  0.00000000000E+00 -0.21243411941E+03  0.29088203155E+04  0.29010528042E+04 0.  0.
        2    1    3    3  502    0 -0.67301985755E+03  0.11211690389E+04  0.52319858477E+03  0.14084432902E+04  0.25500000920E-02 0.  1.
       -2    1    3    3    0  502  0.67301985755E+03 -0.11211690389E+04 -0.73563270419E+03  0.15003770253E+04  0.25500000920E-02 0. -1.
</event>
<event>
 5   0  0.8355946E-07  0.2906719E+04  0.7818609E-02  0.8270881E-01
        1   -1    0    0  501    0  0.00000000000E+00  0.00000000000E+00  0.14847589273E+04  0.14847589273E+04  0.50400001928E-02 0.  1.
       -1   -1    0    0    0  501  0.00000000000E+00  0.00000000000E+00 -0.14226239728E+04  0.14226239729E+04  0.50400001928E-02 0. -1.
    10030    2    1    2    0    0  0.00000000000E+00  0.00000000000E+00  0.62134954419E+02  0.29073829001E+04  0.29067188676E+04 0.  0.
        4    1    3    3  502    0 -0.99702711068E+03  0.45883662460E+01 -0.10266086840E+04  0.14310873892E+04  0.12699999809E+01 0. -1.
       -4    1    3    3    0  502  0.99702711068E+03 -0.45883662460E+01  0.10887436384E+04  0.14762955109E+04  0.12699999809E+01 0.  1.
</event>
<event>
 5   0  0.2325590E-06  0.2894863E+04  0.7818609E-02  0.8274408E-01
        2   -1    0    0  501    0  0.00000000000E+00  0.00000000000E+00  0.14823322309E+04  0.14823322309E+04  0.25500000920E-02 0.  1.
       -2   -1    0    0    0  501  0.00000000000E+00  0.00000000000E+00 -0.14133520282E+04  0.14133520282E+04  0.25500000920E-02 0. -1.
    10030    2    1    2    0    0  0.00000000000E+00  0.00000000000E+00  0.68980202725E+02  0.28956842591E+04  0.28948625287E+04 0.  0.
        5    1    3    3  502    0  0.72387126065E+03  0.31081529606E+03  0.12490997534E+04  0.14767762303E+04  0.46999998093E+01 0.  1.
       -5    1    3    3    0  502 -0.72387126065E+03 -0.31081529606E+03 -0.11801195507E+04  0.14189080288E+04  0.46999998093E+01 0. -1.
</event>
<event>
 5   0  0.8357118E-07  0.2897217E+04  0.7818609E-02  0.8273706E-01
       -1   -1    0    0    0  501  0.00000000000E+00  0.00000000000E+00  0.13624199650E+04  0.13624199650E+04  0.50400001928E-02 0. -1.
        1   -1    0    0  501    0  0.00000000000E+00  0.00000000000E+00 -0.15402498479E+04  0.15402498480E+04  0.50400001928E-02 0.  1.
    10030    2    1    2    0    0  0.00000000000E+00  0.00000000000E+00 -0.17782988299E+03  0.29026698129E+04  0.28972173849E+04 0.  0.
        1    1    3    3  502    0 -0.25968131422E+03 -0.91630139022E+03  0.10046632001E+04  0.13843376641E+04  0.50400001928E-02 0. -1.
       -1    1    3    3    0  502  0.25968131422E+03  0.91630139022E+03 -0.11824930831E+04  0.15183321488E+04  0.50400001928E-02 0.  1.
</event>
<event>
 5   0  0.2304435E-06  0.2913306E+04  0.7818609E-02  0.8268929E-01
        2   -1    0    0  501    0  0.00000000000E+00  0.00000000000E+00  0.13175124698E+04  0.13175124698E+04  0.25500000920E-02 0.  1.
       -2   -1    0    0    0  501  0.00000000000E+00  0.00000000000E+00 -0.16104884361E+04  0.16104884361E+04  0.25500000920E-02 0. -1.
    10030    2    1    2    0    0  0.00000000000E+00  0.00000000000E+00 -0.29297596634E+03  0.29280009060E+04  0.29133064357E+04 0.  0.
        1    1    3    3  502    0  0.20087443356E+03  0.91525636548E+03  0.97439232667E+03  0.13518450943E+04  0.50400001928E-02 0.  1.
       -1    1    3    3    0  502 -0.20087443356E+03 -0.91525636548E+03 -0.12673682930E+04  0.15761558117E+04  0.50400001928E-02 0. -1.
</event>
<event>
 5   0  0.8483636E-07  0.2899834E+04  0.7818609E-02  0.8272927E-01
        1   -1    0    0  501    0  0.00000000000E+00  0.00000000000E+00  0.18204360296E+04  0.18204360296E+04  0.50400001928E-02 0.  1.
       -1   -1    0    0    0  501  0.00000000000E+00  0.00000000000E+00 -0.11548105439E+04  0.11548105439E+04  0.50400001928E-02 0. -1.
    10030    2    1    2    0    0  0.00000000000E+00  0.00000000000E+00  0.66562548574E+03  0.29752465735E+04  0.28998335962E+04 0.  0.
        2    1    3    3  502    0 -0.45056622223E+03  0.59322184373E+03  0.16090819530E+04  0.17731516596E+04  0.25500000920E-02 0.  1.
       -2    1    3    3    0  502  0.45056622223E+03 -0.59322184373E+03 -0.94345646721E+03  0.12020949139E+04  0.25500000920E-02 0. -1.
</event>
<event>
 5   0  0.8483636E-07  0.2882957E+04  0.7818609E-02  0.8277966E-01
        1   -1    0    0  501    0  0.00000000000E+00  0.00000000000E+00  0.19291947222E+04  0.19291947222E+04  0.50400001928E-02 0.  1.
       -1   -1    0    0    0  501  0.00000000000E+00  0.00000000000E+00 -0.10770610973E+04  0.10770610973E+04  0.50400001928E-02 0. -1.
    10030    2    1    2    0    0  0.00000000000E+00  0.00000000000E+00  0.85213362489E+03  0.30062558195E+04  0.28829572210E+04 0.  0.
        2    1    3    3  502    0 -0.95406792372E+03 -0.39190643418E+02  0.15521014175E+04  0.18223063188E+04  0.25500000920E-02 0.  1.
       -2    1    3    3    0  502  0.95406792372E+03  0.39190643418E+02 -0.69996779256E+03  0.11839495007E+04  0.25500000920E-02 0. -1.
</event>
<event>
 5   0  0.8263673E-07  0.2911946E+04  0.7818609E-02  0.8269332E-01
        1   -1    0    0  501    0  0.00000000000E+00  0.00000000000E+00  0.24461545808E+04  0.24461545808E+04  0.50400001928E-02 0.  1.
       -1   -1    0    0    0  501  0.00000000000E+00  0.00000000000E+00 -0.86660797341E+03  0.86660797342E+03  0.50400001928E-02 0. -1.
    10030    2    1    2    0    0  0.00000000000E+00  0.00000000000E+00  0.15795466074E+04  0.33127625542E+04  0.29119457852E+04 0.  0.
        5    1    3    3  502    0 -0.78330985439E+03  0.55285535181E+02  0.21845863707E+04  0.23214371668E+04  0.46999998093E+01 0.  1.
       -5    1    3    3    0  502  0.78330985439E+03 -0.55285535181E+02 -0.60503976336E+03  0.99132538736E+03  0.46999998093E+01 0. -1.
</event>
<event>
 5   0  0.8263673E-07  0.2903687E+04  0.7818609E-02  0.8271781E-01
        1   -1    0    0  501    0  0.00000000000E+00  0.00000000000E+00  0.20557291535E+04  0.20557291535E+04  0.50400001928E-02 0. -1.
       -1   -1    0    0    0  501  0.00000000000E+00  0.00000000000E+00 -0.10253535785E+04  0.10253535785E+04  0.50400001928E-02 0.  1.
    10030    2    1    2    0    0  0.00000000000E+00  0.00000000000E+00  0.10303755750E+04  0.30810827321E+04  0.29036867903E+04 0.  0.
        5    1    3    3  502    0  0.55036450227E+03 -0.41225460127E+03  0.18719657442E+04  0.19942750009E+04  0.46999998093E+01 0. -1.
       -5    1    3    3    0  502 -0.55036450227E+03  0.41225460127E+03 -0.84159016920E+03  0.10868077312E+04  0.46999998093E+01 0.  1.
</event>
<event>
 5   0  0.8355946E-07  0.2913279E+04  0.7818609E-02  0.8268938E-01
        1   -1    0    0  501    0  0.00000000000E+00  0.00000000000E+00  0.99230522232E+03  0.99230522233E+03  0.50400001928E-02 0. -1.
       -1   -1    0    0    0  501  0.00000000000E+00  0.00000000000E+00 -0.21382513965E+04  0.21382513965E+04  0.50400001928E-02 0.  1.
    10030    2    1    2    0    0  0.00000000000E+00  0.00000000000E+00 -0.11459461742E+04  0.31305566188E+04  0.29132785843E+04 0.  0.
        4    1    3    3  502    0 -0.84977070549E+03 -0.76922162503E+03 -0.15388927238E+04  0.19188550202E+04  0.12699999809E+01 0.  1.
       -4    1    3    3    0  502  0.84977070549E+03  0.76922162503E+03  0.39294654963E+03  0.12117015986E+04  0.12699999809E+01 0. -1.
</event>
<event>
 5   0  0.2360103E-06  0.2912002E+04  0.7818609E-02  0.8269316E-01
        2   -1    0    0  501    0  0.00000000000E+00  0.00000000000E+00  0.24466549369E+04  0.24466549369E+04  0.25500000920E-02 0.  1.
       -2   -1    0    0    0  501  0.00000000000E+00  0.00000000000E+00 -0.86646390247E+03  0.86646390248E+03  0.25500000920E-02 0. -1.
    10030    2    1    2    0    0  0.00000000000E+00  0.00000000000E+00  0.15801910344E+04  0.33131188394E+04  0.29120015004E+04 0.  0.
        4    1    3    3  502    0  0.20288031288E+03  0.35417694237E+03  0.23802296801E+04  0.24149734306E+04  0.12699999809E+01 0.  1.
       -4    1    3    3    0  502 -0.20288031288E+03 -0.35417694237E+03 -0.80003864564E+03  0.89814540876E+03  0.12699999809E+01 0. -1.
</event>
<event>
 5   0  0.2304435E-06  0.2897055E+04  0.7818609E-02  0.8273754E-01
       -2   -1    0    0    0  501  0.00000000000E+00  0.00000000000E+00  0.10881824988E+04  0.10881824988E+04  0.25500000920E-02 0.  1.
        2   -1    0    0  501    0  0.00000000000E+00  0.00000000000E+00 -0.19281979396E+04  0.19281979396E+04  0.25500000920E-02 0. -1.
    10030    2    1    2    0    0  0.00000000000E+00  0.00000000000E+00 -0.84001544084E+03  0.30163804384E+04  0.28970545401E+04 0.  0.
        1    1    3    3  502    0 -0.23840101307E+03  0.47972667245E+02 -0.19067926705E+04  0.19222369022E+04  0.50400001928E-02 0. -1.
       -1    1    3    3    0  502  0.23840101307E+03 -0.47972667245E+02  0.10667772297E+04  0.10941435361E+04  0.50400001928E-02 0.  1.
</event>
<event>
 5   0  0.2325590E-06  0.2846495E+04  0.7818609E-02  0.8288977E-01
       -2   -1    0    0    0  501  0.00000000000E+00  0.00000000000E+00  0.15205471247E+04  0.15205471247E+04  0.25500000920E-02 0. -1.
        2   -1    0    0  501    0  0.00000000000E+00  0.00000000000E+00 -0.13321736779E+04  0.13321736780E+04  0.25500000920E-02 0.  1.
    10030    2    1    2    0    0  0.00000000000E+00  0.00000000000E+00  0.18837344675E+03  0.28527208027E+04  0.28464945850E+04 0.  0.
        5    1    3    3  502    0  0.35028325128E+02 -0.96614854887E+03  0.11409524440E+04  0.14954813845E+04  0.46999998093E+01 0. -1.
       -5    1    3    3    0  502 -0.35028325128E+02  0.96614854887E+03 -0.95257899726E+03  0.13572394181E+04  0.46999998093E+01 0.  1.
</event>
<event>
 5   0  0.2425845E-06  0.2899504E+04  0.7818609E-02  0.8273025E-01
        2   -1    0    0  501    0  0.00000000000E+00  0.00000000000E+00  0.25642962214E+04  0.25642962214E+04  0.25500000920E-02 0.  1.
       -2   -1    0    0    0  501  0.00000000000E+00  0.00000000000E+00 -0.81963244083E+03  0.81963244084E+03  0.25500000920E-02 0. -1.
    10030    2    1    2    0    0  0.00000000000E+00  0.00000000000E+00  0.17446637805E+04  0.33839286622E+04  0.28995036616E+04 0.  0.
        2    1    3    3  502    0  0.49505591048E+03  0.13491781884E+04  0.10950507371E+04  0.18067922557E+04  0.25500000920E-02 0. -1.
       -2    1    3    3    0  502 -0.49505591048E+03 -0.13491781884E+04  0.64961304343E+03  0.15771364065E+04  0.25500000920E-02 0.  1.
</event>
<event>
 5   0  0.8483636E-07  0.2894482E+04  0.7818609E-02  0.8274521E-01
        1   -1    0    0  501    0  0.00000000000E+00  0.00000000000E+00  0.12836965929E+04  0.12836965929E+04  0.50400001928E-02 0.  1.
       -1   -1    0    0    0  501  0.00000000000E+00  0.00000000000E+00 -0.16316208292E+04  0.16316208292E+04  0.50400001928E-02 0. -1.
    10030    2    1    2    0    0  0.00000000000E+00  0.00000000000E+00 -0.34792423633E+03  0.29153174221E+04  0.28944817148E+04 0.  0.
        2    1    3    3  502    0  0.22927557847E+03  0.13326217932E+04 -0.69348319314E+03  0.15196601836E+04  0.25500000920E-02 0. -1.
       -2    1    3    3    0  502 -0.22927557847E+03 -0.13326217932E+04  0.34555895681E+03  0.13956572384E+04  0.25500000920E-02 0.  1.
</event>
<event>
 5   0  0.8357118E-07  0.2896977E+04  0.7818609E-02  0.8273777E-01
       -1   -1    0    0    0  501  0.00000000000E+00  0.00000000000E+00  0.18570962677E+04  0.18570962677E+04  0.50400001928E-02 0. -1.
        1   -1    0    0  501    0  0.00000000000E+00  0.00000000000E+00 -0.11297847117E+04  0.11297847117E+04  0.50400001928E-02 0.  1.
    10030    2    1    2    0    0  0.00000000000E+00  0.00000000000E+00  0.72731155594E+03  0.29868809794E+04  0.28969770254E+04 0.  0.
        1    1    3    3  502    0 -0.11645827950E+04 -0.84974805816E+03  0.50871354678E+03  0.15287623496E+04  0.50400001928E-02 0.  1.
       -1    1    3    3    0  502  0.11645827950E+04  0.84974805816E+03  0.21859800916E+03  0.14581186298E+04  0.50400001928E-02 0. -1.
</event>
<event>
 5   0  0.2325590E-06  0.2895981E+04  0.7818609E-02  0.8274074E-01
        2   -1    0    0  501    0  0.00000000000E+00  0.00000000000E+00  0.13404928655E+04  0.13404928655E+04  0.25500000920E-02 0. -1.
       -2   -1    0    0    0  501  0.00000000000E+00  0.00000000000E+00 -0.15641081809E+04  0.15641081809E+04  0.25500000920E-02 0.  1.
    10030    2    1    2    0    0  0.00000000000E+00  0.00000000000E+00 -0.22361531546E+03  0.29046010464E+04  0.28959805644E+04 0.  0.
        5    1    3    3  502    0 -0.12330930838E+04  0.86151239719E+02 -0.86818322621E+03  0.15105312952E+04  0.46999998093E+01 0.  1.
       -5    1    3    3    0  502  0.12330930838E+04 -0.86151239719E+02  0.64456791075E+03  0.13940697512E+04  0.46999998093E+01 0. -1.
</event>
<event>
 5   0  0.2304435E-06  0.2904805E+04  0.7818609E-02  0.8271449E-01
        2   -1    0    0  501    0  0.00000000000E+00  0.00000000000E+00  0.19795752638E+04  0.19795752638E+04  0.25500000920E-02 0.  1.
       -2   -1    0    0    0  501  0.00000000000E+00  0.00000000000E+00 -0.10656192199E+04  0.10656192199E+04  0.25500000920E-02 0. -1.
    10030    2    1    2    0    0  0.00000000000E+00  0.00000000000E+00  0.91395604390E+03  0.30451944837E+04  0.29048052936E+04 0.  0.
        1    1    3    3  502    0 -0.25875828999E+03 -0.22842516701E+03 -0.10219995642E+04  0.10787108133E+04  0.50400001928E-02 0. -1.
       -1    1    3    3    0  502  0.25875828999E+03  0.22842516701E+03  0.19359556081E+04  0.19664836704E+04  0.50400001928E-02 0.  1.
</event>
<event>
 5   0  0.8263673E-07  0.2893946E+04  0.7818609E-02  0.8274681E-01
        1   -1    0    0  501    0  0.00000000000E+00  0.00000000000E+00  0.10609197211E+04  0.10609197212E+04  0.50400001928E-02 0. -1.
       -1   -1    0    0    0  501  0.00000000000E+00  0.00000000000E+00 -0.19735057235E+04  0.19735057235E+04  0.50400001928E-02 0.  1.
    10030    2    1    2    0    0  0.00000000000E+00  0.00000000000E+00 -0.91258600232E+03  0.30344254446E+04  0.28939461929E+04 0.  0.
        5    1    3    3  502    0  0.28201582999E+03  0.12589469653E+04  0.23066530120E+03  0.13106139634E+04  0.46999998093E+01 0. -1.
       -5    1    3    3    0  502 -0.28201582999E+03 -0.12589469653E+04 -0.11432513035E+04  0.17238114812E+04  0.46999998093E+01 0.  1.
</event>
<event>
 5   0  0.8947674E-07  0.2907018E+04  0.7818609E-02  0.8270793E-01
       -1   -1    0    0    0  501  0.00000000000E+00  0.00000000000E+00  0.17218753680E+04  0.17218753680E+04  0.50400001928E-02 0.  1.
        1   -1    0    0  501    0  0.00000000000E+00  0.00000000000E+00 -0.12269690692E+04  0.12269690692E+04  0.50400001928E-02 0. -1.
    10030    2    1    2    0    0  0.00000000000E+00  0.00000000000E+00  0.49490629881E+03  0.29488444372E+04  0.29070175902E+04 0.  0.
        3    1    3    3  502    0  0.63119577398E+03  0.44561794036E+03  0.14963065242E+04  0.16840180161E+04  0.10100000352E+00 0.  1.
       -3    1    3    3    0  502 -0.63119577398E+03 -0.44561794036E+03 -0.10014002254E+04  0.12648264211E+04  0.10100000352E+00 0. -1.
</event>
<event>
 5   0  0.2325590E-06  0.2894764E+04  0.7818609E-02  0.8274437E-01
       -2   -1    0    0    0  501  0.00000000000E+00  0.00000000000E+00  0.10418587269E+04  0.10418587269E+04  0.25500000920E-02 0. -1.
        2   -1    0    0  501    0  0.00000000000E+00  0.00000000000E+00 -0.20107475067E+04  0.20107475067E+04  0.25500000920E-02 0.  1.
    10030    2    1    2    0    0  0.00000000000E+00  0.00000000000E+00 -0.96888877976E+03  0.30526062336E+04  0.28947641269E+04 0.  0.
        5    1    3    3  502    0 -0.13750246503E+04 -0.30443443196E+03 -0.83659891622E+03  0.16380759900E+04  0.46999998093E+01 0. -1.
       -5    1    3    3    0  502  0.13750246503E+04  0.30443443196E+03 -0.13228986354E+03  0.14145302437E+04  0.46999998093E+01 0.  1.
</event>
<event>
 5   0  0.8947674E-07  0.2915137E+04  0.7818609E-02  0.8268388E-01
       -1   -1    0    0    0  501  0.00000000000E+00  0.00000000000E+00  0.11158311443E+04  0.11158311443E+04  0.50400001928E-02 0. -1.
        1   -1    0    0  501    0  0.00000000000E+00  0.00000000000E+00 -0.19039677374E+04  0.19039677374E+04  0.50400001928E-02 0.  1.
    10030    2    1    2    0    0  0.00000000000E+00  0.00000000000E+00 -0.78813659313E+03  0.30197988817E+04  0.29151373890E+04 0.  0.
        3    1    3    3  502    0  0.98739163486E+03 -0.68632701240E+02  0.71432529827E+03  0.12206200597E+04  0.10100000352E+00 0. -1.
       -3    1    3    3    0  502 -0.98739163486E+03  0.68632701240E+02 -0.15024618914E+04  0.17991788220E+04  0.10100000352E+00 0.  1.
</event>
<event>
 5   0  0.2325590E-06  0.2891955E+04  0.7818609E-02  0.8275275E-01
       -2   -1    0    0    0  501  0.00000000000E+00  0.00000000000E+00  0.94563064333E+03  0.94563064333E+03  0.25500000920E-02 0.  1.
        2   -1    0    0  501    0  0.00000000000E+00  0.00000000000E+00 -0.22110644599E+04  0.22110644599E+04  0.25500000920E-02 0. -1.
    10030    2    1    2    0    0  0.00000000000E+00  0.00000000000E+00 -0.12654338165E+04  0.31566951032E+04  0.28919545692E+04 0.  0.
        5    1    3    3  502    0 -0.76060216220E+03 -0.27747827844E+03  0.67500467777E+03  0.10541172843E+04  0.46999998093E+01 0.  1.
       -5    1    3    3    0  502  0.76060216220E+03  0.27747827844E+03 -0.19404384943E+04  0.21025778188E+04  0.46999998093E+01 0. -1.
</event>
<event>
 5   0  0.8483636E-07  0.2885178E+04  0.7818609E-02  0.8277301E-01
       -1   -1    0    0    0  501  0.00000000000E+00  0.00000000000E+00  0.76759746746E+03  0.76759746748E+03  0.50400001928E-02 0.  1.
        1   -1    0    0  501    0  0.00000000000E+00  0.00000000000E+00 -0.27111387557E+04  0.27111387557E+04  0.50400001928E-02 0. -1.
    10030    2    1    2    0    0  0.00000000000E+00  0.00000000000E+00 -0.19435412883E+04  0.34787362232E+04  0.28851781525E+04 0.  0.
        2    1    3    3  502    0  0.36697043525E+03  0.14211366875E+03 -0.26451696785E+04  0.26742823754E+04  0.25500000920E-02 0. -1.
       -2    1    3    3    0  502 -0.36697043525E+03 -0.14211366875E+03  0.70162839027E+03  0.80445384779E+03  0.25500000920E-02 0.  1.
</event>
<event>
 5   0  0.2304435E-06  0.2899802E+04  0.7818609E-02  0.8272936E-01
        2   -1    0    0  501    0  0.00000000000E+00  0.00000000000E+00  0.12824141691E+04  0.12824141691E+04  0.25500000920E-02 0.  1.
       -2   -1    0    0    0  501  0.00000000000E+00  0.00000000000E+00 -0.16392624752E+04  0.16392624752E+04  0.25500000920E-02 0. -1.
    10030    2    1    2    0    0  0.00000000000E+00  0.00000000000E+00 -0.35684830607E+03  0.29216766442E+04  0.28998023553E+04 0.  0.
        1    1    3    3  502    0  0.95792379974E+03 -0.47591300559E+03 -0.11646347756E+04  0.15812923056E+04  0.50400001928E-02 0. -1.
       -1    1    3    3    0  502 -0.95792379974E+03  0.47591300559E+03  0.80778646955E+03  0.13403843387E+04  0.50400001928E-02 0.  1.
</event>
<event>
 5   0  0.8483636E-07  0.2931053E+04  0.7818609E-02  0.8263698E-01
       -1   -1    0    0    0  501  0.00000000000E+00  0.00000000000E+00  0.11790586526E+04  0.11790586526E+04  0.50400001928E-02 0. -1.
        1   -1    0    0  501    0  0.00000000000E+00  0.00000000000E+00 -0.18215953682E+04  0.18215953682E+04  0.50400001928E-02 0.  1.
    10030    2    1    2    0    0  0.00000000000E+00  0.00000000000E+00 -0.64253671561E+03  0.30006540208E+04  0.29310529033E+04 0.  0.
        2    1    3    3  502    0 -0.13447065784E+04 -0.50927773186E+03 -0.61113170713E+03  0.15623960937E+04  0.25500000920E-02 0. -1.
       -2    1    3    3    0  502  0.13447065784E+04  0.50927773186E+03 -0.31405008475E+02  0.14382579271E+04  0.25500000920E-02 0.  1.
</event>
<event>
 5   0  0.2360103E-06  0.2905663E+04  0.7818609E-02  0.8271195E-01
       -2   -1    0    0    0  501  0.00000000000E+00  0.00000000000E+00  0.90600532985E+03  0.90600532985E+03  0.25500000920E-02 0.  1.
        2   -1    0    0  501    0  0.00000000000E+00  0.00000000000E+00 -0.23296983218E+04  0.23296983218E+04  0.25500000920E-02 0. -1.
    10030    2    1    2    0    0  0.00000000000E+00  0.00000000000E+00 -0.14236929920E+04  0.32357036517E+04  0.29056628135E+04 0.  0.
        4    1    3    3  502    0  0.12173677733E+04  0.78230763584E+03 -0.56781916989E+03  0.15544805419E+04  0.12699999809E+01 0. -1.
       -4    1    3    3    0  502 -0.12173677733E+04 -0.78230763584E+03 -0.85587382207E+03  0.16812231098E+04  0.12699999809E+01 0.  1.
</event>
<event>
 5   0  0.8355946E-07  0.2898093E+04  0.7818609E-02  0.8273445E-01
        1   -1    0    0  501    0  0.00000000000E+00  0.00000000000E+00  0.15454772942E+04  0.15454772942E+04  0.50400001928E-02 0.  1.
       -1   -1    0    0    0  501  0.00000000000E+00  0.00000000000E+00 -0.13586328969E+04  0.13586328969E+04  0.50400001928E-02 0. -1.
    10030    2    1    2    0    0  0.00000000000E+00  0.00000000000E+00  0.18684439730E+03  0.29041101911E+04  0.28980933687E+04 0.  0.
        4    1    3    3  502    0 -0.12729943285E+04 -0.31503613030E+03 -0.52427654627E+03  0.14123136457E+04  0.12699999809E+01 0. -1.
       -4    1    3    3    0  502  0.12729943285E+04  0.31503613030E+03  0.71112094357E+03  0.14917965455E+04  0.12699999809E+01 0.  1.
</event>
<event>
 5   0  0.8483636E-07  0.2893432E+04  0.7818609E-02  0.8274834E-01
        1   -1    0    0  501    0  0.00000000000E+00  0.00000000000E+00  0.20739261023E+04  0.20739261023E+04  0.50400001928E-02 0. -1.
       -1   -1    0    0    0  501  0.00000000000E+00  0.00000000000E+00 -0.10091909772E+04  0.10091909772E+04  0.50400001928E-02 0.  1.
    10030    2    1    2    0    0  0.00000000000E+00  0.00000000000E+00  0.10647351250E+04  0.30831170795E+04  0.28934322248E+04 0.  0.
        2    1    3    3  502    0 -0.75399061557E+03 -0.52522472055E+03 -0.65830585015E+03  0.11303669527E+04  0.25500000920E-02 0.  1.
       -2    1    3    3    0  502  0.75399061557E+03  0.52522472055E+03  0.17230409752E+04  0.19527501268E+04  0.25500000920E-02 0. -1.
</event>
<event>
 5   0  0.8263673E-07  0.2899306E+04  0.7818609E-02  0.8273084E-01
        1   -1    0    0  501    0  0.00000000000E+00  0.00000000000E+00  0.11927881722E+04  0.11927881722E+04  0.50400001928E-02 0. -1.
       -1   -1    0    0    0  501  0.00000000000E+00  0.00000000000E+00 -0.17618333851E+04  0.17618333852E+04  0.50400001928E-02 0.  1.
    10030    2    1    2    0    0  0.00000000000E+00  0.00000000000E+00 -0.56904521293E+03  0.29546215574E+04  0.28993061399E+04 0.  0.
        5    1    3    3  502    0 -0.35364780013E+03 -0.93460172967E+03  0.78571629503E+03  0.12711881631E+04  0.46999998093E+01 0. -1.
       -5    1    3    3    0  502  0.35364780013E+03  0.93460172967E+03 -0.13547615080E+04  0.16834333943E+04  0.46999998093E+01 0.  1.
</event>
<event>
 5   0  0.8483636E-07  0.2891475E+04  0.7818609E-02  0.8275419E-01
       -1   -1    0    0    0  501  0.00000000000E+00  0.00000000000E+00  0.15389986963E+04  0.15389986963E+04  0.50400001928E-02 0.  1.
        1   -1    0    0  501    0  0.00000000000E+00  0.00000000000E+00 -0.13581273431E+04  0.13581273431E+04  0.50400001928E-02 0. -1.
    10030    2    1    2    0    0  0.00000000000E+00  0.00000000000E+00  0.18087135319E+03  0.28971260394E+04  0.28914745100E+04 0.  0.
        2    1    3    3  502    0 -0.51433664661E+03  0.12151923290E+04 -0.50141475204E+03  0.14116130263E+04  0.25500000920E-02 0.  1.
       -2    1    3    3    0  502  0.51433664661E+03 -0.12151923290E+04  0.68228610523E+03  0.14855130131E+04  0.25500000920E-02 0. -1.
</event>
<event>
 5   0  0.8947674E-07  0.2884626E+04  0.7818609E-02  0.8277466E-01
        1   -1    0    0  501    0  0.00000000000E+00  0.00000000000E+00  0.17255508149E+04  0.17255508149E+04  0.50400001928E-02 0. -1.
       -1   -1    0    0    0  501  0.00000000000E+00  0.00000000000E+00 -0.12055666841E+04  0.12055666841E+04  0.50400001928E-02 0.  1.
    10030    2    1    2    0    0  0.00000000000E+00  0.00000000000E+00  0.51998413084E+03  0.29311174990E+04  0.28846258503E+04 0.  0.
        3    1    3    3  502    0 -0.73760484927E+03  0.46861452669E+03 -0.90593575332E+03  0.12587216085E+04  0.10100000352E+00 0.  1.
       -3    1    3    3    0  502  0.73760484927E+03 -0.46861452669E+03  0.14259198842E+04  0.16723958905E+04  0.10100000352E+00 0. -1.
</event>
<event>
 5   0  0.8263673E-07  0.2875954E+04  0.7818609E-02  0.8280068E-01
        1   -1    0    0  501    0  0.00000000000E+00  0.00000000000E+00  0.18099021701E+04  0.18099021701E+04  0.50400001928E-02 0.  1.
       -1   -1    0    0    0  501  0.00000000000E+00  0.00000000000E+00 -0.11424802044E+04  0.11424802044E+04  0.50400001928E-02 0. -1.
    10030    2    1    2    0    0  0.00000000000E+00  0.00000000000E+00  0.66742196564E+03  0.29523823745E+04  0.28759536862E+04 0.  0.
        5    1    3    3  502    0  0.26277611978E+03  0.47975585211E+03 -0.10314942875E+04  0.11675699216E+04  0.46999998093E+01 0. -1.
       -5    1    3    3    0  502 -0.26277611978E+03 -0.47975585211E+03  0.16989162532E+04  0.17848124529E+04  0.46999998093E+01 0.  1.
</event>
<event>
 5   0  0.8263673E-07  0.2925009E+04  0.7818609E-02  0.8265475E-01
        1   -1    0    0  501    0  0.00000000000E+00  0.00000000000E+00  0.21480784501E+04  0.21480784501E+04  0.50400001928E-02 0.  1.
       -1   -1    0    0    0  501  0.00000000000E+00  0.00000000000E+00 -0.99573640507E+03  0.99573640509E+03  0.50400001928E-02 0. -1.
    10030    2    1    2    0    0  0.00000000000E+00  0.00000000000E+00  0.11523420450E+04  0.31438148552E+04  0.29250093427E+04 0.  0.
        5    1    3    3  502    0  0.15846216881E+03 -0.32467162983E+03  0.20993544454E+04  0.21302190272E+04  0.46999998093E+01 0.  1.
       -5    1    3    3    0  502 -0.15846216881E+03  0.32467162983E+03 -0.94701240038E+03  0.10135958280E+04  0.46999998093E+01 0. -1.
</event>
<event>
 5   0  0.8263673E-07  0.2907519E+04  0.7818609E-02  0.8270644E-01
        1   -1    0    0  501    0  0.00000000000E+00  0.00000000000E+00  0.22197567515E+04  0.22197567515E+04  0.50400001928E-02 0. -1.
       -1   -1    0    0    0  501  0.00000000000E+00  0.00000000000E+00 -0.95209381328E+03  0.95209381330E+03  0.50400001928E-02 0.  1.
    10030    2    1    2    0    0  0.00000000000E+00  0.00000000000E+00  0.12676629382E+04  0.31718505648E+04  0.29075189906E+04 0.  0.
        5    1    3    3  502    0 -0.10740094325E+04 -0.88770640939E+03  0.10861010043E+04  0.17666794876E+04  0.46999998093E+01 0. -1.
       -5    1    3    3    0  502  0.10740094325E+04  0.88770640939E+03  0.18156193395E+03  0.14051710772E+04  0.46999998093E+01 0.  1.
</event>
<event>
 5   0  0.2360103E-06  0.2878710E+04  0.7818609E-02  0.8279240E-01
       -2   -1    0    0    0  501  0.00000000000E+00  0.00000000000E+00  0.18363161080E+04  0.18363161080E+04  0.25500000920E-02 0.  1.
        2   -1    0    0  501    0  0.00000000000E+00  0.00000000000E+00 -0.11282057374E+04  0.11282057374E+04  0.25500000920E-02 0. -1.
    10030    2    1    2    0    0  0.00000000000E+00  0.00000000000E+00  0.70811037058E+03  0.29645218454E+04  0.28787096892E+04 0.  0.
        4    1    3    3  502    0  0.61290621932E+02 -0.94795430311E+03 -0.75955238678E+03  0.12162628590E+04  0.12699999809E+01 0. -1.
       -4    1    3    3    0  502 -0.61290621932E+02  0.94795430311E+03  0.14676627574E+04  0.17482589864E+04  0.12699999809E+01 0.  1.
</event>
<event>
 5   0  0.8355946E-07  0.2932863E+04  0.7818609E-02  0.8263166E-01
       -1   -1    0    0    0  501  0.00000000000E+00  0.00000000000E+00  0.10045028475E+04  0.10045028475E+04  0.50400001928E-02 0. -1.
        1   -1    0    0  501    0  0.00000000000E+00  0.00000000000E+00 -0.21407820792E+04  0.21407820792E+04  0.50400001928E-02 0.  1.
    10030    2    1    2    0    0  0.00000000000E+00  0.00000000000E+00 -0.11362792317E+04  0.31452849267E+04  0.29328632388E+04 0.  0.
        4    1    3    3  502    0  0.81255894311E+03 -0.75255630837E+03 -0.15989137652E+04  0.19450243892E+04  0.12699999809E+01 0.  1.
       -4    1    3    3    0  502 -0.81255894311E+03  0.75255630837E+03  0.46263453351E+03  0.12002605375E+04  0.12699999809E+01 0. -1.
</event>
<event>
 5   0  0.2378690E-06  0.2898539E+04  0.7818609E-02  0.8273312E-01
        2   -1    0    0  501    0  0.00000000000E+00  0.00000000000E+00  0.15650360197E+04  0.15650360197E+04  0.25500000920E-02 0.  1.
       -2   -1    0    0    0  501  0.00000000000E+00  0.00000000000E+00 -0.13420664232E+04  0.13420664232E+04  0.25500000920E-02 0. -1.
    10030    2    1    2    0    0  0.00000000000E+00  0.00000000000E+00  0.22296959643E+03  0.29071024429E+04  0.28985391446E+04 0.  0.
        3    1    3    3  502    0  0.92509707177E+03 -0.17328355779E+03 -0.99383755930E+03  0.13687749589E+04  0.10100000352E+00 0. -1.
       -3    1    3    3    0  502 -0.92509707177E+03  0.17328355779E+03  0.12168071557E+04  0.15383274840E+04  0.10100000352E+00 0.  1.
</event>
<event>
 5   0  0.2304435E-06  0.2847554E+04  0.7818609E-02  0.8288655E-01
        2   -1    0    0  501    0  0.00000000000E+00  0.00000000000E+00  0.28099216434E+04  0.28099216434E+04  0.25500000920E-02 0.  1.
       -2   -1    0    0    0  501  0.00000000000E+00  0.00000000000E+00 -0.72142248136E+03  0.72142248137E+03  0.25500000920E-02 0. -1.
    10030    2    1    2    0    0  0.00000000000E+00  0.00000000000E+00  0.20884991621E+04  0.35313441248E+04  0.28475537884E+04 0.  0.
        1    1    3    3  502    0  0.87436330985E+03  0.51562605603E+03 -0.19387183245E+03  0.10334252342E+04  0.50400001928E-02 0. -1.
       -1    1    3    3    0  502 -0.87436330985E+03 -0.51562605603E+03  0.22823709945E+04  0.24979188906E+04  0.50400001928E-02 0.  1.
</event>
<event>
 5   0  0.8355946E-07  0.2909561E+04  0.7818609E-02  0.8270038E-01
        1   -1    0    0  501    0  0.00000000000E+00  0.00000000000E+00  0.12019568750E+04  0.12019568750E+04  0.50400001928E-02 0.  1.
       -1   -1    0    0    0  501  0.00000000000E+00  0.00000000000E+00 -0.17607839395E+04  0.17607839395E+04  0.50400001928E-02 0. -1.
    10030    2    1    2    0    0  0.00000000000E+00  0.00000000000E+00 -0.55882706453E+03  0.29627408145E+04  0.29095610400E+04 0.  0.
        4    1    3    3  502    0 -0.26690550554E+03 -0.23452203446E+02 -0.17354423197E+04  0.17560040469E+04  0.12699999809E+01 0. -1.
       -4    1    3    3    0  502  0.26690550554E+03  0.23452203446E+02  0.11766152551E+04  0.12067367676E+04  0.12699999809E+01 0.  1.
</event>
<event>
 5   0  0.2304435E-06  0.2927160E+04  0.7818609E-02  0.8264842E-01
       -2   -1    0    0    0  501  0.00000000000E+00  0.00000000000E+00  0.14458910696E+04  0.14458910696E+04  0.25500000920E-02 0.  1.
        2   -1    0    0  501    0  0.00000000000E+00  0.00000000000E+00 -0.14814853172E+04  0.14814853172E+04  0.25500000920E-02 0. -1.
    10030    2    1    2    0    0  0.00000000000E+00  0.00000000000E+00 -0.35594247593E+02  0.29273763868E+04  0.29271599819E+04 0.  0.
        1    1    3    3  502    0  0.52002001571E+03 -0.13644801314E+04 -0.11699893340E+03  0.14648943976E+04  0.50400001928E-02 0.  1.
       -1    1    3    3    0  502 -0.52002001571E+03  0.13644801314E+04  0.81404685806E+02  0.14624819892E+04  0.50400001928E-02 0. -1.
</event>
<event>
 5   0  0.2378690E-06  0.2913597E+04  0.7818609E-02  0.8268843E-01
        2   -1    0    0  501    0  0.00000000000E+00  0.00000000000E+00  0.14257001567E+04  0.14257001567E+04  0.25500000920E-02 0. -1.
       -2   -1    0    0    0  501  0.00000000000E+00  0.00000000000E+00 -0.14885753120E+04  0.14885753120E+04  0.25500000920E-02 0.  1.
    10030    2    1    2    0    0  0.00000000000E+00  0.00000000000E+00 -0.62875155242E+02  0.29142754687E+04  0.29135971277E+04 0.  0.
        3    1    3    3  502    0 -0.41043252951E+02 -0.13226675459E+04  0.57790706332E+03  0.14439911944E+04  0.10100000352E+00 0. -1.
       -3    1    3    3    0  502  0.41043252951E+02  0.13226675459E+04 -0.64078221856E+03  0.14702842743E+04  0.10100000352E+00 0.  1.
</event>
<event>
 5   0  0.8483636E-07  0.2911228E+04  0.7818609E-02  0.8269545E-01
        1   -1    0    0  501    0  0.00000000000E+00  0.00000000000E+00  0.18715539038E+04  0.18715539038E+04  0.50400001928E-02 0. -1.
       -1   -1    0    0    0  501  0.00000000000E+00  0.00000000000E+00 -0.11321136551E+04  0.11321136551E+04  0.50400001928E-02 0.  1.
    10030    2    1    2    0    0  0.00000000000E+00  0.00000000000E+00  0.73944024867E+03  0.30036675589E+04  0.29112277347E+04 0.  0.
        2    1    3    3  502    0 -0.91967651398E+03  0.10141093853E+04  0.87998319754E+03  0.16274498959E+04  0.25500000920E-02 0. -1.
       -2    1    3    3    0  502  0.91967651398E+03 -0.10141093853E+04 -0.14054294887E+03  0.13762176631E+04  0.25500000920E-02 0.  1.
</event>
<event>
 5   0  0.2378690E-06  0.2897079E+04  0.7818609E-02  0.8273747E-01
       -2   -1    0    0    0  501  0.00000000000E+00  0.00000000000E+00  0.10165940313E+04  0.10165940313E+04  0.25500000920E-02 0. -1.
        2   -1    0    0  501    0  0.00000000000E+00  0.00000000000E+00 -0.20640164515E+04  0.20640164515E+04  0.25500000920E-02 0.  1.
    10030    2    1    2    0    0  0.00000000000E+00  0.00000000000E+00 -0.10474224202E+04  0.30806104829E+04  0.28970790843E+04 0.  0.
        3    1    3    3  502    0  0.13276564378E+04 -0.20863223512E+03  0.50958430887E+02  0.13449147922E+04  0.10100000352E+00 0. -1.
       -3    1    3    3    0  502 -0.13276564378E+04  0.20863223512E+03 -0.10983808511E+04  0.17356956907E+04  0.10100000352E+00 0.  1.
</event>
<event>
 5   0  0.8357118E-07  0.2893812E+04  0.7818609E-02  0.8274721E-01
       -1   -1    0    0    0  501  0.00000000000E+00  0.00000000000E+00  0.13535978574E+04  0.13535978575E+04  0.50400001928E-02 0.  1.
        1   -1    0    0  501    0  0.00000000000E+00  0.00000000000E+00 -0.15466459114E+04  0.15466459114E+04  0.50400001928E-02 0. -1.
    10030    2    1    2    0    0  0.00000000000E+00  0.00000000000E+00 -0.19304805395E+03  0.29002437689E+04  0.28938117367E+04 0.  0.
        1    1    3    3  502    0  0.12285466060E+04 -0.74596107558E+03 -0.26348332494E+03  0.14612351460E+04  0.50400001928E-02 0.  1.
       -1    1    3    3    0  502 -0.12285466060E+04  0.74596107558E+03  0.70435270992E+02  0.14390086229E+04  0.50400001928E-02 0. -1.
</event>
<event>
 5   0  0.8483636E-07  0.2905749E+04  0.7818609E-02  0.8271169E-01
        1   -1    0    0  501    0  0.00000000000E+00  0.00000000000E+00  0.20593866782E+04  0.20593866782E+04  0.50400001928E-02 0.  1.
       -1   -1    0    0    0  501  0.00000000000E+00  0.00000000000E+00 -0.10249866076E+04  0.10249866076E+04  0.50400001928E-02 0. -1.
    10030    2    1    2    0    0  0.00000000000E+00  0.00000000000E+00  0.10344000706E+04  0.30843732858E+04  0.29057486230E+04 0.  0.
        2    1    3    3  502    0  0.10663866782E+04  0.30497991861E+03  0.15133177812E+04  0.18762526495E+04  0.25500000920E-02 0.  1.
       -2    1    3    3    0  502 -0.10663866782E+04 -0.30497991861E+03 -0.47891771056E+03  0.12081206362E+04  0.25500000920E-02 0. -1.
</event>
<event>
 5   0  0.8357118E-07  0.2898143E+04  0.7818609E-02  0.8273430E-01
       -1   -1    0    0    0  501  0.00000000000E+00  0.00000000000E+00  0.13115561849E+04  0.13115561849E+04  0.50400001928E-02 0.  1.
        1   -1    0    0  501    0  0.00000000000E+00  0.00000000000E+00 -0.16010050306E+04  0.16010050306E+04  0.50400001928E-02 0. -1.
    10030    2    1    2    0    0  0.00000000000E+00  0.00000000000E+00 -0.28944884574E+03  0.29125612155E+04  0.28981428881E+04 0.  0.
        1    1    3    3  502    0  0.35511188482E+03 -0.37248104269E+03 -0.15060711237E+04  0.15915705475E+04  0.50400001928E-02 0. -1.
       -1    1    3    3    0  502 -0.35511188482E+03  0.37248104269E+03  0.12166222779E+04  0.13209906681E+04  0.50400001928E-02 0.  1.
</event>
<event>
 5   0  0.2304435E-06  0.2928373E+04  0.7818609E-02  0.8264485E-01
        2   -1    0    0  501    0  0.00000000000E+00  0.00000000000E+00  0.14269328729E+04  0.14269328729E+04  0.25500000920E-02 0.  1.
       -2   -1    0    0    0  501  0.00000000000E+00  0.00000000000E+00 -0.15024128024E+04  0.15024128024E+04  0.25500000920E-02 0. -1.
    10030    2    1    2    0    0  0.00000000000E+00  0.00000000000E+00 -0.75479929537E+02  0.29293456753E+04  0.29283730749E+04 0.  0.
        1    1    3    3  502    0  0.46124081090E+03 -0.52026717437E+03  0.12512613279E+04  0.14314593704E+04  0.50400001928E-02 0.  1.
       -1    1    3    3    0  502 -0.46124081090E+03  0.52026717437E+03 -0.13267412574E+04  0.14978863049E+04  0.50400001928E-02 0. -1.
</event>
<event>
 5   0  0.8357118E-07  0.2907153E+04  0.7818609E-02  0.8270752E-01
       -1   -1    0    0    0  501  0.00000000000E+00  0.00000000000E+00  0.12621592431E+04  0.12621592432E+04  0.50400001928E-02 0. -1.
        1   -1    0    0  501    0  0.00000000000E+00  0.00000000000E+00 -0.16740241069E+04  0.16740241069E+04  0.50400001928E-02 0.  1.
    10030    2    1    2    0    0  0.00000000000E+00  0.00000000000E+00 -0.41186486374E+03  0.29361833501E+04  0.29071532466E+04 0.  0.
        1    1    3    3  502    0 -0.13326678369E+04  0.52028348953E+03 -0.46576886244E+03  0.15045394997E+04  0.50400001928E-02 0.  1.
       -1    1    3    3    0  502  0.13326678369E+04 -0.52028348953E+03  0.53903998693E+02  0.14316438503E+04  0.50400001928E-02 0. -1.
</event>
<event>
 5   0  0.8355946E-07  0.2891781E+04  0.7818609E-02  0.8275327E-01
        1   -1    0    0  501    0  0.00000000000E+00  0.00000000000E+00  0.17184069207E+04  0.17184069207E+04  0.50400001928E-02 0.  1.
       -1   -1    0    0    0  501  0.00000000000E+00  0.00000000000E+00 -0.12165913463E+04  0.12165913463E+04  0.50400001928E-02 0. -1.
    10030    2    1    2    0    0  0.00000000000E+00  0.00000000000E+00  0.50181557434E+03  0.29349982670E+04  0.28917807587E+04 0.  0.
        4    1    3    3  502    0  0.44426831744E+03  0.74001142173E+03  0.14282466084E+04  0.16687963415E+04  0.12699999809E+01 0.  1.
       -4    1    3    3    0  502 -0.44426831744E+03 -0.74001142173E+03 -0.92643103409E+03  0.12662019254E+04  0.12699999809E+01 0. -1.
</event>
<event>
 5   0  0.2425845E-06  0.2887136E+04  0.7818609E-02  0.8276715E-01
       -2   -1    0    0    0  501  0.00000000000E+00  0.00000000000E+00  0.11634840982E+04  0.11634840982E+04  0.25500000920E-02 0. -1.
        2   -1    0    0  501    0  0.00000000000E+00  0.00000000000E+00 -0.17910765329E+04  0.17910765329E+04  0.25500000920E-02 0.  1.
    10030    2    1    2    0    0  0.00000000000E+00  0.00000000000E+00 -0.62759243466E+03  0.29545606311E+04  0.28871363423E+04 0.  0.
        2    1    3    3  502    0  0.10126007426E+03 -0.21500958765E+03  0.11433261110E+04  0.11677659533E+04  0.25500000920E-02 0. -1.
       -2    1    3    3    0  502 -0.10126007426E+03  0.21500958765E+03 -0.17709185457E+04  0.17867946779E+04  0.25500000920E-02 0.  1.
</event>
<event>
 5   0  0.2425845E-06  0.2801841E+04  0.7818609E-02  0.8302697E-01
       -2   -1    0    0    0  501  0.00000000000E+00  0.00000000000E+00  0.12647737255E+04  0.12647737255E+04  0.25500000920E-02 0. -1.
        2   -1    0    0  501    0  0.00000000000E+00  0.00000000000E+00 -0.15517224441E+04  0.15517224441E+04  0.25500000920E-02 0.  1.
    10030    2    1    2    0    0  0.00000000000E+00  0.00000000000E+00 -0.28694871854E+03  0.28164961696E+04  0.28018406640E+04 0.  0.
        2    1    3    3  502    0 -0.76494570823E+03  0.11511067178E+04 -0.37355838436E+03  0.14316893793E+04  0.25500000920E-02 0. -1.
       -2    1    3    3    0  502  0.76494570823E+03 -0.11511067178E+04  0.86609665815E+02  0.13848067903E+04  0.25500000920E-02 0.  1.
</event>
<event>
 5   0  0.8483636E-07  0.2900951E+04  0.7818609E-02  0.8272595E-01
        1   -1    0    0  501    0  0.00000000000E+00  0.00000000000E+00  0.14778660708E+04  0.14778660709E+04  0.50400001928E-02 0.  1.
       -1   -1    0    0    0  501  0.00000000000E+00  0.00000000000E+00 -0.14235925859E+04  0.14235925859E+04  0.50400001928E-02 0. -1.
    10030    2    1    2    0    0  0.00000000000E+00  0.00000000000E+00  0.54273484934E+02  0.29014586568E+04  0.29009510037E+04 0.  0.
        2    1    3    3  502    0 -0.42737469614E+03 -0.13712037512E+04 -0.17545813570E+03  0.14469396724E+04  0.25500000920E-02 0. -1.
       -2    1    3    3    0  502  0.42737469614E+03  0.13712037512E+04  0.22973162063E+03  0.14545189843E+04  0.25500000920E-02 0.  1.
</event>
<event>
 5   0  0.2304435E-06  0.2897693E+04  0.7818609E-02  0.8273564E-01
       -2   -1    0    0    0  501  0.00000000000E+00  0.00000000000E+00  0.11574746174E+04  0.11574746174E+04  0.25500000920E-02 0. -1.
        2   -1    0    0  501    0  0.00000000000E+00  0.00000000000E+00 -0.18135659869E+04  0.18135659869E+04  0.25500000920E-02 0.  1.
    10030    2    1    2    0    0  0.00000000000E+00  0.00000000000E+00 -0.65609136945E+03  0.29710406043E+04  0.28976932873E+04 0.  0.
        1    1    3    3  502    0 -0.12200655195E+04  0.24878725744E+03 -0.10875395949E+04  0.16532384407E+04  0.50400001928E-02 0.  1.
       -1    1    3    3    0  502  0.12200655195E+04 -0.24878725744E+03  0.43144822543E+03  0.13178021636E+04  0.50400001928E-02 0. -1.
</event>
<event>
 5   0  0.8947674E-07  0.2902799E+04  0.7818609E-02  0.8272045E-01
       -1   -1    0    0    0  501  0.00000000000E+00  0.00000000000E+00  0.12745349329E+04  0.12745349329E+04  0.50400001928E-02 0. -1.
        1   -1    0    0  501    0  0.00000000000E+00  0.00000000000E+00 -0.16528070579E+04  0.16528070579E+04  0.50400001928E-02 0.  1.
    10030    2    1    2    0    0  0.00000000000E+00  0.00000000000E+00 -0.37827212503E+03  0.29273419908E+04  0.29027988787E+04 0.  0.
        3    1    3    3  502    0 -0.10826527687E+04  0.96164589148E+03 -0.28825484583E+03  0.14764791582E+04  0.10100000352E+00 0.  1.
       -3    1    3    3    0  502  0.10826527687E+04 -0.96164589148E+03 -0.90017279196E+02  0.14508628326E+04  0.10100000352E+00 0. -1.
</event>
<event>
 5   0  0.2360103E-06  0.2894370E+04  0.7818609E-02  0.8274555E-01
        2   -1    0    0  501    0  0.00000000000E+00  0.00000000000E+00  0.13657264272E+04  0.13657264272E+04  0.25500000920E-02 0. -1.
       -2   -1    0    0    0  501  0.00000000000E+00  0.00000000000E+00 -0.15335017569E+04  0.15335017569E+04  0.25500000920E-02 0.  1.
    10030    2    1    2    0    0  0.00000000000E+00  0.00000000000E+00 -0.16777532967E+03  0.28992281841E+04  0.28943696209E+04 0.  0.
        4    1    3    3  502    0 -0.13668793798E+04  0.51221907893E+02 -0.55729007577E+03  0.14770093989E+04  0.12699999809E+01 0.  1.
       -4    1    3    3    0  502  0.13668793798E+04 -0.51221907893E+02  0.38951474610E+03  0.14222187853E+04  0.12699999809E+01 0. -1.
</event>
<event>
 5   0  0.2325590E-06  0.2904689E+04  0.7818609E-02  0.8271484E-01
       -2   -1    0    0    0  501  0.00000000000E+00  0.00000000000E+00  0.14279749530E+04  0.14279749530E+04  0.25500000920E-02 0. -1.
        2   -1    0    0  501    0  0.00000000000E+00  0.00000000000E+00 -0.14771304395E+04  0.14771304395E+04  0.25500000920E-02 0.  1.
    10030    2    1    2    0    0  0.00000000000E+00  0.00000000000E+00 -0.49155486433E+02  0.29051053925E+04  0.29046894980E+04 0.  0.
        5    1    3    3  502    0 -0.10700019136E+04 -0.96505605034E+03 -0.20638909651E+03  0.14556290134E+04  0.46999998093E+01 0. -1.
       -5    1    3    3    0  502  0.10700019136E+04  0.96505605034E+03  0.15723361008E+03  0.14494763791E+04  0.46999998093E+01 0.  1.
</event>
<event>
 5   0  0.2378690E-06  0.2910547E+04  0.7818609E-02  0.8269746E-01
       -2   -1    0    0    0  501  0.00000000000E+00  0.00000000000E+00  0.15125608457E+04  0.15125608457E+04  0.25500000920E-02 0.  1.
        2   -1    0    0  501    0  0.00000000000E+00  0.00000000000E+00 -0.14001555012E+04  0.14001555012E+04  0.25500000920E-02 0. -1.
    10030    2    1    2    0    0  0.00000000000E+00  0.00000000000E+00  0.11240534449E+03  0.29127163469E+04  0.29105466077E+04 0.  0.
        3    1    3    3  502    0  0.91016041575E+03 -0.57022880801E+02  0.11911454580E+04  0.15001570263E+04  0.10100000352E+00 0.  1.
       -3    1    3    3    0  502 -0.91016041575E+03  0.57022880801E+02 -0.10787401135E+04  0.14125593205E+04  0.10100000352E+00 0. -1.
</event>
<event>
 5   0  0.8357118E-07  0.2909484E+04  0.7818609E-02  0.8270061E-01
       -1   -1    0    0    0  501  0.00000000000E+00  0.00000000000E+00  0.71029978465E+03  0.71029978466E+03  0.50400001928E-02 0. -1.
        1   -1    0    0  501    0  0.00000000000E+00  0.00000000000E+00 -0.29794101238E+04  0.29794101238E+04  0.50400001928E-02 0.  1.
    10030    2    1    2    0    0  0.00000000000E+00  0.00000000000E+00 -0.22691103391E+04  0.36897099084E+04  0.29094840569E+04 0.  0.
        1    1    3    3  502    0  0.10792879185E+03  0.13391385720E+03  0.69736060362E+03  0.71825716618E+03  0.50400001928E-02 0. -1.
       -1    1    3    3    0  502 -0.10792879185E+03 -0.13391385720E+03 -0.29664709427E+04  0.29714527422E+04  0.50400001928E-02 0.  1.
</event>
<event>
 5   0  0.8483636E-07  0.2911497E+04  0.7818609E-02  0.8269465E-01
        1   -1    0    0  501    0  0.00000000000E+00  0.00000000000E+00  0.89298412121E+03  0.89298412123E+03  0.50400001928E-02 0. -1.
       -1   -1    0    0    0  501  0.00000000000E+00  0.00000000000E+00 -0.23731705844E+04  0.23731705844E+04  0.50400001928E-02 0.  1.
    10030    2    1    2    0    0  0.00000000000E+00  0.00000000000E+00 -0.14801864631E+04  0.32661547056E+04  0.29114969681E+04 0.  0.
        2    1    3    3  502    0  0.28176700460E+03  0.13639593307E+04 -0.12152785723E+04  0.18484262791E+04  0.25500000920E-02 0. -1.
       -2    1    3    3    0  502 -0.28176700460E+03 -0.13639593307E+04 -0.26490789083E+03  0.14177284265E+04  0.25500000920E-02 0.  1.
</event>
<event>
 5   0  0.8483636E-07  0.2904086E+04  0.7818609E-02  0.8271663E-01
       -1   -1    0    0    0  501  0.00000000000E+00  0.00000000000E+00  0.15216578048E+04  0.15216578048E+04  0.50400001928E-02 0. -1.
        1   -1    0    0  501    0  0.00000000000E+00  0.00000000000E+00 -0.13856132360E+04  0.13856132360E+04  0.50400001928E-02 0.  1.
    10030    2    1    2    0    0  0.00000000000E+00  0.00000000000E+00  0.13604456883E+03  0.29072710408E+04  0.29040862211E+04 0.  0.
        2    1    3    3  502    0 -0.65065273061E+03 -0.22403479778E+03 -0.12120075809E+04  0.13937370422E+04  0.25500000920E-02 0.  1.
       -2    1    3    3    0  502  0.65065273061E+03  0.22403479778E+03  0.13480521498E+04  0.15135339986E+04  0.25500000920E-02 0. -1.
</event>
<event>
 5   0  0.2425845E-06  0.2957328E+04  0.7818609E-02  0.8256022E-01
        2   -1    0    0  501    0  0.00000000000E+00  0.00000000000E+00  0.19497746041E+04  0.19497746041E+04  0.25500000920E-02 0.  1.
       -2   -1    0    0    0  501  0.00000000000E+00  0.00000000000E+00 -0.11213849102E+04  0.11213849102E+04  0.25500000920E-02 0. -1.
    10030    2    1    2    0    0  0.00000000000E+00  0.00000000000E+00  0.82838969390E+03  0.30711595144E+04  0.29573284021E+04 0.  0.
        2    1    3    3  502    0  0.56754110201E+03  0.13653673357E+04  0.40296398292E+03  0.15325504349E+04  0.25500000920E-02 0.  1.
       -2    1    3    3    0  502 -0.56754110201E+03 -0.13653673357E+04  0.42542571098E+03  0.15386090795E+04  0.25500000920E-02 0. -1.
</event>
<event>
 5   0  0.2360103E-06  0.2905212E+04  0.7818609E-02  0.8271328E-01
        2   -1    0    0  501    0  0.00000000000E+00  0.00000000000E+00  0.13480732469E+04  0.13480732469E+04  0.25500000920E-02 0. -1.
       -2   -1    0    0    0  501  0.00000000000E+00  0.00000000000E+00 -0.15652449728E+04  0.15652449728E+04  0.25500000920E-02 0.  1.
    10030    2    1    2    0    0  0.00000000000E+00  0.00000000000E+00 -0.21717172583E+03  0.29133182197E+04  0.29052124691E+04 0.  0.
        4    1    3    3  502    0 -0.56755232345E+03  0.13030514575E+04 -0.40943043715E+03  0.14790854054E+04  0.12699999809E+01 0. -1.
       -4    1    3    3    0  502  0.56755232345E+03 -0.13030514575E+04  0.19225871132E+03  0.14342328143E+04  0.12699999809E+01 0.  1.
</event>
<event>
 5   0  0.2325590E-06  0.2896638E+04  0.7818609E-02  0.8273879E-01
        2   -1    0    0  501    0  0.00000000000E+00  0.00000000000E+00  0.19685492992E+04  0.19685492992E+04  0.25500000920E-02 0. -1.
       -2   -1    0    0    0  501  0.00000000000E+00  0.00000000000E+00 -0.10655702367E+04  0.10655702367E+04  0.25500000920E-02 0.  1.
    10030    2    1    2    0    0  0.00000000000E+00  0.00000000000E+00  0.90297906243E+03  0.30341195359E+04  0.28966377355E+04 0.  0.
        5    1    3    3  502    0  0.15280481073E+03  0.14245376914E+02  0.19600004219E+04  0.19660050826E+04  0.46999998093E+01 0. -1.
       -5    1    3    3    0  502 -0.15280481073E+03 -0.14245376914E+02 -0.10570213595E+04  0.10681144533E+04  0.46999998093E+01 0.  1.
</event>
<event>
 5   0  0.8357118E-07  0.2866991E+04  0.7818609E-02  0.8282767E-01
        1   -1    0    0  501    0  0.00000000000E+00  0.00000000000E+00  0.16519066526E+04  0.16519066526E+04  0.50400001928E-02 0. -1.
       -1   -1    0    0    0  501  0.00000000000E+00  0.00000000000E+00 -0.12439624312E+04  0.12439624312E+04  0.50400001928E-02 0.  1.
    10030    2    1    2    0    0  0.00000000000E+00  0.00000000000E+00  0.40794422145E+03  0.28958690838E+04  0.28669913259E+04 0.  0.
        1    1    3    3  502    0 -0.11645288296E+04  0.65345775788E+03 -0.32259969360E+03  0.13737558002E+04  0.50400001928E-02 0.  1.
       -1    1    3    3    0  502  0.11645288296E+04 -0.65345775788E+03  0.73054391504E+03  0.15221132836E+04  0.50400001928E-02 0. -1.
</event>
<event>
 5   0  0.8355946E-07  0.2907155E+04  0.7818609E-02  0.8270752E-01
       -1   -1    0    0    0  501  0.00000000000E+00  0.00000000000E+00  0.10649755492E+04  0.10649755492E+04  0.50400001928E-02 0.  1.
        1   -1    0    0  501    0  0.00000000000E+00  0.00000000000E+00 -0.19839778287E+04  0.19839778287E+04  0.50400001928E-02 0. -1.
    10030    2    1    2    0    0  0.00000000000E+00  0.00000000000E+00 -0.91900227954E+03  0.30489533779E+04  0.29071552265E+04 0.  0.
        4    1    3    3  502    0  0.73853378566E+03  0.54774032427E+03 -0.16402168723E+04  0.18803628949E+04  0.12699999809E+01 0. -1.
       -4    1    3    3    0  502 -0.73853378566E+03 -0.54774032427E+03  0.72121459276E+03  0.11685904831E+04  0.12699999809E+01 0.  1.
</event>
<event>
 5   0  0.2425845E-06  0.2917848E+04  0.7818609E-02  0.8267587E-01
        2   -1    0    0  501    0  0.00000000000E+00  0.00000000000E+00  0.99803133615E+03  0.99803133615E+03  0.25500000920E-02 0. -1.
       -2   -1    0    0    0  501  0.00000000000E+00  0.00000000000E+00 -0.21326575563E+04  0.21326575563E+04  0.25500000920E-02 0.  1.
    10030    2    1    2    0    0  0.00000000000E+00  0.00000000000E+00 -0.11346262202E+04  0.31306888925E+04  0.29178478853E+04 0.  0.
        2    1    3    3  502    0  0.14365258042E+04  0.18491785666E+03 -0.37944646675E+03  0.14972577002E+04  0.25500000920E-02 0. -1.
       -2    1    3    3    0  502 -0.14365258042E+04 -0.18491785666E+03 -0.75517975342E+03  0.16334311922E+04  0.25500000920E-02 0.  1.
</event>
<event>
 5   0  0.2304435E-06  0.2905967E+04  0.7818609E-02  0.8271104E-01
        2   -1    0    0  501    0  0.00000000000E+00  0.00000000000E+00  0.29085535590E+04  0.29085535590E+04  0.25500000920E-02 0.  1.
       -2   -1    0    0    0  501  0.00000000000E+00  0.00000000000E+00 -0.72584567266E+03  0.72584567267E+03  0.25500000920E-02 0. -1.
    10030    2    1    2    0    0  0.00000000000E+00  0.00000000000E+00  0.21827078863E+04  0.36343992316E+04  0.29059669747E+04 0.  0.
        1    1    3    3  502    0 -0.47737823218E+03  0.70855357180E+03 -0.37849883829E+03  0.93445144940E+03  0.50400001928E-02 0. -1.
       -1    1    3    3    0  502  0.47737823218E+03 -0.70855357180E+03  0.25612067246E+04  0.26999477822E+04  0.50400001928E-02 0.  1.
</event>
<event>
 5   0  0.2304435E-06  0.2896435E+04  0.7818609E-02  0.8273939E-01
        2   -1    0    0  501    0  0.00000000000E+00  0.00000000000E+00  0.20203891029E+04  0.20203891029E+04  0.25500000920E-02 0. -1.
       -2   -1    0    0    0  501  0.00000000000E+00  0.00000000000E+00 -0.10380838518E+04  0.10380838518E+04  0.25500000920E-02 0.  1.
    10030    2    1    2    0    0  0.00000000000E+00  0.00000000000E+00  0.98230525117E+03  0.30584729547E+04  0.28964345682E+04 0.  0.
        1    1    3    3  502    0  0.64130130665E+03 -0.12754342644E+04  0.23394108983E+03  0.14466265455E+04  0.50400001928E-02 0.  1.
       -1    1    3    3    0  502 -0.64130130665E+03  0.12754342644E+04  0.74836416133E+03  0.16118464092E+04  0.50400001928E-02 0. -1.
</event>
<event>
 5   0  0.8483636E-07  0.2894996E+04  0.7818609E-02  0.8274368E-01
       -1   -1    0    0    0  501  0.00000000000E+00  0.00000000000E+00  0.15103062510E+04  0.15103062510E+04  0.50400001928E-02 0.  1.
        1   -1    0    0  501    0  0.00000000000E+00  0.00000000000E+00 -0.13873020903E+04  0.13873020903E+04  0.50400001928E-02 0. -1.
    10030    2    1    2    0    0  0.00000000000E+00  0.00000000000E+00  0.12300416075E+03  0.28976083413E+04  0.28949963862E+04 0.  0.
        2    1    3    3  502    0 -0.12236536447E+04 -0.44070368056E+03  0.69745163665E+03  0.14758003800E+04  0.25500000920E-02 0.  1.
       -2    1    3    3    0  502  0.12236536447E+04  0.44070368056E+03 -0.57444747590E+03  0.14218079613E+04  0.25500000920E-02 0. -1.
</event>
<event>
 5   0  0.2325590E-06  0.2893070E+04  0.7818609E-02  0.8274942E-01
       -2   -1    0    0    0  501  0.00000000000E+00  0.00000000000E+00  0.13902795354E+04  0.13902795354E+04  0.25500000920E-02 0. -1.
        2   -1    0    0  501    0  0.00000000000E+00  0.00000000000E+00 -0.15050670889E+04  0.15050670889E+04  0.25500000920E-02 0.  1.
    10030    2    1    2    0    0  0.00000000000E+00  0.00000000000E+00 -0.11478755356E+03  0.28953466243E+04  0.28930703228E+04 0.  0.
        5    1    3    3  502    0  0.64653798589E+03  0.11270144536E+04 -0.69371551501E+03  0.14729006252E+04  0.46999998093E+01 0.  1.
       -5    1    3    3    0  502 -0.64653798589E+03 -0.11270144536E+04  0.57892796144E+03  0.14224459991E+04  0.46999998093E+01 0. -1.
</event>
<event>
 5   0  0.8355946E-07  0.2902663E+04  0.7818609E-02  0.8272086E-01
       -1   -1    0    0    0  501  0.00000000000E+00  0.00000000000E+00  0.12353081637E+04  0.12353081638E+04  0.50400001928E-02 0. -1.
        1   -1    0    0  501    0  0.00000000000E+00  0.00000000000E+00 -0.17051316451E+04  0.17051316451E+04  0.50400001928E-02 0.  1.
    10030    2    1    2    0    0  0.00000000000E+00  0.00000000000E+00 -0.46982348137E+03  0.29404398089E+04  0.29026629439E+04 0.  0.
        4    1    3    3  502    0  0.49098904652E+03 -0.47004678998E+03 -0.15339215981E+04  0.16777757033E+04  0.12699999809E+01 0.  1.
       -4    1    3    3    0  502 -0.49098904652E+03  0.47004678998E+03  0.10640981167E+04  0.12626641056E+04  0.12699999809E+01 0. -1.
</event>
<event>
 5   0  0.8357118E-07  0.2914441E+04  0.7818609E-02  0.8268594E-01
        1   -1    0    0  501    0  0.00000000000E+00  0.00000000000E+00  0.18116933998E+04  0.18116933998E+04  0.50400001928E-02 0. -1.
       -1   -1    0    0    0  501  0.00000000000E+00  0.00000000000E+00 -0.11721034472E+04  0.11721034472E+04  0.50400001928E-02 0.  1.
    10030    2    1    2    0    0  0.00000000000E+00  0.00000000000E+00  0.63958995259E+03  0.29837968471E+04  0.29144413388E+04 0.  0.
        1    1    3    3  502    0  0.42368206826E+02 -0.95529448719E+03 -0.80596742901E+03  0.12505863100E+04  0.50400001928E-02 0.  1.
       -1    1    3    3    0  502 -0.42368206826E+02  0.95529448719E+03  0.14455573816E+04  0.17332105370E+04  0.50400001928E-02 0. -1.
</event>
<event>
 5   0  0.8357118E-07  0.2898823E+04  0.7818609E-02  0.8273228E-01
       -1   -1    0    0    0  501  0.00000000000E+00  0.00000000000E+00  0.85917462776E+03  0.85917462778E+03  0.50400001928E-02 0. -1.
        1   -1    0    0  501    0  0.00000000000E+00  0.00000000000E+00 -0.24451303819E+04  0.24451303819E+04  0.50400001928E-02 0.  1.
    10030    2    1    2    0    0  0.00000000000E+00  0.00000000000E+00 -0.15859557542E+04  0.33043050097E+04  0.28988231997E+04 0.  0.
        1    1    3    3  502    0  0.10692215479E+04  0.26603961248E+03  0.28043520031E+03  0.11369501728E+04  0.50400001928E-02 0. -1.
       -1    1    3    3    0  502 -0.10692215479E+04 -0.26603961248E+03 -0.18663909545E+04  0.21673548369E+04  0.50400001928E-02 0.  1.
</event>
<event>
 5   0  0.8483636E-07  0.2899356E+04  0.7818609E-02  0.8273069E-01
        1   -1    0    0  501    0  0.00000000000E+00  0.00000000000E+00  0.13806840179E+04  0.13806840179E+04  0.50400001928E-02 0. -1.
       -1   -1    0    0    0  501  0.00000000000E+00  0.00000000000E+00 -0.15221196325E+04  0.15221196325E+04  0.50400001928E-02 0.  1.
    10030    2    1    2    0    0  0.00000000000E+00  0.00000000000E+00 -0.14143561460E+03  0.29028036503E+04  0.28993559629E+04 0.  0.
        2    1    3    3  502    0  0.64415753514E+03 -0.18525604907E+03  0.12162318585E+04  0.13886967514E+04  0.25500000920E-02 0. -1.
       -2    1    3    3    0  502 -0.64415753514E+03  0.18525604907E+03 -0.13576674731E+04  0.15141068989E+04  0.25500000920E-02 0.  1.
</event>
<event>
 5   0  0.8947674E-07  0.2894375E+04  0.7818609E-02  0.8274553E-01
        1   -1    0    0  501    0  0.00000000000E+00  0.00000000000E+00  0.11913694055E+04  0.11913694055E+04  0.50400001928E-02 0. -1.
       -1   -1    0    0    0  501  0.00000000000E+00  0.00000000000E+00 -0.17579365452E+04  0.17579365452E+04  0.50400001928E-02 0.  1.
    10030    2    1    2    0    0  0.00000000000E+00  0.00000000000E+00 -0.56656713970E+03  0.29493059506E+04  0.28943751081E+04 0.  0.
        3    1    3    3  502    0 -0.12212774697E+04  0.59607942173E+03  0.22367483640E+03  0.13772653258E+04  0.10100000352E+00 0. -1.
       -3    1    3    3    0  502  0.12212774697E+04 -0.59607942173E+03 -0.79024197610E+03  0.15720406248E+04  0.10100000352E+00 0.  1.
</event>
<event>
 5   0  0.2378690E-06  0.2910705E+04  0.7818609E-02  0.8269699E-01
       -2   -1    0    0    0  501  0.00000000000E+00  0.00000000000E+00  0.11025782768E+04  0.11025782768E+04  0.25500000920E-02 0. -1.
        2   -1    0    0  501    0  0.00000000000E+00  0.00000000000E+00 -0.19209984393E+04  0.19209984393E+04  0.25500000920E-02 0.  1.
    10030    2    1    2    0    0  0.00000000000E+00  0.00000000000E+00 -0.81842016254E+03  0.30235767162E+04  0.29107051716E+04 0.  0.
        3    1    3    3  502    0 -0.67738064439E+03  0.73724515511E+02 -0.17450687092E+04  0.18733778721E+04  0.10100000352E+00 0.  1.
       -3    1    3    3    0  502  0.67738064439E+03 -0.73724515511E+02  0.92664854668E+03  0.11501988440E+04  0.10100000352E+00 0. -1.
</event>
<event>
 5   0  0.8947674E-07  0.2900143E+04  0.7818609E-02  0.8272835E-01
        1   -1    0    0  501    0  0.00000000000E+00  0.00000000000E+00  0.22254759972E+04  0.22254759972E+04  0.50400001928E-02 0. -1.
       -1   -1    0    0    0  501  0.00000000000E+00  0.00000000000E+00 -0.94483505163E+03  0.94483505164E+03  0.50400001928E-02 0.  1.
    10030    2    1    2    0    0  0.00000000000E+00  0.00000000000E+00  0.12806409455E+04  0.31703110488E+04  0.29001432576E+04 0.  0.
        3    1    3    3  502    0 -0.35816611207E+03  0.25516702958E+03 -0.87018103532E+03  0.97499139547E+03  0.10100000352E+00 0.  1.
       -3    1    3    3    0  502  0.35816611207E+03 -0.25516702958E+03  0.21508219809E+04  0.21953196534E+04  0.10100000352E+00 0. -1.
</event>
<event>
 5   0  0.2360103E-06  0.2901200E+04  0.7818609E-02  0.8272521E-01
       -2   -1    0    0    0  501  0.00000000000E+00  0.00000000000E+00  0.16325324157E+04  0.16325324157E+04  0.25500000920E-02 0. -1.
        2   -1    0    0  501    0  0.00000000000E+00  0.00000000000E+00 -0.12889420274E+04  0.12889420274E+04  0.25500000920E-02 0.  1.
    10030    2    1    2    0    0  0.00000000000E+00  0.00000000000E+00  0.34359038831E+03  0.29214744430E+04  0.29011995048E+04 0.  0.
        4    1    3    3  502    0 -0.27116144944E+03  0.11674315958E+04  0.99470439916E+03  0.15575183842E+04  0.12699999809E+01 0. -1.
       -4    1    3    3    0  502  0.27116144944E+03 -0.11674315958E+04 -0.65111401085E+03  0.13639560589E+04  0.12699999809E+01 0.  1.
</event>
<event>
 5   0  0.2378690E-06  0.2861951E+04  0.7818609E-02  0.8284289E-01
       -2   -1    0    0    0  501  0.00000000000E+00  0.00000000000E+00  0.13305992041E+04  0.13305992041E+04  0.25500000920E-02 0. -1.
        2   -1    0    0  501    0  0.00000000000E+00  0.00000000000E+00 -0.15389237208E+04  0.15389237208E+04  0.25500000920E-02 0.  1.
    10030    2    1    2    0    0  0.00000000000E+00  0.00000000000E+00 -0.20832451667E+03  0.28695229249E+04  0.28619508577E+04 0.  0.
        3    1    3    3  502    0 -0.43373221679E+03 -0.12816918116E+04  0.36272320034E+03  0.14008660415E+04  0.10100000352E+00 0. -1.
       -3    1    3    3    0  502  0.43373221679E+03  0.12816918116E+04 -0.57104771700E+03  0.14686568834E+04  0.10100000352E+00 0.  1.
</event>
<event>
 5   0  0.2425845E-06  0.2902545E+04  0.7818609E-02  0.8272121E-01
        2   -1    0    0  501    0  0.00000000000E+00  0.00000000000E+00  0.25626656160E+04  0.25626656160E+04  0.25500000920E-02 0. -1.
       -2   -1    0    0    0  501  0.00000000000E+00  0.00000000000E+00 -0.82187532450E+03  0.82187532451E+03  0.25500000920E-02 0.  1.
    10030    2    1    2    0    0  0.00000000000E+00  0.00000000000E+00  0.17407902915E+04  0.33845409405E+04  0.29025448384E+04 0.  0.
        2    1    3    3  502    0 -0.28936400649E+03 -0.10972499368E+04 -0.18455245319E+03  0.11496732405E+04  0.25500000920E-02 0.  1.
       -2    1    3    3    0  502  0.28936400649E+03  0.10972499368E+04  0.19253427447E+04  0.22348677000E+04  0.25500000920E-02 0. -1.
</event>
<event>
 5   0  0.8263673E-07  0.2916631E+04  0.7818609E-02  0.8267947E-01
        1   -1    0    0  501    0  0.00000000000E+00  0.00000000000E+00  0.24433385315E+04  0.24433385315E+04  0.50400001928E-02 0.  1.
       -1   -1    0    0    0  501  0.00000000000E+00  0.00000000000E+00 -0.87040071618E+03  0.87040071619E+03  0.50400001928E-02 0. -1.
    10030    2    1    2    0    0  0.00000000000E+00  0.00000000000E+00  0.15729378153E+04  0.33137392477E+04  0.29166306641E+04 0.  0.
        5    1    3    3  502    0 -0.12886675015E+04 -0.67509349781E+03  0.90147521142E+03  0.17114598468E+04  0.46999998093E+01 0.  1.
       -5    1    3    3    0  502  0.12886675015E+04  0.67509349781E+03  0.67146260389E+03  0.16022794009E+04  0.46999998093E+01 0. -1.
</event>
<event>
 5   0  0.8357118E-07  0.2908736E+04  0.7818609E-02  0.8270283E-01
       -1   -1    0    0    0  501  0.00000000000E+00  0.00000000000E+00  0.12430190370E+04  0.12430190370E+04  0.50400001928E-02 0.  1.
        1   -1    0    0  501    0  0.00000000000E+00  0.00000000000E+00 -0.17016524688E+04  0.17016524688E+04  0.50400001928E-02 0. -1.
    10030    2    1    2    0    0  0.00000000000E+00  0.00000000000E+00 -0.45863343179E+03  0.29446715057E+04  0.29087360918E+04 0.  0.
        1    1    3    3  502    0 -0.48553217078E+03  0.54176126258E+03 -0.15042159607E+04  0.16709016760E+04  0.50400001928E-02 0. -1.
       -1    1    3    3    0  502  0.48553217078E+03 -0.54176126258E+03  0.10455825289E+04  0.12737698298E+04  0.50400001928E-02 0.  1.
</event>
<event>
 5   0  0.2304435E-06  0.2890809E+04  0.7818609E-02  0.8275617E-01
        2   -1    0    0  501    0  0.00000000000E+00  0.00000000000E+00  0.13767691658E+04  0.13767691658E+04  0.25500000920E-02 0.  1.
       -2   -1    0    0    0  501  0.00000000000E+00  0.00000000000E+00 -0.15174616530E+04  0.15174616530E+04  0.25500000920E-02 0. -1.
    10030    2    1    2    0    0  0.00000000000E+00  0.00000000000E+00 -0.14069248727E+03  0.28942308188E+04  0.28908091698E+04 0.  0.
        1    1    3    3  502    0  0.34759391912E+02  0.21684648559E+03  0.13599677612E+04  0.13775859048E+04  0.50400001928E-02 0.  1.
       -1    1    3    3    0  502 -0.34759391912E+02 -0.21684648559E+03 -0.15006602485E+04  0.15166449140E+04  0.50400001928E-02 0. -1.
</event>
<event>
 5   0  0.2360103E-06  0.2924261E+04  0.7818609E-02  0.8265696E-01
        2   -1    0    0  501    0  0.00000000000E+00  0.00000000000E+00  0.14901084926E+04  0.14901084926E+04  0.25500000920E-02 0.  1.
       -2   -1    0    0    0  501  0.00000000000E+00  0.00000000000E+00 -0.14346773318E+04  0.14346773318E+04  0.25500000920E-02 0. -1.
    10030    2    1    2    0    0  0.00000000000E+00  0.00000000000E+00  0.55431160713E+02  0.29247858244E+04  0.29242605057E+04 0.  0.
        4    1    3    3  502    0 -0.10670576405E+04  0.63810165279E+03  0.79729355825E+03  0.14769781171E+04  0.12699999809E+01 0. -1.
       -4    1    3    3    0  502  0.10670576405E+04 -0.63810165279E+03 -0.74186239754E+03  0.14478077073E+04  0.12699999809E+01 0.  1.
</event>
<event>
 5   0  0.7621125E-07  0.2865847E+04  0.7818609E-02  0.8283112E-01
        4   -1    0    0  501    0  0.00000000000E+00  0.00000000000E+00  0.14723192815E+04  0.14723198293E+04  0.12699999809E+01 0.  1.
       -4   -1    0    0    0  501  0.00000000000E+00  0.00000000000E+00 -0.13945806087E+04  0.13945811869E+04  0.12699999809E+01 0. -1.
    10030    2    1    2    0    0  0.00000000000E+00  0.00000000000E+00  0.77738672881E+02  0.28669010162E+04  0.28658468444E+04 0.  0.
        5    1    3    3  502    0 -0.42783801688E+03 -0.12819485822E+04  0.51529015650E+03  0.14463690993E+04  0.46999998093E+01 0. -1.
       -5    1    3    3    0  502  0.42783801688E+03  0.12819485822E+04 -0.43755148362E+03  0.14205319169E+04  0.46999998093E+01 0.  1.
</event>
<event>
 5   0  0.2378690E-06  0.2906616E+04  0.7818609E-02  0.8270912E-01
        2   -1    0    0  501    0  0.00000000000E+00  0.00000000000E+00  0.14245020010E+04  0.14245020010E+04  0.25500000920E-02 0.  1.
       -2   -1    0    0    0  501  0.00000000000E+00  0.00000000000E+00 -0.14826968585E+04  0.14826968585E+04  0.25500000920E-02 0. -1.
    10030    2    1    2    0    0  0.00000000000E+00  0.00000000000E+00 -0.58194857488E+02  0.29071988594E+04  0.29066163433E+04 0.  0.
        3    1    3    3  502    0 -0.69818332765E+03 -0.89302284277E+02 -0.13008355442E+04  0.14790564493E+04  0.10100000352E+00 0. -1.
       -3    1    3    3    0  502  0.69818332765E+03  0.89302284277E+02  0.12426406867E+04  0.14281424101E+04  0.10100000352E+00 0.  1.
</event>
<event>
 5   0  0.2360103E-06  0.2891713E+04  0.7818609E-02  0.8275348E-01
       -2   -1    0    0    0  501  0.00000000000E+00  0.00000000000E+00  0.16503384897E+04  0.16503384897E+04  0.25500000920E-02 0.  1.
        2   -1    0    0  501    0  0.00000000000E+00  0.00000000000E+00 -0.12667100592E+04  0.12667100592E+04  0.25500000920E-02 0. -1.
    10030    2    1    2    0    0  0.00000000000E+00  0.00000000000E+00  0.38362843050E+03  0.29170485488E+04  0.28917125486E+04 0.  0.
        4    1    3    3  502    0  0.36348884046E+03  0.12445593444E+04  0.83730077062E+03  0.15434138434E+04  0.12699999809E+01 0.  1.
       -4    1    3    3    0  502 -0.36348884046E+03 -0.12445593444E+04 -0.45367234012E+03  0.13736347054E+04  0.12699999809E+01 0. -1.
</event>
<event>
 5   0  0.8263673E-07  0.2802698E+04  0.7818609E-02  0.8302431E-01
       -1   -1    0    0    0  501  0.00000000000E+00  0.00000000000E+00  0.96678657118E+03  0.96678657120E+03  0.50400001928E-02 0. -1.
        1   -1    0    0  501    0  0.00000000000E+00  0.00000000000E+00 -0.20312441500E+04  0.20312441500E+04  0.50400001928E-02 0.  1.
    10030    2    1    2    0    0  0.00000000000E+00  0.00000000000E+00 -0.10644575788E+04  0.29980307212E+04  0.28026983905E+04 0.  0.
        5    1    3    3  502    0  0.12691890623E+04  0.40566218822E+03 -0.67982918861E+02  0.13341838157E+04  0.46999998093E+01 0. -1.
       -5    1    3    3    0  502 -0.12691890623E+04 -0.40566218822E+03 -0.99647465995E+03  0.16638469055E+04  0.46999998093E+01 0.  1.
</event>
<event>
 5   0  0.8483636E-07  0.2898971E+04  0.7818609E-02  0.8273184E-01
        1   -1    0    0  501    0  0.00000000000E+00  0.00000000000E+00  0.93898740528E+03  0.93898740529E+03  0.50400001928E-02 0.  1.
       -1   -1    0    0    0  501  0.00000000000E+00  0.00000000000E+00 -0.22375250769E+04  0.22375250769E+04  0.50400001928E-02 0. -1.
    10030    2    1    2    0    0  0.00000000000E+00  0.00000000000E+00 -0.12985376716E+04  0.31765124822E+04  0.28989707596E+04 0.  0.
        2    1    3    3  502    0  0.12416789046E+04 -0.19709012749E+03 -0.14397182085E+04  0.19113868108E+04  0.25500000920E-02 0. -1.
       -2    1    3    3    0  502 -0.12416789046E+04  0.19709012749E+03  0.14118053692E+03  0.12651256714E+04  0.25500000920E-02 0.  1.
</event>
<event>
 5   0  0.2360103E-06  0.2903500E+04  0.7818609E-02  0.8271837E-01
        2   -1    0    0  501    0  0.00000000000E+00  0.00000000000E+00  0.16483882044E+04  0.16483882044E+04  0.25500000920E-02 0.  1.
       -2   -1    0    0    0  501  0.00000000000E+00  0.00000000000E+00 -0.12785692742E+04  0.12785692742E+04  0.25500000920E-02 0. -1.
    10030    2    1    2    0    0  0.00000000000E+00  0.00000000000E+00  0.36981893022E+03  0.29269574787E+04  0.29035003084E+04 0.  0.
        4    1    3    3  502    0 -0.12246916631E+04  0.28653405198E+03  0.91575310641E+03  0.15558202973E+04  0.12699999809E+01 0.  1.
       -4    1    3    3    0  502  0.12246916631E+04 -0.28653405198E+03 -0.54593417619E+03  0.13711371814E+04  0.12699999809E+01 0. -1.
</event>
<event>
 5   0  0.2378690E-06  0.2903883E+04  0.7818609E-02  0.8271723E-01
       -2   -1    0    0    0  501  0.00000000000E+00  0.00000000000E+00  0.83078078403E+03  0.83078078403E+03  0.25500000920E-02 0.  1.
        2   -1    0    0  501    0  0.00000000000E+00  0.00000000000E+00 -0.25375338831E+04  0.25375338831E+04  0.25500000920E-02 0. -1.
    10030    2    1    2    0    0  0.00000000000E+00  0.00000000000E+00 -0.17067530991E+04  0.33683146672E+04  0.29038831856E+04 0.  0.
        3    1    3    3  502    0  0.82562017563E+03 -0.54772702223E+03 -0.20844824532E+04  0.23079689498E+04  0.10100000352E+00 0. -1.
       -3    1    3    3    0  502 -0.82562017563E+03  0.54772702223E+03  0.37772935406E+03  0.10603457174E+04  0.10100000352E+00 0.  1.
</event>
<event>
 5   0  0.7621125E-07  0.2897055E+04  0.7818609E-02  0.8273754E-01
       -3   -1    0    0    0  501  0.00000000000E+00  0.00000000000E+00  0.15369707549E+04  0.15369707582E+04  0.10100000352E+00 0.  1.
        3   -1    0    0  501    0  0.00000000000E+00  0.00000000000E+00 -0.13651738210E+04  0.13651738248E+04  0.10100000352E+00 0. -1.
    10030    2    1    2    0    0  0.00000000000E+00  0.00000000000E+00  0.17179693384E+03  0.29021445830E+04  0.28970552280E+04 0.  0.
        5    1    3    3  502    0  0.60103238048E+03  0.81830424983E+03 -0.94904200427E+03  0.13898073908E+04  0.46999998093E+01 0. -1.
       -5    1    3    3    0  502 -0.60103238048E+03 -0.81830424983E+03  0.11208389381E+04  0.15123371922E+04  0.46999998093E+01 0.  1.
</event>
<event>
 5   0  0.2425845E-06  0.2896857E+04  0.7818609E-02  0.8273813E-01
       -2   -1    0    0    0  501  0.00000000000E+00  0.00000000000E+00  0.95384755261E+03  0.95384755262E+03  0.25500000920E-02 0. -1.
        2   -1    0    0  501    0  0.00000000000E+00  0.00000000000E+00 -0.21994558970E+04  0.21994558970E+04  0.25500000920E-02 0.  1.
    10030    2    1    2    0    0  0.00000000000E+00  0.00000000000E+00 -0.12456083444E+04  0.31533034496E+04  0.28968573485E+04 0.  0.
        2    1    3    3  502    0 -0.12905563636E+04  0.16679120573E+03 -0.13151874103E+04  0.18501548471E+04  0.25500000920E-02 0. -1.
       -2    1    3    3    0  502  0.12905563636E+04 -0.16679120573E+03  0.69579065940E+02  0.13031486025E+04  0.25500000920E-02 0.  1.
</event>
<event>
 5   0  0.2360103E-06  0.2818763E+04  0.7818609E-02  0.8297467E-01
        2   -1    0    0  501    0  0.00000000000E+00  0.00000000000E+00  0.28442594863E+04  0.28442594863E+04  0.25500000920E-02 0.  1.
       -2   -1    0    0    0  501  0.00000000000E+00  0.00000000000E+00 -0.69837388344E+03  0.69837388345E+03  0.25500000920E-02 0. -1.
    10030    2    1    2    0    0  0.00000000000E+00  0.00000000000E+00  0.21458856029E+04  0.35426333698E+04  0.28187632345E+04 0.  0.
        4    1    3    3  502    0 -0.10030254203E+04  0.87023231352E+03  0.47945616516E+03  0.14118229706E+04  0.12699999809E+01 0. -1.
       -4    1    3    3    0  502  0.10030254203E+04 -0.87023231352E+03  0.16664294377E+04  0.21308103991E+04  0.12699999809E+01 0.  1.
</event>
<event>
 5   0  0.8357118E-07  0.2856159E+04  0.7818609E-02  0.8286042E-01
       -1   -1    0    0    0  501  0.00000000000E+00  0.00000000000E+00  0.13017939313E+04  0.13017939313E+04  0.50400001928E-02 0. -1.
        1   -1    0    0  501    0  0.00000000000E+00  0.00000000000E+00 -0.15666156466E+04  0.15666156466E+04  0.50400001928E-02 0.  1.
    10030    2    1    2    0    0  0.00000000000E+00  0.00000000000E+00 -0.26482171525E+03  0.28684095779E+04  0.28561587781E+04 0.  0.
        1    1    3    3  502    0  0.13879197482E+04 -0.32901852530E+03 -0.20225283175E+03  0.14406528470E+04  0.50400001928E-02 0.  1.
       -1    1    3    3    0  502 -0.13879197482E+04  0.32901852530E+03 -0.62568883502E+02  0.14277567309E+04  0.50400001928E-02 0. -1.
</event>
<event>
 5   0  0.2425845E-06  0.2903369E+04  0.7818609E-02  0.8271876E-01
       -2   -1    0    0    0  501  0.00000000000E+00  0.00000000000E+00  0.10106940156E+04  0.10106940156E+04  0.25500000920E-02 0.  1.
        2   -1    0    0  501    0  0.00000000000E+00  0.00000000000E+00 -0.20850905722E+04  0.20850905722E+04  0.25500000920E-02 0. -1.
    10030    2    1    2    0    0  0.00000000000E+00  0.00000000000E+00 -0.10743965566E+04  0.30957845878E+04  0.29033694655E+04 0.  0.
        2    1    3    3  502    0  0.32425759801E+02  0.12234007208E+03  0.10047999327E+04  0.10127395657E+04  0.25500000920E-02 0.  1.
       -2    1    3    3    0  502 -0.32425759801E+02 -0.12234007208E+03 -0.20791964893E+04  0.20830450222E+04  0.25500000920E-02 0. -1.
</event>
<event>
 5   0  0.8263673E-07  0.2901416E+04  0.7818609E-02  0.8272456E-01
       -1   -1    0    0    0  501  0.00000000000E+00  0.00000000000E+00  0.24194384587E+04  0.24194384587E+04  0.50400001928E-02 0. -1.
        1   -1    0    0  501    0  0.00000000000E+00  0.00000000000E+00 -0.86985235750E+03  0.86985235751E+03  0.50400001928E-02 0.  1.
    10030    2    1    2    0    0  0.00000000000E+00  0.00000000000E+00  0.15495861012E+04  0.32892908162E+04  0.29014163763E+04 0.  0.
        5    1    3    3  502    0  0.10459769963E+04  0.58237128398E+03 -0.15407305448E+03  0.12070562478E+04  0.46999998093E+01 0.  1.
       -5    1    3    3    0  502 -0.10459769963E+04 -0.58237128398E+03  0.17036591557E+04  0.20822345684E+04  0.46999998093E+01 0. -1.
</event>
<event>
 5   0  0.8947674E-07  0.2908360E+04  0.7818609E-02  0.8270394E-01
       -1   -1    0    0    0  501  0.00000000000E+00  0.00000000000E+00  0.13574763729E+04  0.13574763729E+04  0.50400001928E-02 0.  1.
        1   -1    0    0  501    0  0.00000000000E+00  0.00000000000E+00 -0.15577727215E+04  0.15577727215E+04  0.50400001928E-02 0. -1.
    10030    2    1    2    0    0  0.00000000000E+00  0.00000000000E+00 -0.20029634859E+03  0.29152490944E+04  0.29083601316E+04 0.  0.
        3    1    3    3  502    0 -0.40761167013E+03 -0.52263331596E+03 -0.13975659575E+04  0.15467654872E+04  0.10100000352E+00 0. -1.
       -3    1    3    3    0  502  0.40761167013E+03  0.52263331596E+03  0.11972696089E+04  0.13684836072E+04  0.10100000352E+00 0.  1.
</event>
<event>
 5   0  0.2325590E-06  0.2887075E+04  0.7818609E-02  0.8276734E-01
        2   -1    0    0  501    0  0.00000000000E+00  0.00000000000E+00  0.13875830516E+04  0.13875830516E+04  0.25500000920E-02 0. -1.
       -2   -1    0    0    0  501  0.00000000000E+00  0.00000000000E+00 -0.15017479155E+04  0.15017479155E+04  0.25500000920E-02 0.  1.
    10030    2    1    2    0    0  0.00000000000E+00  0.00000000000E+00 -0.11416486389E+03  0.28893309671E+04  0.28870746131E+04 0.  0.
        5    1    3    3  502    0  0.10917847483E+03 -0.14117089356E+03 -0.14906574290E+04  0.15013097020E+04  0.46999998093E+01 0.  1.
       -5    1    3    3    0  502 -0.10917847483E+03  0.14117089356E+03  0.13764925651E+04  0.13880212651E+04  0.46999998093E+01 0. -1.
</event>
<event>
 5   0  0.8263673E-07  0.2890814E+04  0.7818609E-02  0.8275616E-01
        1   -1    0    0  501    0  0.00000000000E+00  0.00000000000E+00  0.14093738813E+04  0.14093738813E+04  0.50400001928E-02 0. -1.
       -1   -1    0    0    0  501  0.00000000000E+00  0.00000000000E+00 -0.14823608916E+04  0.14823608916E+04  0.50400001928E-02 0.  1.
    10030    2    1    2    0    0  0.00000000000E+00  0.00000000000E+00 -0.72987010364E+02  0.28917347729E+04  0.28908135349E+04 0.  0.
        5    1    3    3  502    0 -0.83082998255E+03  0.80742099459E+01 -0.12195939565E+04  0.14757286883E+04  0.46999998093E+01 0.  1.
       -5    1    3    3    0  502  0.83082998255E+03 -0.80742099459E+01  0.11466069461E+04  0.14160060846E+04  0.46999998093E+01 0. -1.
</event>
<event>
 5   0  0.2378690E-06  0.2887785E+04  0.7818609E-02  0.8276521E-01
        2   -1    0    0  501    0  0.00000000000E+00  0.00000000000E+00  0.20670671870E+04  0.20670671870E+04  0.25500000920E-02 0. -1.
       -2   -1    0    0    0  501  0.00000000000E+00  0.00000000000E+00 -0.10085911897E+04  0.10085911897E+04  0.25500000920E-02 0.  1.
    10030    2    1    2    0    0  0.00000000000E+00  0.00000000000E+00  0.10584759973E+04  0.30756583768E+04  0.28877851398E+04 0.  0.
        3    1    3    3  502    0  0.86303322506E+03 -0.63013901848E+03 -0.50497885811E+03  0.11819074361E+04  0.10100000352E+00 0.  1.
       -3    1    3    3    0  502 -0.86303322506E+03  0.63013901848E+03  0.15634548554E+04  0.18937509407E+04  0.10100000352E+00 0. -1.
</event>
<event>
 5   0  0.8357118E-07  0.2895572E+04  0.7818609E-02  0.8274196E-01
       -1   -1    0    0    0  501  0.00000000000E+00  0.00000000000E+00  0.14016372837E+04  0.14016372838E+04  0.50400001928E-02 0.  1.
        1   -1    0    0  501    0  0.00000000000E+00  0.00000000000E+00 -0.14954541050E+04  0.14954541050E+04  0.50400001928E-02 0. -1.
    10030    2    1    2    0    0  0.00000000000E+00  0.00000000000E+00 -0.93816821217E+02  0.28970913887E+04  0.28955719502E+04 0.  0.
        1    1    3    3  502    0  0.78438969180E+03 -0.59486694584E+03 -0.11090446507E+04  0.14829409662E+04  0.50400001928E-02 0. -1.
       -1    1    3    3    0  502 -0.78438969180E+03  0.59486694584E+03  0.10152278295E+04  0.14141504226E+04  0.50400001928E-02 0.  1.
</event>
<event>
 5   0  0.8263673E-07  0.2914800E+04  0.7818609E-02  0.8268488E-01
        1   -1    0    0  501    0  0.00000000000E+00  0.00000000000E+00  0.19348295385E+04  0.19348295385E+04  0.50400001928E-02 0.  1.
       -1   -1    0    0    0  501  0.00000000000E+00  0.00000000000E+00 -0.10977785899E+04  0.10977785899E+04  0.50400001928E-02 0. -1.
    10030    2    1    2    0    0  0.00000000000E+00  0.00000000000E+00  0.83705094865E+03  0.30326081284E+04  0.29147997821E+04 0.  0.
        5    1    3    3  502    0  0.67235177109E+03  0.47279921853E+03  0.16706608247E+04  0.18619145218E+04  0.46999998093E+01 0.  1.
       -5    1    3    3    0  502 -0.67235177109E+03 -0.47279921853E+03 -0.83360987607E+03  0.11706936066E+04  0.46999998093E+01 0. -1.
</event>
<event>
 5   0  0.2378690E-06  0.2896692E+04  0.7818609E-02  0.8273862E-01
       -2   -1    0    0    0  501  0.00000000000E+00  0.00000000000E+00  0.26275510952E+04  0.26275510952E+04  0.25500000920E-02 0.  1.
        2   -1    0    0  501    0  0.00000000000E+00  0.00000000000E+00 -0.79835029007E+03  0.79835029007E+03  0.25500000920E-02 0. -1.
    10030    2    1    2    0    0  0.00000000000E+00  0.00000000000E+00  0.18292008051E+04  0.34259013853E+04  0.28966920299E+04 0.  0.
        3    1    3    3  502    0  0.10010576778E+03 -0.14446918171E+04  0.94235109993E+03  0.17277676976E+04  0.10100000352E+00 0.  1.
       -3    1    3    3    0  502 -0.10010576778E+03  0.14446918171E+04  0.88684970520E+03  0.16981336876E+04  0.10100000352E+00 0. -1.
</event>
<event>
 5   0  0.2325590E-06  0.2885032E+04  0.7818609E-02  0.8277345E-01
        2   -1    0    0  501    0  0.00000000000E+00  0.00000000000E+00  0.19439395441E+04  0.19439395441E+04  0.25500000920E-02 0.  1.
       -2   -1    0    0    0  501  0.00000000000E+00  0.00000000000E+00 -0.10704308687E+04  0.10704308687E+04  0.25500000920E-02 0. -1.
    10030    2    1    2    0    0  0.00000000000E+00  0.00000000000E+00  0.87350867541E+03  0.30143704128E+04  0.28850323359E+04 0.  0.
        5    1    3    3  502    0 -0.12518702517E+04 -0.25095773560E+03  0.11381711475E+04  0.17104427974E+04  0.46999998093E+01 0. -1.
       -5    1    3    3    0  502  0.12518702517E+04  0.25095773560E+03 -0.26466247207E+03  0.13039276154E+04  0.46999998093E+01 0.  1.
</event>
<event>
 5   0  0.2325590E-06  0.2916556E+04  0.7818609E-02  0.8267969E-01
        2   -1    0    0  501    0  0.00000000000E+00  0.00000000000E+00  0.14642214304E+04  0.14642214304E+04  0.25500000920E-02 0. -1.
       -2   -1    0    0    0  501  0.00000000000E+00  0.00000000000E+00 -0.14523586488E+04  0.14523586488E+04  0.25500000920E-02 0.  1.
    10030    2    1    2    0    0  0.00000000000E+00  0.00000000000E+00  0.11862781555E+02  0.29165800792E+04  0.29165559540E+04 0.  0.
        5    1    3    3  502    0  0.97226704825E+03 -0.10719954935E+04 -0.17316508467E+03  0.14575615897E+04  0.46999998093E+01 0.  1.
       -5    1    3    3    0  502 -0.97226704825E+03  0.10719954935E+04  0.18502786623E+03  0.14590184894E+04  0.46999998093E+01 0. -1.
</event>
<event>
 5   0  0.8355946E-07  0.2905440E+04  0.7818609E-02  0.8271261E-01
       -1   -1    0    0    0  501  0.00000000000E+00  0.00000000000E+00  0.15620295253E+04  0.15620295253E+04  0.50400001928E-02 0.  1.
        1   -1    0    0  501    0  0.00000000000E+00  0.00000000000E+00 -0.13510595347E+04  0.13510595347E+04  0.50400001928E-02 0. -1.
    10030    2    1    2    0    0  0.00000000000E+00  0.00000000000E+00  0.21096999064E+03  0.29130890600E+04  0.29054396456E+04 0.  0.
        4    1    3    3  502    0 -0.53004046046E+03 -0.12609026734E+04 -0.38526747841E+03  0.14210035484E+04  0.12699999809E+01 0. -1.
       -4    1    3    3    0  502  0.53004046046E+03  0.12609026734E+04  0.59623746905E+03  0.14920855116E+04  0.12699999809E+01 0.  1.
</event>
<event>
 5   0  0.7621125E-07  0.2861968E+04  0.7818609E-02  0.8284284E-01
       -3   -1    0    0    0  501  0.00000000000E+00  0.00000000000E+00  0.21278513595E+04  0.21278513619E+04  0.10100000352E+00 0.  1.
        3   -1    0    0  501    0  0.00000000000E+00  0.00000000000E+00 -0.96233915730E+03  0.96233916260E+03  0.10100000352E+00 0. -1.
    10030    2    1    2    0    0  0.00000000000E+00  0.00000000000E+00  0.11655122022E+04  0.30901905245E+04  0.28619676421E+04 0.  0.
        1    1    3    3  502    0 -0.50750920188E+03  0.13207311889E+04  0.81387725911E+03  0.16322661107E+04  0.50400001928E-02 0. -1.
       -1    1    3    3    0  502  0.50750920188E+03 -0.13207311889E+04  0.35163494313E+03  0.14579244138E+04  0.50400001928E-02 0.  1.
</event>
<event>
 5   0  0.8355946E-07  0.2916764E+04  0.7818609E-02  0.8267907E-01
       -1   -1    0    0    0  501  0.00000000000E+00  0.00000000000E+00  0.10145503039E+04  0.10145503039E+04  0.50400001928E-02 0.  1.
        1   -1    0    0  501    0  0.00000000000E+00  0.00000000000E+00 -0.20963745931E+04  0.20963745931E+04  0.50400001928E-02 0. -1.
    10030    2    1    2    0    0  0.00000000000E+00  0.00000000000E+00 -0.10818242892E+04  0.31109248970E+04  0.29167636041E+04 0.  0.
        4    1    3    3  502    0 -0.24691646848E+02  0.87137234693E+03  0.70609461192E+03  0.11218157863E+04  0.12699999809E+01 0.  1.
       -4    1    3    3    0  502  0.24691646848E+02 -0.87137234693E+03 -0.17879189012E+04  0.19891091108E+04  0.12699999809E+01 0. -1.
</event>
<event>
 5   0  0.8947674E-07  0.2907093E+04  0.7818609E-02  0.8270770E-01
       -1   -1    0    0    0  501  0.00000000000E+00  0.00000000000E+00  0.12746371926E+04  0.12746371926E+04  0.50400001928E-02 0. -1.
        1   -1    0    0  501    0  0.00000000000E+00  0.00000000000E+00 -0.16575678754E+04  0.16575678755E+04  0.50400001928E-02 0.  1.
    10030    2    1    2    0    0  0.00000000000E+00  0.00000000000E+00 -0.38293068283E+03  0.29322050681E+04  0.29070931621E+04 0.  0.
        3    1    3    3  502    0  0.37902344209E+03  0.74570779288E+03 -0.13904551815E+04  0.16226843513E+04  0.10100000352E+00 0.  1.
       -3    1    3    3    0  502 -0.37902344209E+03 -0.74570779288E+03  0.10075244987E+04  0.13095207168E+04  0.10100000352E+00 0. -1.
</event>
<event>
 5   0  0.8357118E-07  0.2901413E+04  0.7818609E-02  0.8272457E-01
       -1   -1    0    0    0  501  0.00000000000E+00  0.00000000000E+00  0.10332431119E+04  0.10332431119E+04  0.50400001928E-02 0.  1.
        1   -1    0    0  501    0  0.00000000000E+00  0.00000000000E+00 -0.20368387242E+04  0.20368387242E+04  0.50400001928E-02 0. -1.
    10030    2    1    2    0    0  0.00000000000E+00  0.00000000000E+00 -0.10035956123E+04  0.30700818362E+04  0.29014131605E+04 0.  0.
        1    1    3    3  502    0 -0.79735952503E+03  0.38286742224E+03  0.71490820028E+03  0.11373053284E+04  0.50400001928E-02 0.  1.
       -1    1    3    3    0  502  0.79735952503E+03 -0.38286742224E+03 -0.17185038126E+04  0.19327765078E+04  0.50400001928E-02 0. -1.
</event>
<event>
 5   0  0.2325590E-06  0.2911135E+04  0.7818609E-02  0.8269572E-01
       -2   -1    0    0    0  501  0.00000000000E+00  0.00000000000E+00  0.13779909637E+04  0.13779909637E+04  0.25500000920E-02 0.  1.
        2   -1    0    0  501    0  0.00000000000E+00  0.00000000000E+00 -0.15375117223E+04  0.15375117223E+04  0.25500000920E-02 0. -1.
    10030    2    1    2    0    0  0.00000000000E+00  0.00000000000E+00 -0.15952075859E+03  0.29155026860E+04  0.29111353524E+04 0.  0.
        5    1    3    3  502    0  0.35579981855E+03 -0.84558054089E+03  0.10520036425E+04  0.13958272514E+04  0.46999998093E+01 0.  1.
       -5    1    3    3    0  502 -0.35579981855E+03  0.84558054089E+03 -0.12115244011E+04  0.15196754346E+04  0.46999998093E+01 0. -1.
</event>
<event>
 5   0  0.2325590E-06  0.2898844E+04  0.7818609E-02  0.8273222E-01
       -2   -1    0    0    0  501  0.00000000000E+00  0.00000000000E+00  0.83689420201E+03  0.83689420202E+03  0.25500000920E-02 0. -1.
        2   -1    0    0  501    0  0.00000000000E+00  0.00000000000E+00 -0.25102622622E+04  0.25102622622E+04  0.25500000920E-02 0.  1.
    10030    2    1    2    0    0  0.00000000000E+00  0.00000000000E+00 -0.16733680602E+04  0.33471564643E+04  0.28988438611E+04 0.  0.
        5    1    3    3  502    0  0.48305126897E+03  0.13665311603E+04 -0.84531711334E+03  0.16778942317E+04  0.46999998093E+01 0.  1.
       -5    1    3    3    0  502 -0.48305126897E+03 -0.13665311603E+04 -0.82805094689E+03  0.16692622326E+04  0.46999998093E+01 0. -1.
</event>
<event>
 5   0  0.7621125E-07  0.2839837E+04  0.7818609E-02  0.8291006E-01
       -4   -1    0    0    0  501  0.00000000000E+00  0.00000000000E+00  0.12282525968E+04  0.12282532534E+04  0.12699999809E+01 0.  1.
        4   -1    0    0  501    0  0.00000000000E+00  0.00000000000E+00 -0.16414919359E+04  0.16414924272E+04  0.12699999809E+01 0. -1.
    10030    2    1    2    0    0  0.00000000000E+00  0.00000000000E+00 -0.41323933912E+03  0.28697456806E+04  0.28398368826E+04 0.  0.
        2    1    3    3  502    0 -0.39520298438E+03 -0.10356945298E+04 -0.11032751523E+04  0.15639899678E+04  0.25500000920E-02 0. -1.
       -2    1    3    3    0  502  0.39520298438E+03  0.10356945298E+04  0.69003581318E+03  0.13057557127E+04  0.25500000920E-02 0.  1.
</event>
<event>
 5   0  0.8357118E-07  0.2900110E+04  0.7818609E-02  0.8272845E-01
        1   -1    0    0  501    0  0.00000000000E+00  0.00000000000E+00  0.19843886571E+04  0.19843886571E+04  0.50400001928E-02 0. -1.
       -1   -1    0    0    0  501  0.00000000000E+00  0.00000000000E+00 -0.10596009696E+04  0.10596009696E+04  0.50400001928E-02 0.  1.
    10030    2    1    2    0    0  0.00000000000E+00  0.00000000000E+00  0.92478768743E+03  0.30439896267E+04  0.29001104428E+04 0.  0.
        1    1    3    3  502    0  0.11355826565E+04 -0.23554991960E+03 -0.45120755759E+03  0.12444356128E+04  0.50400001928E-02 0.  1.
       -1    1    3    3    0  502 -0.11355826565E+04  0.23554991960E+03  0.13759952450E+04  0.17995540139E+04  0.50400001928E-02 0. -1.
</event>
<event>
 5   0  0.2304435E-06  0.2900946E+04  0.7818609E-02  0.8272596E-01
        2   -1    0    0  501    0  0.00000000000E+00  0.00000000000E+00  0.22197946900E+04  0.22197946900E+04  0.25500000920E-02 0. -1.
       -2   -1    0    0    0  501  0.00000000000E+00  0.00000000000E+00 -0.94777794978E+03  0.94777794978E+03  0.25500000920E-02 0.  1.
    10030    2    1    2    0    0  0.00000000000E+00  0.00000000000E+00  0.12720167402E+04  0.31675726398E+04  0.29009463699E+04 0.  0.
        1    1    3    3  502    0  0.65703226911E+03  0.64190674135E+03  0.18617409480E+04  0.20760093990E+04  0.50400001928E-02 0. -1.
       -1    1    3    3    0  502 -0.65703226911E+03 -0.64190674135E+03 -0.58972420781E+03  0.10915632407E+04  0.50400001928E-02 0.  1.
</event>
<event>
 5   0  0.2304435E-06  0.2892569E+04  0.7818609E-02  0.8275092E-01
        2   -1    0    0  501    0  0.00000000000E+00  0.00000000000E+00  0.18215570035E+04  0.18215570035E+04  0.25500000920E-02 0.  1.
       -2   -1    0    0    0  501  0.00000000000E+00  0.00000000000E+00 -0.11483250017E+04  0.11483250017E+04  0.25500000920E-02 0. -1.
    10030    2    1    2    0    0  0.00000000000E+00  0.00000000000E+00  0.67323200181E+03  0.29698820052E+04  0.28925694109E+04 0.  0.
        1    1    3    3  502    0 -0.41876056593E+03 -0.13811542447E+04  0.43288777996E+03  0.15067645102E+04  0.50400001928E-02 0. -1.
       -1    1    3    3    0  502  0.41876056593E+03  0.13811542447E+04  0.24034422184E+03  0.14631174950E+04  0.50400001928E-02 0.  1.
</event>
<event>
 5   0  0.8947674E-07  0.2902634E+04  0.7818609E-02  0.8272094E-01
        1   -1    0    0  501    0  0.00000000000E+00  0.00000000000E+00  0.13850559920E+04  0.13850559920E+04  0.50400001928E-02 0.  1.
       -1   -1    0    0    0  501  0.00000000000E+00  0.00000000000E+00 -0.15207477572E+04  0.15207477572E+04  0.50400001928E-02 0. -1.
    10030    2    1    2    0    0  0.00000000000E+00  0.00000000000E+00 -0.13569176517E+03  0.29058037492E+04  0.29026338339E+04 0.  0.
        3    1    3    3  502    0  0.76714443465E+03 -0.12150487171E+04  0.13601052423E+03  0.14433824307E+04  0.10100000352E+00 0. -1.
       -3    1    3    3    0  502 -0.76714443465E+03  0.12150487171E+04 -0.27170228940E+03  0.14624213185E+04  0.10100000352E+00 0.  1.
</event>
<event>
 5   0  0.2360103E-06  0.2858941E+04  0.7818609E-02  0.8285200E-01
       -2   -1    0    0    0  501  0.00000000000E+00  0.00000000000E+00  0.11536718764E+04  0.11536718764E+04  0.25500000920E-02 0. -1.
        2   -1    0    0  501    0  0.00000000000E+00  0.00000000000E+00 -0.17712022999E+04  0.17712022999E+04  0.25500000920E-02 0.  1.
    10030    2    1    2    0    0  0.00000000000E+00  0.00000000000E+00 -0.61753042351E+03  0.29248741762E+04  0.28589412591E+04 0.  0.
        4    1    3    3  502    0  0.26298842921E+03  0.30882584466E+02  0.11283612781E+04  0.11590157180E+04  0.12699999809E+01 0. -1.
       -4    1    3    3    0  502 -0.26298842921E+03 -0.30882584466E+02 -0.17458917016E+04  0.17658584582E+04  0.12699999809E+01 0.  1.
</event>
<event>
 5   0  0.8483636E-07  0.2867136E+04  0.7818609E-02  0.8282723E-01
       -1   -1    0    0    0  501  0.00000000000E+00  0.00000000000E+00  0.26591151458E+04  0.26591151458E+04  0.50400001928E-02 0. -1.
        1   -1    0    0  501    0  0.00000000000E+00  0.00000000000E+00 -0.77285771867E+03  0.77285771869E+03  0.50400001928E-02 0.  1.
    10030    2    1    2    0    0  0.00000000000E+00  0.00000000000E+00  0.18862574271E+04  0.34319728645E+04  0.28671363172E+04 0.  0.
        2    1    3    3  502    0  0.11586731534E+03  0.15839246712E+03 -0.75670267031E+03  0.78173674576E+03  0.25500000920E-02 0.  1.
       -2    1    3    3    0  502 -0.11586731534E+03 -0.15839246712E+03  0.26429600974E+04  0.26502361187E+04  0.25500000920E-02 0. -1.
</event>
<event>
 5   0  0.2425845E-06  0.2903897E+04  0.7818609E-02  0.8271719E-01
        2   -1    0    0  501    0  0.00000000000E+00  0.00000000000E+00  0.15880671568E+04  0.15880671568E+04  0.25500000920E-02 0. -1.
       -2   -1    0    0    0  501  0.00000000000E+00  0.00000000000E+00 -0.13274974930E+04  0.13274974930E+04  0.25500000920E-02 0.  1.
    10030    2    1    2    0    0  0.00000000000E+00  0.00000000000E+00  0.26056966375E+03  0.29155646498E+04  0.29038974978E+04 0.  0.
        2    1    3    3  502    0  0.56716198239E+02 -0.75364798481E+03  0.13750049503E+04  0.15690253744E+04  0.25500000920E-02 0. -1.
       -2    1    3    3    0  502 -0.56716198239E+02  0.75364798481E+03 -0.11144352866E+04  0.13465392754E+04  0.25500000920E-02 0.  1.
</event>
<event>
 5   0  0.8357118E-07  0.2888489E+04  0.7818609E-02  0.8276311E-01
       -1   -1    0    0    0  501  0.00000000000E+00  0.00000000000E+00  0.14282151343E+04  0.14282151343E+04  0.50400001928E-02 0. -1.
        1   -1    0    0  501    0  0.00000000000E+00  0.00000000000E+00 -0.14604536950E+04  0.14604536951E+04  0.50400001928E-02 0.  1.
    10030    2    1    2    0    0  0.00000000000E+00  0.00000000000E+00 -0.32238560775E+02  0.28886688293E+04  0.28884889269E+04 0.  0.
        1    1    3    3  502    0 -0.24568108660E+03  0.17634234986E+03  0.13961960839E+04  0.14285724782E+04  0.50400001928E-02 0. -1.
       -1    1    3    3    0  502  0.24568108660E+03 -0.17634234986E+03 -0.14284346447E+04  0.14600963512E+04  0.50400001928E-02 0.  1.
</event>
<event>
 5   0  0.2425845E-06  0.2939564E+04  0.7818609E-02  0.8261202E-01
        2   -1    0    0  501    0  0.00000000000E+00  0.00000000000E+00  0.19834394115E+04  0.19834394115E+04  0.25500000920E-02 0.  1.
       -2   -1    0    0    0  501  0.00000000000E+00  0.00000000000E+00 -0.10891481695E+04  0.10891481695E+04  0.25500000920E-02 0. -1.
    10030    2    1    2    0    0  0.00000000000E+00  0.00000000000E+00  0.89429124198E+03  0.30725875810E+04  0.29395641884E+04 0.  0.
        2    1    3    3  502    0 -0.10420913070E+04 -0.99456469210E+03  0.75214848759E+03  0.16250663268E+04  0.25500000920E-02 0.  1.
       -2    1    3    3    0  502  0.10420913070E+04  0.99456469210E+03  0.14214275438E+03  0.14475212543E+04  0.25500000920E-02 0. -1.
</event>
<event>
 5   0  0.2325590E-06  0.2890211E+04  0.7818609E-02  0.8275796E-01
       -2   -1    0    0    0  501  0.00000000000E+00  0.00000000000E+00  0.90787015928E+03  0.90787015929E+03  0.25500000920E-02 0.  1.
        2   -1    0    0  501    0  0.00000000000E+00  0.00000000000E+00 -0.23002516730E+04  0.23002516730E+04  0.25500000920E-02 0. -1.
    10030    2    1    2    0    0  0.00000000000E+00  0.00000000000E+00 -0.13923815137E+04  0.32081218323E+04  0.28902109631E+04 0.  0.
        5    1    3    3  502    0  0.71283244322E+03 -0.60960203832E+03  0.52407931632E+03  0.10744421609E+04  0.46999998093E+01 0.  1.
       -5    1    3    3    0  502 -0.71283244322E+03  0.60960203832E+03 -0.19164608300E+04  0.21336796714E+04  0.46999998093E+01 0. -1.
</event>
<event>
 5   0  0.2325590E-06  0.2899266E+04  0.7818609E-02  0.8273096E-01
        2   -1    0    0  501    0  0.00000000000E+00  0.00000000000E+00  0.13143582657E+04  0.13143582657E+04  0.25500000920E-02 0.  1.
       -2   -1    0    0    0  501  0.00000000000E+00  0.00000000000E+00 -0.15988303388E+04  0.15988303388E+04  0.25500000920E-02 0. -1.
    10030    2    1    2    0    0  0.00000000000E+00  0.00000000000E+00 -0.28447207307E+03  0.29131886045E+04  0.28992660252E+04 0.  0.
        5    1    3    3  502    0  0.10270158617E+04  0.93210034928E+03  0.28150122234E+03  0.14152164744E+04  0.46999998093E+01 0.  1.
       -5    1    3    3    0  502 -0.10270158617E+04 -0.93210034928E+03 -0.56597329541E+03  0.14979721301E+04  0.46999998093E+01 0. -1.
</event>
<event>
 5   0  0.8483636E-07  0.2964104E+04  0.7818609E-02  0.8254056E-01
       -1   -1    0    0    0  501  0.00000000000E+00  0.00000000000E+00  0.92310514083E+03  0.92310514085E+03  0.50400001928E-02 0. -1.
        1   -1    0    0  501    0  0.00000000000E+00  0.00000000000E+00 -0.23794454061E+04  0.23794454061E+04  0.50400001928E-02 0.  1.
    10030    2    1    2    0    0  0.00000000000E+00  0.00000000000E+00 -0.14563402652E+04  0.33025505469E+04  0.29641041053E+04 0.  0.
        2    1    3    3  502    0  0.70546911492E+03 -0.73652746915E+03  0.46993473604E+03  0.11229416909E+04  0.25500000920E-02 0. -1.
       -2    1    3    3    0  502 -0.70546911492E+03  0.73652746915E+03 -0.19262750013E+04  0.21796088561E+04  0.25500000920E-02 0.  1.
</event>
<event>
 5   0  0.8947674E-07  0.2887997E+04  0.7818609E-02  0.8276458E-01
        1   -1    0    0  501    0  0.00000000000E+00  0.00000000000E+00  0.15561958112E+04  0.15561958112E+04  0.50400001928E-02 0.  1.
       -1   -1    0    0    0  501  0.00000000000E+00  0.00000000000E+00 -0.13398907045E+04  0.13398907045E+04  0.50400001928E-02 0. -1.
    10030    2    1    2    0    0  0.00000000000E+00  0.00000000000E+00  0.21630510671E+03  0.28960865157E+04  0.28879974389E+04 0.  0.
        3    1    3    3  502    0 -0.10623867409E+04 -0.54797394847E+03 -0.70417268622E+03  0.13873716941E+04  0.10100000352E+00 0. -1.
       -3    1    3    3    0  502  0.10623867409E+04  0.54797394847E+03  0.92047779293E+03  0.15087148216E+04  0.10100000352E+00 0.  1.
</event>
<event>
 5   0  0.8947674E-07  0.2918406E+04  0.7818609E-02  0.8267422E-01
        1   -1    0    0  501    0  0.00000000000E+00  0.00000000000E+00  0.13306484609E+04  0.13306484609E+04  0.50400001928E-02 0.  1.
       -1   -1    0    0    0  501  0.00000000000E+00  0.00000000000E+00 -0.16001775167E+04  0.16001775167E+04  0.50400001928E-02 0. -1.
    10030    2    1    2    0    0  0.00000000000E+00  0.00000000000E+00 -0.26952905578E+03  0.29308259777E+04  0.29184062431E+04 0.  0.
        3    1    3    3  502    0  0.35183895791E+02 -0.66738904542E+03  0.11679171446E+04  0.13456138046E+04  0.10100000352E+00 0.  1.
       -3    1    3    3    0  502 -0.35183895791E+02  0.66738904542E+03 -0.14374462003E+04  0.15852121730E+04  0.10100000352E+00 0. -1.
</event>
<event>
 5   0  0.8263673E-07  0.2911716E+04  0.7818609E-02  0.8269400E-01
       -1   -1    0    0    0  501  0.00000000000E+00  0.00000000000E+00  0.18509685549E+04  0.18509685549E+04  0.50400001928E-02 0. -1.
        1   -1    0    0  501    0  0.00000000000E+00  0.00000000000E+00 -0.11450881868E+04  0.11450881869E+04  0.50400001928E-02 0.  1.
    10030    2    1    2    0    0  0.00000000000E+00  0.00000000000E+00  0.70588036803E+03  0.29960567417E+04  0.29117158010E+04 0.  0.
        5    1    3    3  502    0 -0.33669939242E+03  0.14149208572E+04  0.28679260322E+03  0.14824437933E+04  0.46999998093E+01 0. -1.
       -5    1    3    3    0  502  0.33669939242E+03 -0.14149208572E+04  0.41908776481E+03  0.15136129484E+04  0.46999998093E+01 0.  1.
</event>
<event>
 5   0  0.2304435E-06  0.2895990E+04  0.7818609E-02  0.8274072E-01
       -2   -1    0    0    0  501  0.00000000000E+00  0.00000000000E+00  0.15514671572E+04  0.15514671572E+04  0.25500000920E-02 0.  1.
        2   -1    0    0  501    0  0.00000000000E+00  0.00000000000E+00 -0.13514234237E+04  0.13514234237E+04  0.25500000920E-02 0. -1.
    10030    2    1    2    0    0  0.00000000000E+00  0.00000000000E+00  0.20004373347E+03  0.29028905809E+04  0.28959896805E+04 0.  0.
        1    1    3    3  502    0 -0.16087940089E+03 -0.14179489682E+04 -0.14597605170E+03  0.14344931041E+04  0.50400001928E-02 0. -1.
       -1    1    3    3    0  502  0.16087940089E+03  0.14179489682E+04  0.34601978517E+03  0.14683974768E+04  0.50400001928E-02 0.  1.
</event>
<event>
 5   0  0.8263673E-07  0.2883288E+04  0.7818609E-02  0.8277867E-01
       -1   -1    0    0    0  501  0.00000000000E+00  0.00000000000E+00  0.15706336471E+04  0.15706336471E+04  0.50400001928E-02 0.  1.
        1   -1    0    0  501    0  0.00000000000E+00  0.00000000000E+00 -0.13232479582E+04  0.13232479582E+04  0.50400001928E-02 0. -1.
    10030    2    1    2    0    0  0.00000000000E+00  0.00000000000E+00  0.24738568886E+03  0.28938816054E+04  0.28832882386E+04 0.  0.
        5    1    3    3  502    0  0.13772344293E+04 -0.39836094718E+03 -0.28023235178E+02  0.14339712372E+04  0.46999998093E+01 0. -1.
       -5    1    3    3    0  502 -0.13772344293E+04  0.39836094718E+03  0.27540892404E+03  0.14599103681E+04  0.46999998093E+01 0.  1.
</event>
<event>
 5   0  0.2304435E-06  0.2902320E+04  0.7818609E-02  0.8272188E-01
        2   -1    0    0  501    0  0.00000000000E+00  0.00000000000E+00  0.14260688353E+04  0.14260688353E+04  0.25500000920E-02 0. -1.
       -2   -1    0    0    0  501  0.00000000000E+00  0.00000000000E+00 -0.14766925665E+04  0.14766925665E+04  0.25500000920E-02 0.  1.
    10030    2    1    2    0    0  0.00000000000E+00  0.00000000000E+00 -0.50623731226E+02  0.29027614019E+04  0.29023199331E+04 0.  0.
        1    1    3    3  502    0  0.67223754055E+03  0.11542130555E+04  0.54200819462E+03  0.14414867227E+04  0.50400001928E-02 0. -1.
       -1    1    3    3    0  502 -0.67223754055E+03 -0.11542130555E+04 -0.59263192585E+03  0.14612746792E+04  0.50400001928E-02 0.  1.
</event>
<event>
 5   0  0.2378690E-06  0.2893321E+04  0.7818609E-02  0.8274867E-01
       -2   -1    0    0    0  501  0.00000000000E+00  0.00000000000E+00  0.18829897194E+04  0.18829897194E+04  0.25500000920E-02 0. -1.
        2   -1    0    0  501    0  0.00000000000E+00  0.00000000000E+00 -0.11114382920E+04  0.11114382920E+04  0.25500000920E-02 0.  1.
    10030    2    1    2    0    0  0.00000000000E+00  0.00000000000E+00  0.77155142742E+03  0.29944280114E+04  0.28933211903E+04 0.  0.
        3    1    3    3  502    0 -0.38207508770E+03  0.37684695470E+03  0.17761624120E+04  0.18554643419E+04  0.10100000352E+00 0. -1.
       -3    1    3    3    0  502  0.38207508770E+03 -0.37684695470E+03 -0.10046109846E+04  0.11389636695E+04  0.10100000352E+00 0.  1.
</event>
<event>
 5   0  0.2425845E-06  0.2907311E+04  0.7818609E-02  0.8270706E-01
       -2   -1    0    0    0  501  0.00000000000E+00  0.00000000000E+00  0.13014666615E+04  0.13014666615E+04  0.25500000920E-02 0. -1.
        2   -1    0    0  501    0  0.00000000000E+00  0.00000000000E+00 -0.16236402486E+04  0.16236402486E+04  0.25500000920E-02 0.  1.
    10030    2    1    2    0    0  0.00000000000E+00  0.00000000000E+00 -0.32217358711E+03  0.29251069101E+04  0.29073105468E+04 0.  0.
        2    1    3    3  502    0  0.11965615703E+04 -0.41178707815E+03 -0.88085770895E+03  0.15418295926E+04  0.25500000920E-02 0.  1.
       -2    1    3    3    0  502 -0.11965615703E+04  0.41178707815E+03  0.55868412183E+03  0.13832773175E+04  0.25500000920E-02 0. -1.
</event>
<event>
 5   0  0.8355946E-07  0.2909439E+04  0.7818609E-02  0.8270075E-01
        1   -1    0    0  501    0  0.00000000000E+00  0.00000000000E+00  0.21660688715E+04  0.21660688715E+04  0.50400001928E-02 0. -1.
       -1   -1    0    0    0  501  0.00000000000E+00  0.00000000000E+00 -0.97698099385E+03  0.97698099386E+03  0.50400001928E-02 0.  1.
    10030    2    1    2    0    0  0.00000000000E+00  0.00000000000E+00  0.11890878777E+04  0.31430498654E+04  0.29094385155E+04 0.  0.
        4    1    3    3  502    0  0.64513267293E+03  0.10685009919E+04  0.14017457227E+04  0.18769078878E+04  0.12699999809E+01 0. -1.
       -4    1    3    3    0  502 -0.64513267293E+03 -0.10685009919E+04 -0.21265784502E+03  0.12661419776E+04  0.12699999809E+01 0.  1.
</event>
<event>
 5   0  0.2325590E-06  0.2913501E+04  0.7818609E-02  0.8268872E-01
       -2   -1    0    0    0  501  0.00000000000E+00  0.00000000000E+00  0.15187666234E+04  0.15187666234E+04  0.25500000920E-02 0.  1.
        2   -1    0    0  501    0  0.00000000000E+00  0.00000000000E+00 -0.13972665733E+04  0.13972665733E+04  0.25500000920E-02 0. -1.
    10030    2    1    2    0    0  0.00000000000E+00  0.00000000000E+00  0.12150005014E+03  0.29160331967E+04  0.29135008739E+04 0.  0.
        5    1    3    3  502    0 -0.48542639157E+03  0.87001965498E+03 -0.10029656865E+04  0.14136955966E+04  0.46999998093E+01 0. -1.
       -5    1    3    3    0  502  0.48542639157E+03 -0.87001965498E+03  0.11244657366E+04  0.15023376001E+04  0.46999998093E+01 0.  1.
</event>
<event>
 5   0  0.2325590E-06  0.2904802E+04  0.7818609E-02  0.8271450E-01
       -2   -1    0    0    0  501  0.00000000000E+00  0.00000000000E+00  0.16249237380E+04  0.16249237380E+04  0.25500000920E-02 0. -1.
        2   -1    0    0  501    0  0.00000000000E+00  0.00000000000E+00 -0.12981952689E+04  0.12981952689E+04  0.25500000920E-02 0.  1.
    10030    2    1    2    0    0  0.00000000000E+00  0.00000000000E+00  0.32672846912E+03  0.29231190069E+04  0.29048017550E+04 0.  0.
        5    1    3    3  502    0  0.51399890268E+03 -0.10421368924E+04 -0.71345220329E+03  0.13635542933E+04  0.46999998093E+01 0.  1.
       -5    1    3    3    0  502 -0.51399890268E+03  0.10421368924E+04  0.10401806724E+04  0.15595647136E+04  0.46999998093E+01 0. -1.
</event>
<event>
 5   0  0.2304435E-06  0.2919940E+04  0.7818609E-02  0.8266969E-01
        2   -1    0    0  501    0  0.00000000000E+00  0.00000000000E+00  0.25961972960E+04  0.25961972960E+04  0.25500000920E-02 0.  1.
       -2   -1    0    0    0  501  0.00000000000E+00  0.00000000000E+00 -0.82101335084E+03  0.82101335084E+03  0.25500000920E-02 0. -1.
    10030    2    1    2    0    0  0.00000000000E+00  0.00000000000E+00  0.17751839451E+04  0.34172106468E+04  0.29199401647E+04 0.  0.
        1    1    3    3  502    0 -0.25384617581E+03  0.97737774939E+03 -0.34640074749E+03  0.10675666836E+04  0.50400001928E-02 0. -1.
       -1    1    3    3    0  502  0.25384617581E+03 -0.97737774939E+03  0.21215846926E+04  0.23496439632E+04  0.50400001928E-02 0.  1.
</event>
<event>
 5   0  0.2360103E-06  0.2905991E+04  0.7818609E-02  0.8271097E-01
        2   -1    0    0  501    0  0.00000000000E+00  0.00000000000E+00  0.15520029480E+04  0.15520029480E+04  0.25500000920E-02 0. -1.
       -2   -1    0    0    0  501  0.00000000000E+00  0.00000000000E+00 -0.13603039625E+04  0.13603039625E+04  0.25500000920E-02 0.  1.
    10030    2    1    2    0    0  0.00000000000E+00  0.00000000000E+00  0.19169898552E+03  0.29123069105E+04  0.29059908878E+04 0.  0.
        4    1    3    3  502    0 -0.30116090942E+03 -0.88723781055E+03  0.12088060056E+04  0.15294124355E+04  0.12699999809E+01 0. -1.
       -4    1    3    3    0  502  0.30116090942E+03  0.88723781055E+03 -0.10171070200E+04  0.13828944750E+04  0.12699999809E+01 0.  1.
</event>
<event>
 5   0  0.8355946E-07  0.2833712E+04  0.7818609E-02  0.8292878E-01
       -1   -1    0    0    0  501  0.00000000000E+00  0.00000000000E+00  0.24912630959E+04  0.24912630959E+04  0.50400001928E-02 0. -1.
        1   -1    0    0  501    0  0.00000000000E+00  0.00000000000E+00 -0.80580839538E+03  0.80580839540E+03  0.50400001928E-02 0.  1.
    10030    2    1    2    0    0  0.00000000000E+00  0.00000000000E+00  0.16854547005E+04  0.32970714913E+04  0.28337118540E+04 0.  0.
        4    1    3    3  502    0 -0.24850878205E+03  0.45799839202E+03  0.23757286731E+04  0.24322021879E+04  0.12699999809E+01 0. -1.
       -4    1    3    3    0  502  0.24850878205E+03 -0.45799839202E+03 -0.69027397257E+03  0.86486930339E+03  0.12699999809E+01 0.  1.
</event>
<event>
 5   0  0.8483636E-07  0.2899923E+04  0.7818609E-02  0.8272900E-01
       -1   -1    0    0    0  501  0.00000000000E+00  0.00000000000E+00  0.14403118029E+04  0.14403118029E+04  0.50400001928E-02 0. -1.
        1   -1    0    0  501    0  0.00000000000E+00  0.00000000000E+00 -0.14596760178E+04  0.14596760178E+04  0.50400001928E-02 0.  1.
    10030    2    1    2    0    0  0.00000000000E+00  0.00000000000E+00 -0.19364214846E+02  0.28999878207E+04  0.28999231692E+04 0.  0.
        2    1    3    3  502    0 -0.14380083416E+03 -0.91567741761E+03 -0.11247158373E+04  0.14574393736E+04  0.25500000920E-02 0.  1.
       -2    1    3    3    0  502  0.14380083416E+03  0.91567741761E+03  0.11053516224E+04  0.14425484471E+04  0.25500000920E-02 0. -1.
</event>
<event>
 5   0  0.2325590E-06  0.2916251E+04  0.7818609E-02  0.8268059E-01
        2   -1    0    0  501    0  0.00000000000E+00  0.00000000000E+00  0.22270718027E+04  0.22270718027E+04  0.25500000920E-02 0. -1.
       -2   -1    0    0    0  501  0.00000000000E+00  0.00000000000E+00 -0.95467518584E+03  0.95467518585E+03  0.25500000920E-02 0.  1.
    10030    2    1    2    0    0  0.00000000000E+00  0.00000000000E+00  0.12723966169E+04  0.31817469885E+04  0.29162511463E+04 0.  0.
        5    1    3    3  502    0 -0.96230899029E+03 -0.61949938157E+03  0.16219396312E+04  0.19850764050E+04  0.46999998093E+01 0. -1.
       -5    1    3    3    0  502  0.96230899029E+03  0.61949938157E+03 -0.34954301435E+03  0.11966705835E+04  0.46999998093E+01 0.  1.
</event>
<event>
 5   0  0.2378690E-06  0.2964715E+04  0.7818609E-02  0.8253879E-01
       -2   -1    0    0    0  501  0.00000000000E+00  0.00000000000E+00  0.15065970590E+04  0.15065970590E+04  0.25500000920E-02 0. -1.
        2   -1    0    0  501    0  0.00000000000E+00  0.00000000000E+00 -0.14585076650E+04  0.14585076650E+04  0.25500000920E-02 0.  1.
    10030    2    1    2    0    0  0.00000000000E+00  0.00000000000E+00  0.48089394053E+02  0.29651047240E+04  0.29647147307E+04 0.  0.
        3    1    3    3  502    0  0.13840775086E+03  0.37755230108E+03  0.14510052799E+04  0.15056954467E+04  0.10100000352E+00 0. -1.
       -3    1    3    3    0  502 -0.13840775086E+03 -0.37755230108E+03 -0.14029158859E+04  0.14594092773E+04  0.10100000352E+00 0.  1.
</event>
<event>
 5   0  0.8483636E-07  0.2904412E+04  0.7818609E-02  0.8271566E-01
        1   -1    0    0  501    0  0.00000000000E+00  0.00000000000E+00  0.12078330208E+04  0.12078330208E+04  0.50400001928E-02 0. -1.
       -1   -1    0    0    0  501  0.00000000000E+00  0.00000000000E+00 -0.17460216596E+04  0.17460216596E+04  0.50400001928E-02 0.  1.
    10030    2    1    2    0    0  0.00000000000E+00  0.00000000000E+00 -0.53818863879E+03  0.29538546804E+04  0.29044122404E+04 0.  0.
        2    1    3    3  502    0  0.33067613913E+03 -0.89037487361E+02 -0.17043689362E+04  0.17384325853E+04  0.25500000920E-02 0.  1.
       -2    1    3    3    0  502 -0.33067613913E+03  0.89037487361E+02  0.11661802974E+04  0.12154220951E+04  0.25500000920E-02 0. -1.
</event>
<event>
 5   0  0.2360103E-06  0.2879881E+04  0.7818609E-02  0.8278889E-01
        2   -1    0    0  501    0  0.00000000000E+00  0.00000000000E+00  0.31112912412E+04  0.31112912412E+04  0.25500000920E-02 0. -1.
       -2   -1    0    0    0  501  0.00000000000E+00  0.00000000000E+00 -0.66642077820E+03  0.66642077821E+03  0.25500000920E-02 0.  1.
    10030    2    1    2    0    0  0.00000000000E+00  0.00000000000E+00  0.24448704630E+04  0.37777120195E+04  0.28798813380E+04 0.  0.
        4    1    3    3  502    0 -0.55373293253E+03  0.10440125434E+04  0.23016277357E+04  0.25872908994E+04  0.12699999809E+01 0. -1.
       -4    1    3    3    0  502  0.55373293253E+03 -0.10440125434E+04  0.14324272734E+03  0.11904211201E+04  0.12699999809E+01 0.  1.
</event>
<event>
 5   0  0.8355946E-07  0.2894549E+04  0.7818609E-02  0.8274501E-01
        1   -1    0    0  501    0  0.00000000000E+00  0.00000000000E+00  0.15269719615E+04  0.15269719615E+04  0.50400001928E-02 0. -1.
       -1   -1    0    0    0  501  0.00000000000E+00  0.00000000000E+00 -0.13717364459E+04  0.13717364459E+04  0.50400001928E-02 0.  1.
    10030    2    1    2    0    0  0.00000000000E+00  0.00000000000E+00  0.15523551561E+03  0.28987084073E+04  0.28945487326E+04 0.  0.
        4    1    3    3  502    0  0.59199188650E+03 -0.11893287552E+04 -0.49735382632E+03  0.14185625552E+04  0.12699999809E+01 0.  1.
       -4    1    3    3    0  502 -0.59199188650E+03  0.11893287552E+04  0.65258934194E+03  0.14801458522E+04  0.12699999809E+01 0. -1.
</event>
<event>
 5   0  0.8947674E-07  0.2901080E+04  0.7818609E-02  0.8272556E-01
       -1   -1    0    0    0  501  0.00000000000E+00  0.00000000000E+00  0.18752152559E+04  0.18752152559E+04  0.50400001928E-02 0.  1.
        1   -1    0    0  501    0  0.00000000000E+00  0.00000000000E+00 -0.11220395231E+04  0.11220395231E+04  0.50400001928E-02 0. -1.
    10030    2    1    2    0    0  0.00000000000E+00  0.00000000000E+00  0.75317573279E+03  0.29972547790E+04  0.29010795449E+04 0.  0.
        3    1    3    3  502    0 -0.48344066836E+03  0.37419146511E+03  0.17356167283E+04  0.18401357478E+04  0.10100000352E+00 0.  1.
       -3    1    3    3    0  502  0.48344066836E+03 -0.37419146511E+03 -0.98244099555E+03  0.11571190312E+04  0.10100000352E+00 0. -1.
</event>
<event>
 5   0  0.2378690E-06  0.2901878E+04  0.7818609E-02  0.8272319E-01
       -2   -1    0    0    0  501  0.00000000000E+00  0.00000000000E+00  0.15860110759E+04  0.15860110759E+04  0.25500000920E-02 0.  1.
        2   -1    0    0  501    0  0.00000000000E+00  0.00000000000E+00 -0.13273701275E+04  0.13273701275E+04  0.25500000920E-02 0. -1.
    10030    2    1    2    0    0  0.00000000000E+00  0.00000000000E+00  0.25864094840E+03  0.29133812035E+04  0.29018778225E+04 0.  0.
        3    1    3    3  502    0 -0.43689674921E+03  0.13219830005E+04  0.53923533551E+03  0.14930815719E+04  0.10100000352E+00 0.  1.
       -3    1    3    3    0  502  0.43689674921E+03 -0.13219830005E+04 -0.28059438711E+03  0.14202996316E+04  0.10100000352E+00 0. -1.
</event>
<event>
 5   0  0.8483636E-07  0.2872267E+04  0.7818609E-02  0.8281177E-01
        1   -1    0    0  501    0  0.00000000000E+00  0.00000000000E+00  0.12914849051E+04  0.12914849051E+04  0.50400001928E-02 0. -1.
       -1   -1    0    0    0  501  0.00000000000E+00  0.00000000000E+00 -0.15969831146E+04  0.15969831146E+04  0.50400001928E-02 0.  1.
    10030    2    1    2    0    0  0.00000000000E+00  0.00000000000E+00 -0.30549820952E+03  0.28884680198E+04  0.28722671089E+04 0.  0.
        2    1    3    3  502    0 -0.10336862891E+04 -0.50962892584E+03 -0.10144665665E+04  0.15353733751E+04  0.25500000920E-02 0.  1.
       -2    1    3    3    0  502  0.10336862891E+04  0.50962892584E+03  0.70896835695E+03  0.13530946447E+04  0.25500000920E-02 0. -1.
</event>
<event>
 5   0  0.2304435E-06  0.2901794E+04  0.7818609E-02  0.8272344E-01
       -2   -1    0    0    0  501  0.00000000000E+00  0.00000000000E+00  0.10678882009E+04  0.10678882009E+04  0.25500000920E-02 0.  1.
        2   -1    0    0  501    0  0.00000000000E+00  0.00000000000E+00 -0.19712752096E+04  0.19712752096E+04  0.25500000920E-02 0. -1.
    10030    2    1    2    0    0  0.00000000000E+00  0.00000000000E+00 -0.90338700878E+03  0.30391634105E+04  0.29017936088E+04 0.  0.
        1    1    3    3  502    0  0.11736617505E+04 -0.85297768474E+03 -0.45900253108E+03  0.15217543031E+04  0.50400001928E-02 0. -1.
       -1    1    3    3    0  502 -0.11736617505E+04  0.85297768474E+03 -0.44438447770E+03  0.15174091075E+04  0.50400001928E-02 0.  1.
</event>
<event>
 5   0  0.2378690E-06  0.2868053E+04  0.7818609E-02  0.8282447E-01
       -2   -1    0    0    0  501  0.00000000000E+00  0.00000000000E+00  0.79945190735E+03  0.79945190735E+03  0.25500000920E-02 0. -1.
        2   -1    0    0  501    0  0.00000000000E+00  0.00000000000E+00 -0.25723019608E+04  0.25723019608E+04  0.25500000920E-02 0.  1.
    10030    2    1    2    0    0  0.00000000000E+00  0.00000000000E+00 -0.17728500534E+04  0.33717538681E+04  0.28680527951E+04 0.  0.
        3    1    3    3  502    0 -0.56104073684E+03 -0.13184985748E+04 -0.95320318902E+03  0.17209885327E+04  0.10100000352E+00 0. -1.
       -3    1    3    3    0  502  0.56104073684E+03  0.13184985748E+04 -0.81964686441E+03  0.16507653354E+04  0.10100000352E+00 0.  1.
</event>
<event>
 5   0  0.8357118E-07  0.2876867E+04  0.7818609E-02  0.8279794E-01
        1   -1    0    0  501    0  0.00000000000E+00  0.00000000000E+00  0.15323183612E+04  0.15323183612E+04  0.50400001928E-02 0. -1.
       -1   -1    0    0    0  501  0.00000000000E+00  0.00000000000E+00 -0.13503004787E+04  0.13503004787E+04  0.50400001928E-02 0.  1.
    10030    2    1    2    0    0  0.00000000000E+00  0.00000000000E+00  0.18201788247E+03  0.28826188400E+04  0.28768665014E+04 0.  0.
        1    1    3    3  502    0  0.73225121169E+03 -0.52354515173E+03 -0.10331964945E+04  0.13703234505E+04  0.50400001928E-02 0.  1.
       -1    1    3    3    0  502 -0.73225121169E+03  0.52354515173E+03  0.12152143769E+04  0.15122953894E+04  0.50400001928E-02 0. -1.
</event>
<event>
 5   0  0.8357118E-07  0.2943476E+04  0.7818609E-02  0.8260058E-01
       -1   -1    0    0    0  501  0.00000000000E+00  0.00000000000E+00  0.12557506528E+04  0.12557506528E+04  0.50400001928E-02 0.  1.
        1   -1    0    0  501    0  0.00000000000E+00  0.00000000000E+00 -0.17248752261E+04  0.17248752261E+04  0.50400001928E-02 0. -1.
    10030    2    1    2    0    0  0.00000000000E+00  0.00000000000E+00 -0.46912457332E+03  0.29806258789E+04  0.29434763061E+04 0.  0.
        1    1    3    3  502    0  0.43410114898E+03 -0.82036098299E+03 -0.13911586502E+04  0.16723511414E+04  0.50400001928E-02 0. -1.
       -1    1    3    3    0  502 -0.43410114898E+03  0.82036098299E+03  0.92203407688E+03  0.13082747376E+04  0.50400001928E-02 0.  1.
</event>
<event>
 5   0  0.2304435E-06  0.2905030E+04  0.7818609E-02  0.8271382E-01
        2   -1    0    0  501    0  0.00000000000E+00  0.00000000000E+00  0.16388212793E+04  0.16388212793E+04  0.25500000920E-02 0. -1.
       -2   -1    0    0    0  501  0.00000000000E+00  0.00000000000E+00 -0.12873885694E+04  0.12873885694E+04  0.25500000920E-02 0.  1.
    10030    2    1    2    0    0  0.00000000000E+00  0.00000000000E+00  0.35143270984E+03  0.29262098487E+04  0.29050299705E+04 0.  0.
        1    1    3    3  502    0 -0.85482282251E+03  0.11336310800E+04 -0.13304463370E+03  0.14260232670E+04  0.50400001928E-02 0. -1.
       -1    1    3    3    0  502  0.85482282251E+03 -0.11336310800E+04  0.48447734354E+03  0.15001865817E+04  0.50400001928E-02 0.  1.
</event>
<event>
 5   0  0.8483636E-07  0.2902622E+04  0.7818609E-02  0.8272098E-01
        1   -1    0    0  501    0  0.00000000000E+00  0.00000000000E+00  0.12777496851E+04  0.12777496851E+04  0.50400001928E-02 0.  1.
       -1   -1    0    0    0  501  0.00000000000E+00  0.00000000000E+00 -0.16484482097E+04  0.16484482097E+04  0.50400001928E-02 0. -1.
    10030    2    1    2    0    0  0.00000000000E+00  0.00000000000E+00 -0.37069852466E+03  0.29261978948E+04  0.29026223873E+04 0.  0.
        2    1    3    3  502    0 -0.35572375572E+03  0.16595084207E+03 -0.15939181777E+04  0.16415402004E+04  0.25500000920E-02 0. -1.
       -2    1    3    3    0  502  0.35572375572E+03 -0.16595084207E+03  0.12232196530E+04  0.12846576944E+04  0.25500000920E-02 0.  1.
</event>
<event>
 5   0  0.8357118E-07  0.2903717E+04  0.7818609E-02  0.8271772E-01
        1   -1    0    0  501    0  0.00000000000E+00  0.00000000000E+00  0.14293167055E+04  0.14293167056E+04  0.50400001928E-02 0.  1.
       -1   -1    0    0    0  501  0.00000000000E+00  0.00000000000E+00 -0.14747559949E+04  0.14747559949E+04  0.50400001928E-02 0. -1.
    10030    2    1    2    0    0  0.00000000000E+00  0.00000000000E+00 -0.45439289338E+02  0.29040727005E+04  0.29037171902E+04 0.  0.
        1    1    3    3  502    0  0.79679623524E+03 -0.10641409274E+04  0.56097259947E+03  0.14429034657E+04  0.50400001928E-02 0.  1.
       -1    1    3    3    0  502 -0.79679623524E+03  0.10641409274E+04 -0.60641188881E+03  0.14611692348E+04  0.50400001928E-02 0. -1.
</event>
<event>
 5   0  0.2378690E-06  0.2912999E+04  0.7818609E-02  0.8269021E-01
       -2   -1    0    0    0  501  0.00000000000E+00  0.00000000000E+00  0.16577766754E+04  0.16577766754E+04  0.25500000920E-02 0. -1.
        2   -1    0    0  501    0  0.00000000000E+00  0.00000000000E+00 -0.12796598194E+04  0.12796598194E+04  0.25500000920E-02 0.  1.
    10030    2    1    2    0    0  0.00000000000E+00  0.00000000000E+00  0.37811685606E+03  0.29374364948E+04  0.29129985933E+04 0.  0.
        3    1    3    3  502    0 -0.46951865490E+03  0.62808457591E+03  0.14267313452E+04  0.16280357316E+04  0.10100000352E+00 0.  1.
       -3    1    3    3    0  502  0.46951865490E+03 -0.62808457591E+03 -0.10486144891E+04  0.13094007632E+04  0.10100000352E+00 0. -1.
</event>
<event>
 5   0  0.8355946E-07  0.3038074E+04  0.7818609E-02  0.8232941E-01
        1   -1    0    0  501    0  0.00000000000E+00  0.00000000000E+00  0.26110798485E+04  0.26110798485E+04  0.50400001928E-02 0. -1.
       -1   -1    0    0    0  501  0.00000000000E+00  0.00000000000E+00 -0.88372402651E+03  0.88372402652E+03  0.50400001928E-02 0.  1.
    10030    2    1    2    0    0  0.00000000000E+00  0.00000000000E+00  0.17273558220E+04  0.34948038750E+04  0.30380743883E+04 0.  0.
        4    1    3    3  502    0  0.91687428760E+03  0.82502924811E+03 -0.15626188151E+03  0.12432823927E+04  0.12699999809E+01 0.  1.
       -4    1    3    3    0  502 -0.91687428760E+03 -0.82502924811E+03  0.18836177035E+04  0.22515214823E+04  0.12699999809E+01 0. -1.
</event>
<event>
 5   0  0.8357118E-07  0.2894578E+04  0.7818609E-02  0.8274493E-01
       -1   -1    0    0    0  501  0.00000000000E+00  0.00000000000E+00  0.10435713053E+04  0.10435713053E+04  0.50400001928E-02 0. -1.
        1   -1    0    0  501    0  0.00000000000E+00  0.00000000000E+00 -0.20071892382E+04  0.20071892382E+04  0.50400001928E-02 0.  1.
    10030    2    1    2    0    0  0.00000000000E+00  0.00000000000E+00 -0.96361793298E+03  0.30507605435E+04  0.28945777538E+04 0.  0.
        1    1    3    3  502    0  0.23504026556E+03 -0.27130436518E+03  0.99591060681E+03  0.10586254870E+04  0.50400001928E-02 0. -1.
       -1    1    3    3    0  502 -0.23504026556E+03  0.27130436518E+03 -0.19595285398E+04  0.19921350565E+04  0.50400001928E-02 0.  1.
</event>
<event>
 5   0  0.8357118E-07  0.2887538E+04  0.7818609E-02  0.8276595E-01
       -1   -1    0    0    0  501  0.00000000000E+00  0.00000000000E+00  0.11654350988E+04  0.11654350988E+04  0.50400001928E-02 0. -1.
        1   -1    0    0  501    0  0.00000000000E+00  0.00000000000E+00 -0.17885751978E+04  0.17885751978E+04  0.50400001928E-02 0.  1.
    10030    2    1    2    0    0  0.00000000000E+00  0.00000000000E+00 -0.62314009904E+03  0.29540102966E+04  0.28875375754E+04 0.  0.
        1    1    3    3  502    0  0.54350932015E+03  0.31349605997E+03  0.10186659643E+04  0.11963956317E+04  0.50400001928E-02 0. -1.
       -1    1    3    3    0  502 -0.54350932015E+03 -0.31349605997E+03 -0.16418060633E+04  0.17576146649E+04  0.50400001928E-02 0.  1.
</event>
<event>
 5   0  0.2425845E-06  0.2836579E+04  0.7818609E-02  0.8292001E-01
        2   -1    0    0  501    0  0.00000000000E+00  0.00000000000E+00  0.21897954994E+04  0.21897954994E+04  0.25500000920E-02 0. -1.
       -2   -1    0    0    0  501  0.00000000000E+00  0.00000000000E+00 -0.91859967299E+03  0.91859967299E+03  0.25500000920E-02 0.  1.
    10030    2    1    2    0    0  0.00000000000E+00  0.00000000000E+00  0.12711958264E+04  0.31083951724E+04  0.28365792284E+04 0.  0.
        2    1    3    3  502    0 -0.75832860758E+03 -0.96739463887E+03  0.14109519902E+04  0.18712830313E+04  0.25500000920E-02 0. -1.
       -2    1    3    3    0  502  0.75832860758E+03  0.96739463887E+03 -0.13975616382E+03  0.12371121411E+04  0.25500000920E-02 0.  1.
</event>
<event>
 5   0  0.2360103E-06  0.2893111E+04  0.7818609E-02  0.8274930E-01
        2   -1    0    0  501    0  0.00000000000E+00  0.00000000000E+00  0.26257956115E+04  0.26257956115E+04  0.25500000920E-02 0.  1.
       -2   -1    0    0    0  501  0.00000000000E+00  0.00000000000E+00 -0.79691017314E+03  0.79691017314E+03  0.25500000920E-02 0. -1.
    10030    2    1    2    0    0  0.00000000000E+00  0.00000000000E+00  0.18288854384E+04  0.34227057846E+04  0.28931112909E+04 0.  0.
        4    1    3    3  502    0 -0.50242484680E+03  0.11181222703E+04  0.58040226880E+01  0.12258317329E+04  0.12699999809E+01 0. -1.
       -4    1    3    3    0  502  0.50242484680E+03 -0.11181222703E+04  0.18230814157E+04  0.21968740517E+04  0.12699999809E+01 0.  1.
</event>
<event>
 5   0  0.2378690E-06  0.2923600E+04  0.7818609E-02  0.8265890E-01
        2   -1    0    0  501    0  0.00000000000E+00  0.00000000000E+00  0.20757890365E+04  0.20757890365E+04  0.25500000920E-02 0. -1.
       -2   -1    0    0    0  501  0.00000000000E+00  0.00000000000E+00 -0.10294201698E+04  0.10294201698E+04  0.25500000920E-02 0.  1.
    10030    2    1    2    0    0  0.00000000000E+00  0.00000000000E+00  0.10463688667E+04  0.31052092063E+04  0.29235999059E+04 0.  0.
        3    1    3    3  502    0  0.56663506852E+03  0.63159675362E+03  0.17874485917E+04  0.19786263514E+04  0.10100000352E+00 0. -1.
       -3    1    3    3    0  502 -0.56663506852E+03 -0.63159675362E+03 -0.74107972502E+03  0.11265828550E+04  0.10100000352E+00 0.  1.
</event>
<event>
 5   0  0.8947674E-07  0.2911218E+04  0.7818609E-02  0.8269548E-01
       -1   -1    0    0    0  501  0.00000000000E+00  0.00000000000E+00  0.16298269240E+04  0.16298269240E+04  0.50400001928E-02 0.  1.
        1   -1    0    0  501    0  0.00000000000E+00  0.00000000000E+00 -0.13000136808E+04  0.13000136808E+04  0.50400001928E-02 0. -1.
    10030    2    1    2    0    0  0.00000000000E+00  0.00000000000E+00  0.32981324317E+03  0.29298406048E+04  0.29112178198E+04 0.  0.
        3    1    3    3  502    0  0.13990514560E+04 -0.10328472220E+03  0.55570050264E+03  0.15089121145E+04  0.10100000352E+00 0.  1.
       -3    1    3    3    0  502 -0.13990514560E+04  0.10328472220E+03 -0.22588725947E+03  0.14209284903E+04  0.10100000352E+00 0. -1.
</event>
<event>
 5   0  0.2325590E-06  0.2895411E+04  0.7818609E-02  0.8274244E-01
       -2   -1    0    0    0  501  0.00000000000E+00  0.00000000000E+00  0.77217860267E+03  0.77217860267E+03  0.25500000920E-02 0. -1.
        2   -1    0    0  501    0  0.00000000000E+00  0.00000000000E+00 -0.27142054388E+04  0.27142054388E+04  0.25500000920E-02 0.  1.
    10030    2    1    2    0    0  0.00000000000E+00  0.00000000000E+00 -0.19420268362E+04  0.34863840415E+04  0.28954111025E+04 0.  0.
        5    1    3    3  502    0  0.87520056040E+03  0.72533862962E+03  0.10848498452E+03  0.11418770645E+04  0.46999998093E+01 0. -1.
       -5    1    3    3    0  502 -0.87520056040E+03 -0.72533862962E+03 -0.20505118207E+04  0.23445069770E+04  0.46999998093E+01 0.  1.
</event>
<event>
 5   0  0.2425845E-06  0.2897704E+04  0.7818609E-02  0.8273561E-01
       -2   -1    0    0    0  501  0.00000000000E+00  0.00000000000E+00  0.10696479125E+04  0.10696479125E+04  0.25500000920E-02 0. -1.
        2   -1    0    0  501    0  0.00000000000E+00  0.00000000000E+00 -0.19624890273E+04  0.19624890273E+04  0.25500000920E-02 0.  1.
    10030    2    1    2    0    0  0.00000000000E+00  0.00000000000E+00 -0.89284111481E+03  0.30321369399E+04  0.28977041198E+04 0.  0.
        2    1    3    3  502    0 -0.39433636669E+03  0.10914569903E+04  0.46122665242E+03  0.12488032498E+04  0.25500000920E-02 0. -1.
       -2    1    3    3    0  502  0.39433636669E+03 -0.10914569903E+04 -0.13540677672E+04  0.17833336901E+04  0.25500000920E-02 0.  1.
</event>
<event>
 5   0  0.8947674E-07  0.2847912E+04  0.7818609E-02  0.8288546E-01
       -1   -1    0    0    0  501  0.00000000000E+00  0.00000000000E+00  0.13056061869E+04  0.13056061869E+04  0.50400001928E-02 0.  1.
        1   -1    0    0  501    0  0.00000000000E+00  0.00000000000E+00 -0.15530342364E+04  0.15530342364E+04  0.50400001928E-02 0. -1.
    10030    2    1    2    0    0  0.00000000000E+00  0.00000000000E+00 -0.24742804949E+03  0.28586404234E+04  0.28479122933E+04 0.  0.
        3    1    3    3  502    0  0.16664855603E+03 -0.58489131315E+03 -0.14161128835E+04  0.15411830840E+04  0.10100000352E+00 0. -1.
       -3    1    3    3    0  502 -0.16664855603E+03  0.58489131315E+03  0.11686848340E+04  0.13174573393E+04  0.10100000352E+00 0.  1.
</event>
<event>
 5   0  0.2325590E-06  0.2913666E+04  0.7818609E-02  0.8268823E-01
       -2   -1    0    0    0  501  0.00000000000E+00  0.00000000000E+00  0.10301662552E+04  0.10301662552E+04  0.25500000920E-02 0. -1.
        2   -1    0    0  501    0  0.00000000000E+00  0.00000000000E+00 -0.20602137069E+04  0.20602137069E+04  0.25500000920E-02 0.  1.
    10030    2    1    2    0    0  0.00000000000E+00  0.00000000000E+00 -0.10300474518E+04  0.30903799621E+04  0.29136661712E+04 0.  0.
        5    1    3    3  502    0  0.96356825126E+03  0.44368654807E+03 -0.15740916372E+04  0.18981854757E+04  0.46999998093E+01 0.  1.
       -5    1    3    3    0  502 -0.96356825126E+03 -0.44368654807E+03  0.54404418542E+03  0.11921944864E+04  0.46999998093E+01 0. -1.
</event>
<event>
 5   0  0.7621125E-07  0.2899861E+04  0.7818609E-02  0.8272919E-01
       -3   -1    0    0    0  501  0.00000000000E+00  0.00000000000E+00  0.12550389007E+04  0.12550389048E+04  0.10100000352E+00 0.  1.
        3   -1    0    0  501    0  0.00000000000E+00  0.00000000000E+00 -0.16750858297E+04  0.16750858327E+04  0.10100000352E+00 0. -1.
    10030    2    1    2    0    0  0.00000000000E+00  0.00000000000E+00 -0.42004692896E+03  0.29301247375E+04  0.28998606096E+04 0.  0.
        3    1    3    3  502    0  0.19472103852E+03  0.14279186178E+04 -0.48891275237E+02  0.14419633244E+04  0.10100000352E+00 0.  1.
       -3    1    3    3    0  502 -0.19472103852E+03 -0.14279186178E+04 -0.37115565372E+03  0.14881614131E+04  0.10100000352E+00 0. -1.
</event>
<event>
 5   0  0.2325590E-06  0.2884700E+04  0.7818609E-02  0.8277444E-01
        2   -1    0    0  501    0  0.00000000000E+00  0.00000000000E+00  0.19002948610E+04  0.19002948610E+04  0.25500000920E-02 0. -1.
       -2   -1    0    0    0  501  0.00000000000E+00  0.00000000000E+00 -0.10947638373E+04  0.10947638373E+04  0.25500000920E-02 0.  1.
    10030    2    1    2    0    0  0.00000000000E+00  0.00000000000E+00  0.80553102369E+03  0.29950586983E+04  0.28847003963E+04 0.  0.
        5    1    3    3  502    0 -0.17132168989E+02  0.33326457538E+03 -0.10541243929E+04  0.11056939514E+04  0.46999998093E+01 0.  1.
       -5    1    3    3    0  502  0.17132168989E+02 -0.33326457538E+03  0.18596554166E+04  0.18893647469E+04  0.46999998093E+01 0. -1.
</event>
<event>
 5   0  0.2304435E-06  0.2896551E+04  0.7818609E-02  0.8273904E-01
        2   -1    0    0  501    0  0.00000000000E+00  0.00000000000E+00  0.12934602527E+04  0.12934602527E+04  0.25500000920E-02 0.  1.
       -2   -1    0    0    0  501  0.00000000000E+00  0.00000000000E+00 -0.16216210974E+04  0.16216210974E+04  0.25500000920E-02 0. -1.
    10030    2    1    2    0    0  0.00000000000E+00  0.00000000000E+00 -0.32816084470E+03  0.29150813500E+04  0.28965513524E+04 0.  0.
        1    1    3    3  502    0  0.11198823776E+04  0.53804792231E+03  0.58490522651E+03  0.13732247559E+04  0.50400001928E-02 0.  1.
       -1    1    3    3    0  502 -0.11198823776E+04 -0.53804792231E+03 -0.91306607122E+03  0.15418565941E+04  0.50400001928E-02 0. -1.
</event>
<event>
 5   0  0.2360103E-06  0.2878389E+04  0.7818609E-02  0.8279337E-01
        2   -1    0    0  501    0  0.00000000000E+00  0.00000000000E+00  0.15817010185E+04  0.15817010185E+04  0.25500000920E-02 0.  1.
       -2   -1    0    0    0  501  0.00000000000E+00  0.00000000000E+00 -0.13095271710E+04  0.13095271710E+04  0.25500000920E-02 0. -1.
    10030    2    1    2    0    0  0.00000000000E+00  0.00000000000E+00  0.27217384750E+03  0.28912281895E+04  0.28783887577E+04 0.  0.
        4    1    3    3  502    0  0.98713739898E+03 -0.88656579226E+03  0.69610385778E+03  0.14983328543E+04  0.12699999809E+01 0.  1.
       -4    1    3    3    0  502 -0.98713739898E+03  0.88656579226E+03 -0.42393001029E+03  0.13928953353E+04  0.12699999809E+01 0. -1.
</event>
<event>
 5   0  0.8947674E-07  0.2895003E+04  0.7818609E-02  0.8274366E-01
        1   -1    0    0  501    0  0.00000000000E+00  0.00000000000E+00  0.10378306125E+04  0.10378306125E+04  0.50400001928E-02 0.  1.
       -1   -1    0    0    0  501  0.00000000000E+00  0.00000000000E+00 -0.20188842688E+04  0.20188842688E+04  0.50400001928E-02 0. -1.
    10030    2    1    2    0    0  0.00000000000E+00  0.00000000000E+00 -0.98105365625E+03  0.30567148813E+04  0.28950025197E+04 0.  0.
        3    1    3    3  502    0 -0.48932267742E+03 -0.23385458901E+03 -0.19075571597E+04  0.19831537962E+04  0.10100000352E+00 0. -1.
       -3    1    3    3    0  502  0.48932267742E+03  0.23385458901E+03  0.92650350346E+03  0.10735610852E+04  0.10100000352E+00 0.  1.
</event>
<event>
 5   0  0.8355946E-07  0.2869388E+04  0.7818609E-02  0.8282044E-01
       -1   -1    0    0    0  501  0.00000000000E+00  0.00000000000E+00  0.99189847601E+03  0.99189847602E+03  0.50400001928E-02 0.  1.
        1   -1    0    0  501    0  0.00000000000E+00  0.00000000000E+00 -0.20751582524E+04  0.20751582524E+04  0.50400001928E-02 0. -1.
    10030    2    1    2    0    0  0.00000000000E+00  0.00000000000E+00 -0.10832597764E+04  0.30670567285E+04  0.28693876058E+04 0.  0.
        4    1    3    3  502    0 -0.12425291556E+04  0.69379648442E+03 -0.73613370293E+03  0.16022255477E+04  0.12699999809E+01 0. -1.
       -4    1    3    3    0  502  0.12425291556E+04 -0.69379648442E+03 -0.34712607350E+03  0.14648311807E+04  0.12699999809E+01 0.  1.
</event>
<event>
 5   0  0.2304435E-06  0.2900858E+04  0.7818609E-02  0.8272622E-01
        2   -1    0    0  501    0  0.00000000000E+00  0.00000000000E+00  0.26061701318E+04  0.26061701318E+04  0.25500000920E-02 0. -1.
       -2   -1    0    0    0  501  0.00000000000E+00  0.00000000000E+00 -0.80721701961E+03  0.80721701962E+03  0.25500000920E-02 0.  1.
    10030    2    1    2    0    0  0.00000000000E+00  0.00000000000E+00  0.17989531122E+04  0.34133871514E+04  0.29008584153E+04 0.  0.
        1    1    3    3  502    0  0.24893969452E+03 -0.12845331944E+04  0.16299372706E+03  0.13185459620E+04  0.50400001928E-02 0. -1.
       -1    1    3    3    0  502 -0.24893969452E+03  0.12845331944E+04  0.16359593851E+04  0.20948411894E+04  0.50400001928E-02 0.  1.
</event>
<event>
 5   0  0.8357118E-07  0.2848019E+04  0.7818609E-02  0.8288514E-01
        1   -1    0    0  501    0  0.00000000000E+00  0.00000000000E+00  0.23299103028E+04  0.23299103028E+04  0.50400001928E-02 0. -1.
       -1   -1    0    0    0  501  0.00000000000E+00  0.00000000000E+00 -0.87033506001E+03  0.87033506003E+03  0.50400001928E-02 0.  1.
    10030    2    1    2    0    0  0.00000000000E+00  0.00000000000E+00  0.14595752428E+04  0.32002453628E+04  0.28480186960E+04 0.  0.
        1    1    3    3  502    0  0.97576793687E+03 -0.10371310748E+04  0.72279819355E+03  0.15969349271E+04  0.50400001928E-02 0. -1.
       -1    1    3    3    0  502 -0.97576793687E+03  0.10371310748E+04  0.73677704921E+03  0.16033104357E+04  0.50400001928E-02 0.  1.
</event>
<event>
 5   0  0.2360103E-06  0.2890771E+04  0.7818609E-02  0.8275629E-01
        2   -1    0    0  501    0  0.00000000000E+00  0.00000000000E+00  0.19459480277E+04  0.19459480277E+04  0.25500000920E-02 0. -1.
       -2   -1    0    0    0  501  0.00000000000E+00  0.00000000000E+00 -0.10735846251E+04  0.10735846251E+04  0.25500000920E-02 0.  1.
    10030    2    1    2    0    0  0.00000000000E+00  0.00000000000E+00  0.87236340256E+03  0.30195326528E+04  0.28907714429E+04 0.  0.
        4    1    3    3  502    0  0.82356033900E+03 -0.11526467487E+04  0.73582535068E+03  0.15963354030E+04  0.12699999809E+01 0. -1.
       -4    1    3    3    0  502 -0.82356033900E+03  0.11526467487E+04  0.13653805188E+03  0.14231972498E+04  0.12699999809E+01 0.  1.
</event>
<event>
 5   0  0.2325590E-06  0.2932679E+04  0.7818609E-02  0.8263220E-01
       -2   -1    0    0    0  501  0.00000000000E+00  0.00000000000E+00  0.11466442090E+04  0.11466442090E+04  0.25500000920E-02 0. -1.
        2   -1    0    0  501    0  0.00000000000E+00  0.00000000000E+00 -0.18751690124E+04  0.18751690124E+04  0.25500000920E-02 0.  1.
    10030    2    1    2    0    0  0.00000000000E+00  0.00000000000E+00 -0.72852480335E+03  0.30218132214E+04  0.29326791089E+04 0.  0.
        5    1    3    3  502    0  0.10149210963E+04 -0.62351355538E+03  0.51688701039E+03  0.12984715079E+04  0.46999998093E+01 0. -1.
       -5    1    3    3    0  502 -0.10149210963E+04  0.62351355538E+03 -0.12454118137E+04  0.17233417134E+04  0.46999998093E+01 0.  1.
</event>
<event>
 5   0  0.2325590E-06  0.2895996E+04  0.7818609E-02  0.8274070E-01
       -2   -1    0    0    0  501  0.00000000000E+00  0.00000000000E+00  0.12333928315E+04  0.12333928315E+04  0.25500000920E-02 0.  1.
        2   -1    0    0  501    0  0.00000000000E+00  0.00000000000E+00 -0.16999434681E+04  0.16999434681E+04  0.25500000920E-02 0. -1.
    10030    2    1    2    0    0  0.00000000000E+00  0.00000000000E+00 -0.46655063668E+03  0.29333362996E+04  0.28959959168E+04 0.  0.
        5    1    3    3  502    0  0.10078613279E+04  0.92926492524E+03  0.23895293329E+03  0.13915596832E+04  0.46999998093E+01 0.  1.
       -5    1    3    3    0  502 -0.10078613279E+04 -0.92926492524E+03 -0.70550356997E+03  0.15417766164E+04  0.46999998093E+01 0. -1.
</event>
<event>
 5   0  0.8355946E-07  0.2921189E+04  0.7818609E-02  0.8266601E-01
       -1   -1    0    0    0  501  0.00000000000E+00  0.00000000000E+00  0.16243951050E+04  0.16243951050E+04  0.50400001928E-02 0.  1.
        1   -1    0    0  501    0  0.00000000000E+00  0.00000000000E+00 -0.13133115464E+04  0.13133115464E+04  0.50400001928E-02 0. -1.
    10030    2    1    2    0    0  0.00000000000E+00  0.00000000000E+00  0.31108355861E+03  0.29377066515E+04  0.29211893793E+04 0.  0.
        4    1    3    3  502    0  0.12998900274E+04 -0.31156751593E+03 -0.43646909151E+03  0.14061633195E+04  0.12699999809E+01 0. -1.
       -4    1    3    3    0  502 -0.12998900274E+04  0.31156751593E+03  0.74755265012E+03  0.15315433320E+04  0.12699999809E+01 0.  1.
</event>
<event>
 5   0  0.8355946E-07  0.2899647E+04  0.7818609E-02  0.8272983E-01
       -1   -1    0    0    0  501  0.00000000000E+00  0.00000000000E+00  0.94338168245E+03  0.94338168246E+03  0.50400001928E-02 0.  1.
        1   -1    0    0  501    0  0.00000000000E+00  0.00000000000E+00 -0.22281418165E+04  0.22281418165E+04  0.50400001928E-02 0. -1.
    10030    2    1    2    0    0  0.00000000000E+00  0.00000000000E+00 -0.12847601340E+04  0.31715234989E+04  0.28996469962E+04 0.  0.
        4    1    3    3  502    0 -0.44109276030E+03  0.28904586582E+03  0.83475594061E+03  0.98738514726E+03  0.12699999809E+01 0.  1.
       -4    1    3    3    0  502  0.44109276030E+03 -0.28904586582E+03 -0.21195160746E+04  0.21841383517E+04  0.12699999809E+01 0. -1.
</event>
<event>
 5   0  0.8357118E-07  0.2919577E+04  0.7818609E-02  0.8267076E-01
       -1   -1    0    0    0  501  0.00000000000E+00  0.00000000000E+00  0.20010016258E+04  0.20010016258E+04  0.50400001928E-02 0.  1.
        1   -1    0    0  501    0  0.00000000000E+00  0.00000000000E+00 -0.10649580186E+04  0.10649580186E+04  0.50400001928E-02 0. -1.
    10030    2    1    2    0    0  0.00000000000E+00  0.00000000000E+00  0.93604360720E+03  0.30659596444E+04  0.29195771794E+04 0.  0.
        1    1    3    3  502    0  0.11045375825E+04 -0.41960835367E+03 -0.43222802120E+03  0.12581317514E+04  0.50400001928E-02 0. -1.
       -1    1    3    3    0  502 -0.11045375825E+04  0.41960835367E+03  0.13682716284E+04  0.18078278930E+04  0.50400001928E-02 0.  1.
</event>
<event>
 5   0  0.2325590E-06  0.2894200E+04  0.7818609E-02  0.8274605E-01
        2   -1    0    0  501    0  0.00000000000E+00  0.00000000000E+00  0.17618007063E+04  0.17618007063E+04  0.25500000920E-02 0. -1.
       -2   -1    0    0    0  501  0.00000000000E+00  0.00000000000E+00 -0.11886123149E+04  0.11886123149E+04  0.25500000920E-02 0.  1.
    10030    2    1    2    0    0  0.00000000000E+00  0.00000000000E+00  0.57318839145E+03  0.29504130212E+04  0.28941997276E+04 0.  0.
        5    1    3    3  502    0  0.10056290241E+03  0.36609469909E+03 -0.11369294508E+04  0.11986529490E+04  0.46999998093E+01 0.  1.
       -5    1    3    3    0  502 -0.10056290241E+03 -0.36609469909E+03  0.17101178422E+04  0.17517600722E+04  0.46999998093E+01 0. -1.
</event>
<event>
 5   0  0.2304435E-06  0.2900754E+04  0.7818609E-02  0.8272653E-01
        2   -1    0    0  501    0  0.00000000000E+00  0.00000000000E+00  0.16434460008E+04  0.16434460008E+04  0.25500000920E-02 0.  1.
       -2   -1    0    0    0  501  0.00000000000E+00  0.00000000000E+00 -0.12799897489E+04  0.12799897489E+04  0.25500000920E-02 0. -1.
    10030    2    1    2    0    0  0.00000000000E+00  0.00000000000E+00  0.36345625196E+03  0.29234357497E+04  0.29007544080E+04 0.  0.
        1    1    3    3  502    0  0.50755191724E+03 -0.27389536263E+03 -0.11594539950E+04  0.12949753607E+04  0.50400001928E-02 0. -1.
       -1    1    3    3    0  502 -0.50755191724E+03  0.27389536263E+03  0.15229102469E+04  0.16284603890E+04  0.50400001928E-02 0.  1.
</event>
<event>
 5   0  0.2304435E-06  0.2923768E+04  0.7818609E-02  0.8265841E-01
       -2   -1    0    0    0  501  0.00000000000E+00  0.00000000000E+00  0.10453947534E+04  0.10453947534E+04  0.25500000920E-02 0. -1.
        2   -1    0    0  501    0  0.00000000000E+00  0.00000000000E+00 -0.20443035112E+04  0.20443035112E+04  0.25500000920E-02 0.  1.
    10030    2    1    2    0    0  0.00000000000E+00  0.00000000000E+00 -0.99890875778E+03  0.30896982646E+04  0.29237675454E+04 0.  0.
        1    1    3    3  502    0 -0.60327637837E+03 -0.13315806706E+04 -0.50726962252E+03  0.15473758241E+04  0.50400001928E-02 0. -1.
       -1    1    3    3    0  502  0.60327637837E+03  0.13315806706E+04 -0.49163913526E+03  0.15423224405E+04  0.50400001928E-02 0.  1.
</event>
<event>
 5   0  0.2304435E-06  0.2903409E+04  0.7818609E-02  0.8271864E-01
        2   -1    0    0  501    0  0.00000000000E+00  0.00000000000E+00  0.21033934629E+04  0.21033934629E+04  0.25500000920E-02 0. -1.
       -2   -1    0    0    0  501  0.00000000000E+00  0.00000000000E+00 -0.10019265069E+04  0.10019265069E+04  0.25500000920E-02 0.  1.
    10030    2    1    2    0    0  0.00000000000E+00  0.00000000000E+00  0.11014669559E+04  0.31053199698E+04  0.29034088000E+04 0.  0.
        1    1    3    3  502    0  0.11096643330E+04 -0.11133211472E+03  0.15447156493E+04  0.19052286500E+04  0.50400001928E-02 0. -1.
       -1    1    3    3    0  502 -0.11096643330E+04  0.11133211472E+03 -0.44324869335E+03  0.12000913198E+04  0.50400001928E-02 0.  1.
</event>
<event>
 5   0  0.8483636E-07  0.2895145E+04  0.7818609E-02  0.8274323E-01
        1   -1    0    0  501    0  0.00000000000E+00  0.00000000000E+00  0.11755341678E+04  0.11755341678E+04  0.50400001928E-02 0.  1.
       -1   -1    0    0    0  501  0.00000000000E+00  0.00000000000E+00 -0.17825655467E+04  0.17825655467E+04  0.50400001928E-02 0. -1.
    10030    2    1    2    0    0  0.00000000000E+00  0.00000000000E+00 -0.60703137886E+03  0.29580997145E+04  0.28951453894E+04 0.  0.
        2    1    3    3  502    0 -0.31274885418E+03  0.49181699622E+03 -0.16573837883E+04  0.17568770092E+04  0.25500000920E-02 0. -1.
       -2    1    3    3    0  502  0.31274885418E+03 -0.49181699622E+03  0.10503524095E+04  0.12012227053E+04  0.25500000920E-02 0.  1.
</event>
<event>
 5   0  0.8263673E-07  0.2880037E+04  0.7818609E-02  0.8278842E-01
       -1   -1    0    0    0  501  0.00000000000E+00  0.00000000000E+00  0.95768742384E+03  0.95768742385E+03  0.50400001928E-02 0.  1.
        1   -1    0    0  501    0  0.00000000000E+00  0.00000000000E+00 -0.21652711712E+04  0.21652711712E+04  0.50400001928E-02 0. -1.
    10030    2    1    2    0    0  0.00000000000E+00  0.00000000000E+00 -0.12075837473E+04  0.31229585950E+04  0.28800367844E+04 0.  0.
        5    1    3    3  502    0 -0.67500678681E+02  0.55026751948E+03  0.83732097831E+03  0.10042306485E+04  0.46999998093E+01 0.  1.
       -5    1    3    3    0  502  0.67500678681E+02 -0.55026751948E+03 -0.20449047256E+04  0.21187279466E+04  0.46999998093E+01 0. -1.
</event>
<event>
 5   0  0.2325590E-06  0.2919814E+04  0.7818609E-02  0.8267007E-01
        2   -1    0    0  501    0  0.00000000000E+00  0.00000000000E+00  0.24267144003E+04  0.24267144003E+04  0.25500000920E-02 0.  1.
       -2   -1    0    0    0  501  0.00000000000E+00  0.00000000000E+00 -0.87827715880E+03  0.87827715880E+03  0.25500000920E-02 0. -1.
    10030    2    1    2    0    0  0.00000000000E+00  0.00000000000E+00  0.15484372415E+04  0.33049915591E+04  0.29198135754E+04 0.  0.
        5    1    3    3  502    0 -0.13912321113E+04 -0.38173738515E+01  0.27339815635E+03  0.14178540128E+04  0.46999998093E+01 0. -1.
       -5    1    3    3    0  502  0.13912321113E+04  0.38173738515E+01  0.12750390852E+04  0.18871375463E+04  0.46999998093E+01 0.  1.
</event>
<event>
 5   0  0.8355946E-07  0.2874184E+04  0.7818609E-02  0.8280600E-01
        1   -1    0    0  501    0  0.00000000000E+00  0.00000000000E+00  0.15381990322E+04  0.15381990322E+04  0.50400001928E-02 0.  1.
       -1   -1    0    0    0  501  0.00000000000E+00  0.00000000000E+00 -0.13426310884E+04  0.13426310884E+04  0.50400001928E-02 0. -1.
    10030    2    1    2    0    0  0.00000000000E+00  0.00000000000E+00  0.19556794386E+03  0.28808301206E+04  0.28741842953E+04 0.  0.
        4    1    3    3  502    0 -0.76289884992E+03 -0.10015686786E+04  0.79226250912E+03  0.14875604087E+04  0.12699999809E+01 0.  1.
       -4    1    3    3    0  502  0.76289884992E+03  0.10015686786E+04 -0.59669456526E+03  0.13932697120E+04  0.12699999809E+01 0. -1.
</event>
<event>
 5   0  0.2425845E-06  0.2926158E+04  0.7818609E-02  0.8265137E-01
       -2   -1    0    0    0  501  0.00000000000E+00  0.00000000000E+00  0.86584654578E+03  0.86584654578E+03  0.25500000920E-02 0.  1.
        2   -1    0    0  501    0  0.00000000000E+00  0.00000000000E+00 -0.24722632261E+04  0.24722632261E+04  0.25500000920E-02 0. -1.
    10030    2    1    2    0    0  0.00000000000E+00  0.00000000000E+00 -0.16064166803E+04  0.33381097718E+04  0.29261582832E+04 0.  0.
        2    1    3    3  502    0 -0.90753227745E+03  0.55576124160E+03  0.34219350202E+03  0.11178469417E+04  0.25500000920E-02 0.  1.
       -2    1    3    3    0  502  0.90753227745E+03 -0.55576124160E+03 -0.19486101823E+04  0.22202628301E+04  0.25500000920E-02 0. -1.
</event>
<event>
 5   0  0.8357118E-07  0.2899017E+04  0.7818609E-02  0.8273170E-01
       -1   -1    0    0    0  501  0.00000000000E+00  0.00000000000E+00  0.11109021676E+04  0.11109021677E+04  0.50400001928E-02 0.  1.
        1   -1    0    0  501    0  0.00000000000E+00  0.00000000000E+00 -0.18913225951E+04  0.18913225951E+04  0.50400001928E-02 0. -1.
    10030    2    1    2    0    0  0.00000000000E+00  0.00000000000E+00 -0.78042042749E+03  0.30022247628E+04  0.28990166406E+04 0.  0.
        1    1    3    3  502    0  0.62148330896E+03 -0.32873365904E+03 -0.17029206950E+04  0.18423480169E+04  0.50400001928E-02 0. -1.
       -1    1    3    3    0  502 -0.62148330896E+03  0.32873365904E+03  0.92250026755E+03  0.11598767459E+04  0.50400001928E-02 0.  1.
</event>
<event>
 5   0  0.2378690E-06  0.2899452E+04  0.7818609E-02  0.8273041E-01
       -2   -1    0    0    0  501  0.00000000000E+00  0.00000000000E+00  0.15630296776E+04  0.15630296776E+04  0.25500000920E-02 0.  1.
        2   -1    0    0  501    0  0.00000000000E+00  0.00000000000E+00 -0.13446356015E+04  0.13446356015E+04  0.25500000920E-02 0. -1.
    10030    2    1    2    0    0  0.00000000000E+00  0.00000000000E+00  0.21839407609E+03  0.29076652790E+04  0.28994519141E+04 0.  0.
        3    1    3    3  502    0  0.27732007862E+02  0.10480309960E+04  0.11133162330E+04  0.15292518033E+04  0.10100000352E+00 0.  1.
       -3    1    3    3    0  502 -0.27732007862E+02 -0.10480309960E+04 -0.89492215694E+03  0.13784134757E+04  0.10100000352E+00 0. -1.
</event>
<event>
 5   0  0.7621125E-07  0.2914746E+04  0.7818609E-02  0.8268504E-01
       -4   -1    0    0    0  501  0.00000000000E+00  0.00000000000E+00  0.20895810762E+04  0.20895814622E+04  0.12699999809E+01 0.  1.
        4   -1    0    0  501    0  0.00000000000E+00  0.00000000000E+00 -0.10164400336E+04  0.10164408270E+04  0.12699999809E+01 0. -1.
    10030    2    1    2    0    0  0.00000000000E+00  0.00000000000E+00  0.10731410427E+04  0.31060222892E+04  0.29147457459E+04 0.  0.
        4    1    3    3  502    0 -0.59099162763E+03  0.58725866201E+03 -0.73763667818E+03  0.11127683146E+04  0.12699999809E+01 0. -1.
       -4    1    3    3    0  502  0.59099162763E+03 -0.58725866201E+03  0.18107777208E+04  0.19932539746E+04  0.12699999809E+01 0.  1.
</event>
<event>
 5   0  0.8357118E-07  0.2913488E+04  0.7818609E-02  0.8268876E-01
        1   -1    0    0  501    0  0.00000000000E+00  0.00000000000E+00  0.10645721829E+04  0.10645721829E+04  0.50400001928E-02 0. -1.
       -1   -1    0    0    0  501  0.00000000000E+00  0.00000000000E+00 -0.19933854030E+04  0.19933854030E+04  0.50400001928E-02 0.  1.
    10030    2    1    2    0    0  0.00000000000E+00  0.00000000000E+00 -0.92881322006E+03  0.30579575859E+04  0.29134877037E+04 0.  0.
        1    1    3    3  502    0 -0.10410804459E+04 -0.77321388928E+03 -0.11609355730E+04  0.17405400363E+04  0.50400001928E-02 0.  1.
       -1    1    3    3    0  502  0.10410804459E+04  0.77321388928E+03  0.23212235293E+03  0.13174175496E+04  0.50400001928E-02 0. -1.
</event>
<event>
 5   0  0.8355946E-07  0.2908990E+04  0.7818609E-02  0.8270208E-01
       -1   -1    0    0    0  501  0.00000000000E+00  0.00000000000E+00  0.14600860811E+04  0.14600860811E+04  0.50400001928E-02 0.  1.
        1   -1    0    0  501    0  0.00000000000E+00  0.00000000000E+00 -0.14489248595E+04  0.14489248595E+04  0.50400001928E-02 0. -1.
    10030    2    1    2    0    0  0.00000000000E+00  0.00000000000E+00  0.11161221586E+02  0.29090109407E+04  0.29089895290E+04 0.  0.
        4    1    3    3  502    0 -0.39618804581E+03  0.59076150369E+03 -0.12631246269E+04  0.14496377333E+04  0.12699999809E+01 0. -1.
       -4    1    3    3    0  502  0.39618804581E+03 -0.59076150369E+03  0.12742858485E+04  0.14593732074E+04  0.12699999809E+01 0.  1.
</event>
<event>
 5   0  0.7621125E-07  0.2902201E+04  0.7818609E-02  0.8272223E-01
        3   -1    0    0  501    0  0.00000000000E+00  0.00000000000E+00  0.96617567975E+03  0.96617568503E+03  0.10100000352E+00 0. -1.
       -3   -1    0    0    0  501  0.00000000000E+00  0.00000000000E+00 -0.21794102187E+04  0.21794102210E+04  0.10100000352E+00 0.  1.
    10030    2    1    2    0    0  0.00000000000E+00  0.00000000000E+00 -0.12132345389E+04  0.31455859060E+04  0.29022013448E+04 0.  0.
        1    1    3    3  502    0 -0.75195383408E+03 -0.10269860765E+04 -0.13618740864E+04  0.18640911987E+04  0.50400001928E-02 0.  1.
       -1    1    3    3    0  502  0.75195383408E+03  0.10269860765E+04  0.14863954750E+03  0.12814947073E+04  0.50400001928E-02 0. -1.
</event>
<event>
 5   0  0.8263673E-07  0.2899075E+04  0.7818609E-02  0.8273153E-01
        1   -1    0    0  501    0  0.00000000000E+00  0.00000000000E+00  0.26294044870E+04  0.26294044870E+04  0.50400001928E-02 0. -1.
       -1   -1    0    0    0  501  0.00000000000E+00  0.00000000000E+00 -0.79910076019E+03  0.79910076021E+03  0.50400001928E-02 0.  1.
    10030    2    1    2    0    0  0.00000000000E+00  0.00000000000E+00  0.18303037268E+04  0.34285052472E+04  0.28990751107E+04 0.  0.
        5    1    3    3  502    0  0.13388423609E+04 -0.12467060440E+03  0.27490146437E+03  0.13724556576E+04  0.46999998093E+01 0.  1.
       -5    1    3    3    0  502 -0.13388423609E+04  0.12467060440E+03  0.15554022624E+04  0.20560495896E+04  0.46999998093E+01 0. -1.
</event>
<event>
 5   0  0.7621125E-07  0.2784411E+04  0.7818609E-02  0.8308125E-01
        4   -1    0    0  501    0  0.00000000000E+00  0.00000000000E+00  0.11770833411E+04  0.11770840263E+04  0.12699999809E+01 0. -1.
       -4   -1    0    0    0  501  0.00000000000E+00  0.00000000000E+00 -0.16466415256E+04  0.16466420154E+04  0.12699999809E+01 0.  1.
    10030    2    1    2    0    0  0.00000000000E+00  0.00000000000E+00 -0.46955818451E+03  0.28237260417E+04  0.27844108658E+04 0.  0.
        2    1    3    3  502    0 -0.25083690497E+03 -0.90279391684E+03 -0.12790171456E+04  0.15855096555E+04  0.25500000920E-02 0.  1.
       -2    1    3    3    0  502  0.25083690497E+03  0.90279391684E+03  0.80945896105E+03  0.12382163861E+04  0.25500000920E-02 0. -1.
</event>
<event>
 5   0  0.2325590E-06  0.2889463E+04  0.7818609E-02  0.8276020E-01
       -2   -1    0    0    0  501  0.00000000000E+00  0.00000000000E+00  0.14238833499E+04  0.14238833499E+04  0.25500000920E-02 0. -1.
        2   -1    0    0  501    0  0.00000000000E+00  0.00000000000E+00 -0.14658844890E+04  0.14658844890E+04  0.25500000920E-02 0.  1.
    10030    2    1    2    0    0  0.00000000000E+00  0.00000000000E+00 -0.42001139086E+02  0.28897678388E+04  0.28894625913E+04 0.  0.
        5    1    3    3  502    0 -0.54033752214E+02 -0.12601605678E+04  0.68356098885E+03  0.14346435162E+04  0.46999998093E+01 0. -1.
       -5    1    3    3    0  502  0.54033752214E+02  0.12601605678E+04 -0.72556212794E+03  0.14551243227E+04  0.46999998093E+01 0.  1.
</event>
<event>
 5   0  0.2325590E-06  0.2876458E+04  0.7818609E-02  0.8279916E-01
       -2   -1    0    0    0  501  0.00000000000E+00  0.00000000000E+00  0.88096641614E+03  0.88096641615E+03  0.25500000920E-02 0. -1.
        2   -1    0    0  501    0  0.00000000000E+00  0.00000000000E+00 -0.23479934096E+04  0.23479934096E+04  0.25500000920E-02 0.  1.
    10030    2    1    2    0    0  0.00000000000E+00  0.00000000000E+00 -0.14670269935E+04  0.32289598258E+04  0.28764584747E+04 0.  0.
        5    1    3    3  502    0 -0.39323393215E+03 -0.10613791018E+04  0.26253601425E+03  0.11619405199E+04  0.46999998093E+01 0.  1.
       -5    1    3    3    0  502  0.39323393215E+03  0.10613791018E+04 -0.17295630077E+04  0.20670193058E+04  0.46999998093E+01 0. -1.
</event>
<event>
 5   0  0.2325590E-06  0.2922035E+04  0.7818609E-02  0.8266351E-01
       -2   -1    0    0    0  501  0.00000000000E+00  0.00000000000E+00  0.14942819991E+04  0.14942819991E+04  0.25500000920E-02 0.  1.
        2   -1    0    0  501    0  0.00000000000E+00  0.00000000000E+00 -0.14284934414E+04  0.14284934414E+04  0.25500000920E-02 0. -1.
    10030    2    1    2    0    0  0.00000000000E+00  0.00000000000E+00  0.65788557683E+02  0.29227754405E+04  0.29220349316E+04 0.  0.
        5    1    3    3  502    0  0.15245010590E+03 -0.19025626651E+03  0.14737840581E+04  0.14938206123E+04  0.46999998093E+01 0.  1.
       -5    1    3    3    0  502 -0.15245010590E+03  0.19025626651E+03 -0.14079955005E+04  0.14289548282E+04  0.46999998093E+01 0. -1.
</event>
<event>
 5   0  0.8483636E-07  0.2912582E+04  0.7818609E-02  0.8269144E-01
       -1   -1    0    0    0  501  0.00000000000E+00  0.00000000000E+00  0.18825817344E+04  0.18825817344E+04  0.50400001928E-02 0.  1.
        1   -1    0    0  501    0  0.00000000000E+00  0.00000000000E+00 -0.11265291363E+04  0.11265291363E+04  0.50400001928E-02 0. -1.
    10030    2    1    2    0    0  0.00000000000E+00  0.00000000000E+00  0.75605259811E+03  0.30091108707E+04  0.29125817931E+04 0.  0.
        2    1    3    3  502    0 -0.72498168724E+03  0.62325501811E+03 -0.75689706750E+03  0.12194008509E+04  0.25500000920E-02 0. -1.
       -2    1    3    3    0  502  0.72498168724E+03 -0.62325501811E+03  0.15129496656E+04  0.17897100198E+04  0.25500000920E-02 0.  1.
</event>
<event>
 5   0  0.2378690E-06  0.2905047E+04  0.7818609E-02  0.8271377E-01
        2   -1    0    0  501    0  0.00000000000E+00  0.00000000000E+00  0.20036673426E+04  0.20036673426E+04  0.25500000920E-02 0. -1.
       -2   -1    0    0    0  501  0.00000000000E+00  0.00000000000E+00 -0.10529813978E+04  0.10529813978E+04  0.25500000920E-02 0.  1.
    10030    2    1    2    0    0  0.00000000000E+00  0.00000000000E+00  0.95068594479E+03  0.30566487404E+04  0.29050469457E+04 0.  0.
        3    1    3    3  502    0 -0.81981722628E+03 -0.54466818085E+03 -0.64860641813E+03  0.11787510371E+04  0.10100000352E+00 0.  1.
       -3    1    3    3    0  502  0.81981722628E+03  0.54466818085E+03  0.15992923629E+04  0.18778977033E+04  0.10100000352E+00 0. -1.
</event>
<event>
 5   0  0.2360103E-06  0.2901366E+04  0.7818609E-02  0.8272471E-01
       -2   -1    0    0    0  501  0.00000000000E+00  0.00000000000E+00  0.14622915063E+04  0.14622915063E+04  0.25500000920E-02 0. -1.
        2   -1    0    0  501    0  0.00000000000E+00  0.00000000000E+00 -0.14391661591E+04  0.14391661591E+04  0.25500000920E-02 0.  1.
    10030    2    1    2    0    0  0.00000000000E+00  0.00000000000E+00  0.23125347233E+02  0.29014576654E+04  0.29013655065E+04 0.  0.
        4    1    3    3  502    0  0.15033476401E+03 -0.62344752368E+03 -0.12897055725E+04  0.14403573975E+04  0.12699999809E+01 0.  1.
       -4    1    3    3    0  502 -0.15033476401E+03  0.62344752368E+03  0.13128309197E+04  0.14611002678E+04  0.12699999809E+01 0. -1.
</event>
<event>
 5   0  0.2378690E-06  0.2902325E+04  0.7818609E-02  0.8272186E-01
        2   -1    0    0  501    0  0.00000000000E+00  0.00000000000E+00  0.16574168308E+04  0.16574168308E+04  0.25500000920E-02 0.  1.
       -2   -1    0    0    0  501  0.00000000000E+00  0.00000000000E+00 -0.12705750316E+04  0.12705750316E+04  0.25500000920E-02 0. -1.
    10030    2    1    2    0    0  0.00000000000E+00  0.00000000000E+00  0.38684179919E+03  0.29279918623E+04  0.29023248902E+04 0.  0.
        3    1    3    3  502    0  0.69570254481E+03 -0.12662976149E+04  0.33012107325E+03  0.14820565487E+04  0.10100000352E+00 0.  1.
       -3    1    3    3    0  502 -0.69570254481E+03  0.12662976149E+04  0.56720725935E+02  0.14459353137E+04  0.10100000352E+00 0. -1.
</event>
<event>
 5   0  0.8483636E-07  0.2916383E+04  0.7818609E-02  0.8268020E-01
       -1   -1    0    0    0  501  0.00000000000E+00  0.00000000000E+00  0.16682062757E+04  0.16682062758E+04  0.50400001928E-02 0.  1.
        1   -1    0    0  501    0  0.00000000000E+00  0.00000000000E+00 -0.12746159078E+04  0.12746159078E+04  0.50400001928E-02 0. -1.
    10030    2    1    2    0    0  0.00000000000E+00  0.00000000000E+00  0.39359036796E+03  0.29428221835E+04  0.29163828669E+04 0.  0.
        2    1    3    3  502    0 -0.13621625061E+03 -0.12561602199E+04  0.93128757549E+03  0.15696464294E+04  0.25500000920E-02 0.  1.
       -2    1    3    3    0  502  0.13621625061E+03  0.12561602199E+04 -0.53769720753E+03  0.13731757542E+04  0.25500000920E-02 0. -1.
</event>
<event>
 5   0  0.2425845E-06  0.2834724E+04  0.7818609E-02  0.8292568E-01
        2   -1    0    0  501    0  0.00000000000E+00  0.00000000000E+00  0.11512007268E+04  0.11512007268E+04  0.25500000920E-02 0. -1.
       -2   -1    0    0    0  501  0.00000000000E+00  0.00000000000E+00 -0.17450611831E+04  0.17450611831E+04  0.25500000920E-02 0.  1.
    10030    2    1    2    0    0  0.00000000000E+00  0.00000000000E+00 -0.59386045628E+03  0.28962619099E+04  0.28347244679E+04 0.  0.
        2    1    3    3  502    0 -0.14667888986E+03  0.59060694848E+03  0.10109301812E+04  0.11799623281E+04  0.25500000920E-02 0. -1.
       -2    1    3    3    0  502  0.14667888986E+03 -0.59060694848E+03 -0.16047906375E+04  0.17162995818E+04  0.25500000920E-02 0.  1.
</event>
<event>
 5   0  0.8355946E-07  0.2901007E+04  0.7818609E-02  0.8272578E-01
        1   -1    0    0  501    0  0.00000000000E+00  0.00000000000E+00  0.18361470593E+04  0.18361470593E+04  0.50400001928E-02 0.  1.
       -1   -1    0    0    0  501  0.00000000000E+00  0.00000000000E+00 -0.11458563600E+04  0.11458563600E+04  0.50400001928E-02 0. -1.
    10030    2    1    2    0    0  0.00000000000E+00  0.00000000000E+00  0.69029069936E+03  0.29820034193E+04  0.29010072635E+04 0.  0.
        4    1    3    3  502    0 -0.12614023906E+04 -0.26437781682E+03 -0.33896422510E+03  0.13326402290E+04  0.12699999809E+01 0. -1.
       -4    1    3    3    0  502  0.12614023906E+04  0.26437781682E+03  0.10292549245E+04  0.16493631903E+04  0.12699999809E+01 0.  1.
</event>
<event>
 5   0  0.8355946E-07  0.2903869E+04  0.7818609E-02  0.8271727E-01
       -1   -1    0    0    0  501  0.00000000000E+00  0.00000000000E+00  0.10762490819E+04  0.10762490819E+04  0.50400001928E-02 0.  1.
        1   -1    0    0  501    0  0.00000000000E+00  0.00000000000E+00 -0.19587597961E+04  0.19587597961E+04  0.50400001928E-02 0. -1.
    10030    2    1    2    0    0  0.00000000000E+00  0.00000000000E+00 -0.88251071428E+03  0.30350088780E+04  0.29038687520E+04 0.  0.
        4    1    3    3  502    0  0.84293331502E+03 -0.36674223243E+03  0.73336525489E+03  0.11759518054E+04  0.12699999809E+01 0.  1.
       -4    1    3    3    0  502 -0.84293331502E+03  0.36674223243E+03 -0.16158759692E+04  0.18590570726E+04  0.12699999809E+01 0. -1.
</event>
<event>
 5   0  0.2360103E-06  0.2889119E+04  0.7818609E-02  0.8276122E-01
        2   -1    0    0  501    0  0.00000000000E+00  0.00000000000E+00  0.17536354013E+04  0.17536354013E+04  0.25500000920E-02 0.  1.
       -2   -1    0    0    0  501  0.00000000000E+00  0.00000000000E+00 -0.11899579379E+04  0.11899579379E+04  0.25500000920E-02 0. -1.
    10030    2    1    2    0    0  0.00000000000E+00  0.00000000000E+00  0.56367746348E+03  0.29435933392E+04  0.28891191502E+04 0.  0.
        4    1    3    3  502    0  0.69138727189E+02  0.18761720813E+03 -0.11757899976E+04  0.11926709990E+04  0.12699999809E+01 0. -1.
       -4    1    3    3    0  502 -0.69138727189E+02 -0.18761720813E+03  0.17394674611E+04  0.17509223402E+04  0.12699999809E+01 0.  1.
</event>
<event>
 5   0  0.8263673E-07  0.2959760E+04  0.7818609E-02  0.8255316E-01
       -1   -1    0    0    0  501  0.00000000000E+00  0.00000000000E+00  0.10362037761E+04  0.10362037761E+04  0.50400001928E-02 0.  1.
        1   -1    0    0  501    0  0.00000000000E+00  0.00000000000E+00 -0.21135276098E+04  0.21135276099E+04  0.50400001928E-02 0. -1.
    10030    2    1    2    0    0  0.00000000000E+00  0.00000000000E+00 -0.10773238338E+04  0.31497313860E+04  0.29597603215E+04 0.  0.
        5    1    3    3  502    0 -0.12778597528E+04 -0.68473164149E+03 -0.22254313917E+03  0.14667414589E+04  0.46999998093E+01 0.  1.
       -5    1    3    3    0  502  0.12778597528E+04  0.68473164149E+03 -0.85478069458E+03  0.16829899270E+04  0.46999998093E+01 0. -1.
</event>
<event>
 5   0  0.8483636E-07  0.2910648E+04  0.7818609E-02  0.8269716E-01
        1   -1    0    0  501    0  0.00000000000E+00  0.00000000000E+00  0.16614422577E+04  0.16614422577E+04  0.50400001928E-02 0. -1.
       -1   -1    0    0    0  501  0.00000000000E+00  0.00000000000E+00 -0.12747768856E+04  0.12747768856E+04  0.50400001928E-02 0.  1.
    10030    2    1    2    0    0  0.00000000000E+00  0.00000000000E+00  0.38666537211E+03  0.29362191432E+04  0.29106481661E+04 0.  0.
        2    1    3    3  502    0 -0.44403737575E+03 -0.78675706771E+03  0.13443263721E+04  0.16196818420E+04  0.25500000920E-02 0. -1.
       -2    1    3    3    0  502  0.44403737575E+03  0.78675706771E+03 -0.95766099997E+03  0.13165373012E+04  0.25500000920E-02 0.  1.
</event>
<event>
 5   0  0.2378690E-06  0.2902226E+04  0.7818609E-02  0.8272215E-01
       -2   -1    0    0    0  501  0.00000000000E+00  0.00000000000E+00  0.11861574238E+04  0.11861574238E+04  0.25500000920E-02 0. -1.
        2   -1    0    0  501    0  0.00000000000E+00  0.00000000000E+00 -0.17752524519E+04  0.17752524519E+04  0.25500000920E-02 0.  1.
    10030    2    1    2    0    0  0.00000000000E+00  0.00000000000E+00 -0.58909502807E+03  0.29614098757E+04  0.29022259560E+04 0.  0.
        3    1    3    3  502    0 -0.19329340113E+02  0.59361923096E+03 -0.16455455570E+04  0.17494506581E+04  0.10100000352E+00 0.  1.
       -3    1    3    3    0  502  0.19329340113E+02 -0.59361923096E+03  0.10564505289E+04  0.12119592176E+04  0.10100000352E+00 0. -1.
</event>
<event>
 5   0  0.2378690E-06  0.2894098E+04  0.7818609E-02  0.8274636E-01
        2   -1    0    0  501    0  0.00000000000E+00  0.00000000000E+00  0.28121657713E+04  0.28121657713E+04  0.25500000920E-02 0.  1.
       -2   -1    0    0    0  501  0.00000000000E+00  0.00000000000E+00 -0.74460424989E+03  0.74460424990E+03  0.25500000920E-02 0. -1.
    10030    2    1    2    0    0  0.00000000000E+00  0.00000000000E+00  0.20675615214E+04  0.35567700212E+04  0.28940978454E+04 0.  0.
        3    1    3    3  502    0  0.80170033730E+03 -0.11117729063E+04  0.16038816907E+04  0.21097864617E+04  0.10100000352E+00 0. -1.
       -3    1    3    3    0  502 -0.80170033730E+03  0.11117729063E+04  0.46367983071E+03  0.14469835595E+04  0.10100000352E+00 0.  1.
</event>
<event>
 5   0  0.2360103E-06  0.2900255E+04  0.7818609E-02  0.8272802E-01
        2   -1    0    0  501    0  0.00000000000E+00  0.00000000000E+00  0.29094311374E+04  0.29094311374E+04  0.25500000920E-02 0.  1.
       -2   -1    0    0    0  501  0.00000000000E+00  0.00000000000E+00 -0.72277680185E+03  0.72277680185E+03  0.25500000920E-02 0. -1.
    10030    2    1    2    0    0  0.00000000000E+00  0.00000000000E+00  0.21866543356E+04  0.36322079393E+04  0.29002547010E+04 0.  0.
        4    1    3    3  502    0 -0.12559868569E+04 -0.31369513230E+03  0.27499766425E+03  0.13234549290E+04  0.12699999809E+01 0. -1.
       -4    1    3    3    0  502  0.12559868569E+04  0.31369513230E+03  0.19116566713E+04  0.23087530103E+04  0.12699999809E+01 0.  1.
</event>
<event>
 5   0  0.8357118E-07  0.2937146E+04  0.7818609E-02  0.8261910E-01
       -1   -1    0    0    0  501  0.00000000000E+00  0.00000000000E+00  0.10455846121E+04  0.10455846121E+04  0.50400001928E-02 0. -1.
        1   -1    0    0  501    0  0.00000000000E+00  0.00000000000E+00 -0.20626802372E+04  0.20626802372E+04  0.50400001928E-02 0.  1.
    10030    2    1    2    0    0  0.00000000000E+00  0.00000000000E+00 -0.10170956252E+04  0.31082648493E+04  0.29371460404E+04 0.  0.
        1    1    3    3  502    0 -0.70887412935E+02 -0.14663740909E+04 -0.46854731446E+03  0.15410433433E+04  0.50400001928E-02 0. -1.
       -1    1    3    3    0  502  0.70887412935E+02  0.14663740909E+04 -0.54854831070E+03  0.15672215061E+04  0.50400001928E-02 0.  1.
</event>
<event>
 5   0  0.2360103E-06  0.2911047E+04  0.7818609E-02  0.8269598E-01
       -2   -1    0    0    0  501  0.00000000000E+00  0.00000000000E+00  0.12859957593E+04  0.12859957593E+04  0.25500000920E-02 0. -1.
        2   -1    0    0  501    0  0.00000000000E+00  0.00000000000E+00 -0.16473990888E+04  0.16473990888E+04  0.25500000920E-02 0.  1.
    10030    2    1    2    0    0  0.00000000000E+00  0.00000000000E+00 -0.36140332958E+03  0.29333948481E+04  0.29110467135E+04 0.  0.
        4    1    3    3  502    0  0.77110373944E+03 -0.14806853464E+02  0.10631679176E+04  0.13134488394E+04  0.12699999809E+01 0. -1.
       -4    1    3    3    0  502 -0.77110373944E+03  0.14806853464E+02 -0.14245712472E+04  0.16199460087E+04  0.12699999809E+01 0.  1.
</event>
<event>
 5   0  0.8947674E-07  0.2905100E+04  0.7818609E-02  0.8271362E-01
        1   -1    0    0  501    0  0.00000000000E+00  0.00000000000E+00  0.19253960004E+04  0.19253960004E+04  0.50400001928E-02 0.  1.
       -1   -1    0    0    0  501  0.00000000000E+00  0.00000000000E+00 -0.10958272722E+04  0.10958272723E+04  0.50400001928E-02 0. -1.
    10030    2    1    2    0    0  0.00000000000E+00  0.00000000000E+00  0.82956872818E+03  0.30212232727E+04  0.29050999619E+04 0.  0.
        3    1    3    3  502    0  0.67453736984E+03  0.10391904763E+04 -0.37380259949E+03  0.12940811037E+04  0.10100000352E+00 0.  1.
       -3    1    3    3    0  502 -0.67453736984E+03 -0.10391904763E+04  0.12033713277E+04  0.17271421690E+04  0.10100000352E+00 0. -1.
</event>
<event>
 5   0  0.2378690E-06  0.2910392E+04  0.7818609E-02  0.8269792E-01
       -2   -1    0    0    0  501  0.00000000000E+00  0.00000000000E+00  0.19391627223E+04  0.19391627223E+04  0.25500000920E-02 0.  1.
        2   -1    0    0  501    0  0.00000000000E+00  0.00000000000E+00 -0.10920150183E+04  0.10920150183E+04  0.25500000920E-02 0. -1.
    10030    2    1    2    0    0  0.00000000000E+00  0.00000000000E+00  0.84714770405E+03  0.30311777406E+04  0.29103915995E+04 0.  0.
        3    1    3    3  502    0  0.41722833407E+03  0.13450836818E+04  0.41944539088E+02  0.14089318466E+04  0.10100000352E+00 0.  1.
       -3    1    3    3    0  502 -0.41722833407E+03 -0.13450836818E+04  0.80520316496E+03  0.16222458940E+04  0.10100000352E+00 0. -1.
</event>
<event>
 5   0  0.2325590E-06  0.2892664E+04  0.7818609E-02  0.8275064E-01
       -2   -1    0    0    0  501  0.00000000000E+00  0.00000000000E+00  0.87306005972E+03  0.87306005973E+03  0.25500000920E-02 0. -1.
        2   -1    0    0  501    0  0.00000000000E+00  0.00000000000E+00 -0.23960277592E+04  0.23960277592E+04  0.25500000920E-02 0.  1.
    10030    2    1    2    0    0  0.00000000000E+00  0.00000000000E+00 -0.15229676994E+04  0.32690878189E+04  0.28926639200E+04 0.  0.
        5    1    3    3  502    0 -0.10237974567E+04  0.40486788827E+03  0.29853690828E+03  0.11407127661E+04  0.46999998093E+01 0. -1.
       -5    1    3    3    0  502  0.10237974567E+04 -0.40486788827E+03 -0.18215046077E+04  0.21283750528E+04  0.46999998093E+01 0.  1.
</event>
<event>
 5   0  0.8357118E-07  0.2930115E+04  0.7818609E-02  0.8263973E-01
        1   -1    0    0  501    0  0.00000000000E+00  0.00000000000E+00  0.21157891509E+04  0.21157891509E+04  0.50400001928E-02 0.  1.
       -1   -1    0    0    0  501  0.00000000000E+00  0.00000000000E+00 -0.10144647700E+04  0.10144647700E+04  0.50400001928E-02 0. -1.
    10030    2    1    2    0    0  0.00000000000E+00  0.00000000000E+00  0.11013243809E+04  0.31302539209E+04  0.29301150519E+04 0.  0.
        1    1    3    3  502    0 -0.98710713290E+03  0.78229138427E+03  0.13501315103E+04  0.18464060758E+04  0.50400001928E-02 0.  1.
       -1    1    3    3    0  502  0.98710713290E+03 -0.78229138427E+03 -0.24880712940E+03  0.12838478451E+04  0.50400001928E-02 0. -1.
</event>
<event>
 5   0  0.8357118E-07  0.2896717E+04  0.7818609E-02  0.8273855E-01
        1   -1    0    0  501    0  0.00000000000E+00  0.00000000000E+00  0.19150489252E+04  0.19150489252E+04  0.50400001928E-02 0. -1.
       -1   -1    0    0    0  501  0.00000000000E+00  0.00000000000E+00 -0.10953991590E+04  0.10953991590E+04  0.50400001928E-02 0.  1.
    10030    2    1    2    0    0  0.00000000000E+00  0.00000000000E+00  0.81964976629E+03  0.30104480842E+04  0.28967174402E+04 0.  0.
        1    1    3    3  502    0 -0.12492730282E+04 -0.70591773735E+03  0.61437747690E+03  0.15609172416E+04  0.50400001928E-02 0.  1.
       -1    1    3    3    0  502  0.12492730282E+04  0.70591773735E+03  0.20527228939E+03  0.14495308426E+04  0.50400001928E-02 0. -1.
</event>
<event>
 5   0  0.2304435E-06  0.2855709E+04  0.7818609E-02  0.8286179E-01
        2   -1    0    0  501    0  0.00000000000E+00  0.00000000000E+00  0.23638253121E+04  0.23638253121E+04  0.25500000920E-02 0. -1.
       -2   -1    0    0    0  501  0.00000000000E+00  0.00000000000E+00 -0.86248696913E+03  0.86248696914E+03  0.25500000920E-02 0.  1.
    10030    2    1    2    0    0  0.00000000000E+00  0.00000000000E+00  0.15013383430E+04  0.32263122812E+04  0.28557090391E+04 0.  0.
        1    1    3    3  502    0  0.43038011071E+03  0.71185010203E+03  0.20617991874E+04  0.22232798961E+04  0.50400001928E-02 0. -1.
       -1    1    3    3    0  502 -0.43038011071E+03 -0.71185010203E+03 -0.56046084440E+03  0.10030323851E+04  0.50400001928E-02 0.  1.
</event>
<event>
 5   0  0.8355946E-07  0.2900566E+04  0.7818609E-02  0.8272709E-01
       -1   -1    0    0    0  501  0.00000000000E+00  0.00000000000E+00  0.14402332764E+04  0.14402332764E+04  0.50400001928E-02 0.  1.
        1   -1    0    0  501    0  0.00000000000E+00  0.00000000000E+00 -0.14604025707E+04  0.14604025707E+04  0.50400001928E-02 0. -1.
    10030    2    1    2    0    0  0.00000000000E+00  0.00000000000E+00 -0.20169294324E+02  0.29006358472E+04  0.29005657237E+04 0.  0.
        4    1    3    3  502    0  0.25791606832E+02 -0.13601215793E+04 -0.51281227596E+03  0.14538135921E+04  0.12699999809E+01 0. -1.
       -4    1    3    3    0  502 -0.25791606832E+02  0.13601215793E+04  0.49264298164E+03  0.14468222550E+04  0.12699999809E+01 0.  1.
</event>
<event>
 5   0  0.2325590E-06  0.2921947E+04  0.7818609E-02  0.8266377E-01
       -2   -1    0    0    0  501  0.00000000000E+00  0.00000000000E+00  0.12353616625E+04  0.12353616625E+04  0.25500000920E-02 0.  1.
        2   -1    0    0  501    0  0.00000000000E+00  0.00000000000E+00 -0.17277888834E+04  0.17277888834E+04  0.25500000920E-02 0. -1.
    10030    2    1    2    0    0  0.00000000000E+00  0.00000000000E+00 -0.49242722091E+03  0.29631505459E+04  0.29219473968E+04 0.  0.
        5    1    3    3  502    0  0.50715354466E+03 -0.12979085748E+04 -0.69132282659E+03  0.15555451543E+04  0.46999998093E+01 0. -1.
       -5    1    3    3    0  502 -0.50715354466E+03  0.12979085748E+04  0.19889560568E+03  0.14076053916E+04  0.46999998093E+01 0.  1.
</event>
<event>
 5   0  0.8483636E-07  0.2892319E+04  0.7818609E-02  0.8275166E-01
        1   -1    0    0  501    0  0.00000000000E+00  0.00000000000E+00  0.20279472221E+04  0.20279472221E+04  0.50400001928E-02 0. -1.
       -1   -1    0    0    0  501  0.00000000000E+00  0.00000000000E+00 -0.10312778903E+04  0.10312778903E+04  0.50400001928E-02 0.  1.
    10030    2    1    2    0    0  0.00000000000E+00  0.00000000000E+00  0.99666933175E+03  0.30592251124E+04  0.28923188848E+04 0.  0.
        2    1    3    3  502    0 -0.23795700873E+03  0.13577885919E+04  0.35881224766E+02  0.13789491871E+04  0.25500000920E-02 0.  1.
       -2    1    3    3    0  502  0.23795700873E+03 -0.13577885919E+04  0.96078810699E+03  0.16802759252E+04  0.25500000920E-02 0. -1.
</event>
<event>
 5   0  0.8263673E-07  0.2894381E+04  0.7818609E-02  0.8274551E-01
        1   -1    0    0  501    0  0.00000000000E+00  0.00000000000E+00  0.20077044087E+04  0.20077044087E+04  0.50400001928E-02 0.  1.
       -1   -1    0    0    0  501  0.00000000000E+00  0.00000000000E+00 -0.10431617705E+04  0.10431617706E+04  0.50400001928E-02 0. -1.
    10030    2    1    2    0    0  0.00000000000E+00  0.00000000000E+00  0.96454263820E+03  0.30508661793E+04  0.28943810985E+04 0.  0.
        5    1    3    3  502    0  0.47102784322E+03  0.83995404851E+02  0.19219158997E+04  0.19805820540E+04  0.46999998093E+01 0.  1.
       -5    1    3    3    0  502 -0.47102784322E+03 -0.83995404851E+02 -0.95737326147E+03  0.10702841253E+04  0.46999998093E+01 0. -1.
</event>
<event>
 5   0  0.8947674E-07  0.2800721E+04  0.7818609E-02  0.8303044E-01
        1   -1    0    0  501    0  0.00000000000E+00  0.00000000000E+00  0.16187185547E+04  0.16187185547E+04  0.50400001928E-02 0. -1.
       -1   -1    0    0    0  501  0.00000000000E+00  0.00000000000E+00 -0.12114581820E+04  0.12114581820E+04  0.50400001928E-02 0.  1.
    10030    2    1    2    0    0  0.00000000000E+00  0.00000000000E+00  0.40726037269E+03  0.28301767368E+04  0.28007212196E+04 0.  0.
        3    1    3    3  502    0 -0.42258273939E+03 -0.13006818675E+04  0.50789542292E+03  0.14588719145E+04  0.10100000352E+00 0. -1.
       -3    1    3    3    0  502  0.42258273939E+03  0.13006818675E+04 -0.10063505023E+03  0.13713048223E+04  0.10100000352E+00 0.  1.
</event>
<event>
 5   0  0.2325590E-06  0.2894181E+04  0.7818609E-02  0.8274611E-01
        2   -1    0    0  501    0  0.00000000000E+00  0.00000000000E+00  0.17039245473E+04  0.17039245473E+04  0.25500000920E-02 0. -1.
       -2   -1    0    0    0  501  0.00000000000E+00  0.00000000000E+00 -0.12289694304E+04  0.12289694304E+04  0.25500000920E-02 0.  1.
    10030    2    1    2    0    0  0.00000000000E+00  0.00000000000E+00  0.47495511691E+03  0.29328939777E+04  0.28941811832E+04 0.  0.
        5    1    3    3  502    0 -0.13177893887E+04  0.38522395362E+03 -0.22589437163E+03  0.13914081805E+04  0.46999998093E+01 0.  1.
       -5    1    3    3    0  502  0.13177893887E+04 -0.38522395362E+03  0.70084948854E+03  0.15414857972E+04  0.46999998093E+01 0. -1.
</event>
<event>
 5   0  0.8483636E-07  0.2924852E+04  0.7818609E-02  0.8265521E-01
        1   -1    0    0  501    0  0.00000000000E+00  0.00000000000E+00  0.11580001009E+04  0.11580001009E+04  0.50400001928E-02 0. -1.
       -1   -1    0    0    0  501  0.00000000000E+00  0.00000000000E+00 -0.18468823763E+04  0.18468823763E+04  0.50400001928E-02 0.  1.
    10030    2    1    2    0    0  0.00000000000E+00  0.00000000000E+00 -0.68888227544E+03  0.30048824773E+04  0.29248521181E+04 0.  0.
        2    1    3    3  502    0 -0.70423243460E+02  0.11600640506E+04  0.56753129626E+03  0.12933676225E+04  0.25500000920E-02 0. -1.
       -2    1    3    3    0  502  0.70423243460E+02 -0.11600640506E+04 -0.12564135717E+04  0.17115148547E+04  0.25500000920E-02 0.  1.
</event>
<event>
 5   0  0.8947674E-07  0.2903634E+04  0.7818609E-02  0.8271797E-01
        1   -1    0    0  501    0  0.00000000000E+00  0.00000000000E+00  0.13844644351E+04  0.13844644351E+04  0.50400001928E-02 0.  1.
       -1   -1    0    0    0  501  0.00000000000E+00  0.00000000000E+00 -0.15224456855E+04  0.15224456855E+04  0.50400001928E-02 0. -1.
    10030    2    1    2    0    0  0.00000000000E+00  0.00000000000E+00 -0.13798125037E+03  0.29069101206E+04  0.29036335209E+04 0.  0.
        3    1    3    3  502    0 -0.21316867964E+03  0.11060416963E+04 -0.98599519788E+03  0.14969821844E+04  0.10100000352E+00 0. -1.
       -3    1    3    3    0  502  0.21316867964E+03 -0.11060416963E+04  0.84801394751E+03  0.14099279362E+04  0.10100000352E+00 0.  1.
</event>
<event>
 5   0  0.2325590E-06  0.2900198E+04  0.7818609E-02  0.8272819E-01
        2   -1    0    0  501    0  0.00000000000E+00  0.00000000000E+00  0.10683262013E+04  0.10683262013E+04  0.25500000920E-02 0.  1.
       -2   -1    0    0    0  501  0.00000000000E+00  0.00000000000E+00 -0.19683000671E+04  0.19683000671E+04  0.25500000920E-02 0. -1.
    10030    2    1    2    0    0  0.00000000000E+00  0.00000000000E+00 -0.89997386585E+03  0.30366262684E+04  0.29001976028E+04 0.  0.
        5    1    3    3  502    0 -0.82951564210E+03  0.39097410169E+03  0.72615655074E+03  0.11697360279E+04  0.46999998093E+01 0.  1.
       -5    1    3    3    0  502  0.82951564210E+03 -0.39097410169E+03 -0.16261304166E+04  0.18668902406E+04  0.46999998093E+01 0. -1.
</event>
<event>
 5   0  0.2325590E-06  0.2897702E+04  0.7818609E-02  0.8273562E-01
        2   -1    0    0  501    0  0.00000000000E+00  0.00000000000E+00  0.16249615033E+04  0.16249615033E+04  0.25500000920E-02 0.  1.
       -2   -1    0    0    0  501  0.00000000000E+00  0.00000000000E+00 -0.12918268439E+04  0.12918268439E+04  0.25500000920E-02 0. -1.
    10030    2    1    2    0    0  0.00000000000E+00  0.00000000000E+00  0.33313465938E+03  0.29167883473E+04  0.28977017723E+04 0.  0.
        5    1    3    3  502    0  0.11992691950E+04  0.69603986172E+02  0.98187497481E+03  0.15515127693E+04  0.46999998093E+01 0.  1.
       -5    1    3    3    0  502 -0.11992691950E+04 -0.69603986172E+02 -0.64874031542E+03  0.13652755780E+04  0.46999998093E+01 0. -1.
</event>
<event>
 5   0  0.2304435E-06  0.2910267E+04  0.7818609E-02  0.8269829E-01
       -2   -1    0    0    0  501  0.00000000000E+00  0.00000000000E+00  0.95012743887E+03  0.95012743888E+03  0.25500000920E-02 0. -1.
        2   -1    0    0  501    0  0.00000000000E+00  0.00000000000E+00 -0.22285577187E+04  0.22285577187E+04  0.25500000920E-02 0.  1.
    10030    2    1    2    0    0  0.00000000000E+00  0.00000000000E+00 -0.12784302799E+04  0.31786851576E+04  0.29102672301E+04 0.  0.
        1    1    3    3  502    0 -0.14003149332E+03  0.14298547008E+04 -0.38700533423E+03  0.14879067220E+04  0.50400001928E-02 0. -1.
       -1    1    3    3    0  502  0.14003149332E+03 -0.14298547008E+04 -0.89142494564E+03  0.16907784356E+04  0.50400001928E-02 0.  1.
</event>
<event>
 5   0  0.8355946E-07  0.2881496E+04  0.7818609E-02  0.8278404E-01
        1   -1    0    0  501    0  0.00000000000E+00  0.00000000000E+00  0.15313386120E+04  0.15313386120E+04  0.50400001928E-02 0. -1.
       -1   -1    0    0    0  501  0.00000000000E+00  0.00000000000E+00 -0.13555167587E+04  0.13555167588E+04  0.50400001928E-02 0.  1.
    10030    2    1    2    0    0  0.00000000000E+00  0.00000000000E+00  0.17582185323E+03  0.28868553707E+04  0.28814962446E+04 0.  0.
        4    1    3    3  502    0 -0.51885388582E+03 -0.13017055041E+04  0.42335742723E+03  0.14638578136E+04  0.12699999809E+01 0. -1.
       -4    1    3    3    0  502  0.51885388582E+03  0.13017055041E+04 -0.24753557399E+03  0.14229975571E+04  0.12699999809E+01 0.  1.
</event>
<event>
 5   0  0.8263673E-07  0.2898661E+04  0.7818609E-02  0.8273276E-01
        1   -1    0    0  501    0  0.00000000000E+00  0.00000000000E+00  0.21083903777E+04  0.21083903777E+04  0.50400001928E-02 0.  1.
       -1   -1    0    0    0  501  0.00000000000E+00  0.00000000000E+00 -0.99628552637E+03  0.99628552639E+03  0.50400001928E-02 0. -1.
    10030    2    1    2    0    0  0.00000000000E+00  0.00000000000E+00  0.11121048514E+04  0.31046759041E+04  0.28986609442E+04 0.  0.
        5    1    3    3  502    0 -0.10272533719E+04 -0.40194043770E+03 -0.45083038521E+03  0.11916693047E+04  0.46999998093E+01 0. -1.
       -5    1    3    3    0  502  0.10272533719E+04  0.40194043770E+03  0.15629352366E+04  0.19130065994E+04  0.46999998093E+01 0.  1.
</event>
<event>
 5   0  0.8947674E-07  0.2912972E+04  0.7818609E-02  0.8269028E-01
       -1   -1    0    0    0  501  0.00000000000E+00  0.00000000000E+00  0.11407039008E+04  0.11407039009E+04  0.50400001928E-02 0. -1.
        1   -1    0    0  501    0  0.00000000000E+00  0.00000000000E+00 -0.18596867898E+04  0.18596867898E+04  0.50400001928E-02 0.  1.
    10030    2    1    2    0    0  0.00000000000E+00  0.00000000000E+00 -0.71898288893E+03  0.30003906906E+04  0.29129723483E+04 0.  0.
        3    1    3    3  502    0  0.79461943971E+03  0.11869481464E+04 -0.65279302937E+03  0.15704791325E+04  0.10100000352E+00 0.  1.
       -3    1    3    3    0  502 -0.79461943971E+03 -0.11869481464E+04 -0.66189859560E+02  0.14299115581E+04  0.10100000352E+00 0. -1.
</event>
<event>
 5   0  0.2425845E-06  0.2870650E+04  0.7818609E-02  0.8281664E-01
       -2   -1    0    0    0  501  0.00000000000E+00  0.00000000000E+00  0.11300227656E+04  0.11300227656E+04  0.25500000920E-02 0. -1.
        2   -1    0    0  501    0  0.00000000000E+00  0.00000000000E+00 -0.18231119155E+04  0.18231119155E+04  0.25500000920E-02 0.  1.
    10030    2    1    2    0    0  0.00000000000E+00  0.00000000000E+00 -0.69308914988E+03  0.29531346812E+04  0.28706500789E+04 0.  0.
        2    1    3    3  502    0 -0.66344716805E+03  0.82461826767E+03  0.65085010596E+03  0.12424827132E+04  0.25500000920E-02 0. -1.
       -2    1    3    3    0  502  0.66344716805E+03 -0.82461826767E+03 -0.13439392558E+04  0.17106519680E+04  0.25500000920E-02 0.  1.
</event>
<event>
 5   0  0.8947674E-07  0.2896558E+04  0.7818609E-02  0.8273902E-01
        1   -1    0    0  501    0  0.00000000000E+00  0.00000000000E+00  0.20212591522E+04  0.20212591522E+04  0.50400001928E-02 0.  1.
       -1   -1    0    0    0  501  0.00000000000E+00  0.00000000000E+00 -0.10377256632E+04  0.10377256632E+04  0.50400001928E-02 0. -1.
    10030    2    1    2    0    0  0.00000000000E+00  0.00000000000E+00  0.98353348904E+03  0.30589848154E+04  0.28965582985E+04 0.  0.
        3    1    3    3  502    0 -0.94369597643E+02  0.32090237697E+03 -0.99637414231E+03  0.10510211217E+04  0.10100000352E+00 0. -1.
       -3    1    3    3    0  502  0.94369597643E+02 -0.32090237697E+03  0.19799076313E+04  0.20079636937E+04  0.10100000352E+00 0.  1.
</event>
<event>
 5   0  0.8483636E-07  0.2906152E+04  0.7818609E-02  0.8271049E-01
       -1   -1    0    0    0  501  0.00000000000E+00  0.00000000000E+00  0.32015675238E+04  0.32015675238E+04  0.50400001928E-02 0.  1.
        1   -1    0    0  501    0  0.00000000000E+00  0.00000000000E+00 -0.65949870218E+03  0.65949870220E+03  0.50400001928E-02 0. -1.
    10030    2    1    2    0    0  0.00000000000E+00  0.00000000000E+00  0.25420688216E+04  0.38610662260E+04  0.29061518384E+04 0.  0.
        2    1    3    3  502    0  0.60321079175E+03  0.81468330972E+03 -0.11213392296E+03  0.10198755665E+04  0.25500000920E-02 0.  1.
       -2    1    3    3    0  502 -0.60321079175E+03 -0.81468330972E+03  0.26542027446E+04  0.28411906595E+04  0.25500000920E-02 0. -1.
</event>
<event>
 5   0  0.8355946E-07  0.2903407E+04  0.7818609E-02  0.8271864E-01
        1   -1    0    0  501    0  0.00000000000E+00  0.00000000000E+00  0.18440625388E+04  0.18440625388E+04  0.50400001928E-02 0.  1.
       -1   -1    0    0    0  501  0.00000000000E+00  0.00000000000E+00 -0.11428265148E+04  0.11428265148E+04  0.50400001928E-02 0. -1.
    10030    2    1    2    0    0  0.00000000000E+00  0.00000000000E+00  0.70123602407E+03  0.29868890536E+04  0.29034073529E+04 0.  0.
        4    1    3    3  502    0  0.11260379001E+04  0.41340868086E+03  0.11917919637E+04  0.16909280847E+04  0.12699999809E+01 0.  1.
       -4    1    3    3    0  502 -0.11260379001E+04 -0.41340868086E+03 -0.49055593967E+03  0.12959609689E+04  0.12699999809E+01 0. -1.
</event>
<event>
 5   0  0.2378690E-06  0.2899367E+04  0.7818609E-02  0.8273066E-01
        2   -1    0    0  501    0  0.00000000000E+00  0.00000000000E+00  0.14531852843E+04  0.14531852843E+04  0.25500000920E-02 0.  1.
       -2   -1    0    0    0  501  0.00000000000E+00  0.00000000000E+00 -0.14461900589E+04  0.14461900589E+04  0.25500000920E-02 0. -1.
    10030    2    1    2    0    0  0.00000000000E+00  0.00000000000E+00  0.69952253278E+01  0.28993753432E+04  0.28993669046E+04 0.  0.
        3    1    3    3  502    0  0.47243366494E+03  0.12266696029E+04 -0.60778987654E+03  0.14482128389E+04  0.10100000352E+00 0. -1.
       -3    1    3    3    0  502 -0.47243366494E+03 -0.12266696029E+04  0.61478510187E+03  0.14511625044E+04  0.10100000352E+00 0.  1.
</event>
<event>
 5   0  0.2378690E-06  0.2895180E+04  0.7818609E-02  0.8274313E-01
        2   -1    0    0  501    0  0.00000000000E+00  0.00000000000E+00  0.16643573892E+04  0.16643573892E+04  0.25500000920E-02 0.  1.
       -2   -1    0    0    0  501  0.00000000000E+00  0.00000000000E+00 -0.12590547154E+04  0.12590547154E+04  0.25500000920E-02 0. -1.
    10030    2    1    2    0    0  0.00000000000E+00  0.00000000000E+00  0.40530267381E+03  0.29234121045E+04  0.28951801456E+04 0.  0.
        3    1    3    3  502    0  0.56791639527E+03 -0.59848857232E+03  0.14037035376E+04  0.16282202661E+04  0.10100000352E+00 0.  1.
       -3    1    3    3    0  502 -0.56791639527E+03  0.59848857232E+03 -0.99840086382E+03  0.12951918384E+04  0.10100000352E+00 0. -1.
</event>
<event>
 5   0  0.8483636E-07  0.2919799E+04  0.7818609E-02  0.8267011E-01
       -1   -1    0    0    0  501  0.00000000000E+00  0.00000000000E+00  0.29021050749E+04  0.29021050749E+04  0.50400001928E-02 0. -1.
        1   -1    0    0  501    0  0.00000000000E+00  0.00000000000E+00 -0.73439999692E+03  0.73439999694E+03  0.50400001928E-02 0.  1.
    10030    2    1    2    0    0  0.00000000000E+00  0.00000000000E+00  0.21677050780E+04  0.36365050718E+04  0.29197985945E+04 0.  0.
        2    1    3    3  502    0  0.13584832750E+04 -0.49193720160E+03  0.13445890645E+04  0.19736764606E+04  0.25500000920E-02 0.  1.
       -2    1    3    3    0  502 -0.13584832750E+04  0.49193720160E+03  0.82311601343E+03  0.16628286112E+04  0.25500000920E-02 0. -1.
</event>
<event>
 5   0  0.8263673E-07  0.2897841E+04  0.7818609E-02  0.8273520E-01
        1   -1    0    0  501    0  0.00000000000E+00  0.00000000000E+00  0.16381512987E+04  0.16381512988E+04  0.50400001928E-02 0.  1.
       -1   -1    0    0    0  501  0.00000000000E+00  0.00000000000E+00 -0.12815483305E+04  0.12815483305E+04  0.50400001928E-02 0. -1.
    10030    2    1    2    0    0  0.00000000000E+00  0.00000000000E+00  0.35660296823E+03  0.29196996293E+04  0.28978406182E+04 0.  0.
        5    1    3    3  502    0  0.10301236719E+04  0.10152235132E+04  0.26564107466E+03  0.14705171987E+04  0.46999998093E+01 0. -1.
       -5    1    3    3    0  502 -0.10301236719E+04 -0.10152235132E+04  0.90961893567E+02  0.14491824306E+04  0.46999998093E+01 0.  1.
</event>
<event>
 5   0  0.2325590E-06  0.2890917E+04  0.7818609E-02  0.8275585E-01
       -2   -1    0    0    0  501  0.00000000000E+00  0.00000000000E+00  0.81731134515E+03  0.81731134516E+03  0.25500000920E-02 0.  1.
        2   -1    0    0  501    0  0.00000000000E+00  0.00000000000E+00 -0.25563696846E+04  0.25563696846E+04  0.25500000920E-02 0. -1.
    10030    2    1    2    0    0  0.00000000000E+00  0.00000000000E+00 -0.17390583394E+04  0.33736810297E+04  0.28909167720E+04 0.  0.
        5    1    3    3  502    0  0.25422206060E+03 -0.37799696373E+03  0.73134485585E+03  0.86162517887E+03  0.46999998093E+01 0.  1.
       -5    1    3    3    0  502 -0.25422206060E+03  0.37799696373E+03 -0.24704031953E+04  0.25120558509E+04  0.46999998093E+01 0. -1.
</event>
<event>
 5   0  0.2304435E-06  0.2899540E+04  0.7818609E-02  0.8273014E-01
       -2   -1    0    0    0  501  0.00000000000E+00  0.00000000000E+00  0.16319024914E+04  0.16319024914E+04  0.25500000920E-02 0. -1.
        2   -1    0    0  501    0  0.00000000000E+00  0.00000000000E+00 -0.12879647793E+04  0.12879647793E+04  0.25500000920E-02 0.  1.
    10030    2    1    2    0    0  0.00000000000E+00  0.00000000000E+00  0.34393771211E+03  0.29198672708E+04  0.28995399168E+04 0.  0.
        1    1    3    3  502    0 -0.12890676958E+04  0.63084539182E+03 -0.34827813085E+02  0.14355745921E+04  0.50400001928E-02 0. -1.
       -1    1    3    3    0  502  0.12890676958E+04 -0.63084539182E+03  0.37876552520E+03  0.14842926787E+04  0.50400001928E-02 0.  1.
</event>
<event>
 5   0  0.7621125E-07  0.2894391E+04  0.7818609E-02  0.8274548E-01
        3   -1    0    0  501    0  0.00000000000E+00  0.00000000000E+00  0.12371053762E+04  0.12371053803E+04  0.10100000352E+00 0.  1.
       -3   -1    0    0    0  501  0.00000000000E+00  0.00000000000E+00 -0.16929635541E+04  0.16929635572E+04  0.10100000352E+00 0. -1.
    10030    2    1    2    0    0  0.00000000000E+00  0.00000000000E+00 -0.45585817796E+03  0.29300689375E+04  0.28943906612E+04 0.  0.
        1    1    3    3  502    0 -0.31463311443E+03  0.41290202278E+03 -0.15954667750E+04  0.16777950731E+04  0.50400001928E-02 0. -1.
       -1    1    3    3    0  502  0.31463311443E+03 -0.41290202278E+03  0.11396085970E+04  0.12522738644E+04  0.50400001928E-02 0.  1.
</event>
<event>
 5   0  0.8355946E-07  0.2916577E+04  0.7818609E-02  0.8267962E-01
       -1   -1    0    0    0  501  0.00000000000E+00  0.00000000000E+00  0.20403732954E+04  0.20403732954E+04  0.50400001928E-02 0.  1.
        1   -1    0    0  501    0  0.00000000000E+00  0.00000000000E+00 -0.10422627006E+04  0.10422627006E+04  0.50400001928E-02 0. -1.
    10030    2    1    2    0    0  0.00000000000E+00  0.00000000000E+00  0.99811059476E+03  0.30826359960E+04  0.29165767475E+04 0.  0.
        4    1    3    3  502    0 -0.52935965379E+03  0.11983968900E+04 -0.17790119104E+03  0.13221297954E+04  0.12699999809E+01 0. -1.
       -4    1    3    3    0  502  0.52935965379E+03 -0.11983968900E+04  0.11760117858E+04  0.17605062006E+04  0.12699999809E+01 0.  1.
</event>
<event>
 5   0  0.2360103E-06  0.2893960E+04  0.7818609E-02  0.8274677E-01
        2   -1    0    0  501    0  0.00000000000E+00  0.00000000000E+00  0.16706266191E+04  0.16706266191E+04  0.25500000920E-02 0. -1.
       -2   -1    0    0    0  501  0.00000000000E+00  0.00000000000E+00 -0.12532726466E+04  0.12532726466E+04  0.25500000920E-02 0.  1.
    10030    2    1    2    0    0  0.00000000000E+00  0.00000000000E+00  0.41735397250E+03  0.29238992656E+04  0.28939596710E+04 0.  0.
        4    1    3    3  502    0 -0.54406131499E+03 -0.67398988160E+03 -0.96240196145E+03  0.12947911891E+04  0.12699999809E+01 0.  1.
       -4    1    3    3    0  502  0.54406131499E+03  0.67398988160E+03  0.13797559340E+04  0.16291080766E+04  0.12699999809E+01 0. -1.
</event>
<event>
 5   0  0.2378690E-06  0.2916567E+04  0.7818609E-02  0.8267965E-01
       -2   -1    0    0    0  501  0.00000000000E+00  0.00000000000E+00  0.95349625704E+03  0.95349625704E+03  0.25500000920E-02 0. -1.
        2   -1    0    0  501    0  0.00000000000E+00  0.00000000000E+00 -0.22303080091E+04  0.22303080091E+04  0.25500000920E-02 0.  1.
    10030    2    1    2    0    0  0.00000000000E+00  0.00000000000E+00 -0.12768117521E+04  0.31838042662E+04  0.29165667068E+04 0.  0.
        3    1    3    3  502    0 -0.11098895913E+04  0.80695578382E+03 -0.11771412043E+04  0.18079529769E+04  0.10100000352E+00 0.  1.
       -3    1    3    3    0  502  0.11098895913E+04 -0.80695578382E+03 -0.99670547818E+02  0.13758512892E+04  0.10100000352E+00 0. -1.
</event>
<event>
 5   0  0.2325590E-06  0.2906581E+04  0.7818609E-02  0.8270922E-01
       -2   -1    0    0    0  501  0.00000000000E+00  0.00000000000E+00  0.98047704259E+03  0.98047704259E+03  0.25500000920E-02 0. -1.
        2   -1    0    0  501    0  0.00000000000E+00  0.00000000000E+00 -0.21541083691E+04  0.21541083691E+04  0.25500000920E-02 0.  1.
    10030    2    1    2    0    0  0.00000000000E+00  0.00000000000E+00 -0.11736313266E+04  0.31345854117E+04  0.29065813618E+04 0.  0.
        5    1    3    3  502    0  0.82960517970E+03  0.47243750569E+03  0.59485088575E+03  0.11248607101E+04  0.46999998093E+01 0. -1.
       -5    1    3    3    0  502 -0.82960517970E+03 -0.47243750569E+03 -0.17684822123E+04  0.20097247016E+04  0.46999998093E+01 0.  1.
</event>
<event>
 5   0  0.2325590E-06  0.2894564E+04  0.7818609E-02  0.8274497E-01
       -2   -1    0    0    0  501  0.00000000000E+00  0.00000000000E+00  0.13464657975E+04  0.13464657975E+04  0.25500000920E-02 0.  1.
        2   -1    0    0  501    0  0.00000000000E+00  0.00000000000E+00 -0.15556464105E+04  0.15556464105E+04  0.25500000920E-02 0. -1.
    10030    2    1    2    0    0  0.00000000000E+00  0.00000000000E+00 -0.20918061302E+03  0.29021122080E+04  0.28945636526E+04 0.  0.
        5    1    3    3  502    0 -0.23177925328E+03 -0.78623079812E+02  0.13255584821E+04  0.13479727706E+04  0.46999998093E+01 0.  1.
       -5    1    3    3    0  502  0.23177925328E+03  0.78623079812E+02 -0.15347390951E+04  0.15541394374E+04  0.46999998093E+01 0. -1.
</event>
<event>
 5   0  0.2325590E-06  0.2910591E+04  0.7818609E-02  0.8269733E-01
       -2   -1    0    0    0  501  0.00000000000E+00  0.00000000000E+00  0.10443760631E+04  0.10443760631E+04  0.25500000920E-02 0. -1.
        2   -1    0    0  501    0  0.00000000000E+00  0.00000000000E+00 -0.20278950356E+04  0.20278950356E+04  0.25500000920E-02 0.  1.
    10030    2    1    2    0    0  0.00000000000E+00  0.00000000000E+00 -0.98351897247E+03  0.30722710987E+04  0.29105910284E+04 0.  0.
        5    1    3    3  502    0  0.83425499973E+03  0.59555826306E+03  0.59867507525E+03  0.11870572796E+04  0.46999998093E+01 0. -1.
       -5    1    3    3    0  502 -0.83425499973E+03 -0.59555826306E+03 -0.15821940477E+04  0.18852138191E+04  0.46999998093E+01 0.  1.
</event>
<event>
 5   0  0.8263673E-07  0.2892664E+04  0.7818609E-02  0.8275063E-01
        1   -1    0    0  501    0  0.00000000000E+00  0.00000000000E+00  0.13996315356E+04  0.13996315356E+04  0.50400001928E-02 0. -1.
       -1   -1    0    0    0  501  0.00000000000E+00  0.00000000000E+00 -0.14945906767E+04  0.14945906767E+04  0.50400001928E-02 0.  1.
    10030    2    1    2    0    0  0.00000000000E+00  0.00000000000E+00 -0.94959141108E+02  0.28942222123E+04  0.28926639929E+04 0.  0.
        5    1    3    3  502    0 -0.93380980459E+03  0.94210981951E+03 -0.62422958126E+03  0.14660342163E+04  0.46999998093E+01 0.  1.
       -5    1    3    3    0  502  0.93380980459E+03 -0.94210981951E+03  0.52927044016E+03  0.14281879960E+04  0.46999998093E+01 0. -1.
</event>
<event>
 5   0  0.2304435E-06  0.2897451E+04  0.7818609E-02  0.8273636E-01
        2   -1    0    0  501    0  0.00000000000E+00  0.00000000000E+00  0.15611215583E+04  0.15611215583E+04  0.25500000920E-02 0.  1.
       -2   -1    0    0    0  501  0.00000000000E+00  0.00000000000E+00 -0.13444214126E+04  0.13444214126E+04  0.25500000920E-02 0. -1.
    10030    2    1    2    0    0  0.00000000000E+00  0.00000000000E+00  0.21670014578E+03  0.29055429709E+04  0.28974507766E+04 0.  0.
        1    1    3    3  502    0 -0.11393287934E+03  0.14148182492E+04  0.39918398627E+03  0.14744623543E+04  0.50400001928E-02 0.  1.
       -1    1    3    3    0  502  0.11393287934E+03 -0.14148182492E+04 -0.18248384048E+03  0.14310806166E+04  0.50400001928E-02 0. -1.
</event>
<event>
 5   0  0.8483636E-07  0.2905576E+04  0.7818609E-02  0.8271220E-01
        1   -1    0    0  501    0  0.00000000000E+00  0.00000000000E+00  0.21732125657E+04  0.21732125657E+04  0.50400001928E-02 0. -1.
       -1   -1    0    0    0  501  0.00000000000E+00  0.00000000000E+00 -0.97118565036E+03  0.97118565038E+03  0.50400001928E-02 0.  1.
    10030    2    1    2    0    0  0.00000000000E+00  0.00000000000E+00  0.12020269154E+04  0.31443982161E+04  0.29055759216E+04 0.  0.
        2    1    3    3  502    0  0.60646023706E+03  0.45489249351E+03 -0.74015328840E+03  0.10595036999E+04  0.25500000920E-02 0.  1.
       -2    1    3    3    0  502 -0.60646023706E+03 -0.45489249351E+03  0.19421802038E+04  0.20848945162E+04  0.25500000920E-02 0. -1.
</event>
<event>
 5   0  0.8355946E-07  0.2845283E+04  0.7818609E-02  0.8289346E-01
       -1   -1    0    0    0  501  0.00000000000E+00  0.00000000000E+00  0.22995727714E+04  0.22995727714E+04  0.50400001928E-02 0. -1.
        1   -1    0    0  501    0  0.00000000000E+00  0.00000000000E+00 -0.88012379670E+03  0.88012379671E+03  0.50400001928E-02 0.  1.
    10030    2    1    2    0    0  0.00000000000E+00  0.00000000000E+00  0.14194489747E+04  0.31796965681E+04  0.28452829162E+04 0.  0.
        4    1    3    3  502    0 -0.10654575199E+03  0.30049491262E+03 -0.83968442896E+03  0.89817634288E+03  0.12699999809E+01 0.  1.
       -4    1    3    3    0  502  0.10654575199E+03 -0.30049491262E+03  0.22591334036E+04  0.22815202252E+04  0.12699999809E+01 0. -1.
</event>
<event>
 5   0  0.8947674E-07  0.2897570E+04  0.7818609E-02  0.8273601E-01
        1   -1    0    0  501    0  0.00000000000E+00  0.00000000000E+00  0.16527749292E+04  0.16527749292E+04  0.50400001928E-02 0. -1.
       -1   -1    0    0    0  501  0.00000000000E+00  0.00000000000E+00 -0.12699719245E+04  0.12699719245E+04  0.50400001928E-02 0.  1.
    10030    2    1    2    0    0  0.00000000000E+00  0.00000000000E+00  0.38280300469E+03  0.29227468537E+04  0.28975698491E+04 0.  0.
        3    1    3    3  502    0 -0.11700645069E+04  0.67645810645E+03  0.71778953784E+03  0.15303164218E+04  0.10100000352E+00 0. -1.
       -3    1    3    3    0  502  0.11700645069E+04 -0.67645810645E+03 -0.33498653315E+03  0.13924304319E+04  0.10100000352E+00 0.  1.
</event>
<event>
 5   0  0.2304435E-06  0.2897549E+04  0.7818609E-02  0.8273607E-01
        2   -1    0    0  501    0  0.00000000000E+00  0.00000000000E+00  0.17125724050E+04  0.17125724050E+04  0.25500000920E-02 0. -1.
       -2   -1    0    0    0  501  0.00000000000E+00  0.00000000000E+00 -0.12256108180E+04  0.12256108180E+04  0.25500000920E-02 0.  1.
    10030    2    1    2    0    0  0.00000000000E+00  0.00000000000E+00  0.48696158697E+03  0.29381832230E+04  0.28975488028E+04 0.  0.
        1    1    3    3  502    0 -0.42126931768E+02  0.74289186618E+03  0.15040082391E+04  0.16780058958E+04  0.50400001928E-02 0. -1.
       -1    1    3    3    0  502  0.42126931768E+02 -0.74289186618E+03 -0.10170466521E+04  0.12601773271E+04  0.50400001928E-02 0.  1.
</event>
<event>
 5   0  0.8355946E-07  0.2904291E+04  0.7818609E-02  0.8271602E-01
       -1   -1    0    0    0  501  0.00000000000E+00  0.00000000000E+00  0.13780316358E+04  0.13780316358E+04  0.50400001928E-02 0. -1.
        1   -1    0    0  501    0  0.00000000000E+00  0.00000000000E+00 -0.15302459099E+04  0.15302459099E+04  0.50400001928E-02 0.  1.
    10030    2    1    2    0    0  0.00000000000E+00  0.00000000000E+00 -0.15221427409E+03  0.29082775456E+04  0.29042914966E+04 0.  0.
        4    1    3    3  502    0 -0.59783286749E+03 -0.79806077354E+03  0.98100290423E+03  0.13988114407E+04  0.12699999809E+01 0. -1.
       -4    1    3    3    0  502  0.59783286749E+03  0.79806077354E+03 -0.11332171783E+04  0.15094661049E+04  0.12699999809E+01 0.  1.
</event>
<event>
 5   0  0.8355946E-07  0.2905739E+04  0.7818609E-02  0.8271172E-01
        1   -1    0    0  501    0  0.00000000000E+00  0.00000000000E+00  0.11650470887E+04  0.11650470887E+04  0.50400001928E-02 0.  1.
       -1   -1    0    0    0  501  0.00000000000E+00  0.00000000000E+00 -0.18117981016E+04  0.18117981016E+04  0.50400001928E-02 0. -1.
    10030    2    1    2    0    0  0.00000000000E+00  0.00000000000E+00 -0.64675101288E+03  0.29768451903E+04  0.29057392200E+04 0.  0.
        4    1    3    3  502    0 -0.68526881179E+03 -0.10496944385E+04 -0.10757701906E+04  0.16518882754E+04  0.12699999809E+01 0. -1.
       -4    1    3    3    0  502  0.68526881179E+03  0.10496944385E+04  0.42901917776E+03  0.13249569149E+04  0.12699999809E+01 0.  1.
</event>
<event>
 5   0  0.8263673E-07  0.2880887E+04  0.7818609E-02  0.8278587E-01
       -1   -1    0    0    0  501  0.00000000000E+00  0.00000000000E+00  0.89472358897E+03  0.89472358899E+03  0.50400001928E-02 0.  1.
        1   -1    0    0  501    0  0.00000000000E+00  0.00000000000E+00 -0.23190149936E+04  0.23190149936E+04  0.50400001928E-02 0. -1.
    10030    2    1    2    0    0  0.00000000000E+00  0.00000000000E+00 -0.14242914046E+04  0.32137385826E+04  0.28808869593E+04 0.  0.
        5    1    3    3  502    0 -0.70480930610E+03  0.12431528044E+04 -0.91377829023E+03  0.16962304993E+04  0.46999998093E+01 0.  1.
       -5    1    3    3    0  502  0.70480930610E+03 -0.12431528044E+04 -0.51051311442E+03  0.15175080833E+04  0.46999998093E+01 0. -1.
</event>
<event>
 5   0  0.2425845E-06  0.3004490E+04  0.7818609E-02  0.8242450E-01
       -2   -1    0    0    0  501  0.00000000000E+00  0.00000000000E+00  0.83651546756E+03  0.83651546756E+03  0.25500000920E-02 0. -1.
        2   -1    0    0  501    0  0.00000000000E+00  0.00000000000E+00 -0.26977871714E+04  0.26977871714E+04  0.25500000920E-02 0.  1.
    10030    2    1    2    0    0  0.00000000000E+00  0.00000000000E+00 -0.18612717039E+04  0.35343026390E+04  0.30044904374E+04 0.  0.
        2    1    3    3  502    0 -0.44653487455E+03 -0.13853082648E+04 -0.13680514272E+04  0.19975077197E+04  0.25500000920E-02 0. -1.
       -2    1    3    3    0  502  0.44653487455E+03  0.13853082648E+04 -0.49322027668E+03  0.15367949193E+04  0.25500000920E-02 0.  1.
</event>
<event>
 5   0  0.2360103E-06  0.2972169E+04  0.7818609E-02  0.8251723E-01
       -2   -1    0    0    0  501  0.00000000000E+00  0.00000000000E+00  0.14271058099E+04  0.14271058099E+04  0.25500000920E-02 0.  1.
        2   -1    0    0  501    0  0.00000000000E+00  0.00000000000E+00 -0.15475006854E+04  0.15475006854E+04  0.25500000920E-02 0. -1.
    10030    2    1    2    0    0  0.00000000000E+00  0.00000000000E+00 -0.12039487549E+03  0.29746064953E+04  0.29721690524E+04 0.  0.
        4    1    3    3  502    0 -0.10592431069E+04 -0.10245297169E+04 -0.25215803262E+03  0.14950727029E+04  0.12699999809E+01 0. -1.
       -4    1    3    3    0  502  0.10592431069E+04  0.10245297169E+04  0.13176315713E+03  0.14795337924E+04  0.12699999809E+01 0.  1.
</event>
<event>
 5   0  0.2325590E-06  0.2899614E+04  0.7818609E-02  0.8272992E-01
       -2   -1    0    0    0  501  0.00000000000E+00  0.00000000000E+00  0.75879883291E+03  0.75879883292E+03  0.25500000920E-02 0.  1.
        2   -1    0    0  501    0  0.00000000000E+00  0.00000000000E+00 -0.27700897679E+04  0.27700897679E+04  0.25500000920E-02 0. -1.
    10030    2    1    2    0    0  0.00000000000E+00  0.00000000000E+00 -0.20112909350E+04  0.35288886008E+04  0.28996143764E+04 0.  0.
        5    1    3    3  502    0 -0.20194075842E+03 -0.79322798988E+03 -0.24619704753E+04  0.25944771005E+04  0.46999998093E+01 0. -1.
       -5    1    3    3    0  502  0.20194075842E+03  0.79322798988E+03  0.45067954032E+03  0.93441150030E+03  0.46999998093E+01 0.  1.
</event>
<event>
 5   0  0.2378690E-06  0.2845946E+04  0.7818609E-02  0.8289144E-01
        2   -1    0    0  501    0  0.00000000000E+00  0.00000000000E+00  0.16692195428E+04  0.16692195428E+04  0.25500000920E-02 0. -1.
       -2   -1    0    0    0  501  0.00000000000E+00  0.00000000000E+00 -0.12130530330E+04  0.12130530330E+04  0.25500000920E-02 0.  1.
    10030    2    1    2    0    0  0.00000000000E+00  0.00000000000E+00  0.45616650979E+03  0.28822725758E+04  0.28459457684E+04 0.  0.
        3    1    3    3  502    0  0.13085733652E+04  0.20854615333E+03 -0.29718529214E+03  0.13580039979E+04  0.10100000352E+00 0.  1.
       -3    1    3    3    0  502 -0.13085733652E+04 -0.20854615333E+03  0.75335180194E+03  0.15242685780E+04  0.10100000352E+00 0. -1.
</event>
<event>
 5   0  0.2325590E-06  0.2919083E+04  0.7818609E-02  0.8267222E-01
        2   -1    0    0  501    0  0.00000000000E+00  0.00000000000E+00  0.14948794419E+04  0.14948794419E+04  0.25500000920E-02 0. -1.
       -2   -1    0    0    0  501  0.00000000000E+00  0.00000000000E+00 -0.14250387376E+04  0.14250387376E+04  0.25500000920E-02 0.  1.
    10030    2    1    2    0    0  0.00000000000E+00  0.00000000000E+00  0.69840704300E+02  0.29199181796E+04  0.29190828100E+04 0.  0.
        5    1    3    3  502    0  0.37580119575E+03  0.13900053113E+04  0.27352104137E+03  0.14656661128E+04  0.46999998093E+01 0. -1.
       -5    1    3    3    0  502 -0.37580119575E+03 -0.13900053113E+04 -0.20368033707E+03  0.14542520668E+04  0.46999998093E+01 0.  1.
</event>
<event>
 5   0  0.2425845E-06  0.3102790E+04  0.7818609E-02  0.8214973E-01
        2   -1    0    0  501    0  0.00000000000E+00  0.00000000000E+00  0.13831336862E+04  0.13831336862E+04  0.25500000920E-02 0. -1.
       -2   -1    0    0    0  501  0.00000000000E+00  0.00000000000E+00 -0.17401256094E+04  0.17401256094E+04  0.25500000920E-02 0.  1.
    10030    2    1    2    0    0  0.00000000000E+00  0.00000000000E+00 -0.35699192319E+03  0.31232592956E+04  0.31027899372E+04 0.  0.
        2    1    3    3  502    0 -0.10697649104E+02  0.11697200734E+04  0.84727874840E+03  0.14443824865E+04  0.25500000920E-02 0. -1.
       -2    1    3    3    0  502  0.10697649104E+02 -0.11697200734E+04 -0.12042706716E+04  0.16788768091E+04  0.25500000920E-02 0.  1.
</event>
<event>
 5   0  0.8357118E-07  0.2845826E+04  0.7818609E-02  0.8289181E-01
        1   -1    0    0  501    0  0.00000000000E+00  0.00000000000E+00  0.20218026932E+04  0.20218026932E+04  0.50400001928E-02 0. -1.
       -1   -1    0    0    0  501  0.00000000000E+00  0.00000000000E+00 -0.10014241653E+04  0.10014241653E+04  0.50400001928E-02 0.  1.
    10030    2    1    2    0    0  0.00000000000E+00  0.00000000000E+00  0.10203785279E+04  0.30232268584E+04  0.28458264700E+04 0.  0.
        1    1    3    3  502    0 -0.12180792512E+03 -0.40803229583E+02 -0.99525139541E+03  0.10035075557E+04  0.50400001928E-02 0.  1.
       -1    1    3    3    0  502  0.12180792512E+03  0.40803229583E+02  0.20156299233E+04  0.20197193028E+04  0.50400001928E-02 0. -1.
</event>
<event>
 5   0  0.8355946E-07  0.2892970E+04  0.7818609E-02  0.8274972E-01
       -1   -1    0    0    0  501  0.00000000000E+00  0.00000000000E+00  0.77287770565E+03  0.77287770567E+03  0.50400001928E-02 0.  1.
        1   -1    0    0  501    0  0.00000000000E+00  0.00000000000E+00 -0.27071794221E+04  0.27071794221E+04  0.50400001928E-02 0. -1.
    10030    2    1    2    0    0  0.00000000000E+00  0.00000000000E+00 -0.19343017164E+04  0.34800571278E+04  0.28929698378E+04 0.  0.
        4    1    3    3  502    0  0.68870722275E+03 -0.56968644552E+03 -0.23352526724E+04  0.25004533472E+04  0.12699999809E+01 0. -1.
       -4    1    3    3    0  502 -0.68870722275E+03  0.56968644552E+03  0.40095095595E+03  0.97960378054E+03  0.12699999809E+01 0.  1.
</event>
<event>
 5   0  0.2304435E-06  0.2921210E+04  0.7818609E-02  0.8266595E-01
        2   -1    0    0  501    0  0.00000000000E+00  0.00000000000E+00  0.15165943237E+04  0.15165943237E+04  0.25500000920E-02 0.  1.
       -2   -1    0    0    0  501  0.00000000000E+00  0.00000000000E+00 -0.14066826815E+04  0.14066826815E+04  0.25500000920E-02 0. -1.
    10030    2    1    2    0    0  0.00000000000E+00  0.00000000000E+00  0.10991164227E+03  0.29232770052E+04  0.29212100028E+04 0.  0.
        1    1    3    3  502    0  0.30010259752E+02  0.66905198470E+03 -0.12439748801E+04  0.14128002959E+04  0.50400001928E-02 0. -1.
       -1    1    3    3    0  502 -0.30010259752E+02 -0.66905198470E+03  0.13538865223E+04  0.15104767093E+04  0.50400001928E-02 0.  1.
</event>
<event>
 5   0  0.2360103E-06  0.2894746E+04  0.7818609E-02  0.8274442E-01
       -2   -1    0    0    0  501  0.00000000000E+00  0.00000000000E+00  0.20297335916E+04  0.20297335916E+04  0.25500000920E-02 0. -1.
        2   -1    0    0  501    0  0.00000000000E+00  0.00000000000E+00 -0.10321001957E+04  0.10321001957E+04  0.25500000920E-02 0.  1.
    10030    2    1    2    0    0  0.00000000000E+00  0.00000000000E+00  0.99763339594E+03  0.30618337873E+04  0.28947458866E+04 0.  0.
        4    1    3    3  502    0 -0.23861535071E+03 -0.19489718369E+02 -0.10110110457E+04  0.10389716465E+04  0.12699999809E+01 0.  1.
       -4    1    3    3    0  502  0.23861535071E+03  0.19489718369E+02  0.20086444417E+04  0.20228621408E+04  0.12699999809E+01 0. -1.
</event>
<event>
 5   0  0.8483636E-07  0.2866561E+04  0.7818609E-02  0.8282897E-01
       -1   -1    0    0    0  501  0.00000000000E+00  0.00000000000E+00  0.11816029198E+04  0.11816029198E+04  0.50400001928E-02 0. -1.
        1   -1    0    0  501    0  0.00000000000E+00  0.00000000000E+00 -0.17385642376E+04  0.17385642376E+04  0.50400001928E-02 0.  1.
    10030    2    1    2    0    0  0.00000000000E+00  0.00000000000E+00 -0.55696131787E+03  0.29201671574E+04  0.28665607124E+04 0.  0.
        2    1    3    3  502    0  0.11945006089E+04 -0.47618136770E+03 -0.92333679906E+03  0.15830765124E+04  0.25500000920E-02 0.  1.
       -2    1    3    3    0  502 -0.11945006089E+04  0.47618136770E+03  0.36637548119E+03  0.13370906450E+04  0.25500000920E-02 0. -1.
</event>
<event>
 5   0  0.8483636E-07  0.2899626E+04  0.7818609E-02  0.8272989E-01
        1   -1    0    0  501    0  0.00000000000E+00  0.00000000000E+00  0.16922100043E+04  0.16922100043E+04  0.50400001928E-02 0.  1.
       -1   -1    0    0    0  501  0.00000000000E+00  0.00000000000E+00 -0.12421375025E+04  0.12421375025E+04  0.50400001928E-02 0. -1.
    10030    2    1    2    0    0  0.00000000000E+00  0.00000000000E+00  0.45007250184E+03  0.29343475068E+04  0.28996258438E+04 0.  0.
        2    1    3    3  502    0  0.13128935609E+04 -0.21284913286E+03  0.80897559252E+03  0.15567388236E+04  0.25500000920E-02 0. -1.
       -2    1    3    3    0  502 -0.13128935609E+04  0.21284913286E+03 -0.35890309068E+03  0.13776086832E+04  0.25500000920E-02 0.  1.
</event>
<event>
 5   0  0.2425845E-06  0.2898471E+04  0.7818609E-02  0.8273333E-01
        2   -1    0    0  501    0  0.00000000000E+00  0.00000000000E+00  0.15988794763E+04  0.15988794763E+04  0.25500000920E-02 0. -1.
       -2   -1    0    0    0  501  0.00000000000E+00  0.00000000000E+00 -0.13135969562E+04  0.13135969562E+04  0.25500000920E-02 0.  1.
    10030    2    1    2    0    0  0.00000000000E+00  0.00000000000E+00  0.28528252009E+03  0.29124764325E+04  0.28984707784E+04 0.  0.
        2    1    3    3  502    0  0.61023675831E+03 -0.11500303527E+04 -0.49708609429E+03  0.13935757240E+04  0.25500000920E-02 0.  1.
       -2    1    3    3    0  502 -0.61023675831E+03  0.11500303527E+04  0.78236861438E+03  0.15189007085E+04  0.25500000920E-02 0. -1.
</event>
<event>
 5   0  0.2378690E-06  0.2895231E+04  0.7818609E-02  0.8274298E-01
        2   -1    0    0  501    0  0.00000000000E+00  0.00000000000E+00  0.12884863896E+04  0.12884863896E+04  0.25500000920E-02 0. -1.
       -2   -1    0    0    0  501  0.00000000000E+00  0.00000000000E+00 -0.16263973391E+04  0.16263973391E+04  0.25500000920E-02 0.  1.
    10030    2    1    2    0    0  0.00000000000E+00  0.00000000000E+00 -0.33791094945E+03  0.29148837287E+04  0.28952311379E+04 0.  0.
        3    1    3    3  502    0  0.74646307269E+03 -0.81608922984E+03 -0.11093094435E+04  0.15664533831E+04  0.10100000352E+00 0.  1.
       -3    1    3    3    0  502 -0.74646307269E+03  0.81608922984E+03  0.77139849403E+03  0.13484303455E+04  0.10100000352E+00 0. -1.
</event>
<event>
 5   0  0.2425845E-06  0.2907808E+04  0.7818609E-02  0.8270558E-01
       -2   -1    0    0    0  501  0.00000000000E+00  0.00000000000E+00  0.14890019546E+04  0.14890019546E+04  0.25500000920E-02 0. -1.
        2   -1    0    0  501    0  0.00000000000E+00  0.00000000000E+00 -0.14196330071E+04  0.14196330071E+04  0.25500000920E-02 0.  1.
    10030    2    1    2    0    0  0.00000000000E+00  0.00000000000E+00  0.69368947510E+02  0.29086349617E+04  0.29078076432E+04 0.  0.
        2    1    3    3  502    0 -0.20258470871E+03 -0.23099053649E+03 -0.13867895570E+04  0.14204163008E+04  0.25500000920E-02 0.  1.
       -2    1    3    3    0  502  0.20258470871E+03  0.23099053649E+03  0.14561585046E+04  0.14882186609E+04  0.25500000920E-02 0. -1.
</event>
<event>
 5   0  0.2304435E-06  0.2728394E+04  0.7818609E-02  0.8325850E-01
       -2   -1    0    0    0  501  0.00000000000E+00  0.00000000000E+00  0.11557071398E+04  0.11557071399E+04  0.25500000920E-02 0. -1.
        2   -1    0    0  501    0  0.00000000000E+00  0.00000000000E+00 -0.16102990370E+04  0.16102990370E+04  0.25500000920E-02 0.  1.
    10030    2    1    2    0    0  0.00000000000E+00  0.00000000000E+00 -0.45459189717E+03  0.27660061769E+04  0.27283944688E+04 0.  0.
        1    1    3    3  502    0  0.15221897485E+03  0.12748984365E+04  0.24003318006E+03  0.13061977519E+04  0.50400001928E-02 0. -1.
       -1    1    3    3    0  502 -0.15221897485E+03 -0.12748984365E+04 -0.69462507724E+03  0.14598084249E+04  0.50400001928E-02 0.  1.
</event>
<event>
 5   0  0.8263673E-07  0.2964738E+04  0.7818609E-02  0.8253872E-01
       -1   -1    0    0    0  501  0.00000000000E+00  0.00000000000E+00  0.13625187036E+04  0.13625187036E+04  0.50400001928E-02 0. -1.
        1   -1    0    0  501    0  0.00000000000E+00  0.00000000000E+00 -0.16127619434E+04  0.16127619434E+04  0.50400001928E-02 0.  1.
    10030    2    1    2    0    0  0.00000000000E+00  0.00000000000E+00 -0.25024323976E+03  0.29752806470E+04  0.29647383105E+04 0.  0.
        5    1    3    3  502    0 -0.99001269911E+03  0.13138547649E+02 -0.12322664281E+04  0.15807594395E+04  0.46999998093E+01 0.  1.
       -5    1    3    3    0  502  0.99001269911E+03 -0.13138547649E+02  0.98202318833E+03  0.13945212075E+04  0.46999998093E+01 0. -1.
</event>
<event>
 5   0  0.2325590E-06  0.2900073E+04  0.7818609E-02  0.8272856E-01
        2   -1    0    0  501    0  0.00000000000E+00  0.00000000000E+00  0.14186636822E+04  0.14186636822E+04  0.25500000920E-02 0. -1.
       -2   -1    0    0    0  501  0.00000000000E+00  0.00000000000E+00 -0.14821030602E+04  0.14821030602E+04  0.25500000920E-02 0.  1.
    10030    2    1    2    0    0  0.00000000000E+00  0.00000000000E+00 -0.63439377940E+02  0.29007667424E+04  0.29000729541E+04 0.  0.
        5    1    3    3  502    0  0.66139479386E+03  0.12902037272E+04 -0.90214460911E+01  0.14498869637E+04  0.46999998093E+01 0. -1.
       -5    1    3    3    0  502 -0.66139479386E+03 -0.12902037272E+04 -0.54417931849E+02  0.14508797787E+04  0.46999998093E+01 0.  1.
</event>
<event>
 5   0  0.2360103E-06  0.2928854E+04  0.7818609E-02  0.8264344E-01
        2   -1    0    0  501    0  0.00000000000E+00  0.00000000000E+00  0.17607178359E+04  0.17607178359E+04  0.25500000920E-02 0.  1.
       -2   -1    0    0    0  501  0.00000000000E+00  0.00000000000E+00 -0.12179951430E+04  0.12179951430E+04  0.25500000920E-02 0. -1.
    10030    2    1    2    0    0  0.00000000000E+00  0.00000000000E+00  0.54272269297E+03  0.29787129789E+04  0.29288535452E+04 0.  0.
        4    1    3    3  502    0  0.27495596485E+03 -0.83471364280E+03 -0.91998807277E+03  0.12722921500E+04  0.12699999809E+01 0. -1.
       -4    1    3    3    0  502 -0.27495596485E+03  0.83471364280E+03  0.14627107657E+04  0.17064208289E+04  0.12699999809E+01 0.  1.
</event>
<event>
 5   0  0.2425845E-06  0.2913131E+04  0.7818609E-02  0.8268981E-01
       -2   -1    0    0    0  501  0.00000000000E+00  0.00000000000E+00  0.10865010188E+04  0.10865010188E+04  0.25500000920E-02 0.  1.
        2   -1    0    0  501    0  0.00000000000E+00  0.00000000000E+00 -0.19526751151E+04  0.19526751151E+04  0.25500000920E-02 0. -1.
    10030    2    1    2    0    0  0.00000000000E+00  0.00000000000E+00 -0.86617409632E+03  0.30391761339E+04  0.29131313062E+04 0.  0.
        2    1    3    3  502    0 -0.53532752428E+03  0.57272427888E+03 -0.17137996796E+04  0.18845949166E+04  0.25500000920E-02 0. -1.
       -2    1    3    3    0  502  0.53532752428E+03 -0.57272427888E+03  0.84762558326E+03  0.11545812173E+04  0.25500000920E-02 0.  1.
</event>
<event>
 5   0  0.8263673E-07  0.2891051E+04  0.7818609E-02  0.8275545E-01
        1   -1    0    0  501    0  0.00000000000E+00  0.00000000000E+00  0.18043667860E+04  0.18043667860E+04  0.50400001928E-02 0. -1.
       -1   -1    0    0    0  501  0.00000000000E+00  0.00000000000E+00 -0.11580479951E+04  0.11580479951E+04  0.50400001928E-02 0.  1.
    10030    2    1    2    0    0  0.00000000000E+00  0.00000000000E+00  0.64631879090E+03  0.29624147810E+04  0.28910505626E+04 0.  0.
        5    1    3    3  502    0  0.76449607466E+03  0.57036402211E+03  0.14361346751E+04  0.17240284977E+04  0.46999998093E+01 0. -1.
       -5    1    3    3    0  502 -0.76449607466E+03 -0.57036402211E+03 -0.78981588418E+03  0.12383862833E+04  0.46999998093E+01 0.  1.
</event>
<event>
 5   0  0.8263673E-07  0.2905032E+04  0.7818609E-02  0.8271382E-01
        1   -1    0    0  501    0  0.00000000000E+00  0.00000000000E+00  0.17679676399E+04  0.17679676399E+04  0.50400001928E-02 0.  1.
       -1   -1    0    0    0  501  0.00000000000E+00  0.00000000000E+00 -0.11933494216E+04  0.11933494216E+04  0.50400001928E-02 0. -1.
    10030    2    1    2    0    0  0.00000000000E+00  0.00000000000E+00  0.57461821830E+03  0.29613170615E+04  0.29050322962E+04 0.  0.
        5    1    3    3  502    0  0.38831543734E+03 -0.12453370896E+04  0.93853550149E+03  0.16070234358E+04  0.46999998093E+01 0.  1.
       -5    1    3    3    0  502 -0.38831543734E+03  0.12453370896E+04 -0.36391728319E+03  0.13542936257E+04  0.46999998093E+01 0. -1.
</event>
<event>
 5   0  0.2304435E-06  0.2895634E+04  0.7818609E-02  0.8274178E-01
       -2   -1    0    0    0  501  0.00000000000E+00  0.00000000000E+00  0.11519005603E+04  0.11519005603E+04  0.25500000920E-02 0. -1.
        2   -1    0    0  501    0  0.00000000000E+00  0.00000000000E+00 -0.18197528311E+04  0.18197528311E+04  0.25500000920E-02 0.  1.
    10030    2    1    2    0    0  0.00000000000E+00  0.00000000000E+00 -0.66785227075E+03  0.29716533914E+04  0.28956341659E+04 0.  0.
        1    1    3    3  502    0 -0.93428249643E+03  0.91871985121E+03 -0.96592169127E+03  0.16278619910E+04  0.50400001928E-02 0. -1.
       -1    1    3    3    0  502  0.93428249643E+03 -0.91871985121E+03  0.29806942053E+03  0.13437914003E+04  0.50400001928E-02 0.  1.
</event>
<event>
 5   0  0.2325590E-06  0.2898223E+04  0.7818609E-02  0.8273406E-01
       -2   -1    0    0    0  501  0.00000000000E+00  0.00000000000E+00  0.21160699710E+04  0.21160699710E+04  0.25500000920E-02 0. -1.
        2   -1    0    0  501    0  0.00000000000E+00  0.00000000000E+00 -0.99236980290E+03  0.99236980291E+03  0.25500000920E-02 0.  1.
    10030    2    1    2    0    0  0.00000000000E+00  0.00000000000E+00  0.11237001681E+04  0.31084397739E+04  0.28982228624E+04 0.  0.
        5    1    3    3  502    0  0.83932799792E+03  0.10711959920E+04  0.10959343945E+04  0.17472912260E+04  0.46999998093E+01 0. -1.
       -5    1    3    3    0  502 -0.83932799792E+03 -0.10711959920E+04  0.27765773587E+02  0.13611485479E+04  0.46999998093E+01 0.  1.
</event>
<event>
 5   0  0.2325590E-06  0.2916309E+04  0.7818609E-02  0.8268042E-01
       -2   -1    0    0    0  501  0.00000000000E+00  0.00000000000E+00  0.11440875938E+04  0.11440875938E+04  0.25500000920E-02 0.  1.
        2   -1    0    0  501    0  0.00000000000E+00  0.00000000000E+00 -0.18584365091E+04  0.18584365091E+04  0.25500000920E-02 0. -1.
    10030    2    1    2    0    0  0.00000000000E+00  0.00000000000E+00 -0.71434891525E+03  0.30025241029E+04  0.29163087312E+04 0.  0.
        5    1    3    3  502    0 -0.13516557688E+04  0.35625114985E+03  0.70192079612E+02  0.13995846588E+04  0.46999998093E+01 0.  1.
       -5    1    3    3    0  502  0.13516557688E+04 -0.35625114985E+03 -0.78454099487E+03  0.16029394442E+04  0.46999998093E+01 0. -1.
</event>
<event>
 5   0  0.8355946E-07  0.2890448E+04  0.7818609E-02  0.8275725E-01
        1   -1    0    0  501    0  0.00000000000E+00  0.00000000000E+00  0.14178184039E+04  0.14178184039E+04  0.50400001928E-02 0. -1.
       -1   -1    0    0    0  501  0.00000000000E+00  0.00000000000E+00 -0.14731590529E+04  0.14731590529E+04  0.50400001928E-02 0.  1.
    10030    2    1    2    0    0  0.00000000000E+00  0.00000000000E+00 -0.55340648944E+02  0.28909774568E+04  0.28904477280E+04 0.  0.
        4    1    3    3  502    0 -0.66091028271E+03 -0.53416936576E+03 -0.11968717707E+04  0.14678702128E+04  0.12699999809E+01 0.  1.
       -4    1    3    3    0  502  0.66091028271E+03  0.53416936576E+03  0.11415311218E+04  0.14231072440E+04  0.12699999809E+01 0. -1.
</event>
<event>
 5   0  0.8355946E-07  0.2939677E+04  0.7818609E-02  0.8261169E-01
       -1   -1    0    0    0  501  0.00000000000E+00  0.00000000000E+00  0.14828852583E+04  0.14828852583E+04  0.50400001928E-02 0.  1.
        1   -1    0    0  501    0  0.00000000000E+00  0.00000000000E+00 -0.14569068973E+04  0.14569068973E+04  0.50400001928E-02 0. -1.
    10030    2    1    2    0    0  0.00000000000E+00  0.00000000000E+00  0.25978360986E+02  0.29397921556E+04  0.29396773705E+04 0.  0.
        4    1    3    3  502    0  0.88805124054E+03  0.11704635473E+04  0.55467025335E+02  0.14702714461E+04  0.12699999809E+01 0.  1.
       -4    1    3    3    0  502 -0.88805124054E+03 -0.11704635473E+04 -0.29488664350E+02  0.14695207095E+04  0.12699999809E+01 0. -1.
</event>
<event>
 5   0  0.8483636E-07  0.2898775E+04  0.7818609E-02  0.8273242E-01
       -1   -1    0    0    0  501  0.00000000000E+00  0.00000000000E+00  0.22621254060E+04  0.22621254060E+04  0.50400001928E-02 0.  1.
        1   -1    0    0  501    0  0.00000000000E+00  0.00000000000E+00 -0.92865089852E+03  0.92865089854E+03  0.50400001928E-02 0. -1.
    10030    2    1    2    0    0  0.00000000000E+00  0.00000000000E+00  0.13334745075E+04  0.31907763046E+04  0.28987754593E+04 0.  0.
        2    1    3    3  502    0 -0.13066548691E+04 -0.58150283453E+03  0.40804803090E+03  0.14872779461E+04  0.25500000920E-02 0. -1.
       -2    1    3    3    0  502  0.13066548691E+04  0.58150283453E+03  0.92542647660E+03  0.17034983584E+04  0.25500000920E-02 0.  1.
</event>
<event>
 5   0  0.2304435E-06  0.2880840E+04  0.7818609E-02  0.8278601E-01
        2   -1    0    0  501    0  0.00000000000E+00  0.00000000000E+00  0.18394124638E+04  0.18394124638E+04  0.25500000920E-02 0.  1.
       -2   -1    0    0    0  501  0.00000000000E+00  0.00000000000E+00 -0.11279740689E+04  0.11279740689E+04  0.25500000920E-02 0. -1.
    10030    2    1    2    0    0  0.00000000000E+00  0.00000000000E+00  0.71143839489E+03  0.29673865328E+04  0.28808398507E+04 0.  0.
        1    1    3    3  502    0  0.10128553268E+04 -0.10142375235E+04  0.50231809875E+03  0.15188407222E+04  0.50400001928E-02 0.  1.
       -1    1    3    3    0  502 -0.10128553268E+04  0.10142375235E+04  0.20912029614E+03  0.14485458106E+04  0.50400001928E-02 0. -1.
</event>
<event>
 5   0  0.2325590E-06  0.2892495E+04  0.7818609E-02  0.8275114E-01
        2   -1    0    0  501    0  0.00000000000E+00  0.00000000000E+00  0.20544757141E+04  0.20544757141E+04  0.25500000920E-02 0.  1.
       -2   -1    0    0    0  501  0.00000000000E+00  0.00000000000E+00 -0.10180853323E+04  0.10180853323E+04  0.25500000920E-02 0. -1.
    10030    2    1    2    0    0  0.00000000000E+00  0.00000000000E+00  0.10363903818E+04  0.30725610465E+04  0.28924948333E+04 0.  0.
        5    1    3    3  502    0 -0.67942707440E+03  0.58106044920E+03  0.17257843230E+04  0.19436064454E+04  0.46999998093E+01 0.  1.
       -5    1    3    3    0  502  0.67942707440E+03 -0.58106044920E+03 -0.68939394123E+03  0.11289546011E+04  0.46999998093E+01 0. -1.
</event>
<event>
 5   0  0.2378690E-06  0.2919465E+04  0.7818609E-02  0.8267109E-01
       -2   -1    0    0    0  501  0.00000000000E+00  0.00000000000E+00  0.72553441589E+03  0.72553441589E+03  0.25500000920E-02 0.  1.
        2   -1    0    0  501    0  0.00000000000E+00  0.00000000000E+00 -0.29368966335E+04  0.29368966335E+04  0.25500000920E-02 0. -1.
    10030    2    1    2    0    0  0.00000000000E+00  0.00000000000E+00 -0.22113622176E+04  0.36624310494E+04  0.29194654192E+04 0.  0.
        3    1    3    3  502    0 -0.96481496176E+03  0.11510686410E+03 -0.24722671244E+04  0.26563550676E+04  0.10100000352E+00 0. -1.
       -3    1    3    3    0  502  0.96481496176E+03 -0.11510686410E+03  0.26090490676E+03  0.10060759818E+04  0.10100000352E+00 0.  1.
</event>
<event>
 5   0  0.8357118E-07  0.2898477E+04  0.7818609E-02  0.8273331E-01
       -1   -1    0    0    0  501  0.00000000000E+00  0.00000000000E+00  0.11390139629E+04  0.11390139629E+04  0.50400001928E-02 0.  1.
        1   -1    0    0  501    0  0.00000000000E+00  0.00000000000E+00 -0.18439570272E+04  0.18439570272E+04  0.50400001928E-02 0. -1.
    10030    2    1    2    0    0  0.00000000000E+00  0.00000000000E+00 -0.70494306431E+03  0.29829709900E+04  0.28984773940E+04 0.  0.
        1    1    3    3  502    0  0.50759678170E+03  0.24528474411E+03 -0.17264840136E+04  0.18161955148E+04  0.50400001928E-02 0. -1.
       -1    1    3    3    0  502 -0.50759678170E+03 -0.24528474411E+03  0.10215409493E+04  0.11667754753E+04  0.50400001928E-02 0.  1.
</event>
<event>
 5   0  0.2304435E-06  0.3041701E+04  0.7818609E-02  0.8231922E-01
        2   -1    0    0  501    0  0.00000000000E+00  0.00000000000E+00  0.16719563721E+04  0.16719563721E+04  0.25500000920E-02 0.  1.
       -2   -1    0    0    0  501  0.00000000000E+00  0.00000000000E+00 -0.13834013190E+04  0.13834013190E+04  0.25500000920E-02 0. -1.
    10030    2    1    2    0    0  0.00000000000E+00  0.00000000000E+00  0.28855505304E+03  0.30553576911E+04  0.30417012677E+04 0.  0.
        1    1    3    3  502    0 -0.55744003901E+03 -0.31691847476E+03 -0.12409753397E+04  0.13968523582E+04  0.50400001928E-02 0. -1.
       -1    1    3    3    0  502  0.55744003901E+03  0.31691847476E+03  0.15295303928E+04  0.16585053329E+04  0.50400001928E-02 0.  1.
</event>
<event>
 5   0  0.8355946E-07  0.2910856E+04  0.7818609E-02  0.8269655E-01
        1   -1    0    0  501    0  0.00000000000E+00  0.00000000000E+00  0.16619207875E+04  0.16619207875E+04  0.50400001928E-02 0. -1.
       -1   -1    0    0    0  501  0.00000000000E+00  0.00000000000E+00 -0.12745920773E+04  0.12745920773E+04  0.50400001928E-02 0.  1.
    10030    2    1    2    0    0  0.00000000000E+00  0.00000000000E+00  0.38732871018E+03  0.29365128647E+04  0.29108562787E+04 0.  0.
        4    1    3    3  502    0  0.40238669829E+03  0.92256563344E+03  0.12542283964E+04  0.16081457913E+04  0.12699999809E+01 0. -1.
       -4    1    3    3    0  502 -0.40238669829E+03 -0.92256563344E+03 -0.86689968618E+03  0.13283670734E+04  0.12699999809E+01 0.  1.
</event>
<event>
 5   0  0.2378690E-06  0.2895482E+04  0.7818609E-02  0.8274223E-01
        2   -1    0    0  501    0  0.00000000000E+00  0.00000000000E+00  0.25396911447E+04  0.25396911447E+04  0.25500000920E-02 0. -1.
       -2   -1    0    0    0  501  0.00000000000E+00  0.00000000000E+00 -0.82527887414E+03  0.82527887414E+03  0.25500000920E-02 0.  1.
    10030    2    1    2    0    0  0.00000000000E+00  0.00000000000E+00  0.17144122705E+04  0.33649700188E+04  0.28954816170E+04 0.  0.
        3    1    3    3  502    0 -0.65378106543E+03 -0.12872499821E+04  0.73251905651E+03  0.16189584233E+04  0.10100000352E+00 0. -1.
       -3    1    3    3    0  502  0.65378106543E+03  0.12872499821E+04  0.98189321403E+03  0.17460115956E+04  0.10100000352E+00 0.  1.
</event>
<event>
 5   0  0.2360103E-06  0.2898952E+04  0.7818609E-02  0.8273189E-01
        2   -1    0    0  501    0  0.00000000000E+00  0.00000000000E+00  0.94304265667E+03  0.94304265668E+03  0.25500000920E-02 0. -1.
       -2   -1    0    0    0  501  0.00000000000E+00  0.00000000000E+00 -0.22278742086E+04  0.22278742086E+04  0.25500000920E-02 0.  1.
    10030    2    1    2    0    0  0.00000000000E+00  0.00000000000E+00 -0.12848315520E+04  0.31709168653E+04  0.28989518192E+04 0.  0.
        4    1    3    3  502    0  0.14186762276E+04 -0.29283718936E+03 -0.69800634611E+03  0.16079833116E+04  0.12699999809E+01 0.  1.
       -4    1    3    3    0  502 -0.14186762276E+04  0.29283718936E+03 -0.58682520585E+03  0.15629335537E+04  0.12699999809E+01 0. -1.
</event>
<event>
 5   0  0.8357118E-07  0.2890194E+04  0.7818609E-02  0.8275801E-01
       -1   -1    0    0    0  501  0.00000000000E+00  0.00000000000E+00  0.10875269287E+04  0.10875269287E+04  0.50400001928E-02 0. -1.
        1   -1    0    0  501    0  0.00000000000E+00  0.00000000000E+00 -0.19202332552E+04  0.19202332552E+04  0.50400001928E-02 0.  1.
    10030    2    1    2    0    0  0.00000000000E+00  0.00000000000E+00 -0.83270632653E+03  0.30077601839E+04  0.28901940243E+04 0.  0.
        1    1    3    3  502    0 -0.10565137747E+04  0.95705954074E+03 -0.66288846537E+03  0.15721340395E+04  0.50400001928E-02 0. -1.
       -1    1    3    3    0  502  0.10565137747E+04 -0.95705954074E+03 -0.16981786116E+03  0.14356261444E+04  0.50400001928E-02 0.  1.
</event>
<event>
 5   0  0.2304435E-06  0.2897161E+04  0.7818609E-02  0.8273723E-01
       -2   -1    0    0    0  501  0.00000000000E+00  0.00000000000E+00  0.84472807558E+03  0.84472807558E+03  0.25500000920E-02 0.  1.
        2   -1    0    0  501    0  0.00000000000E+00  0.00000000000E+00 -0.24840954509E+04  0.24840954509E+04  0.25500000920E-02 0. -1.
    10030    2    1    2    0    0  0.00000000000E+00  0.00000000000E+00 -0.16393673754E+04  0.33288235265E+04  0.28971607963E+04 0.  0.
        1    1    3    3  502    0  0.25081069888E+03  0.13417320450E+04 -0.26241007418E+03  0.13899676019E+04  0.50400001928E-02 0.  1.
       -1    1    3    3    0  502 -0.25081069888E+03 -0.13417320450E+04 -0.13769573012E+04  0.19388559247E+04  0.50400001928E-02 0. -1.
</event>
<event>
 5   0  0.8263673E-07  0.2891164E+04  0.7818609E-02  0.8275511E-01
       -1   -1    0    0    0  501  0.00000000000E+00  0.00000000000E+00  0.18902069039E+04  0.18902069039E+04  0.50400001928E-02 0.  1.
        1   -1    0    0  501    0  0.00000000000E+00  0.00000000000E+00 -0.11055442664E+04  0.11055442664E+04  0.50400001928E-02 0. -1.
    10030    2    1    2    0    0  0.00000000000E+00  0.00000000000E+00  0.78466263746E+03  0.29957511703E+04  0.28911640597E+04 0.  0.
        5    1    3    3  502    0  0.67791818796E+03 -0.16533035946E+03  0.17041375919E+04  0.18414706675E+04  0.46999998093E+01 0.  1.
       -5    1    3    3    0  502 -0.67791818796E+03  0.16533035946E+03 -0.91947495442E+03  0.11542805028E+04  0.46999998093E+01 0. -1.
</event>
<event>
 5   0  0.8263673E-07  0.2901464E+04  0.7818609E-02  0.8272442E-01
        1   -1    0    0  501    0  0.00000000000E+00  0.00000000000E+00  0.18366566270E+04  0.18366566270E+04  0.50400001928E-02 0. -1.
       -1   -1    0    0    0  501  0.00000000000E+00  0.00000000000E+00 -0.11458995775E+04  0.11458995775E+04  0.50400001928E-02 0.  1.
    10030    2    1    2    0    0  0.00000000000E+00  0.00000000000E+00  0.69075704945E+03  0.29825562045E+04  0.29014644943E+04 0.  0.
        5    1    3    3  502    0  0.41030378276E+03  0.12776693588E+04 -0.22121956900E+03  0.13600545475E+04  0.46999998093E+01 0.  1.
       -5    1    3    3    0  502 -0.41030378276E+03 -0.12776693588E+04  0.91197661846E+03  0.16225016570E+04  0.46999998093E+01 0. -1.
</event>
<event>
 5   0  0.8357118E-07  0.2872925E+04  0.7818609E-02  0.8280979E-01
        1   -1    0    0  501    0  0.00000000000E+00  0.00000000000E+00  0.22294178341E+04  0.22294178341E+04  0.50400001928E-02 0.  1.
       -1   -1    0    0    0  501  0.00000000000E+00  0.00000000000E+00 -0.92554382221E+03  0.92554382222E+03  0.50400001928E-02 0. -1.
    10030    2    1    2    0    0  0.00000000000E+00  0.00000000000E+00  0.13038740119E+04  0.31549616563E+04  0.28729245751E+04 0.  0.
        1    1    3    3  502    0 -0.20944352052E+03  0.13977438479E+04  0.37009100152E+03  0.14610002745E+04  0.50400001928E-02 0.  1.
       -1    1    3    3    0  502  0.20944352052E+03 -0.13977438479E+04  0.93378301038E+03  0.16939613818E+04  0.50400001928E-02 0. -1.
</event>
<event>
 5   0  0.8947674E-07  0.2904112E+04  0.7818609E-02  0.8271655E-01
       -1   -1    0    0    0  501  0.00000000000E+00  0.00000000000E+00  0.12118370918E+04  0.12118370918E+04  0.50400001928E-02 0. -1.
        1   -1    0    0  501    0  0.00000000000E+00  0.00000000000E+00 -0.17398924347E+04  0.17398924347E+04  0.50400001928E-02 0.  1.
    10030    2    1    2    0    0  0.00000000000E+00  0.00000000000E+00 -0.52805534290E+03  0.29517295266E+04  0.29041116977E+04 0.  0.
        3    1    3    3  502    0 -0.66990457070E+03 -0.82349311291E+03 -0.12710060629E+04  0.16560101035E+04  0.10100000352E+00 0.  1.
       -3    1    3    3    0  502  0.66990457070E+03  0.82349311291E+03  0.74295071995E+03  0.12957194231E+04  0.10100000352E+00 0. -1.
</event>
<event>
 5   0  0.8947674E-07  0.2899498E+04  0.7818609E-02  0.8273027E-01
        1   -1    0    0  501    0  0.00000000000E+00  0.00000000000E+00  0.10274418935E+04  0.10274418935E+04  0.50400001928E-02 0.  1.
       -1   -1    0    0    0  501  0.00000000000E+00  0.00000000000E+00 -0.20456357794E+04  0.20456357794E+04  0.50400001928E-02 0. -1.
    10030    2    1    2    0    0  0.00000000000E+00  0.00000000000E+00 -0.10181938859E+04  0.30730776730E+04  0.28994978177E+04 0.  0.
        3    1    3    3  502    0  0.62605059177E+03  0.13066527832E+04 -0.56199526587E+03  0.15540654839E+04  0.10100000352E+00 0. -1.
       -3    1    3    3    0  502 -0.62605059177E+03 -0.13066527832E+04 -0.45619862007E+03  0.15190121890E+04  0.10100000352E+00 0.  1.
</event>
<event>
 5   0  0.8355946E-07  0.2901226E+04  0.7818609E-02  0.8272513E-01
       -1   -1    0    0    0  501  0.00000000000E+00  0.00000000000E+00  0.90011133441E+03  0.90011133442E+03  0.50400001928E-02 0. -1.
        1   -1    0    0  501    0  0.00000000000E+00  0.00000000000E+00 -0.23377980325E+04  0.23377980325E+04  0.50400001928E-02 0.  1.
    10030    2    1    2    0    0  0.00000000000E+00  0.00000000000E+00 -0.14376866981E+04  0.32379093669E+04  0.29012262970E+04 0.  0.
        4    1    3    3  502    0 -0.19412425710E+03  0.13177307785E+04 -0.13601375627E+04  0.19037001955E+04  0.12699999809E+01 0.  1.
       -4    1    3    3    0  502  0.19412425710E+03 -0.13177307785E+04 -0.77549135426E+02  0.13342091715E+04  0.12699999809E+01 0. -1.
</event>
<event>
 5   0  0.8947674E-07  0.2895933E+04  0.7818609E-02  0.8274089E-01
        1   -1    0    0  501    0  0.00000000000E+00  0.00000000000E+00  0.14170051516E+04  0.14170051516E+04  0.50400001928E-02 0. -1.
       -1   -1    0    0    0  501  0.00000000000E+00  0.00000000000E+00 -0.14796042064E+04  0.14796042064E+04  0.50400001928E-02 0.  1.
    10030    2    1    2    0    0  0.00000000000E+00  0.00000000000E+00 -0.62599054825E+02  0.28966093580E+04  0.28959328603E+04 0.  0.
        3    1    3    3  502    0 -0.29989489030E+03 -0.13055342792E+04  0.51860164786E+03  0.14364206831E+04  0.10100000352E+00 0.  1.
       -3    1    3    3    0  502  0.29989489030E+03  0.13055342792E+04 -0.58120070269E+03  0.14601886749E+04  0.10100000352E+00 0. -1.
</event>
<event>
 5   0  0.8357118E-07  0.2895277E+04  0.7818609E-02  0.8274284E-01
       -1   -1    0    0    0  501  0.00000000000E+00  0.00000000000E+00  0.10829955432E+04  0.10829955432E+04  0.50400001928E-02 0.  1.
        1   -1    0    0  501    0  0.00000000000E+00  0.00000000000E+00 -0.19350563409E+04  0.19350563409E+04  0.50400001928E-02 0. -1.
    10030    2    1    2    0    0  0.00000000000E+00  0.00000000000E+00 -0.85206079771E+03  0.30180518841E+04  0.28952771149E+04 0.  0.
        1    1    3    3  502    0 -0.71314408013E+02  0.12361868570E+04  0.35571351839E+03  0.12883228623E+04  0.50400001928E-02 0.  1.
       -1    1    3    3    0  502  0.71314408013E+02 -0.12361868570E+04 -0.12077743161E+04  0.17297290218E+04  0.50400001928E-02 0. -1.
</event>
<event>
 5   0  0.8263673E-07  0.2895093E+04  0.7818609E-02  0.8274339E-01
       -1   -1    0    0    0  501  0.00000000000E+00  0.00000000000E+00  0.12199832144E+04  0.12199832144E+04  0.50400001928E-02 0. -1.
        1   -1    0    0  501    0  0.00000000000E+00  0.00000000000E+00 -0.17175574325E+04  0.17175574325E+04  0.50400001928E-02 0.  1.
    10030    2    1    2    0    0  0.00000000000E+00  0.00000000000E+00 -0.49757421806E+03  0.29375406470E+04  0.28950932541E+04 0.  0.
        5    1    3    3  502    0 -0.21985128009E+03 -0.13754167766E+04  0.15102474590E+03  0.14010483427E+04  0.46999998093E+01 0. -1.
       -5    1    3    3    0  502  0.21985128009E+03  0.13754167766E+04 -0.64859896396E+03  0.15364923042E+04  0.46999998093E+01 0.  1.
</event>
<event>
 5   0  0.2378690E-06  0.2874010E+04  0.7818609E-02  0.8280653E-01
       -2   -1    0    0    0  501  0.00000000000E+00  0.00000000000E+00  0.15921522700E+04  0.15921522700E+04  0.25500000920E-02 0.  1.
        2   -1    0    0  501    0  0.00000000000E+00  0.00000000000E+00 -0.12969756574E+04  0.12969756574E+04  0.25500000920E-02 0. -1.
    10030    2    1    2    0    0  0.00000000000E+00  0.00000000000E+00  0.29517661265E+03  0.28891279274E+04  0.28740095595E+04 0.  0.
        3    1    3    3  502    0 -0.81514565412E+03 -0.28687303229E+03  0.13017673811E+04  0.15624842075E+04  0.10100000352E+00 0.  1.
       -3    1    3    3    0  502  0.81514565412E+03  0.28687303229E+03 -0.10065907684E+04  0.13266437198E+04  0.10100000352E+00 0. -1.
</event>
<event>
 5   0  0.2425845E-06  0.2864234E+04  0.7818609E-02  0.8283599E-01
        2   -1    0    0  501    0  0.00000000000E+00  0.00000000000E+00  0.22115535520E+04  0.22115535520E+04  0.25500000920E-02 0.  1.
       -2   -1    0    0    0  501  0.00000000000E+00  0.00000000000E+00 -0.92738407199E+03  0.92738407200E+03  0.25500000920E-02 0. -1.
    10030    2    1    2    0    0  0.00000000000E+00  0.00000000000E+00  0.12841694800E+04  0.31389376240E+04  0.28642343050E+04 0.  0.
        2    1    3    3  502    0  0.60495242521E+03 -0.31356643934E+03 -0.73835419852E+03  0.10047180058E+04  0.25500000920E-02 0. -1.
       -2    1    3    3    0  502 -0.60495242521E+03  0.31356643934E+03  0.20225236785E+04  0.21342196182E+04  0.25500000920E-02 0.  1.
</event>
<event>
 5   0  0.8263673E-07  0.2891504E+04  0.7818609E-02  0.8275410E-01
        1   -1    0    0  501    0  0.00000000000E+00  0.00000000000E+00  0.23323824763E+04  0.23323824763E+04  0.50400001928E-02 0.  1.
       -1   -1    0    0    0  501  0.00000000000E+00  0.00000000000E+00 -0.89616449899E+03  0.89616449901E+03  0.50400001928E-02 0. -1.
    10030    2    1    2    0    0  0.00000000000E+00  0.00000000000E+00  0.14362179773E+04  0.32285469753E+04  0.28915036735E+04 0.  0.
        5    1    3    3  502    0  0.38083263655E+03 -0.11112877539E+04  0.16590627613E+04  0.20328564398E+04  0.46999998093E+01 0.  1.
       -5    1    3    3    0  502 -0.38083263655E+03  0.11112877539E+04 -0.22284478395E+03  0.11956905355E+04  0.46999998093E+01 0. -1.
</event>
<event>
 5   0  0.2378690E-06  0.3046286E+04  0.7818609E-02  0.8230636E-01
        2   -1    0    0  501    0  0.00000000000E+00  0.00000000000E+00  0.21436861936E+04  0.21436861936E+04  0.25500000920E-02 0. -1.
       -2   -1    0    0    0  501  0.00000000000E+00  0.00000000000E+00 -0.10822316873E+04  0.10822316873E+04  0.25500000920E-02 0.  1.
    10030    2    1    2    0    0  0.00000000000E+00  0.00000000000E+00  0.10614545063E+04  0.32259178809E+04  0.30462863466E+04 0.  0.
        3    1    3    3  502    0 -0.92771451049E+03  0.57106622959E+03 -0.59656044508E+03  0.12420367251E+04  0.10100000352E+00 0.  1.
       -3    1    3    3    0  502  0.92771451049E+03 -0.57106622959E+03  0.16580149514E+04  0.19838811559E+04  0.10100000352E+00 0. -1.
</event>
<event>
 5   0  0.2304435E-06  0.2890415E+04  0.7818609E-02  0.8275735E-01
        2   -1    0    0  501    0  0.00000000000E+00  0.00000000000E+00  0.23247977158E+04  0.23247977158E+04  0.25500000920E-02 0.  1.
       -2   -1    0    0    0  501  0.00000000000E+00  0.00000000000E+00 -0.89841107753E+03  0.89841107753E+03  0.25500000920E-02 0. -1.
    10030    2    1    2    0    0  0.00000000000E+00  0.00000000000E+00  0.14263866383E+04  0.32232087933E+04  0.28904145176E+04 0.  0.
        1    1    3    3  502    0 -0.14230510862E+04 -0.49053795776E+02  0.98893532552E+03  0.17336302221E+04  0.50400001928E-02 0.  1.
       -1    1    3    3    0  502  0.14230510862E+04  0.49053795776E+02  0.43745131277E+03  0.14895785713E+04  0.50400001928E-02 0. -1.
</event>
<event>
 5   0  0.2360103E-06  0.2947247E+04  0.7818609E-02  0.8258957E-01
       -2   -1    0    0    0  501  0.00000000000E+00  0.00000000000E+00  0.19418441272E+04  0.19418441272E+04  0.25500000920E-02 0.  1.
        2   -1    0    0  501    0  0.00000000000E+00  0.00000000000E+00 -0.11183006572E+04  0.11183006572E+04  0.25500000920E-02 0. -1.
    10030    2    1    2    0    0  0.00000000000E+00  0.00000000000E+00  0.82354347001E+03  0.30601447844E+04  0.29472465547E+04 0.  0.
        4    1    3    3  502    0  0.83299125241E+03  0.83183640762E+03  0.13321456591E+04  0.17777626123E+04  0.12699999809E+01 0.  1.
       -4    1    3    3    0  502 -0.83299125241E+03 -0.83183640762E+03 -0.50860218910E+03  0.12823821721E+04  0.12699999809E+01 0. -1.
</event>
<event>
 5   0  0.2425845E-06  0.2872358E+04  0.7818609E-02  0.8281149E-01
        2   -1    0    0  501    0  0.00000000000E+00  0.00000000000E+00  0.20240957050E+04  0.20240957050E+04  0.25500000920E-02 0. -1.
       -2   -1    0    0    0  501  0.00000000000E+00  0.00000000000E+00 -0.10190281657E+04  0.10190281657E+04  0.25500000920E-02 0.  1.
    10030    2    1    2    0    0  0.00000000000E+00  0.00000000000E+00  0.10050675393E+04  0.30431238707E+04  0.28723582879E+04 0.  0.
        2    1    3    3  502    0  0.17258343014E+03 -0.67472273212E+03  0.18332210010E+04  0.19610545745E+04  0.25500000920E-02 0. -1.
       -2    1    3    3    0  502 -0.17258343014E+03  0.67472273212E+03 -0.82815346172E+03  0.10820692962E+04  0.25500000920E-02 0.  1.
</event>
<event>
 5   0  0.8263673E-07  0.2921083E+04  0.7818609E-02  0.8266632E-01
        1   -1    0    0  501    0  0.00000000000E+00  0.00000000000E+00  0.19349979476E+04  0.19349979476E+04  0.50400001928E-02 0.  1.
       -1   -1    0    0    0  501  0.00000000000E+00  0.00000000000E+00 -0.11024206194E+04  0.11024206194E+04  0.50400001928E-02 0. -1.
    10030    2    1    2    0    0  0.00000000000E+00  0.00000000000E+00  0.83257732824E+03  0.30374185670E+04  0.29210831114E+04 0.  0.
        5    1    3    3  502    0 -0.58994932588E+03  0.79192410686E+03 -0.70266067458E+03  0.12119975708E+04  0.46999998093E+01 0. -1.
       -5    1    3    3    0  502  0.58994932588E+03 -0.79192410686E+03  0.15352380028E+04  0.18254209962E+04  0.46999998093E+01 0.  1.
</event>
<event>
 5   0  0.2425845E-06  0.2902064E+04  0.7818609E-02  0.8272264E-01
        2   -1    0    0  501    0  0.00000000000E+00  0.00000000000E+00  0.26317168448E+04  0.26317168448E+04  0.25500000920E-02 0. -1.
       -2   -1    0    0    0  501  0.00000000000E+00  0.00000000000E+00 -0.80004550863E+03  0.80004550863E+03  0.25500000920E-02 0.  1.
    10030    2    1    2    0    0  0.00000000000E+00  0.00000000000E+00  0.18316713362E+04  0.34317623535E+04  0.29020635704E+04 0.  0.
        2    1    3    3  502    0 -0.15049380963E+03 -0.23429390187E+03 -0.76815250325E+03  0.81706810454E+03  0.25500000920E-02 0.  1.
       -2    1    3    3    0  502  0.15049380963E+03  0.23429390187E+03  0.25998238394E+04  0.26146942489E+04  0.25500000920E-02 0. -1.
</event>
<event>
 5   0  0.8263673E-07  0.2894058E+04  0.7818609E-02  0.8274648E-01
       -1   -1    0    0    0  501  0.00000000000E+00  0.00000000000E+00  0.23516989439E+04  0.23516989439E+04  0.50400001928E-02 0. -1.
        1   -1    0    0  501    0  0.00000000000E+00  0.00000000000E+00 -0.89037428902E+03  0.89037428903E+03  0.50400001928E-02 0.  1.
    10030    2    1    2    0    0  0.00000000000E+00  0.00000000000E+00  0.14613246549E+04  0.32420732330E+04  0.28940575497E+04 0.  0.
        5    1    3    3  502    0  0.98976776620E+03  0.10842149538E+03  0.19069132584E+04  0.21512172639E+04  0.46999998093E+01 0. -1.
       -5    1    3    3    0  502 -0.98976776620E+03 -0.10842149538E+03 -0.44558860346E+03  0.10908559690E+04  0.46999998093E+01 0.  1.
</event>
<event>
 5   0  0.8355946E-07  0.2903871E+04  0.7818609E-02  0.8271727E-01
        1   -1    0    0  501    0  0.00000000000E+00  0.00000000000E+00  0.19312827615E+04  0.19312827615E+04  0.50400001928E-02 0. -1.
       -1   -1    0    0    0  501  0.00000000000E+00  0.00000000000E+00 -0.10915631262E+04  0.10915631262E+04  0.50400001928E-02 0.  1.
    10030    2    1    2    0    0  0.00000000000E+00  0.00000000000E+00  0.83971963528E+03  0.30228458876E+04  0.29038712428E+04 0.  0.
        4    1    3    3  502    0 -0.14347298662E+04  0.12067953072E+03  0.61489150796E+03  0.15656010085E+04  0.12699999809E+01 0. -1.
       -4    1    3    3    0  502  0.14347298662E+04 -0.12067953072E+03  0.22482812732E+03  0.14572448792E+04  0.12699999809E+01 0.  1.
</event>
<event>
 5   0  0.8483636E-07  0.2912392E+04  0.7818609E-02  0.8269200E-01
       -1   -1    0    0    0  501  0.00000000000E+00  0.00000000000E+00  0.12423626231E+04  0.12423626231E+04  0.50400001928E-02 0.  1.
        1   -1    0    0  501    0  0.00000000000E+00  0.00000000000E+00 -0.17068345030E+04  0.17068345030E+04  0.50400001928E-02 0. -1.
    10030    2    1    2    0    0  0.00000000000E+00  0.00000000000E+00 -0.46447187992E+03  0.29491971261E+04  0.29123924119E+04 0.  0.
        2    1    3    3  502    0  0.13126544196E+04 -0.23917970194E+03  0.35843533692E+03  0.13815731779E+04  0.25500000920E-02 0.  1.
       -2    1    3    3    0  502 -0.13126544196E+04  0.23917970194E+03 -0.82290721684E+03  0.15676239481E+04  0.25500000920E-02 0. -1.
</event>
<event>
 5   0  0.8355946E-07  0.2896310E+04  0.7818609E-02  0.8273976E-01
        1   -1    0    0  501    0  0.00000000000E+00  0.00000000000E+00  0.13263775191E+04  0.13263775191E+04  0.50400001928E-02 0. -1.
       -1   -1    0    0    0  501  0.00000000000E+00  0.00000000000E+00 -0.15811136347E+04  0.15811136347E+04  0.50400001928E-02 0.  1.
    10030    2    1    2    0    0  0.00000000000E+00  0.00000000000E+00 -0.25473611553E+03  0.29074911538E+04  0.28963104669E+04 0.  0.
        4    1    3    3  502    0 -0.55131086996E+03  0.13390345264E+04 -0.11335605325E+03  0.14525179331E+04  0.12699999809E+01 0. -1.
       -4    1    3    3    0  502  0.55131086996E+03 -0.13390345264E+04 -0.14138006228E+03  0.14549732207E+04  0.12699999809E+01 0.  1.
</event>
<event>
 5   0  0.2304435E-06  0.2883750E+04  0.7818609E-02  0.8277729E-01
       -2   -1    0    0    0  501  0.00000000000E+00  0.00000000000E+00  0.12054595514E+04  0.12054595514E+04  0.25500000920E-02 0. -1.
        2   -1    0    0  501    0  0.00000000000E+00  0.00000000000E+00 -0.17246560255E+04  0.17246560255E+04  0.25500000920E-02 0.  1.
    10030    2    1    2    0    0  0.00000000000E+00  0.00000000000E+00 -0.51919647407E+03  0.29301155770E+04  0.28837496971E+04 0.  0.
        1    1    3    3  502    0 -0.13208641003E+04  0.19346186020E+03  0.29404196556E+03  0.13669565247E+04  0.50400001928E-02 0. -1.
       -1    1    3    3    0  502  0.13208641003E+04 -0.19346186020E+03 -0.81323843964E+03  0.15631590522E+04  0.50400001928E-02 0.  1.
</event>
<event>
 5   0  0.2360103E-06  0.2900024E+04  0.7818609E-02  0.8272870E-01
        2   -1    0    0  501    0  0.00000000000E+00  0.00000000000E+00  0.14402771128E+04  0.14402771128E+04  0.25500000920E-02 0.  1.
       -2   -1    0    0    0  501  0.00000000000E+00  0.00000000000E+00 -0.14598123633E+04  0.14598123633E+04  0.25500000920E-02 0. -1.
    10030    2    1    2    0    0  0.00000000000E+00  0.00000000000E+00 -0.19535250424E+02  0.29000894761E+04  0.29000236798E+04 0.  0.
        4    1    3    3  502    0  0.46717042464E+03  0.13491898546E+04  0.24316350435E+03  0.14483409724E+04  0.12699999809E+01 0.  1.
       -4    1    3    3    0  502 -0.46717042464E+03 -0.13491898546E+04 -0.26269875477E+03  0.14517485037E+04  0.12699999809E+01 0. -1.
</event>
<event>
 5   0  0.8947674E-07  0.2874713E+04  0.7818609E-02  0.8280441E-01
        1   -1    0    0  501    0  0.00000000000E+00  0.00000000000E+00  0.15011104571E+04  0.15011104571E+04  0.50400001928E-02 0. -1.
       -1   -1    0    0    0  501  0.00000000000E+00  0.00000000000E+00 -0.13763106111E+04  0.13763106111E+04  0.50400001928E-02 0.  1.
    10030    2    1    2    0    0  0.00000000000E+00  0.00000000000E+00  0.12479984597E+03  0.28774210682E+04  0.28747133774E+04 0.  0.
        3    1    3    3  502    0  0.14274902762E+04 -0.97726029833E+02  0.19933292683E+03  0.14446496085E+04  0.10100000352E+00 0. -1.
       -3    1    3    3    0  502 -0.14274902762E+04  0.97726029833E+02 -0.74533080852E+02  0.14327714597E+04  0.10100000352E+00 0.  1.
</event>
<event>
 5   0  0.2378690E-06  0.2889578E+04  0.7818609E-02  0.8275985E-01
       -2   -1    0    0    0  501  0.00000000000E+00  0.00000000000E+00  0.94741070179E+03  0.94741070180E+03  0.25500000920E-02 0.  1.
        2   -1    0    0  501    0  0.00000000000E+00  0.00000000000E+00 -0.22032838777E+04  0.22032838777E+04  0.25500000920E-02 0. -1.
    10030    2    1    2    0    0  0.00000000000E+00  0.00000000000E+00 -0.12558731759E+04  0.31506945795E+04  0.28895776334E+04 0.  0.
        3    1    3    3  502    0  0.96391369204E+03 -0.10501397512E+04 -0.88479015939E+03  0.16777296383E+04  0.10100000352E+00 0. -1.
       -3    1    3    3    0  502 -0.96391369204E+03  0.10501397512E+04 -0.37108301654E+03  0.14729649412E+04  0.10100000352E+00 0.  1.
</event>
<event>
 5   0  0.8947674E-07  0.2880683E+04  0.7818609E-02  0.8278648E-01
       -1   -1    0    0    0  501  0.00000000000E+00  0.00000000000E+00  0.14584576106E+04  0.14584576106E+04  0.50400001928E-02 0. -1.
        1   -1    0    0  501    0  0.00000000000E+00  0.00000000000E+00 -0.14224506975E+04  0.14224506976E+04  0.50400001928E-02 0.  1.
    10030    2    1    2    0    0  0.00000000000E+00  0.00000000000E+00  0.36006913015E+02  0.28809083081E+04  0.28806832839E+04 0.  0.
        3    1    3    3  502    0  0.11890259665E+04  0.79514096873E+03 -0.15098348656E+03  0.14383420778E+04  0.10100000352E+00 0.  1.
       -3    1    3    3    0  502 -0.11890259665E+04 -0.79514096873E+03  0.18699039958E+03  0.14425662304E+04  0.10100000352E+00 0. -1.
</event>
<event>
 5   0  0.8483636E-07  0.2898112E+04  0.7818609E-02  0.8273439E-01
       -1   -1    0    0    0  501  0.00000000000E+00  0.00000000000E+00  0.80336591039E+03  0.80336591041E+03  0.50400001928E-02 0.  1.
        1   -1    0    0  501    0  0.00000000000E+00  0.00000000000E+00 -0.26137080664E+04  0.26137080664E+04  0.50400001928E-02 0. -1.
    10030    2    1    2    0    0  0.00000000000E+00  0.00000000000E+00 -0.18103421560E+04  0.34170739768E+04  0.28981124618E+04 0.  0.
        2    1    3    3  502    0  0.16130123138E+03 -0.56845077582E+03 -0.24652041242E+04  0.25350317050E+04  0.25500000920E-02 0. -1.
       -2    1    3    3    0  502 -0.16130123138E+03  0.56845077582E+03  0.65486196818E+03  0.88204227175E+03  0.25500000920E-02 0.  1.
</event>
<event>
 5   0  0.2425845E-06  0.2899592E+04  0.7818609E-02  0.8272999E-01
       -2   -1    0    0    0  501  0.00000000000E+00  0.00000000000E+00  0.11933235611E+04  0.11933235611E+04  0.25500000920E-02 0.  1.
        2   -1    0    0  501    0  0.00000000000E+00  0.00000000000E+00 -0.17613904934E+04  0.17613904934E+04  0.25500000920E-02 0. -1.
    10030    2    1    2    0    0  0.00000000000E+00  0.00000000000E+00 -0.56806693236E+03  0.29547140545E+04  0.28995922307E+04 0.  0.
        2    1    3    3  502    0 -0.41663966762E+03 -0.81602459149E+03 -0.14289693232E+04  0.16974799183E+04  0.25500000920E-02 0. -1.
       -2    1    3    3    0  502  0.41663966762E+03  0.81602459149E+03  0.86090239082E+03  0.12572341361E+04  0.25500000920E-02 0.  1.
</event>
<event>
 5   0  0.7621125E-07  0.2880937E+04  0.7818609E-02  0.8278572E-01
        3   -1    0    0  501    0  0.00000000000E+00  0.00000000000E+00  0.29788430660E+04  0.29788430677E+04  0.10100000352E+00 0. -1.
       -3   -1    0    0    0  501  0.00000000000E+00  0.00000000000E+00 -0.69656199640E+03  0.69656200372E+03  0.10100000352E+00 0.  1.
    10030    2    1    2    0    0  0.00000000000E+00  0.00000000000E+00  0.22822810696E+04  0.36754050715E+04  0.28809365766E+04 0.  0.
        4    1    3    3  502    0 -0.70334060939E+03  0.15726403837E+03 -0.45000655791E+03  0.84966317188E+03  0.12699999809E+01 0.  1.
       -4    1    3    3    0  502  0.70334060939E+03 -0.15726403837E+03  0.27322876275E+04  0.28257418996E+04  0.12699999809E+01 0. -1.
</event>
<event>
 5   0  0.8357118E-07  0.2852146E+04  0.7818609E-02  0.8287259E-01
       -1   -1    0    0    0  501  0.00000000000E+00  0.00000000000E+00  0.14052713303E+04  0.14052713304E+04  0.50400001928E-02 0.  1.
        1   -1    0    0  501    0  0.00000000000E+00  0.00000000000E+00 -0.14471829536E+04  0.14471829536E+04  0.50400001928E-02 0. -1.
    10030    2    1    2    0    0  0.00000000000E+00  0.00000000000E+00 -0.41911623215E+02  0.28524542839E+04  0.28521463598E+04 0.  0.
        1    1    3    3  502    0 -0.11174013699E+04 -0.56309715689E+02  0.86340664537E+03  0.14132330455E+04  0.50400001928E-02 0.  1.
       -1    1    3    3    0  502  0.11174013699E+04  0.56309715689E+02 -0.90531826858E+03  0.14392212384E+04  0.50400001928E-02 0. -1.
</event>
<event>
 5   0  0.2360103E-06  0.2896461E+04  0.7818609E-02  0.8273931E-01
        2   -1    0    0  501    0  0.00000000000E+00  0.00000000000E+00  0.19570529863E+04  0.19570529863E+04  0.25500000920E-02 0.  1.
       -2   -1    0    0    0  501  0.00000000000E+00  0.00000000000E+00 -0.10716989960E+04  0.10716989960E+04  0.25500000920E-02 0. -1.
    10030    2    1    2    0    0  0.00000000000E+00  0.00000000000E+00  0.88535399028E+03  0.30287519823E+04  0.28964610962E+04 0.  0.
        4    1    3    3  502    0 -0.13528566135E+04 -0.18668949697E+03 -0.61307286856E+02  0.13670531011E+04  0.12699999809E+01 0. -1.
       -4    1    3    3    0  502  0.13528566135E+04  0.18668949697E+03  0.94666127714E+03  0.16616988811E+04  0.12699999809E+01 0.  1.
</event>
<event>
 5   0  0.8357118E-07  0.2897344E+04  0.7818609E-02  0.8273668E-01
       -1   -1    0    0    0  501  0.00000000000E+00  0.00000000000E+00  0.13963238597E+04  0.13963238598E+04  0.50400001928E-02 0.  1.
        1   -1    0    0  501    0  0.00000000000E+00  0.00000000000E+00 -0.15029828374E+04  0.15029828374E+04  0.50400001928E-02 0. -1.
    10030    2    1    2    0    0  0.00000000000E+00  0.00000000000E+00 -0.10665897765E+03  0.28993066972E+04  0.28973441609E+04 0.  0.
        1    1    3    3  502    0  0.79676675206E+03  0.11992622900E+04  0.10672727984E+03  0.14437652198E+04  0.50400001928E-02 0. -1.
       -1    1    3    3    0  502 -0.79676675206E+03 -0.11992622900E+04 -0.21338625749E+03  0.14555414774E+04  0.50400001928E-02 0.  1.
</event>
<event>
 5   0  0.2304435E-06  0.2888422E+04  0.7818609E-02  0.8276331E-01
       -2   -1    0    0    0  501  0.00000000000E+00  0.00000000000E+00  0.18409801693E+04  0.18409801693E+04  0.25500000920E-02 0.  1.
        2   -1    0    0  501    0  0.00000000000E+00  0.00000000000E+00 -0.11329539632E+04  0.11329539632E+04  0.25500000920E-02 0. -1.
    10030    2    1    2    0    0  0.00000000000E+00  0.00000000000E+00  0.70802620617E+03  0.29739341325E+04  0.28884222538E+04 0.  0.
        1    1    3    3  502    0 -0.11977851153E+04 -0.80169457232E+03  0.25997228304E+03  0.14645780818E+04  0.50400001928E-02 0.  1.
       -1    1    3    3    0  502  0.11977851153E+04  0.80169457232E+03  0.44805392313E+03  0.15093560507E+04  0.50400001928E-02 0. -1.
</event>
<event>
 5   0  0.2325590E-06  0.2881865E+04  0.7818609E-02  0.8278294E-01
       -2   -1    0    0    0  501  0.00000000000E+00  0.00000000000E+00  0.10134065301E+04  0.10134065301E+04  0.25500000920E-02 0. -1.
        2   -1    0    0  501    0  0.00000000000E+00  0.00000000000E+00 -0.20488192775E+04  0.20488192775E+04  0.25500000920E-02 0.  1.
    10030    2    1    2    0    0  0.00000000000E+00  0.00000000000E+00 -0.10354127474E+04  0.30622258075E+04  0.28818652534E+04 0.  0.
        5    1    3    3  502    0 -0.45106656946E+03  0.18538845073E+03  0.92304041299E+03  0.10439615040E+04  0.46999998093E+01 0. -1.
       -5    1    3    3    0  502  0.45106656946E+03 -0.18538845073E+03 -0.19584531604E+04  0.20182643036E+04  0.46999998093E+01 0.  1.
</event>
<event>
 5   0  0.8355946E-07  0.2902152E+04  0.7818609E-02  0.8272237E-01
       -1   -1    0    0    0  501  0.00000000000E+00  0.00000000000E+00  0.11399094572E+04  0.11399094572E+04  0.50400001928E-02 0.  1.
        1   -1    0    0  501    0  0.00000000000E+00  0.00000000000E+00 -0.18471834395E+04  0.18471834395E+04  0.50400001928E-02 0. -1.
    10030    2    1    2    0    0  0.00000000000E+00  0.00000000000E+00 -0.70727398228E+03  0.29870928967E+04  0.29021522165E+04 0.  0.
        4    1    3    3  502    0 -0.10442264045E+04  0.99962293293E+03 -0.48368968611E+03  0.15243398956E+04  0.12699999809E+01 0.  1.
       -4    1    3    3    0  502  0.10442264045E+04 -0.99962293293E+03 -0.22358429617E+03  0.14627530011E+04  0.12699999809E+01 0. -1.
</event>
<event>
 5   0  0.2325590E-06  0.2889354E+04  0.7818609E-02  0.8276052E-01
       -2   -1    0    0    0  501  0.00000000000E+00  0.00000000000E+00  0.12445178518E+04  0.12445178518E+04  0.25500000920E-02 0. -1.
        2   -1    0    0  501    0  0.00000000000E+00  0.00000000000E+00 -0.16770283395E+04  0.16770283395E+04  0.25500000920E-02 0.  1.
    10030    2    1    2    0    0  0.00000000000E+00  0.00000000000E+00 -0.43251048771E+03  0.29215461912E+04  0.28893540499E+04 0.  0.
        5    1    3    3  502    0 -0.36295230699E+03  0.48477693662E+03 -0.15424809534E+04  0.16571097239E+04  0.46999998093E+01 0.  1.
       -5    1    3    3    0  502  0.36295230699E+03 -0.48477693662E+03  0.11099704656E+04  0.12644364674E+04  0.46999998093E+01 0. -1.
</event>
<event>
 5   0  0.8483636E-07  0.2909802E+04  0.7818609E-02  0.8269967E-01
        1   -1    0    0  501    0  0.00000000000E+00  0.00000000000E+00  0.15170645929E+04  0.15170645929E+04  0.50400001928E-02 0.  1.
       -1   -1    0    0    0  501  0.00000000000E+00  0.00000000000E+00 -0.13952847506E+04  0.13952847507E+04  0.50400001928E-02 0. -1.
    10030    2    1    2    0    0  0.00000000000E+00  0.00000000000E+00  0.12177984226E+03  0.29123493436E+04  0.29098021185E+04 0.  0.
        2    1    3    3  502    0 -0.35796840035E+03 -0.14067321147E+04  0.15946712384E+03  0.14602966760E+04  0.25500000920E-02 0.  1.
       -2    1    3    3    0  502  0.35796840035E+03  0.14067321147E+04 -0.37687281578E+02  0.14520526676E+04  0.25500000920E-02 0. -1.
</event>
<event>
 5   0  0.2425845E-06  0.2902190E+04  0.7818609E-02  0.8272226E-01
        2   -1    0    0  501    0  0.00000000000E+00  0.00000000000E+00  0.20935421580E+04  0.20935421580E+04  0.25500000920E-02 0.  1.
       -2   -1    0    0    0  501  0.00000000000E+00  0.00000000000E+00 -0.10057964810E+04  0.10057964811E+04  0.25500000920E-02 0. -1.
    10030    2    1    2    0    0  0.00000000000E+00  0.00000000000E+00  0.10877456770E+04  0.30993386391E+04  0.29021904386E+04 0.  0.
        2    1    3    3  502    0 -0.24329307255E+03 -0.25033943626E+03  0.20480320791E+04  0.20775699145E+04  0.25500000920E-02 0.  1.
       -2    1    3    3    0  502  0.24329307255E+03  0.25033943626E+03 -0.96028640212E+03  0.10217687246E+04  0.25500000920E-02 0. -1.
</event>
<event>
 5   0  0.8263673E-07  0.2914980E+04  0.7818609E-02  0.8268435E-01
        1   -1    0    0  501    0  0.00000000000E+00  0.00000000000E+00  0.12726960485E+04  0.12726960486E+04  0.50400001928E-02 0. -1.
       -1   -1    0    0    0  501  0.00000000000E+00  0.00000000000E+00 -0.16691153556E+04  0.16691153556E+04  0.50400001928E-02 0.  1.
    10030    2    1    2    0    0  0.00000000000E+00  0.00000000000E+00 -0.39641930706E+03  0.29418114042E+04  0.29149796004E+04 0.  0.
        5    1    3    3  502    0 -0.43683754777E+02 -0.60162307525E+01  0.12720150432E+04  0.12727878164E+04  0.46999998093E+01 0. -1.
       -5    1    3    3    0  502  0.43683754777E+02  0.60162307525E+01 -0.16684343502E+04  0.16690235878E+04  0.46999998093E+01 0.  1.
</event>
</LesHouchesEvents>
