<LesHouchesEvents version="3.0">
<header>
<!--
#*********************************************************************
#                                                                    *
#                        MadGraph5_aMC@NLO                           *
#                                                                    *
#                           Going Beyond                             *
#                                                                    *
#                   http://madgraph.hep.uiuc.edu                     *
#                   http://madgraph.phys.ucl.ac.be                   *
#                   http://amcatnlo.cern.ch                          *
#                                                                    *
#                     The MadGraph5_aMC@NLO team                     *
#                                                                    *
#....................................................................*
#                                                                    *
# This file contains all the information necessary to reproduce      *
# the events generated:                                              *
#                                                                    *
# 1. software version                                                *
# 2. proc_card          : code generation info including model       *
# 3. param_card         : model primary parameters in the LH format  *
# 4. run_card           : running parameters (collider and cuts)     *
# 5. pythia_card        : present only if pythia has been run        *
# 6. pgs_card           : present only if pgs has been run           *
# 7. delphes_cards      : present only if delphes has been run       *
#                                                                    *
#                                                                    *
#*********************************************************************
-->
<MGVersion>
#5.2.2.3
</MGVersion>
<MG5ProcCard>
#************************************************************
#*                     MadGraph5_aMC@NLO                    *
#*                                                          *
#*                *                       *                 *
#*                  *        * *        *                   *
#*                    * * * * 5 * * * *                     *
#*                  *        * *        *                   *
#*                *                       *                 *
#*                                                          *
#*                                                          *
#*         VERSION 2.2.3                 2015-02-10         *
#*                                                          *
#*    The MadGraph5_aMC@NLO Development Team - Find us at   *
#*    https://server06.fynu.ucl.ac.be/projects/madgraph     *
#*                                                          *
#************************************************************
#*                                                          *
#*               Command File for MadGraph5_aMC@NLO         *
#*                                                          *
#*     run as ./bin/mg5_aMC  filename                       *
#*                                                          *
#************************************************************
set group_subprocesses Auto
set ignore_six_quark_processes False
set loop_optimized_output True
set gauge unitary
set complex_mass_scheme False
import model sm
define p = g u c d s u~ c~ d~ s~
define j = g u c d s u~ c~ d~ s~
define l+ = e+ mu+
define l- = e- mu-
define vl = ve vm vt
define vl~ = ve~ vm~ vt~
import model Zprime_UFO
generate p p > zph, zph > j j
add process p p > zph, zph > b b~
output Dijet_signal
</MG5ProcCard>
<MGProcCard>
#*********************************************************************
#                        MadGraph/MadEvent                           *
#                   http://madgraph.hep.uiuc.edu                     *
#                                                                    *
#                          proc_card.dat                             *
#*********************************************************************
#                                                                    *
#            This Files is generated by MADGRAPH 5                   *
#                                                                    *
# WARNING: This Files is generated for MADEVENT (compatibility issue)*
#          This files is NOT a valid MG4 proc_card.dat               *
#          Running this in MG4 will NEVER reproduce the result of MG5*
#                                                                    *
#*********************************************************************
#*********************************************************************
# Process(es) requested : mg2 input                                  *
#*********************************************************************
# Begin PROCESS # This is TAG. Do not modify this line
p p > zph , zph > j j           #Process
# Be carefull the coupling are here in MG5 convention
          
end_coup           # End the couplings input

done               # this tells MG there are no more procs
# End PROCESS  # This is TAG. Do not modify this line
#*********************************************************************
# Model information                                                  *
#*********************************************************************
# Begin MODEL  # This is TAG. Do not modify this line
Zprime_UFO
# End   MODEL  # This is TAG. Do not modify this line
#*********************************************************************
# Start multiparticle definitions                                    *
#*********************************************************************
# Begin MULTIPARTICLES # This is TAG. Do not modify this line

# End  MULTIPARTICLES # This is TAG. Do not modify this line
</MGProcCard>
<MGRunCard>
#*********************************************************************
#                       MadGraph5_aMC@NLO                            *
#                                                                    *
#                     run_card.dat MadEvent                          *
#                                                                    *
#  This file is used to set the parameters of the run.               *
#                                                                    *
#  Some notation/conventions:                                        *
#                                                                    *
#   Lines starting with a '# ' are info or comments                  *
#                                                                    *
#   mind the format:   value    = variable     ! comment             *
#*********************************************************************
#
#*******************                                                 
# Running parameters
#*******************                                                 
#                                                                    
#*********************************************************************
# Tag name for the run (one word)                                    *
#*********************************************************************
  tag_1     = run_tag ! name of the run 
#*********************************************************************
# Run to generate the grid pack                                      *
#*********************************************************************
  .false.     = gridpack  !True = setting up the grid pack
#*********************************************************************
# Number of events and rnd seed                                      *
# Warning: Do not generate more than 1M events in a single run       *
# If you want to run Pythia, avoid more than 50k events in a run.    *
#*********************************************************************
  2000 = nevents ! Number of unweighted events requested 
 1488 = iseed   ! rnd seed (0=assigned automatically=default))
#*********************************************************************
# Collider type and energy                                           *
# lpp: 0=No PDF, 1=proton, -1=antiproton, 2=photon from proton,      *
#                                         3=photon from electron     *
#*********************************************************************
        1     = lpp1    ! beam 1 type 
        1     = lpp2    ! beam 2 type
     4000     = ebeam1  ! beam 1 total energy in GeV
     4000     = ebeam2  ! beam 2 total energy in GeV
#*********************************************************************
# Beam polarization from -100 (left-handed) to 100 (right-handed)    *
#*********************************************************************
        0     = polbeam1 ! beam polarization for beam 1
        0     = polbeam2 ! beam polarization for beam 2
#*********************************************************************
# PDF CHOICE: this automatically fixes also alpha_s and its evol.    *
#*********************************************************************
 'nn23lo1'    = pdlabel     ! PDF set                                     
 230000    = lhaid     ! if pdlabel=lhapdf, this is the lhapdf number
#*********************************************************************
# Renormalization and factorization scales                           *
#*********************************************************************
 F        = fixed_ren_scale  ! if .true. use fixed ren scale
 F        = fixed_fac_scale  ! if .true. use fixed fac scale
 91.1880  = scale            ! fixed ren scale
 91.1880  = dsqrt_q2fact1    ! fixed fact scale for pdf1
 91.1880  = dsqrt_q2fact2    ! fixed fact scale for pdf2
 1        = scalefact        ! scale factor for event-by-event scales
#*********************************************************************
# Matching - Warning! ickkw > 1 is still beta
#*********************************************************************
 0        = ickkw            ! 0 no matching, 1 MLM, 2 CKKW matching
 1        = highestmult      ! for ickkw=2, highest mult group
 1        = ktscheme         ! for ickkw=1, 1 Durham kT, 2 Pythia pTE
 1        = alpsfact         ! scale factor for QCD emission vx
 F        = chcluster        ! cluster only according to channel diag
 T        = pdfwgt           ! for ickkw=1, perform pdf reweighting
 5        = asrwgtflavor     ! highest quark flavor for a_s reweight
 T        = clusinfo         ! include clustering tag in output
 3.0      = lhe_version       ! Change the way clustering information pass to shower.        
#*********************************************************************
#**********************************************************
#
#**********************************************************
# Automatic ptj and mjj cuts if xqcut > 0
# (turn off for VBF and single top processes)
#**********************************************************
   T  = auto_ptj_mjj  ! Automatic setting of ptj and mjj
#**********************************************************
#                                                                    
#**********************************
# BW cutoff (M+/-bwcutoff*Gamma)
#**********************************
  15  = bwcutoff      ! (M+/-bwcutoff*Gamma)
#**********************************************************
# Apply pt/E/eta/dr/mij cuts on decay products or not
# (note that etmiss/ptll/ptheavy/ht/sorted cuts always apply)
#**********************************************************
   T  = cut_decays    ! Cut decay products 
#*************************************************************
# Number of helicities to sum per event (0 = all helicities)
# 0 gives more stable result, but longer run time (needed for
# long decay chains e.g.).
# Use >=2 if most helicities contribute, e.g. pure QCD.
#*************************************************************
   0  = nhel          ! Number of helicities used per event
#*******************                                                 
# Standard Cuts
#*******************                                                 
#                                                                    
#*********************************************************************
# Minimum and maximum pt's (for max, -1 means no cut)                *
#*********************************************************************
 20  = ptj       ! minimum pt for the jets 
  0  = ptb       ! minimum pt for the b 
 10  = pta       ! minimum pt for the photons 
 10  = ptl       ! minimum pt for the charged leptons 
  0  = misset    ! minimum missing Et (sum of neutrino's momenta)
  0  = ptheavy   ! minimum pt for one heavy final state
 1.0 = ptonium   ! minimum pt for the quarkonium states
 -1  = ptjmax    ! maximum pt for the jets
 -1  = ptbmax    ! maximum pt for the b
 -1  = ptamax    ! maximum pt for the photons
 -1  = ptlmax    ! maximum pt for the charged leptons
 -1  = missetmax ! maximum missing Et (sum of neutrino's momenta)
#*********************************************************************
# Minimum and maximum E's (in the center of mass frame)              *
#*********************************************************************
  0  = ej     ! minimum E for the jets 
  0  = eb     ! minimum E for the b 
  0  = ea     ! minimum E for the photons 
  0  = el     ! minimum E for the charged leptons 
 -1   = ejmax ! maximum E for the jets
 -1   = ebmax ! maximum E for the b
 -1   = eamax ! maximum E for the photons
 -1   = elmax ! maximum E for the charged leptons
#*********************************************************************
# Maximum and minimum absolute rapidity (for max, -1 means no cut)   *
#*********************************************************************
   5  = etaj    ! max rap for the jets 
  -1  = etab    ! max rap for the b
 2.5  = etaa    ! max rap for the photons 
 2.5  = etal    ! max rap for the charged leptons 
 0.6  = etaonium ! max rap for the quarkonium states
   0  = etajmin ! min rap for the jets
   0  = etabmin ! min rap for the b
   0  = etaamin ! min rap for the photons
   0  = etalmin ! main rap for the charged leptons
#*********************************************************************
# Minimum and maximum DeltaR distance                                *
#*********************************************************************
 0.4 = drjj    ! min distance between jets 
 0   = drbb    ! min distance between b's 
 0.4 = drll    ! min distance between leptons 
 0.4 = draa    ! min distance between gammas 
 0   = drbj    ! min distance between b and jet 
 0.4 = draj    ! min distance between gamma and jet 
 0.4 = drjl    ! min distance between jet and lepton 
 0   = drab    ! min distance between gamma and b 
 0   = drbl    ! min distance between b and lepton 
 0.4 = dral    ! min distance between gamma and lepton 
 -1  = drjjmax ! max distance between jets
 -1  = drbbmax ! max distance between b's
 -1  = drllmax ! max distance between leptons
 -1  = draamax ! max distance between gammas
 -1  = drbjmax ! max distance between b and jet
 -1  = drajmax ! max distance between gamma and jet
 -1  = drjlmax ! max distance between jet and lepton
 -1  = drabmax ! max distance between gamma and b
 -1  = drblmax ! max distance between b and lepton
 -1  = dralmax ! maxdistance between gamma and lepton
#*********************************************************************
# Minimum and maximum invariant mass for pairs                       *
# WARNING: for four lepton final state mmll cut require to have      *
#          different lepton masses for each flavor!                  *           
#*********************************************************************
 0   = mmjj    ! min invariant mass of a jet pair 
 0   = mmbb    ! min invariant mass of a b pair 
 0   = mmaa    ! min invariant mass of gamma gamma pair
 0   = mmll    ! min invariant mass of l+l- (same flavour) lepton pair
 -1  = mmjjmax ! max invariant mass of a jet pair
 -1  = mmbbmax ! max invariant mass of a b pair
 -1  = mmaamax ! max invariant mass of gamma gamma pair
 -1  = mmllmax ! max invariant mass of l+l- (same flavour) lepton pair
#*********************************************************************
# Minimum and maximum invariant mass for all letpons                 *
#*********************************************************************
 0   = mmnl    ! min invariant mass for all letpons (l+- and vl) 
 -1  = mmnlmax ! max invariant mass for all letpons (l+- and vl) 
#*********************************************************************
# Minimum and maximum pt for 4-momenta sum of leptons                *
#*********************************************************************
 0   = ptllmin  ! Minimum pt for 4-momenta sum of leptons(l and vl)
 -1  = ptllmax  ! Maximum pt for 4-momenta sum of leptons(l and vl)
#*********************************************************************
# Inclusive cuts                                                     *
#*********************************************************************
 0  = xptj ! minimum pt for at least one jet  
 0  = xptb ! minimum pt for at least one b 
 0  = xpta ! minimum pt for at least one photon 
 0  = xptl ! minimum pt for at least one charged lepton 
#*********************************************************************
# Control the pt's of the jets sorted by pt                          *
#*********************************************************************
 0   = ptj1min ! minimum pt for the leading jet in pt
 0   = ptj2min ! minimum pt for the second jet in pt
 0   = ptj3min ! minimum pt for the third jet in pt
 0   = ptj4min ! minimum pt for the fourth jet in pt
 -1  = ptj1max ! maximum pt for the leading jet in pt 
 -1  = ptj2max ! maximum pt for the second jet in pt
 -1  = ptj3max ! maximum pt for the third jet in pt
 -1  = ptj4max ! maximum pt for the fourth jet in pt
 0   = cutuse  ! reject event if fails any (0) / all (1) jet pt cuts
#*********************************************************************
# Control the pt's of leptons sorted by pt                           *
#*********************************************************************
 0   = ptl1min ! minimum pt for the leading lepton in pt
 0   = ptl2min ! minimum pt for the second lepton in pt
 0   = ptl3min ! minimum pt for the third lepton in pt
 0   = ptl4min ! minimum pt for the fourth lepton in pt
 -1  = ptl1max ! maximum pt for the leading lepton in pt 
 -1  = ptl2max ! maximum pt for the second lepton in pt
 -1  = ptl3max ! maximum pt for the third lepton in pt
 -1  = ptl4max ! maximum pt for the fourth lepton in pt
#*********************************************************************
# Control the Ht(k)=Sum of k leading jets                            *
#*********************************************************************
 0   = htjmin ! minimum jet HT=Sum(jet pt)
 -1  = htjmax ! maximum jet HT=Sum(jet pt)
 0   = ihtmin  !inclusive Ht for all partons (including b)
 -1  = ihtmax  !inclusive Ht for all partons (including b)
 0   = ht2min ! minimum Ht for the two leading jets
 0   = ht3min ! minimum Ht for the three leading jets
 0   = ht4min ! minimum Ht for the four leading jets
 -1  = ht2max ! maximum Ht for the two leading jets
 -1  = ht3max ! maximum Ht for the three leading jets
 -1  = ht4max ! maximum Ht for the four leading jets
#***********************************************************************
# Photon-isolation cuts, according to hep-ph/9801442                   *
# When ptgmin=0, all the other parameters are ignored                  *
# When ptgmin>0, pta and draj are not going to be used                 *
#***********************************************************************
   0 = ptgmin ! Min photon transverse momentum
 0.4 = R0gamma ! Radius of isolation code
 1.0 = xn ! n parameter of eq.(3.4) in hep-ph/9801442
 1.0 = epsgamma ! epsilon_gamma parameter of eq.(3.4) in hep-ph/9801442
 .true. = isoEM ! isolate photons from EM energy (photons and leptons)
#*********************************************************************
# WBF cuts                                                           *
#*********************************************************************
 0   = xetamin ! minimum rapidity for two jets in the WBF case  
 0   = deltaeta ! minimum rapidity for two jets in the WBF case 
#*********************************************************************
# KT DURHAM CUT                                                      *
#*********************************************************************
 -1    =  ktdurham        
 0.4  =  dparameter 
#*********************************************************************
# maximal pdg code for quark to be considered as a light jet         *
# (otherwise b cuts are applied)                                     *
#*********************************************************************
 4 = maxjetflavor    ! Maximum jet pdg code
#*********************************************************************
# Jet measure cuts                                                   *
#*********************************************************************
 0   = xqcut   ! minimum kt jet measure between partons
#*********************************************************************
#
#*********************************************************************
# Store info for systematics studies                                 *
# WARNING: If use_syst is T, matched Pythia output is                *
#          meaningful ONLY if plotted taking matchscale              *
#          reweighting into account!                                 *
#*********************************************************************
   F  = use_syst      ! Enable systematics studies
#
#**************************************
# Parameter of the systematics study
#  will be used by SysCalc (if installed)
#**************************************                                  
#
0.5 1 2 = sys_scalefact  # factorization/renormalization scale factor
0.5 1 2 = sys_alpsfact  # \alpha_s emission scale factors
30 50 = sys_matchscale # variation of merging scale
# PDF sets and number of members (0 or none for all members).
CT10nlo.LHgrid = sys_pdf # matching scales
# MSTW2008nlo68cl.LHgrid 1  = sys_pdf
</MGRunCard>
<slha>
######################################################################
## PARAM_CARD AUTOMATICALY GENERATED BY MG5 FOLLOWING UFO MODEL   ####
######################################################################
##                                                                  ##
##  Width set on Auto will be computed following the information    ##
##        present in the decay.py files of the model.               ##
##        See  arXiv:1402.1178 for more details.                    ##
##                                                                  ##
######################################################################

###################################
## INFORMATION FOR CKMBLOCK
###################################
Block ckmblock 
    1 2.277360e-01 # cabi 

###################################
## INFORMATION FOR FRBLOCK
###################################
Block frblock 
    1 8.000000e-01 # gz 

###################################
## INFORMATION FOR MASS
###################################
Block mass 
    1 5.040000e-03 # MD 
    2 2.550000e-03 # MU 
    3 1.010000e-01 # MS 
    4 1.270000e+00 # MC 
    5 4.700000e+00 # MB 
    6 1.720000e+02 # MT 
   11 5.110000e-04 # Me 
   13 1.056600e-01 # MM 
   15 1.777000e+00 # MTA 
   23 9.118760e+01 # MZ 
   25 1.200000e+02 # MH 
  10030 7.000000e+02 # MZph 
  10031 3.000000e+02 # MZpl 
## Dependent parameters, given by model restrictions.
## Those values should be edited following the 
## analytical expression. MG5 ignores those values 
## but they are important for interfacing the output of MG5
## to external program such as Pythia.
  12 0.000000 # ve : 0.0 
  14 0.000000 # vm : 0.0 
  16 0.000000 # vt : 0.0 
  21 0.000000 # g : 0.0 
  22 0.000000 # a : 0.0 
  24 79.824360 # w+ : cmath.sqrt(MZ__exp__2/2. + cmath.sqrt(MZ__exp__4/4. - (aEW*cmath.pi*MZ__exp__2)/(Gf*sqrt__2))) 

###################################
## INFORMATION FOR SMINPUTS
###################################
Block sminputs 
    1 1.279000e+02 # aEWM1 
    2 1.166370e-05 # Gf 
    3 1.184000e-01 # aS 

###################################
## INFORMATION FOR YUKAWA
###################################
Block yukawa 
    1 5.040000e-03 # ymdo 
    2 2.550000e-03 # ymup 
    3 1.010000e-01 # yms 
    4 1.270000e+00 # ymc 
    5 4.700000e+00 # ymb 
    6 1.720000e+02 # ymt 
   11 5.110000e-04 # yme 
   13 1.056600e-01 # ymm 
   15 1.777000e+00 # ymtau 

###################################
## INFORMATION FOR DECAY
###################################
DECAY   6 1.508336e+00 # WT 
DECAY  23 2.495200e+00 # WZ 
DECAY  24 2.085000e+00 # WW 
DECAY  25 5.753088e-03 # WH 
## Dependent parameters, given by model restrictions.
## Those values should be edited following the 
## analytical expression. MG5 ignores those values 
## but they are important for interfacing the output of MG5
## to external program such as Pythia.
DECAY  1 0.000000 # d : 0.0 
DECAY  2 0.000000 # u : 0.0 
DECAY  3 0.000000 # s : 0.0 
DECAY  4 0.000000 # c : 0.0 
DECAY  5 0.000000 # b : 0.0 
DECAY  11 0.000000 # e- : 0.0 
DECAY  12 0.000000 # ve : 0.0 
DECAY  13 0.000000 # mu- : 0.0 
DECAY  14 0.000000 # vm : 0.0 
DECAY  15 0.000000 # ta- : 0.0 
DECAY  16 0.000000 # vt : 0.0 
DECAY  21 0.000000 # g : 0.0 
DECAY  22 0.000000 # a : 0.0 
DECAY  10030 0.308725 # zph : (gz__exp__2*MZph*(5 + cmath.sqrt(1 - (4*MT__exp__2)/MZph__exp__2)))/(144.*cmath.pi) 
DECAY  10031 0.132629 # zpl : (5*gz__exp__2*MZpl)/(144.*cmath.pi) 
#===========================================================
# QUANTUM NUMBERS OF NEW STATE(S) (NON SM PDG CODE)
#===========================================================

Block QNUMBERS 10030  # zph 
        1 0  # 3 times electric charge
        2 3  # number of spin states (2S+1)
        3 1  # colour rep (1: singlet, 3: triplet, 8: octet)
        4 0  # Particle/Antiparticle distinction (0=own anti)
Block QNUMBERS 10031  # zpl 
        1 0  # 3 times electric charge
        2 3  # number of spin states (2S+1)
        3 1  # colour rep (1: singlet, 3: triplet, 8: octet)
        4 0  # Particle/Antiparticle distinction (0=own anti)
</slha>
## END BANNER##
<MGGenerationInfo>
#  Number of Events        :         4111
#  Integrated weight (pb)  :  0.63578E+01
#  Max wgt                 :  0.20264E-02
#  Average wgt             :  0.15465E-02
</MGGenerationInfo>
</header>
<init>
     2212     2212  0.40000000000E+04  0.40000000000E+04 0 0  247000  247000 2   1
  0.63518099990E+01  0.10761851161E-01  0.20263610000E-02   0
</init>
<event>
 5   0  0.1909053E-02  0.7028960E+03  0.7818609E-02  0.9712292E-01
        2   -1    0    0  501    0  0.00000000000E+00  0.00000000000E+00  0.11933559394E+04  0.11933559394E+04  0.25500000920E-02 0. -1.
       -2   -1    0    0    0  501  0.00000000000E+00  0.00000000000E+00 -0.10350282459E+03  0.10350282463E+03  0.25500000920E-02 0.  1.
    10030    2    1    2    0    0  0.00000000000E+00  0.00000000000E+00  0.10898531148E+04  0.12968587641E+04  0.70289603926E+03 0.  0.
        1    1    3    3  502    0  0.34421942934E+03  0.20741343903E+02  0.41981158524E+03  0.54328536333E+03  0.50400001928E-02 0.  1.
       -1    1    3    3    0  502 -0.34421942934E+03 -0.20741343903E+02  0.67004152960E+03  0.75357340074E+03  0.50400001928E-02 0. -1.
</event>
<event>
 5   0  0.7947250E-03  0.6319739E+03  0.7818609E-02  0.9841204E-01
       -3   -1    0    0    0  501  0.00000000000E+00  0.00000000000E+00  0.47326062274E+03  0.47326063352E+03  0.10100000352E+00 0. -1.
        3   -1    0    0  501    0  0.00000000000E+00  0.00000000000E+00 -0.21097836081E+03  0.21097838499E+03  0.10100000352E+00 0.  1.
    10030    2    1    2    0    0  0.00000000000E+00  0.00000000000E+00  0.26228226193E+03  0.68423901851E+03  0.63197393105E+03 0.  0.
        3    1    3    3  502    0  0.97190074174E+02 -0.28262310435E+03  0.20059865136E+02  0.29953987718E+03  0.10100000352E+00 0.  1.
       -3    1    3    3    0  502 -0.97190074174E+02  0.28262310435E+03  0.24222239680E+03  0.38469914133E+03  0.10100000352E+00 0. -1.
</event>
<event>
 5   0  0.1909053E-02  0.7003119E+03  0.7818609E-02  0.9716699E-01
       -2   -1    0    0    0  501  0.00000000000E+00  0.00000000000E+00  0.79166922418E+02  0.79166922459E+02  0.25500000920E-02 0.  1.
        2   -1    0    0  501    0  0.00000000000E+00  0.00000000000E+00 -0.15487427123E+04  0.15487427123E+04  0.25500000920E-02 0. -1.
    10030    2    1    2    0    0  0.00000000000E+00  0.00000000000E+00 -0.14695757899E+04  0.16279096348E+04  0.70031191389E+03 0.  0.
        1    1    3    3  502    0 -0.16699282655E+03  0.26930627580E+03 -0.10811123657E+04  0.11265950566E+04  0.50400001928E-02 0. -1.
       -1    1    3    3    0  502  0.16699282655E+03 -0.26930627580E+03 -0.38846342417E+03  0.50131457813E+03  0.50400001928E-02 0.  1.
</event>
<event>
 5   0  0.1948138E-02  0.6985588E+03  0.7818609E-02  0.9719700E-01
        2   -1    0    0  501    0  0.00000000000E+00  0.00000000000E+00  0.24089106741E+03  0.24089106743E+03  0.25500000920E-02 0. -1.
       -2   -1    0    0    0  501  0.00000000000E+00  0.00000000000E+00 -0.50643685062E+03  0.50643685063E+03  0.25500000920E-02 0.  1.
    10030    2    1    2    0    0  0.00000000000E+00  0.00000000000E+00 -0.26554578321E+03  0.74732791806E+03  0.69855884085E+03 0.  0.
        3    1    3    3  502    0 -0.17042571863E+03 -0.34783647565E+02  0.19126112221E+03  0.25852592670E+03  0.10100000352E+00 0. -1.
       -3    1    3    3    0  502  0.17042571863E+03  0.34783647565E+02 -0.45680690542E+03  0.48880199135E+03  0.10100000352E+00 0.  1.
</event>
<event>
 5   0  0.1909053E-02  0.6641823E+03  0.7818609E-02  0.9780525E-01
       -2   -1    0    0    0  501  0.00000000000E+00  0.00000000000E+00  0.14439799225E+03  0.14439799228E+03  0.25500000920E-02 0.  1.
        2   -1    0    0  501    0  0.00000000000E+00  0.00000000000E+00 -0.76375402367E+03  0.76375402368E+03  0.25500000920E-02 0. -1.
    10030    2    1    2    0    0  0.00000000000E+00  0.00000000000E+00 -0.61935603142E+03  0.90815201595E+03  0.66418234727E+03 0.  0.
        1    1    3    3  502    0 -0.55595832208E+02 -0.21229240080E+03  0.31127392034E+02  0.22164808719E+03  0.50400001928E-02 0.  1.
       -1    1    3    3    0  502  0.55595832208E+02  0.21229240080E+03 -0.65048342345E+03  0.68650392876E+03  0.50400001928E-02 0. -1.
</event>
<event>
 5   0  0.1948138E-02  0.7092975E+03  0.7818609E-02  0.9701463E-01
       -2   -1    0    0    0  501  0.00000000000E+00  0.00000000000E+00  0.86437802604E+02  0.86437802641E+02  0.25500000920E-02 0.  1.
        2   -1    0    0  501    0  0.00000000000E+00  0.00000000000E+00 -0.14551010106E+04  0.14551010106E+04  0.25500000920E-02 0. -1.
    10030    2    1    2    0    0  0.00000000000E+00  0.00000000000E+00 -0.13686632080E+04  0.15415388132E+04  0.70929749457E+03 0.  0.
        3    1    3    3  502    0  0.61347343034E+01 -0.22075578594E+03 -0.81237030047E+02  0.23530877000E+03  0.10100000352E+00 0.  1.
       -3    1    3    3    0  502 -0.61347343034E+01  0.22075578594E+03 -0.12874261779E+04  0.13062300432E+04  0.10100000352E+00 0. -1.
</event>
<event>
 5   0  0.1257442E-02  0.7059585E+03  0.7818609E-02  0.9707096E-01
       -1   -1    0    0    0  501  0.00000000000E+00  0.00000000000E+00  0.11772929998E+03  0.11772930009E+03  0.50400001928E-02 0.  1.
        1   -1    0    0  501    0  0.00000000000E+00  0.00000000000E+00 -0.10583121616E+04  0.10583121617E+04  0.50400001928E-02 0. -1.
    10030    2    1    2    0    0  0.00000000000E+00  0.00000000000E+00 -0.94058286166E+03  0.11760414617E+04  0.70595849743E+03 0.  0.
        1    1    3    3  502    0  0.66948692696E+02  0.97669725041E+02 -0.10242377867E+04  0.10310599141E+04  0.50400001928E-02 0. -1.
       -1    1    3    3    0  502 -0.66948692696E+02 -0.97669725041E+02  0.83654925081E+02  0.14498154765E+03  0.50400001928E-02 0.  1.
</event>
<event>
 5   0  0.1197259E-02  0.7015567E+03  0.7818609E-02  0.9714574E-01
       -1   -1    0    0    0  501  0.00000000000E+00  0.00000000000E+00  0.96216577061E+02  0.96216577193E+02  0.50400001928E-02 0. -1.
        1   -1    0    0  501    0  0.00000000000E+00  0.00000000000E+00 -0.12788383310E+04  0.12788383310E+04  0.50400001928E-02 0.  1.
    10030    2    1    2    0    0  0.00000000000E+00  0.00000000000E+00 -0.11826217539E+04  0.13750549082E+04  0.70155668886E+03 0.  0.
        3    1    3    3  502    0  0.12528586683E+03  0.29714519076E+03 -0.86185995924E+03  0.92021432958E+03  0.10100000352E+00 0.  1.
       -3    1    3    3    0  502 -0.12528586683E+03 -0.29714519076E+03 -0.32076179468E+03  0.45484057861E+03  0.10100000352E+00 0. -1.
</event>
<event>
 5   0  0.1909053E-02  0.6880755E+03  0.7818609E-02  0.9737845E-01
       -2   -1    0    0    0  501  0.00000000000E+00  0.00000000000E+00  0.12057351882E+03  0.12057351885E+03  0.25500000920E-02 0. -1.
        2   -1    0    0  501    0  0.00000000000E+00  0.00000000000E+00 -0.98165807820E+03  0.98165807820E+03  0.25500000920E-02 0.  1.
    10030    2    1    2    0    0  0.00000000000E+00  0.00000000000E+00 -0.86108455938E+03  0.11022315971E+04  0.68807548652E+03 0.  0.
        1    1    3    3  502    0 -0.15759059949E+03 -0.47095422492E+02  0.53511953660E+02  0.17296330558E+03  0.50400001928E-02 0. -1.
       -1    1    3    3    0  502  0.15759059949E+03  0.47095422492E+02 -0.91459651304E+03  0.92926829148E+03  0.50400001928E-02 0.  1.
</event>
<event>
 5   0  0.7947250E-03  0.7148050E+03  0.7818609E-02  0.9692243E-01
       -4   -1    0    0    0  501  0.00000000000E+00  0.00000000000E+00  0.30370105542E+03  0.30370371082E+03  0.12699999809E+01 0.  1.
        4   -1    0    0  501    0  0.00000000000E+00  0.00000000000E+00 -0.42059421592E+03  0.42059613333E+03  0.12699999809E+01 0. -1.
    10030    2    1    2    0    0  0.00000000000E+00  0.00000000000E+00 -0.11689316050E+03  0.72429984414E+03  0.71480504563E+03 0.  0.
        1    1    3    3  502    0 -0.23324296013E+03 -0.25863591682E+03 -0.13977318220E+03  0.37527504368E+03  0.50400001928E-02 0. -1.
       -1    1    3    3    0  502  0.23324296013E+03  0.25863591682E+03  0.22880021704E+02  0.34902480046E+03  0.50400001928E-02 0.  1.
</event>
<event>
 5   0  0.1909053E-02  0.6982219E+03  0.7818609E-02  0.9720278E-01
        2   -1    0    0  501    0  0.00000000000E+00  0.00000000000E+00  0.47356625714E+03  0.47356625715E+03  0.25500000920E-02 0. -1.
       -2   -1    0    0    0  501  0.00000000000E+00  0.00000000000E+00 -0.25736303369E+03  0.25736303371E+03  0.25500000920E-02 0.  1.
    10030    2    1    2    0    0  0.00000000000E+00  0.00000000000E+00  0.21620322345E+03  0.73092929085E+03  0.69822188049E+03 0.  0.
        1    1    3    3  502    0 -0.83261986451E+02  0.29095720504E+03  0.29029393702E+03  0.41935572424E+03  0.50400001928E-02 0. -1.
       -1    1    3    3    0  502  0.83261986451E+02 -0.29095720504E+03 -0.74090713571E+02  0.31157356662E+03  0.50400001928E-02 0.  1.
</event>
<event>
 5   0  0.1973067E-02  0.7182885E+03  0.7818609E-02  0.9686458E-01
        2   -1    0    0  501    0  0.00000000000E+00  0.00000000000E+00  0.17743471839E+04  0.17743471839E+04  0.25500000920E-02 0.  1.
       -2   -1    0    0    0  501  0.00000000000E+00  0.00000000000E+00 -0.72694119285E+02  0.72694119330E+02  0.25500000920E-02 0. -1.
    10030    2    1    2    0    0  0.00000000000E+00  0.00000000000E+00  0.17016530646E+04  0.18470413032E+04  0.71828853779E+03 0.  0.
        5    1    3    3  502    0 -0.43232157031E+01  0.28024009906E+03  0.27348465703E+03  0.39162373644E+03  0.46999998093E+01 0. -1.
       -5    1    3    3    0  502  0.43232157031E+01 -0.28024009906E+03  0.14281684075E+04  0.14554175668E+04  0.46999998093E+01 0.  1.
</event>
<event>
 5   0  0.1973067E-02  0.6982781E+03  0.7818609E-02  0.9720181E-01
        2   -1    0    0  501    0  0.00000000000E+00  0.00000000000E+00  0.57501280756E+03  0.57501280756E+03  0.25500000920E-02 0. -1.
       -2   -1    0    0    0  501  0.00000000000E+00  0.00000000000E+00 -0.21199192672E+03  0.21199192673E+03  0.25500000920E-02 0.  1.
    10030    2    1    2    0    0  0.00000000000E+00  0.00000000000E+00  0.36302088084E+03  0.78700473429E+03  0.69827809065E+03 0.  0.
        5    1    3    3  502    0 -0.22913437146E+03  0.20367233514E+03  0.36973703844E+03  0.48032546037E+03  0.46999998093E+01 0. -1.
       -5    1    3    3    0  502  0.22913437146E+03 -0.20367233514E+03 -0.67161576020E+01  0.30667927393E+03  0.46999998093E+01 0.  1.
</event>
<event>
 5   0  0.1237686E-02  0.7152864E+03  0.7818609E-02  0.9691442E-01
        1   -1    0    0  501    0  0.00000000000E+00  0.00000000000E+00  0.45320330763E+03  0.45320330766E+03  0.50400001928E-02 0. -1.
       -1   -1    0    0    0  501  0.00000000000E+00  0.00000000000E+00 -0.28223242996E+03  0.28223243000E+03  0.50400001928E-02 0.  1.
    10030    2    1    2    0    0  0.00000000000E+00  0.00000000000E+00  0.17097087767E+03  0.73543573766E+03  0.71528643438E+03 0.  0.
        5    1    3    3  502    0  0.31641877918E+03  0.12472809413E+03 -0.28119804646E+02  0.34130741963E+03  0.46999998093E+01 0.  1.
       -5    1    3    3    0  502 -0.31641877918E+03 -0.12472809413E+03  0.19909068232E+03  0.39412831802E+03  0.46999998093E+01 0. -1.
</event>
<event>
 5   0  0.7947250E-03  0.6987147E+03  0.7818609E-02  0.9719433E-01
        3   -1    0    0  501    0  0.00000000000E+00  0.00000000000E+00  0.65382225058E+03  0.65382225838E+03  0.10100000352E+00 0. -1.
       -3   -1    0    0    0  501  0.00000000000E+00  0.00000000000E+00 -0.18667233954E+03  0.18667236686E+03  0.10100000352E+00 0.  1.
    10030    2    1    2    0    0  0.00000000000E+00  0.00000000000E+00  0.46714991104E+03  0.84049462524E+03  0.69871465969E+03 0.  0.
        4    1    3    3  502    0  0.31959650333E+03 -0.14590332833E+02  0.40238701426E+03  0.51407365707E+03  0.12699999809E+01 0. -1.
       -4    1    3    3    0  502 -0.31959650333E+03  0.14590332833E+02  0.64762896783E+02  0.32642096816E+03  0.12699999809E+01 0.  1.
</event>
<event>
 5   0  0.1257442E-02  0.7067724E+03  0.7818609E-02  0.9705720E-01
        1   -1    0    0  501    0  0.00000000000E+00  0.00000000000E+00  0.44424016250E+03  0.44424016253E+03  0.50400001928E-02 0.  1.
       -1   -1    0    0    0  501  0.00000000000E+00  0.00000000000E+00 -0.28111323878E+03  0.28111323882E+03  0.50400001928E-02 0. -1.
    10030    2    1    2    0    0  0.00000000000E+00  0.00000000000E+00  0.16312692373E+03  0.72535340135E+03  0.70677235629E+03 0.  0.
        1    1    3    3  502    0  0.86012854008E+02  0.12777678851E+03  0.40797639937E+03  0.43608469499E+03  0.50400001928E-02 0.  1.
       -1    1    3    3    0  502 -0.86012854008E+02 -0.12777678851E+03 -0.24484947564E+03  0.28926870637E+03  0.50400001928E-02 0. -1.
</event>
<event>
 5   0  0.1197259E-02  0.7019793E+03  0.7818609E-02  0.9713853E-01
       -1   -1    0    0    0  501  0.00000000000E+00  0.00000000000E+00  0.11008483597E+04  0.11008483597E+04  0.50400001928E-02 0. -1.
        1   -1    0    0  501    0  0.00000000000E+00  0.00000000000E+00 -0.11190799149E+03  0.11190799161E+03  0.50400001928E-02 0.  1.
    10030    2    1    2    0    0  0.00000000000E+00  0.00000000000E+00  0.98894036821E+03  0.12127563513E+04  0.70197928445E+03 0.  0.
        3    1    3    3  502    0 -0.49297887142E+02  0.34311993110E+03  0.58960173981E+03  0.68395306168E+03  0.10100000352E+00 0. -1.
       -3    1    3    3    0  502  0.49297887142E+02 -0.34311993110E+03  0.39933862840E+03  0.52880328964E+03  0.10100000352E+00 0.  1.
</event>
<event>
 5   0  0.1197259E-02  0.6966562E+03  0.7818609E-02  0.9722968E-01
        1   -1    0    0  501    0  0.00000000000E+00  0.00000000000E+00  0.58580157015E+03  0.58580157017E+03  0.50400001928E-02 0.  1.
       -1   -1    0    0    0  501  0.00000000000E+00  0.00000000000E+00 -0.20712209757E+03  0.20712209763E+03  0.50400001928E-02 0. -1.
    10030    2    1    2    0    0  0.00000000000E+00  0.00000000000E+00  0.37867947258E+03  0.79292366780E+03  0.69665615622E+03 0.  0.
        3    1    3    3  502    0 -0.14397398757E+03 -0.30568091410E+03  0.93009262658E+02  0.35045693528E+03  0.10100000352E+00 0. -1.
       -3    1    3    3    0  502  0.14397398757E+03  0.30568091410E+03  0.28567020993E+03  0.44246673252E+03  0.10100000352E+00 0.  1.
</event>
<event>
 5   0  0.1909053E-02  0.7001239E+03  0.7818609E-02  0.9717020E-01
       -2   -1    0    0    0  501  0.00000000000E+00  0.00000000000E+00  0.12331362434E+03  0.12331362437E+03  0.25500000920E-02 0. -1.
        2   -1    0    0  501    0  0.00000000000E+00  0.00000000000E+00 -0.99375364666E+03  0.99375364667E+03  0.25500000920E-02 0.  1.
    10030    2    1    2    0    0  0.00000000000E+00  0.00000000000E+00 -0.87044002232E+03  0.11170672710E+04  0.70012388587E+03 0.  0.
        1    1    3    3  502    0  0.19740829929E+03  0.21289013509E+03 -0.12316835097E+03  0.31537705838E+03  0.50400001928E-02 0. -1.
       -1    1    3    3    0  502 -0.19740829929E+03 -0.21289013509E+03 -0.74727167135E+03  0.80169021266E+03  0.50400001928E-02 0.  1.
</event>
<event>
 5   0  0.1226303E-02  0.7025737E+03  0.7818609E-02  0.9712841E-01
       -1   -1    0    0    0  501  0.00000000000E+00  0.00000000000E+00  0.11082451376E+03  0.11082451387E+03  0.50400001928E-02 0.  1.
        1   -1    0    0  501    0  0.00000000000E+00  0.00000000000E+00 -0.11134941059E+04  0.11134941059E+04  0.50400001928E-02 0. -1.
    10030    2    1    2    0    0  0.00000000000E+00  0.00000000000E+00 -0.10026695921E+04  0.12243186198E+04  0.70257367708E+03 0.  0.
        4    1    3    3  502    0 -0.15970711456E+03  0.31287934856E+03 -0.50306064075E+03  0.61357270993E+03  0.12699999809E+01 0. -1.
       -4    1    3    3    0  502  0.15970711456E+03 -0.31287934856E+03 -0.49960895139E+03  0.61074590985E+03  0.12699999809E+01 0.  1.
</event>
<event>
 5   0  0.1257442E-02  0.6770870E+03  0.7818609E-02  0.9757239E-01
        1   -1    0    0  501    0  0.00000000000E+00  0.00000000000E+00  0.37538428446E+03  0.37538428449E+03  0.50400001928E-02 0.  1.
       -1   -1    0    0    0  501  0.00000000000E+00  0.00000000000E+00 -0.30531836793E+03  0.30531836797E+03  0.50400001928E-02 0. -1.
    10030    2    1    2    0    0  0.00000000000E+00  0.00000000000E+00  0.70065916528E+02  0.68070265246E+03  0.67708704640E+03 0.  0.
        1    1    3    3  502    0 -0.32157542019E+03  0.62981788348E+02  0.12054160054E+03  0.34915288058E+03  0.50400001928E-02 0. -1.
       -1    1    3    3    0  502  0.32157542019E+03 -0.62981788348E+02 -0.50475684008E+02  0.33154977188E+03  0.50400001928E-02 0.  1.
</event>
<event>
 5   0  0.2026361E-02  0.6971400E+03  0.7818609E-02  0.9722136E-01
        2   -1    0    0  501    0  0.00000000000E+00  0.00000000000E+00  0.15659974874E+03  0.15659974877E+03  0.25500000920E-02 0.  1.
       -2   -1    0    0    0  501  0.00000000000E+00  0.00000000000E+00 -0.77587003220E+03  0.77587003220E+03  0.25500000920E-02 0. -1.
    10030    2    1    2    0    0  0.00000000000E+00  0.00000000000E+00 -0.61927028345E+03  0.93246978096E+03  0.69714002069E+03 0.  0.
        2    1    3    3  502    0  0.11518083538E+03 -0.22265586777E+03  0.14317337621E+02  0.25109210752E+03  0.25500000920E-02 0.  1.
       -2    1    3    3    0  502 -0.11518083538E+03  0.22265586777E+03 -0.63358762107E+03  0.68137767345E+03  0.25500000920E-02 0. -1.
</event>
<event>
 5   0  0.1197259E-02  0.7009027E+03  0.7818609E-02  0.9715690E-01
       -1   -1    0    0    0  501  0.00000000000E+00  0.00000000000E+00  0.12647994603E+03  0.12647994613E+03  0.50400001928E-02 0.  1.
        1   -1    0    0  501    0  0.00000000000E+00  0.00000000000E+00 -0.97103251351E+03  0.97103251353E+03  0.50400001928E-02 0. -1.
    10030    2    1    2    0    0  0.00000000000E+00  0.00000000000E+00 -0.84455256748E+03  0.10975124597E+04  0.70090267503E+03 0.  0.
        3    1    3    3  502    0  0.16571940962E+03 -0.23340564919E+03 -0.73885424476E+03  0.79236779654E+03  0.10100000352E+00 0. -1.
       -3    1    3    3    0  502 -0.16571940962E+03  0.23340564919E+03 -0.10569832272E+03  0.30514466311E+03  0.10100000352E+00 0.  1.
</event>
<event>
 5   0  0.7947250E-03  0.7025818E+03  0.7818609E-02  0.9712827E-01
       -3   -1    0    0    0  501  0.00000000000E+00  0.00000000000E+00  0.24615446511E+03  0.24615448583E+03  0.10100000352E+00 0.  1.
        3   -1    0    0  501    0  0.00000000000E+00  0.00000000000E+00 -0.50133265248E+03  0.50133266265E+03  0.10100000352E+00 0. -1.
    10030    2    1    2    0    0  0.00000000000E+00  0.00000000000E+00 -0.25517818737E+03  0.74748714848E+03  0.70258176025E+03 0.  0.
        4    1    3    3  502    0 -0.23592497923E+02  0.26969573151E+03 -0.36575225706E+03  0.45504804142E+03  0.12699999809E+01 0. -1.
       -4    1    3    3    0  502  0.23592497923E+02 -0.26969573151E+03  0.11057406969E+03  0.29243910706E+03  0.12699999809E+01 0.  1.
</event>
<event>
 5   0  0.1948138E-02  0.6981469E+03  0.7818609E-02  0.9720407E-01
       -2   -1    0    0    0  501  0.00000000000E+00  0.00000000000E+00  0.14593346502E+03  0.14593346505E+03  0.25500000920E-02 0.  1.
        2   -1    0    0  501    0  0.00000000000E+00  0.00000000000E+00 -0.83498507439E+03  0.83498507439E+03  0.25500000920E-02 0. -1.
    10030    2    1    2    0    0  0.00000000000E+00  0.00000000000E+00 -0.68905160936E+03  0.98091853943E+03  0.69814687612E+03 0.  0.
        3    1    3    3  502    0 -0.17597728802E+03  0.12330408950E+03 -0.73105091367E+03  0.76197595301E+03  0.10100000352E+00 0. -1.
       -3    1    3    3    0  502  0.17597728802E+03 -0.12330408950E+03  0.41999304313E+02  0.21894258642E+03  0.10100000352E+00 0.  1.
</event>
<event>
 5   0  0.1226303E-02  0.7024346E+03  0.7818609E-02  0.9713078E-01
       -1   -1    0    0    0  501  0.00000000000E+00  0.00000000000E+00  0.11217851312E+03  0.11217851323E+03  0.50400001928E-02 0. -1.
        1   -1    0    0  501    0  0.00000000000E+00  0.00000000000E+00 -0.10996187129E+04  0.10996187129E+04  0.50400001928E-02 0.  1.
    10030    2    1    2    0    0  0.00000000000E+00  0.00000000000E+00 -0.98744019982E+03  0.12117972262E+04  0.70243460133E+03 0.  0.
        4    1    3    3  502    0 -0.33992811731E+03  0.86765181010E+02 -0.46523399739E+03  0.58268654249E+03  0.12699999809E+01 0. -1.
       -4    1    3    3    0  502  0.33992811731E+03 -0.86765181010E+02 -0.52220620243E+03  0.62911068369E+03  0.12699999809E+01 0.  1.
</event>
<event>
 5   0  0.2026361E-02  0.7007094E+03  0.7818609E-02  0.9716020E-01
       -2   -1    0    0    0  501  0.00000000000E+00  0.00000000000E+00  0.10538901844E+03  0.10538901847E+03  0.25500000920E-02 0. -1.
        2   -1    0    0  501    0  0.00000000000E+00  0.00000000000E+00 -0.11647173612E+04  0.11647173612E+04  0.25500000920E-02 0.  1.
    10030    2    1    2    0    0  0.00000000000E+00  0.00000000000E+00 -0.10593283428E+04  0.12701063797E+04  0.70070941046E+03 0.  0.
        2    1    3    3  502    0  0.11392155419E+03 -0.13184800523E+03 -0.10806065446E+04  0.10945649918E+04  0.25500000920E-02 0.  1.
       -2    1    3    3    0  502 -0.11392155419E+03  0.13184800523E+03  0.21278201816E+02  0.17554138791E+03  0.25500000920E-02 0. -1.
</event>
<event>
 5   0  0.1223742E-02  0.6959726E+03  0.7818609E-02  0.9724144E-01
        1   -1    0    0  501    0  0.00000000000E+00  0.00000000000E+00  0.60007840606E+03  0.60007840608E+03  0.50400001928E-02 0.  1.
       -1   -1    0    0    0  501  0.00000000000E+00  0.00000000000E+00 -0.20179773019E+03  0.20179773025E+03  0.50400001928E-02 0. -1.
    10030    2    1    2    0    0  0.00000000000E+00  0.00000000000E+00  0.39828067587E+03  0.80187613633E+03  0.69597258656E+03 0.  0.
        2    1    3    3  502    0  0.25394299086E+02 -0.28415471872E+03  0.42872427847E+03  0.51496920448E+03  0.25500000920E-02 0.  1.
       -2    1    3    3    0  502 -0.25394299086E+02  0.28415471872E+03 -0.30443602604E+02  0.28690693185E+03  0.25500000920E-02 0. -1.
</event>
<event>
 5   0  0.1948138E-02  0.6990979E+03  0.7818609E-02  0.9718776E-01
        2   -1    0    0  501    0  0.00000000000E+00  0.00000000000E+00  0.23922745340E+03  0.23922745342E+03  0.25500000920E-02 0. -1.
       -2   -1    0    0    0  501  0.00000000000E+00  0.00000000000E+00 -0.51074605229E+03  0.51074605230E+03  0.25500000920E-02 0.  1.
    10030    2    1    2    0    0  0.00000000000E+00  0.00000000000E+00 -0.27151859889E+03  0.74997350572E+03  0.69909792571E+03 0.  0.
        3    1    3    3  502    0  0.14668071120E+03  0.22636766766E+03 -0.37426000117E+03  0.46133297159E+03  0.10100000352E+00 0.  1.
       -3    1    3    3    0  502 -0.14668071120E+03 -0.22636766766E+03  0.10274140228E+03  0.28864053413E+03  0.10100000352E+00 0. -1.
</event>
<event>
 5   0  0.1973067E-02  0.7040863E+03  0.7818609E-02  0.9710269E-01
        2   -1    0    0  501    0  0.00000000000E+00  0.00000000000E+00  0.20402477899E+04  0.20402477899E+04  0.25500000920E-02 0. -1.
       -2   -1    0    0    0  501  0.00000000000E+00  0.00000000000E+00 -0.60744775058E+02  0.60744775111E+02  0.25500000920E-02 0.  1.
    10030    2    1    2    0    0  0.00000000000E+00  0.00000000000E+00  0.19795030148E+04  0.21009925650E+04  0.70408633878E+03 0.  0.
        5    1    3    3  502    0  0.14360075583E+03 -0.16114370995E+03  0.15998618940E+03  0.26871200778E+03  0.46999998093E+01 0.  1.
       -5    1    3    3    0  502 -0.14360075583E+03  0.16114370995E+03  0.18195168254E+04  0.18322805572E+04  0.46999998093E+01 0. -1.
</event>
<event>
 5   0  0.1223742E-02  0.6993435E+03  0.7818609E-02  0.9718356E-01
       -1   -1    0    0    0  501  0.00000000000E+00  0.00000000000E+00  0.11687313084E+03  0.11687313094E+03  0.50400001928E-02 0. -1.
        1   -1    0    0  501    0  0.00000000000E+00  0.00000000000E+00 -0.10461800044E+04  0.10461800044E+04  0.50400001928E-02 0.  1.
    10030    2    1    2    0    0  0.00000000000E+00  0.00000000000E+00 -0.92930687354E+03  0.11630531353E+04  0.69934349957E+03 0.  0.
        2    1    3    3  502    0  0.10282926279E+03  0.17266696087E+03  0.11234630645E+02  0.20128078297E+03  0.25500000920E-02 0. -1.
       -2    1    3    3    0  502 -0.10282926279E+03 -0.17266696087E+03 -0.94054150419E+03  0.96177235236E+03  0.25500000920E-02 0.  1.
</event>
<event>
 5   0  0.1948138E-02  0.7020199E+03  0.7818609E-02  0.9713784E-01
       -2   -1    0    0    0  501  0.00000000000E+00  0.00000000000E+00  0.13079338984E+03  0.13079338986E+03  0.25500000920E-02 0.  1.
        2   -1    0    0  501    0  0.00000000000E+00  0.00000000000E+00 -0.94200475547E+03  0.94200475547E+03  0.25500000920E-02 0. -1.
    10030    2    1    2    0    0  0.00000000000E+00  0.00000000000E+00 -0.81121136563E+03  0.10727981453E+04  0.70201992913E+03 0.  0.
        3    1    3    3  502    0  0.32996211645E+03  0.11544040014E+03 -0.35712423018E+03  0.49973914221E+03  0.10100000352E+00 0.  1.
       -3    1    3    3    0  502 -0.32996211645E+03 -0.11544040014E+03 -0.45408713545E+03  0.57305900312E+03  0.10100000352E+00 0. -1.
</event>
<event>
 5   0  0.1909053E-02  0.7021260E+03  0.7818609E-02  0.9713603E-01
        2   -1    0    0  501    0  0.00000000000E+00  0.00000000000E+00  0.45610012427E+03  0.45610012428E+03  0.25500000920E-02 0.  1.
       -2   -1    0    0    0  501  0.00000000000E+00  0.00000000000E+00 -0.27021533207E+03  0.27021533208E+03  0.25500000920E-02 0. -1.
    10030    2    1    2    0    0  0.00000000000E+00  0.00000000000E+00  0.18588479221E+03  0.72631545635E+03  0.70212604721E+03 0.  0.
        1    1    3    3  502    0 -0.24197653604E+02  0.72324687403E+02  0.44742720072E+03  0.45388047636E+03  0.50400001928E-02 0.  1.
       -1    1    3    3    0  502  0.24197653604E+02 -0.72324687403E+02 -0.26154240852E+03  0.27243498000E+03  0.50400001928E-02 0. -1.
</event>
<event>
 5   0  0.1197259E-02  0.6992596E+03  0.7818609E-02  0.9718499E-01
        1   -1    0    0  501    0  0.00000000000E+00  0.00000000000E+00  0.20278084159E+03  0.20278084165E+03  0.50400001928E-02 0. -1.
       -1   -1    0    0    0  501  0.00000000000E+00  0.00000000000E+00 -0.60282313438E+03  0.60282313440E+03  0.50400001928E-02 0.  1.
    10030    2    1    2    0    0  0.00000000000E+00  0.00000000000E+00 -0.40004229279E+03  0.80560397605E+03  0.69925955853E+03 0.  0.
        3    1    3    3  502    0 -0.22639412058E+03 -0.53450177014E+02  0.10069143368E+03  0.25347582581E+03  0.10100000352E+00 0. -1.
       -3    1    3    3    0  502  0.22639412058E+03  0.53450177014E+02 -0.50073372647E+03  0.55212815023E+03  0.10100000352E+00 0.  1.
</event>
<event>
 5   0  0.1948138E-02  0.7055053E+03  0.7818609E-02  0.9707863E-01
        2   -1    0    0  501    0  0.00000000000E+00  0.00000000000E+00  0.30354734105E+03  0.30354734106E+03  0.25500000920E-02 0.  1.
       -2   -1    0    0    0  501  0.00000000000E+00  0.00000000000E+00 -0.40993421428E+03  0.40993421429E+03  0.25500000920E-02 0. -1.
    10030    2    1    2    0    0  0.00000000000E+00  0.00000000000E+00 -0.10638687323E+03  0.71348155535E+03  0.70550532459E+03 0.  0.
        3    1    3    3  502    0 -0.25821882438E+03 -0.18694127362E+03 -0.20593217042E+03  0.37951557289E+03  0.10100000352E+00 0. -1.
       -3    1    3    3    0  502  0.25821882438E+03  0.18694127362E+03  0.99545297193E+02  0.33396598246E+03  0.10100000352E+00 0.  1.
</event>
<event>
 5   0  0.1226303E-02  0.7123942E+03  0.7818609E-02  0.9696268E-01
        1   -1    0    0  501    0  0.00000000000E+00  0.00000000000E+00  0.64627568569E+03  0.64627568571E+03  0.50400001928E-02 0.  1.
       -1   -1    0    0    0  501  0.00000000000E+00  0.00000000000E+00 -0.19631924752E+03  0.19631924759E+03  0.50400001928E-02 0. -1.
    10030    2    1    2    0    0  0.00000000000E+00  0.00000000000E+00  0.44995643816E+03  0.84259493330E+03  0.71239415029E+03 0.  0.
        4    1    3    3  502    0 -0.85467450715E+02  0.16511605455E+03 -0.13436977204E+03  0.22940105741E+03  0.12699999809E+01 0. -1.
       -4    1    3    3    0  502  0.85467450715E+02 -0.16511605455E+03  0.58432621020E+03  0.61319387589E+03  0.12699999809E+01 0.  1.
</event>
<event>
 5   0  0.1257442E-02  0.7117112E+03  0.7818609E-02  0.9697412E-01
       -1   -1    0    0    0  501  0.00000000000E+00  0.00000000000E+00  0.13432542459E+03  0.13432542469E+03  0.50400001928E-02 0. -1.
        1   -1    0    0  501    0  0.00000000000E+00  0.00000000000E+00 -0.94273435175E+03  0.94273435177E+03  0.50400001928E-02 0.  1.
    10030    2    1    2    0    0  0.00000000000E+00  0.00000000000E+00 -0.80840892716E+03  0.10770597765E+04  0.71171115527E+03 0.  0.
        1    1    3    3  502    0  0.58823842378E-01 -0.98968717703E+02  0.11307924451E+03  0.15027217344E+03  0.50400001928E-02 0. -1.
       -1    1    3    3    0  502 -0.58823842378E-01  0.98968717703E+02 -0.92148817167E+03  0.92678760302E+03  0.50400001928E-02 0.  1.
</event>
<event>
 5   0  0.1197259E-02  0.7007669E+03  0.7818609E-02  0.9715922E-01
       -1   -1    0    0    0  501  0.00000000000E+00  0.00000000000E+00  0.34982237634E+03  0.34982237637E+03  0.50400001928E-02 0.  1.
        1   -1    0    0  501    0  0.00000000000E+00  0.00000000000E+00 -0.35094537734E+03  0.35094537737E+03  0.50400001928E-02 0. -1.
    10030    2    1    2    0    0  0.00000000000E+00  0.00000000000E+00 -0.11230009980E+01  0.70076775375E+03  0.70076685393E+03 0.  0.
        3    1    3    3  502    0 -0.22572576162E+02  0.30949528004E+03  0.16213992576E+03  0.35012314304E+03  0.10100000352E+00 0.  1.
       -3    1    3    3    0  502  0.22572576162E+02 -0.30949528004E+03 -0.16326292676E+03  0.35064461071E+03  0.10100000352E+00 0. -1.
</event>
<event>
 5   0  0.2006362E-02  0.7030858E+03  0.7818609E-02  0.9711970E-01
        2   -1    0    0  501    0  0.00000000000E+00  0.00000000000E+00  0.30047552389E+03  0.30047552390E+03  0.25500000920E-02 0. -1.
       -2   -1    0    0    0  501  0.00000000000E+00  0.00000000000E+00 -0.41128947016E+03  0.41128947017E+03  0.25500000920E-02 0.  1.
    10030    2    1    2    0    0  0.00000000000E+00  0.00000000000E+00 -0.11081394627E+03  0.71176499407E+03  0.70308582413E+03 0.  0.
        4    1    3    3  502    0  0.33908854486E+03  0.92681428626E+02 -0.58595080148E+02  0.35637885008E+03  0.12699999809E+01 0. -1.
       -4    1    3    3    0  502 -0.33908854486E+03 -0.92681428626E+02 -0.52218866124E+02  0.35538614400E+03  0.12699999809E+01 0.  1.
</event>
<event>
 5   0  0.2006362E-02  0.6987173E+03  0.7818609E-02  0.9719428E-01
        2   -1    0    0  501    0  0.00000000000E+00  0.00000000000E+00  0.21044779375E+03  0.21044779377E+03  0.25500000920E-02 0.  1.
       -2   -1    0    0    0  501  0.00000000000E+00  0.00000000000E+00 -0.57996083898E+03  0.57996083898E+03  0.25500000920E-02 0. -1.
    10030    2    1    2    0    0  0.00000000000E+00  0.00000000000E+00 -0.36951304522E+03  0.79040863275E+03  0.69871733637E+03 0.  0.
        4    1    3    3  502    0  0.33656220530E+03  0.93678716807E+02 -0.18499944586E+03  0.39531788208E+03  0.12699999809E+01 0. -1.
       -4    1    3    3    0  502 -0.33656220530E+03 -0.93678716807E+02 -0.18451359936E+03  0.39509075068E+03  0.12699999809E+01 0.  1.
</event>
<event>
 5   0  0.7947250E-03  0.7025699E+03  0.7818609E-02  0.9712847E-01
        4   -1    0    0  501    0  0.00000000000E+00  0.00000000000E+00  0.13987970935E+03  0.13988547454E+03  0.12699999809E+01 0.  1.
       -4   -1    0    0    0  501  0.00000000000E+00  0.00000000000E+00 -0.88217011223E+03  0.88217102639E+03  0.12699999809E+01 0. -1.
    10030    2    1    2    0    0  0.00000000000E+00  0.00000000000E+00 -0.74229040288E+03  0.10220565009E+04  0.70256988898E+03 0.  0.
        2    1    3    3  502    0 -0.88199578703E+01  0.69722422074E+02  0.12955191928E+03  0.14738625306E+03  0.25500000920E-02 0.  1.
       -2    1    3    3    0  502  0.88199578703E+01 -0.69722422074E+02 -0.87184232216E+03  0.87467024787E+03  0.25500000920E-02 0. -1.
</event>
<event>
 5   0  0.1197259E-02  0.6929220E+03  0.7818609E-02  0.9729414E-01
       -1   -1    0    0    0  501  0.00000000000E+00  0.00000000000E+00  0.60811104654E+03  0.60811104656E+03  0.50400001928E-02 0.  1.
        1   -1    0    0  501    0  0.00000000000E+00  0.00000000000E+00 -0.19739029080E+03  0.19739029086E+03  0.50400001928E-02 0. -1.
    10030    2    1    2    0    0  0.00000000000E+00  0.00000000000E+00  0.41072075574E+03  0.80550133743E+03  0.69292197642E+03 0.  0.
        3    1    3    3  502    0  0.32531991661E+02 -0.19157354344E+03  0.53880192399E+03  0.57277070152E+03  0.10100000352E+00 0.  1.
       -3    1    3    3    0  502 -0.32531991661E+02  0.19157354344E+03 -0.12808116825E+03  0.23273063590E+03  0.10100000352E+00 0. -1.
</event>
<event>
 5   0  0.1237686E-02  0.6744938E+03  0.7818609E-02  0.9761874E-01
        1   -1    0    0  501    0  0.00000000000E+00  0.00000000000E+00  0.14268367162E+04  0.14268367162E+04  0.50400001928E-02 0. -1.
       -1   -1    0    0    0  501  0.00000000000E+00  0.00000000000E+00 -0.79711633293E+02  0.79711633453E+02  0.50400001928E-02 0.  1.
    10030    2    1    2    0    0  0.00000000000E+00  0.00000000000E+00  0.13471250829E+04  0.15065483497E+04  0.67449384051E+03 0.  0.
        5    1    3    3  502    0  0.20669141842E+03 -0.24893043356E+03  0.46136256023E+03  0.56352924075E+03  0.46999998093E+01 0.  1.
       -5    1    3    3    0  502 -0.20669141842E+03  0.24893043356E+03  0.88576252271E+03  0.94301910895E+03  0.46999998093E+01 0. -1.
</event>
<event>
 5   0  0.2026361E-02  0.6954556E+03  0.7818609E-02  0.9725036E-01
       -2   -1    0    0    0  501  0.00000000000E+00  0.00000000000E+00  0.93169487097E+02  0.93169487132E+02  0.25500000920E-02 0. -1.
        2   -1    0    0  501    0  0.00000000000E+00  0.00000000000E+00 -0.12977919180E+04  0.12977919180E+04  0.25500000920E-02 0.  1.
    10030    2    1    2    0    0  0.00000000000E+00  0.00000000000E+00 -0.12046224309E+04  0.13909614051E+04  0.69545555540E+03 0.  0.
        2    1    3    3  502    0 -0.43265238897E+02  0.29704715654E+03 -0.25126739405E+03  0.39146417132E+03  0.25500000920E-02 0. -1.
       -2    1    3    3    0  502  0.43265238897E+02 -0.29704715654E+03 -0.95335503685E+03  0.99949723381E+03  0.25500000920E-02 0.  1.
</event>
<event>
 5   0  0.1948138E-02  0.7000097E+03  0.7818609E-02  0.9717216E-01
       -2   -1    0    0    0  501  0.00000000000E+00  0.00000000000E+00  0.27164519281E+03  0.27164519282E+03  0.25500000920E-02 0. -1.
        2   -1    0    0  501    0  0.00000000000E+00  0.00000000000E+00 -0.45096837295E+03  0.45096837296E+03  0.25500000920E-02 0.  1.
    10030    2    1    2    0    0  0.00000000000E+00  0.00000000000E+00 -0.17932318015E+03  0.72261356578E+03  0.70000968744E+03 0.  0.
        3    1    3    3  502    0 -0.37419225506E+02  0.35635325123E+02  0.26768597720E+03  0.27262770846E+03  0.10100000352E+00 0. -1.
       -3    1    3    3    0  502  0.37419225506E+02 -0.35635325123E+02 -0.44700915734E+03  0.44998585731E+03  0.10100000352E+00 0.  1.
</event>
<event>
 5   0  0.1909053E-02  0.7070658E+03  0.7818609E-02  0.9705224E-01
       -2   -1    0    0    0  501  0.00000000000E+00  0.00000000000E+00  0.20500586550E+03  0.20500586552E+03  0.25500000920E-02 0. -1.
        2   -1    0    0  501    0  0.00000000000E+00  0.00000000000E+00 -0.60966806023E+03  0.60966806023E+03  0.25500000920E-02 0.  1.
    10030    2    1    2    0    0  0.00000000000E+00  0.00000000000E+00 -0.40466219473E+03  0.81467392575E+03  0.70706584803E+03 0.  0.
        1    1    3    3  502    0  0.18312271546E+03 -0.18039904302E+03 -0.48197818523E+03  0.54624235895E+03  0.50400001928E-02 0.  1.
       -1    1    3    3    0  502 -0.18312271546E+03  0.18039904302E+03  0.77315990503E+02  0.26843156680E+03  0.50400001928E-02 0. -1.
</event>
<event>
 5   0  0.2026361E-02  0.7034796E+03  0.7818609E-02  0.9711300E-01
        2   -1    0    0  501    0  0.00000000000E+00  0.00000000000E+00  0.11315346230E+04  0.11315346230E+04  0.25500000920E-02 0.  1.
       -2   -1    0    0    0  501  0.00000000000E+00  0.00000000000E+00 -0.10933901082E+03  0.10933901085E+03  0.25500000920E-02 0. -1.
    10030    2    1    2    0    0  0.00000000000E+00  0.00000000000E+00  0.10221956121E+04  0.12408736338E+04  0.70347957016E+03 0.  0.
        2    1    3    3  502    0 -0.20877208088E+03 -0.14767911518E+03  0.85100291169E+02  0.26951245310E+03  0.25500000920E-02 0. -1.
       -2    1    3    3    0  502  0.20877208088E+03  0.14767911518E+03  0.93709532097E+03  0.97136118072E+03  0.25500000920E-02 0.  1.
</event>
<event>
 5   0  0.1948138E-02  0.7021090E+03  0.7818609E-02  0.9713632E-01
       -2   -1    0    0    0  501  0.00000000000E+00  0.00000000000E+00  0.13995983327E+03  0.13995983329E+03  0.25500000920E-02 0.  1.
        2   -1    0    0  501    0  0.00000000000E+00  0.00000000000E+00 -0.88053296871E+03  0.88053296871E+03  0.25500000920E-02 0. -1.
    10030    2    1    2    0    0  0.00000000000E+00  0.00000000000E+00 -0.74057313544E+03  0.10204928020E+04  0.70210895878E+03 0.  0.
        3    1    3    3  502    0  0.68769850536E+02 -0.32538696358E+03 -0.20691995624E+03  0.39169100948E+03  0.10100000352E+00 0.  1.
       -3    1    3    3    0  502 -0.68769850536E+02  0.32538696358E+03 -0.53365317920E+03  0.62880179252E+03  0.10100000352E+00 0. -1.
</event>
<event>
 5   0  0.1197259E-02  0.7016414E+03  0.7818609E-02  0.9714429E-01
       -1   -1    0    0    0  501  0.00000000000E+00  0.00000000000E+00  0.50897022246E+03  0.50897022249E+03  0.50400001928E-02 0. -1.
        1   -1    0    0  501    0  0.00000000000E+00  0.00000000000E+00 -0.24181213755E+03  0.24181213761E+03  0.50400001928E-02 0.  1.
    10030    2    1    2    0    0  0.00000000000E+00  0.00000000000E+00  0.26715808491E+03  0.75078236010E+03  0.70164143970E+03 0.  0.
        3    1    3    3  502    0 -0.44601574637E+02 -0.51389441489E+02  0.50184127428E+03  0.50643346051E+03  0.10100000352E+00 0. -1.
       -3    1    3    3    0  502  0.44601574637E+02  0.51389441489E+02 -0.23468318937E+03  0.24434889958E+03  0.10100000352E+00 0.  1.
</event>
<event>
 5   0  0.1973067E-02  0.6947911E+03  0.7818609E-02  0.9726182E-01
        2   -1    0    0  501    0  0.00000000000E+00  0.00000000000E+00  0.44381862844E+03  0.44381862845E+03  0.25500000920E-02 0. -1.
       -2   -1    0    0    0  501  0.00000000000E+00  0.00000000000E+00 -0.27192115494E+03  0.27192115495E+03  0.25500000920E-02 0.  1.
    10030    2    1    2    0    0  0.00000000000E+00  0.00000000000E+00  0.17189747350E+03  0.71573978340E+03  0.69479111692E+03 0.  0.
        5    1    3    3  502    0 -0.34403878034E+03  0.73169720601E+01  0.13476271881E+03  0.36959342640E+03  0.46999998093E+01 0.  1.
       -5    1    3    3    0  502  0.34403878034E+03 -0.73169720601E+01  0.37134754690E+02  0.34614635700E+03  0.46999998093E+01 0. -1.
</event>
<event>
 5   0  0.1237686E-02  0.6976170E+03  0.7818609E-02  0.9721316E-01
        1   -1    0    0  501    0  0.00000000000E+00  0.00000000000E+00  0.49607030538E+03  0.49607030541E+03  0.50400001928E-02 0.  1.
       -1   -1    0    0    0  501  0.00000000000E+00  0.00000000000E+00 -0.24526238034E+03  0.24526238039E+03  0.50400001928E-02 0. -1.
    10030    2    1    2    0    0  0.00000000000E+00  0.00000000000E+00  0.25080792504E+03  0.74133268579E+03  0.69761704090E+03 0.  0.
        5    1    3    3  502    0 -0.33206280700E+03  0.69611619727E+02  0.39506710463E+02  0.34160555552E+03  0.46999998093E+01 0. -1.
       -5    1    3    3    0  502  0.33206280700E+03 -0.69611619727E+02  0.21130121458E+03  0.39972713027E+03  0.46999998093E+01 0.  1.
</event>
<event>
 5   0  0.1197259E-02  0.6932663E+03  0.7818609E-02  0.9728818E-01
        1   -1    0    0  501    0  0.00000000000E+00  0.00000000000E+00  0.44307051745E+03  0.44307051748E+03  0.50400001928E-02 0.  1.
       -1   -1    0    0    0  501  0.00000000000E+00  0.00000000000E+00 -0.27118602443E+03  0.27118602448E+03  0.50400001928E-02 0. -1.
    10030    2    1    2    0    0  0.00000000000E+00  0.00000000000E+00  0.17188449302E+03  0.71425654196E+03  0.69326627553E+03 0.  0.
        3    1    3    3  502    0 -0.11704777964E+02 -0.11333548490E+03 -0.25134196484E+03  0.27596146009E+03  0.10100000352E+00 0. -1.
       -3    1    3    3    0  502  0.11704777964E+02  0.11333548490E+03  0.42322645785E+03  0.43829508187E+03  0.10100000352E+00 0.  1.
</event>
<event>
 5   0  0.1948138E-02  0.6971551E+03  0.7818609E-02  0.9722110E-01
        2   -1    0    0  501    0  0.00000000000E+00  0.00000000000E+00  0.10079230239E+04  0.10079230239E+04  0.25500000920E-02 0.  1.
       -2   -1    0    0    0  501  0.00000000000E+00  0.00000000000E+00 -0.12055116934E+03  0.12055116937E+03  0.25500000920E-02 0. -1.
    10030    2    1    2    0    0  0.00000000000E+00  0.00000000000E+00  0.88737185454E+03  0.11284741933E+04  0.69715507358E+03 0.  0.
        3    1    3    3  502    0 -0.34039938069E+03  0.71961449569E+02  0.47825537526E+03  0.59142066481E+03  0.10100000352E+00 0.  1.
       -3    1    3    3    0  502  0.34039938069E+03 -0.71961449569E+02  0.40911647929E+03  0.53705352845E+03  0.10100000352E+00 0. -1.
</event>
<event>
 5   0  0.1257442E-02  0.6996889E+03  0.7818609E-02  0.9717764E-01
        1   -1    0    0  501    0  0.00000000000E+00  0.00000000000E+00  0.95105909229E+03  0.95105909230E+03  0.50400001928E-02 0.  1.
       -1   -1    0    0    0  501  0.00000000000E+00  0.00000000000E+00 -0.12868932079E+03  0.12868932089E+03  0.50400001928E-02 0. -1.
    10030    2    1    2    0    0  0.00000000000E+00  0.00000000000E+00  0.82236977150E+03  0.10797484132E+04  0.69968892710E+03 0.  0.
        1    1    3    3  502    0  0.15389851577E+03 -0.25831041322E+03  0.68716083627E+03  0.75006602220E+03  0.50400001928E-02 0.  1.
       -1    1    3    3    0  502 -0.15389851577E+03  0.25831041322E+03  0.13520893523E+03  0.32968239098E+03  0.50400001928E-02 0. -1.
</event>
<event>
 5   0  0.1197259E-02  0.7096218E+03  0.7818609E-02  0.9700918E-01
       -1   -1    0    0    0  501  0.00000000000E+00  0.00000000000E+00  0.11465829178E+03  0.11465829189E+03  0.50400001928E-02 0. -1.
        1   -1    0    0  501    0  0.00000000000E+00  0.00000000000E+00 -0.10979649191E+04  0.10979649191E+04  0.50400001928E-02 0.  1.
    10030    2    1    2    0    0  0.00000000000E+00  0.00000000000E+00 -0.98330662728E+03  0.12126232110E+04  0.70962182076E+03 0.  0.
        3    1    3    3  502    0 -0.22709573829E+02  0.47446887731E+02  0.10795823839E+03  0.12009131250E+03  0.10100000352E+00 0. -1.
       -3    1    3    3    0  502  0.22709573829E+02 -0.47446887731E+02 -0.10912648657E+04  0.10925318985E+04  0.10100000352E+00 0.  1.
</event>
<event>
 5   0  0.1223742E-02  0.6994026E+03  0.7818609E-02  0.9718254E-01
       -1   -1    0    0    0  501  0.00000000000E+00  0.00000000000E+00  0.15443176260E+03  0.15443176268E+03  0.50400001928E-02 0. -1.
        1   -1    0    0  501    0  0.00000000000E+00  0.00000000000E+00 -0.79187735070E+03  0.79187735072E+03  0.50400001928E-02 0.  1.
    10030    2    1    2    0    0  0.00000000000E+00  0.00000000000E+00 -0.63744558810E+03  0.94630911340E+03  0.69940264535E+03 0.  0.
        2    1    3    3  502    0  0.14476129545E+03  0.69124192762E+00  0.11198710655E+03  0.18302301089E+03  0.25500000920E-02 0. -1.
       -2    1    3    3    0  502 -0.14476129545E+03 -0.69124192762E+00 -0.74943269465E+03  0.76328610251E+03  0.25500000920E-02 0.  1.
</event>
<event>
 5   0  0.1237686E-02  0.7030909E+03  0.7818609E-02  0.9711961E-01
        1   -1    0    0  501    0  0.00000000000E+00  0.00000000000E+00  0.49749560219E+03  0.49749560222E+03  0.50400001928E-02 0. -1.
       -1   -1    0    0    0  501  0.00000000000E+00  0.00000000000E+00 -0.24841268010E+03  0.24841268015E+03  0.50400001928E-02 0.  1.
    10030    2    1    2    0    0  0.00000000000E+00  0.00000000000E+00  0.24908292209E+03  0.74590828237E+03  0.70309093554E+03 0.  0.
        5    1    3    3  502    0 -0.15259012007E+03  0.27442848877E+03 -0.43091905096E+02  0.31697593359E+03  0.46999998093E+01 0.  1.
       -5    1    3    3    0  502  0.15259012007E+03 -0.27442848877E+03  0.29217482719E+03  0.42893234878E+03  0.46999998093E+01 0. -1.
</event>
<event>
 5   0  0.2006362E-02  0.6943214E+03  0.7818609E-02  0.9726993E-01
       -2   -1    0    0    0  501  0.00000000000E+00  0.00000000000E+00  0.19644455554E+03  0.19644455556E+03  0.25500000920E-02 0.  1.
        2   -1    0    0  501    0  0.00000000000E+00  0.00000000000E+00 -0.61350923988E+03  0.61350923989E+03  0.25500000920E-02 0. -1.
    10030    2    1    2    0    0  0.00000000000E+00  0.00000000000E+00 -0.41706468434E+03  0.80995379544E+03  0.69432139520E+03 0.  0.
        4    1    3    3  502    0 -0.29797138361E+03  0.12847136726E+03 -0.64583462826E+02  0.33085415854E+03  0.12699999809E+01 0.  1.
       -4    1    3    3    0  502  0.29797138361E+03 -0.12847136726E+03 -0.35248122151E+03  0.47909963690E+03  0.12699999809E+01 0. -1.
</event>
<event>
 5   0  0.1909053E-02  0.7034505E+03  0.7818609E-02  0.9711350E-01
        2   -1    0    0  501    0  0.00000000000E+00  0.00000000000E+00  0.73776806808E+03  0.73776806809E+03  0.25500000920E-02 0. -1.
       -2   -1    0    0    0  501  0.00000000000E+00  0.00000000000E+00 -0.16768229648E+03  0.16768229650E+03  0.25500000920E-02 0.  1.
    10030    2    1    2    0    0  0.00000000000E+00  0.00000000000E+00  0.57008577160E+03  0.90545036459E+03  0.70345047853E+03 0.  0.
        1    1    3    3  502    0  0.70434345228E+01  0.14132791464E+03 -0.12942818670E+03  0.19176768488E+03  0.50400001928E-02 0.  1.
       -1    1    3    3    0  502 -0.70434345228E+01 -0.14132791464E+03  0.69951395830E+03  0.71368267971E+03  0.50400001928E-02 0. -1.
</event>
<event>
 5   0  0.1226303E-02  0.6710419E+03  0.7818609E-02  0.9768077E-01
       -1   -1    0    0    0  501  0.00000000000E+00  0.00000000000E+00  0.19785505920E+03  0.19785505927E+03  0.50400001928E-02 0.  1.
        1   -1    0    0  501    0  0.00000000000E+00  0.00000000000E+00 -0.56897365123E+03  0.56897365125E+03  0.50400001928E-02 0. -1.
    10030    2    1    2    0    0  0.00000000000E+00  0.00000000000E+00 -0.37111859203E+03  0.76682871052E+03  0.67104192263E+03 0.  0.
        4    1    3    3  502    0  0.20079978495E+03 -0.23468174599E+03 -0.35791770407E+02  0.31093204927E+03  0.12699999809E+01 0. -1.
       -4    1    3    3    0  502 -0.20079978495E+03  0.23468174599E+03 -0.33532682162E+03  0.45589666125E+03  0.12699999809E+01 0.  1.
</event>
<event>
 5   0  0.2026361E-02  0.7018201E+03  0.7818609E-02  0.9714125E-01
        2   -1    0    0  501    0  0.00000000000E+00  0.00000000000E+00  0.16959727747E+04  0.16959727747E+04  0.25500000920E-02 0. -1.
       -2   -1    0    0    0  501  0.00000000000E+00  0.00000000000E+00 -0.72606031612E+02  0.72606031657E+02  0.25500000920E-02 0.  1.
    10030    2    1    2    0    0  0.00000000000E+00  0.00000000000E+00  0.16233667431E+04  0.17685788064E+04  0.70182007078E+03 0.  0.
        2    1    3    3  502    0 -0.25796507240E+03 -0.18889222071E+03  0.11760950598E+04  0.12187804722E+04  0.25500000920E-02 0. -1.
       -2    1    3    3    0  502  0.25796507240E+03  0.18889222071E+03  0.44727168332E+03  0.54979833423E+03  0.25500000920E-02 0.  1.
</event>
<event>
 5   0  0.1237686E-02  0.6972905E+03  0.7818609E-02  0.9721877E-01
       -1   -1    0    0    0  501  0.00000000000E+00  0.00000000000E+00  0.26173981784E+03  0.26173981789E+03  0.50400001928E-02 0. -1.
        1   -1    0    0  501    0  0.00000000000E+00  0.00000000000E+00 -0.46440586141E+03  0.46440586144E+03  0.50400001928E-02 0.  1.
    10030    2    1    2    0    0  0.00000000000E+00  0.00000000000E+00 -0.20266604357E+03  0.72614567933E+03  0.69729048638E+03 0.  0.
        5    1    3    3  502    0  0.14350692583E+03 -0.22354673080E+02  0.22870034435E+03  0.27096107963E+03  0.46999998093E+01 0. -1.
       -5    1    3    3    0  502 -0.14350692583E+03  0.22354673080E+02 -0.43136638793E+03  0.45518459970E+03  0.46999998093E+01 0.  1.
</event>
<event>
 5   0  0.2026361E-02  0.6996427E+03  0.7818609E-02  0.9717844E-01
       -2   -1    0    0    0  501  0.00000000000E+00  0.00000000000E+00  0.17930381864E+03  0.17930381866E+03  0.25500000920E-02 0. -1.
        2   -1    0    0  501    0  0.00000000000E+00  0.00000000000E+00 -0.68250057615E+03  0.68250057615E+03  0.25500000920E-02 0.  1.
    10030    2    1    2    0    0  0.00000000000E+00  0.00000000000E+00 -0.50319675751E+03  0.86180439481E+03  0.69964265032E+03 0.  0.
        2    1    3    3  502    0  0.75103953305E+01 -0.33638143462E+03 -0.13366836665E+03  0.36204434513E+03  0.25500000920E-02 0. -1.
       -2    1    3    3    0  502 -0.75103953305E+01  0.33638143462E+03 -0.36952839086E+03  0.49976004967E+03  0.25500000920E-02 0.  1.
</event>
<event>
 5   0  0.1223742E-02  0.6995025E+03  0.7818609E-02  0.9718083E-01
       -1   -1    0    0    0  501  0.00000000000E+00  0.00000000000E+00  0.14273927073E+03  0.14273927082E+03  0.50400001928E-02 0. -1.
        1   -1    0    0  501    0  0.00000000000E+00  0.00000000000E+00 -0.85698875781E+03  0.85698875783E+03  0.50400001928E-02 0.  1.
    10030    2    1    2    0    0  0.00000000000E+00  0.00000000000E+00 -0.71424948708E+03  0.99972802865E+03  0.69950253858E+03 0.  0.
        2    1    3    3  502    0 -0.13230822816E+03 -0.21789015249E+02  0.10454338877E+03  0.17002808170E+03  0.25500000920E-02 0. -1.
       -2    1    3    3    0  502  0.13230822816E+03  0.21789015249E+02 -0.81879287585E+03  0.82969994695E+03  0.25500000920E-02 0.  1.
</event>
<event>
 5   0  0.1223742E-02  0.7434790E+03  0.7818609E-02  0.9645637E-01
       -1   -1    0    0    0  501  0.00000000000E+00  0.00000000000E+00  0.43202900917E+03  0.43202900920E+03  0.50400001928E-02 0.  1.
        1   -1    0    0  501    0  0.00000000000E+00  0.00000000000E+00 -0.31986339775E+03  0.31986339779E+03  0.50400001928E-02 0. -1.
    10030    2    1    2    0    0  0.00000000000E+00  0.00000000000E+00  0.11216561142E+03  0.75189240698E+03  0.74347902949E+03 0.  0.
        2    1    3    3  502    0 -0.15179850561E+03 -0.31058041300E+02  0.39781623874E+03  0.42692522536E+03  0.25500000920E-02 0.  1.
       -2    1    3    3    0  502  0.15179850561E+03  0.31058041300E+02 -0.28565062732E+03  0.32496718162E+03  0.25500000920E-02 0. -1.
</event>
<event>
 5   0  0.1223742E-02  0.7014470E+03  0.7818609E-02  0.9714761E-01
       -1   -1    0    0    0  501  0.00000000000E+00  0.00000000000E+00  0.65513057714E+03  0.65513057716E+03  0.50400001928E-02 0. -1.
        1   -1    0    0  501    0  0.00000000000E+00  0.00000000000E+00 -0.18775945954E+03  0.18775945961E+03  0.50400001928E-02 0.  1.
    10030    2    1    2    0    0  0.00000000000E+00  0.00000000000E+00  0.46737111760E+03  0.84289003678E+03  0.70144697058E+03 0.  0.
        2    1    3    3  502    0  0.21721238505E+03 -0.26138282386E+03  0.12958704073E+03  0.36372379900E+03  0.25500000920E-02 0. -1.
       -2    1    3    3    0  502 -0.21721238505E+03  0.26138282386E+03  0.33778407687E+03  0.47916623778E+03  0.25500000920E-02 0.  1.
</event>
<event>
 5   0  0.2006362E-02  0.7099399E+03  0.7818609E-02  0.9700383E-01
       -2   -1    0    0    0  501  0.00000000000E+00  0.00000000000E+00  0.96829970420E+03  0.96829970420E+03  0.25500000920E-02 0.  1.
        2   -1    0    0  501    0  0.00000000000E+00  0.00000000000E+00 -0.13012876812E+03  0.13012876814E+03  0.25500000920E-02 0. -1.
    10030    2    1    2    0    0  0.00000000000E+00  0.00000000000E+00  0.83817093608E+03  0.10984284723E+04  0.70993985010E+03 0.  0.
        4    1    3    3  502    0 -0.10757049338E+03  0.11779626222E+03  0.90971234724E+03  0.92359381660E+03  0.12699999809E+01 0.  1.
       -4    1    3    3    0  502  0.10757049338E+03 -0.11779626222E+03 -0.71541411155E+02  0.17483465575E+03  0.12699999809E+01 0. -1.
</event>
<event>
 5   0  0.1237686E-02  0.7155898E+03  0.7818609E-02  0.9690937E-01
       -1   -1    0    0    0  501  0.00000000000E+00  0.00000000000E+00  0.38795662613E+03  0.38795662617E+03  0.50400001928E-02 0. -1.
        1   -1    0    0  501    0  0.00000000000E+00  0.00000000000E+00 -0.32997811838E+03  0.32997811842E+03  0.50400001928E-02 0.  1.
    10030    2    1    2    0    0  0.00000000000E+00  0.00000000000E+00  0.57978507750E+02  0.71793474459E+03  0.71558981975E+03 0.  0.
        5    1    3    3  502    0  0.35704720485E+03 -0.14499724568E+01  0.63254388800E+01  0.35713710264E+03  0.46999998093E+01 0.  1.
       -5    1    3    3    0  502 -0.35704720485E+03  0.14499724568E+01  0.51653068870E+02  0.36079764194E+03  0.46999998093E+01 0. -1.
</event>
<event>
 5   0  0.1973067E-02  0.7024130E+03  0.7818609E-02  0.9713115E-01
       -2   -1    0    0    0  501  0.00000000000E+00  0.00000000000E+00  0.13072683343E+03  0.13072683345E+03  0.25500000920E-02 0. -1.
        2   -1    0    0  501    0  0.00000000000E+00  0.00000000000E+00 -0.94353999882E+03  0.94353999883E+03  0.25500000920E-02 0.  1.
    10030    2    1    2    0    0  0.00000000000E+00  0.00000000000E+00 -0.81281316540E+03  0.10742668323E+04  0.70241297332E+03 0.  0.
        5    1    3    3  502    0  0.16977899238E+03 -0.28203616336E+03 -0.21937838835E+03  0.39562390091E+03  0.46999998093E+01 0. -1.
       -5    1    3    3    0  502 -0.16977899238E+03  0.28203616336E+03 -0.59343477704E+03  0.67864293137E+03  0.46999998093E+01 0.  1.
</event>
<event>
 5   0  0.1973067E-02  0.6992981E+03  0.7818609E-02  0.9718433E-01
        2   -1    0    0  501    0  0.00000000000E+00  0.00000000000E+00  0.42432648120E+03  0.42432648120E+03  0.25500000920E-02 0.  1.
       -2   -1    0    0    0  501  0.00000000000E+00  0.00000000000E+00 -0.28811414922E+03  0.28811414923E+03  0.25500000920E-02 0. -1.
    10030    2    1    2    0    0  0.00000000000E+00  0.00000000000E+00  0.13621233197E+03  0.71244063044E+03  0.69929811420E+03 0.  0.
        5    1    3    3  502    0 -0.22320455454E+03  0.26560580646E+03  0.11211116884E+03  0.36463368161E+03  0.46999998093E+01 0. -1.
       -5    1    3    3    0  502  0.22320455454E+03 -0.26560580646E+03  0.24101163133E+02  0.34780694883E+03  0.46999998093E+01 0.  1.
</event>
<event>
 5   0  0.2006362E-02  0.7024906E+03  0.7818609E-02  0.9712982E-01
       -2   -1    0    0    0  501  0.00000000000E+00  0.00000000000E+00  0.30046758114E+03  0.30046758115E+03  0.25500000920E-02 0. -1.
        2   -1    0    0  501    0  0.00000000000E+00  0.00000000000E+00 -0.41060422627E+03  0.41060422628E+03  0.25500000920E-02 0.  1.
    10030    2    1    2    0    0  0.00000000000E+00  0.00000000000E+00 -0.11013664513E+03  0.71107180743E+03  0.70249059405E+03 0.  0.
        4    1    3    3  502    0 -0.83827380077E+01 -0.64831003761E+02  0.29425353234E+03  0.30143006410E+03  0.12699999809E+01 0. -1.
       -4    1    3    3    0  502  0.83827380077E+01  0.64831003761E+02 -0.40439017747E+03  0.40964174334E+03  0.12699999809E+01 0.  1.
</event>
<event>
 5   0  0.1226303E-02  0.7030786E+03  0.7818609E-02  0.9711982E-01
       -1   -1    0    0    0  501  0.00000000000E+00  0.00000000000E+00  0.38418906623E+03  0.38418906626E+03  0.50400001928E-02 0. -1.
        1   -1    0    0  501    0  0.00000000000E+00  0.00000000000E+00 -0.32166423809E+03  0.32166423813E+03  0.50400001928E-02 0.  1.
    10030    2    1    2    0    0  0.00000000000E+00  0.00000000000E+00  0.62524828139E+02  0.70585330439E+03  0.70307861096E+03 0.  0.
        4    1    3    3  502    0  0.62025970673E+01 -0.92299007069E+02  0.37174786039E+03  0.38308701821E+03  0.12699999809E+01 0. -1.
       -4    1    3    3    0  502 -0.62025970673E+01  0.92299007069E+02 -0.30922303225E+03  0.32276628618E+03  0.12699999809E+01 0.  1.
</event>
<event>
 5   0  0.7947250E-03  0.6950679E+03  0.7818609E-02  0.9725704E-01
       -4   -1    0    0    0  501  0.00000000000E+00  0.00000000000E+00  0.12101113184E+03  0.12101779592E+03  0.12699999809E+01 0.  1.
        4   -1    0    0  501    0  0.00000000000E+00  0.00000000000E+00 -0.99805417845E+03  0.99805498648E+03  0.12699999809E+01 0. -1.
    10030    2    1    2    0    0  0.00000000000E+00  0.00000000000E+00 -0.87704304662E+03  0.11190727824E+04  0.69506790076E+03 0.  0.
        3    1    3    3  502    0 -0.28576437348E+03  0.19100890730E+03 -0.52115421498E+03  0.62429752988E+03  0.10100000352E+00 0.  1.
       -3    1    3    3    0  502  0.28576437348E+03 -0.19100890730E+03 -0.35588883163E+03  0.49477525251E+03  0.10100000352E+00 0. -1.
</event>
<event>
 5   0  0.7947250E-03  0.6982454E+03  0.7818609E-02  0.9720238E-01
       -3   -1    0    0    0  501  0.00000000000E+00  0.00000000000E+00  0.44598940108E+03  0.44598941251E+03  0.10100000352E+00 0.  1.
        3   -1    0    0  501    0  0.00000000000E+00  0.00000000000E+00 -0.27329491814E+03  0.27329493681E+03  0.10100000352E+00 0. -1.
    10030    2    1    2    0    0  0.00000000000E+00  0.00000000000E+00  0.17269448293E+03  0.71928434932E+03  0.69824536571E+03 0.  0.
        1    1    3    3  502    0  0.15526391833E+03  0.16454969865E+03  0.36025981040E+03  0.42540641589E+03  0.50400001928E-02 0.  1.
       -1    1    3    3    0  502 -0.15526391833E+03 -0.16454969865E+03 -0.18756532747E+03  0.29387793343E+03  0.50400001928E-02 0. -1.
</event>
<event>
 5   0  0.2026361E-02  0.6672850E+03  0.7818609E-02  0.9774875E-01
       -2   -1    0    0    0  501  0.00000000000E+00  0.00000000000E+00  0.61020912745E+02  0.61020912798E+02  0.25500000920E-02 0. -1.
        2   -1    0    0  501    0  0.00000000000E+00  0.00000000000E+00 -0.18242483986E+04  0.18242483986E+04  0.25500000920E-02 0.  1.
    10030    2    1    2    0    0  0.00000000000E+00  0.00000000000E+00 -0.17632274859E+04  0.18852693114E+04  0.66728495385E+03 0.  0.
        2    1    3    3  502    0 -0.19404180480E+03 -0.25600727178E+03 -0.62694051286E+03  0.70444755084E+03  0.25500000920E-02 0. -1.
       -2    1    3    3    0  502  0.19404180480E+03  0.25600727178E+03 -0.11362869730E+04  0.11808217606E+04  0.25500000920E-02 0.  1.
</event>
<event>
 5   0  0.1223742E-02  0.6949154E+03  0.7818609E-02  0.9725967E-01
        1   -1    0    0  501    0  0.00000000000E+00  0.00000000000E+00  0.31528199070E+03  0.31528199074E+03  0.50400001928E-02 0.  1.
       -1   -1    0    0    0  501  0.00000000000E+00  0.00000000000E+00 -0.38291704413E+03  0.38291704417E+03  0.50400001928E-02 0. -1.
    10030    2    1    2    0    0  0.00000000000E+00  0.00000000000E+00 -0.67635053437E+02  0.69819903490E+03  0.69491538470E+03 0.  0.
        2    1    3    3  502    0 -0.75051707297E+01 -0.18482446146E+03 -0.32933391823E+03  0.37772640740E+03  0.25500000920E-02 0. -1.
       -2    1    3    3    0  502  0.75051707297E+01  0.18482446146E+03  0.26169886479E+03  0.32047262751E+03  0.25500000920E-02 0.  1.
</event>
<event>
 5   0  0.1948138E-02  0.6973025E+03  0.7818609E-02  0.9721856E-01
        2   -1    0    0  501    0  0.00000000000E+00  0.00000000000E+00  0.11678162582E+04  0.11678162582E+04  0.25500000920E-02 0.  1.
       -2   -1    0    0    0  501  0.00000000000E+00  0.00000000000E+00 -0.10408973119E+03  0.10408973122E+03  0.25500000920E-02 0. -1.
    10030    2    1    2    0    0  0.00000000000E+00  0.00000000000E+00  0.10637265270E+04  0.12719059894E+04  0.69730246069E+03 0.  0.
        3    1    3    3  502    0  0.26430788517E+03  0.10417728418E+03  0.90050893769E+03  0.94426051584E+03  0.10100000352E+00 0.  1.
       -3    1    3    3    0  502 -0.26430788517E+03 -0.10417728418E+03  0.16321758932E+03  0.32764547360E+03  0.10100000352E+00 0. -1.
</event>
<event>
 5   0  0.1973067E-02  0.7540028E+03  0.7818609E-02  0.9629091E-01
       -2   -1    0    0    0  501  0.00000000000E+00  0.00000000000E+00  0.33741963932E+03  0.33741963933E+03  0.25500000920E-02 0.  1.
        2   -1    0    0  501    0  0.00000000000E+00  0.00000000000E+00 -0.42122637511E+03  0.42122637512E+03  0.25500000920E-02 0. -1.
    10030    2    1    2    0    0  0.00000000000E+00  0.00000000000E+00 -0.83806735788E+02  0.75864601446E+03  0.75400278931E+03 0.  0.
        5    1    3    3  502    0  0.84543091214E+01 -0.23740366478E+03  0.25260374223E+03  0.34678915205E+03  0.46999998093E+01 0.  1.
       -5    1    3    3    0  502 -0.84543091214E+01  0.23740366478E+03 -0.33641047802E+03  0.41185686241E+03  0.46999998093E+01 0. -1.
</event>
<event>
 5   0  0.1237686E-02  0.7000081E+03  0.7818609E-02  0.9717218E-01
        1   -1    0    0  501    0  0.00000000000E+00  0.00000000000E+00  0.45332270977E+03  0.45332270980E+03  0.50400001928E-02 0. -1.
       -1   -1    0    0    0  501  0.00000000000E+00  0.00000000000E+00 -0.27023319422E+03  0.27023319426E+03  0.50400001928E-02 0.  1.
    10030    2    1    2    0    0  0.00000000000E+00  0.00000000000E+00  0.18308951556E+03  0.72355590406E+03  0.70000812538E+03 0.  0.
        5    1    3    3  502    0 -0.26473034449E+03 -0.21792880297E+03  0.16394110362E+03  0.38009721640E+03  0.46999998093E+01 0. -1.
       -5    1    3    3    0  502  0.26473034449E+03  0.21792880297E+03  0.19148411935E+02  0.34345868767E+03  0.46999998093E+01 0.  1.
</event>
<event>
 5   0  0.1197259E-02  0.7039498E+03  0.7818609E-02  0.9710501E-01
        1   -1    0    0  501    0  0.00000000000E+00  0.00000000000E+00  0.42459167093E+03  0.42459167096E+03  0.50400001928E-02 0. -1.
       -1   -1    0    0    0  501  0.00000000000E+00  0.00000000000E+00 -0.29177754578E+03  0.29177754582E+03  0.50400001928E-02 0.  1.
    10030    2    1    2    0    0  0.00000000000E+00  0.00000000000E+00  0.13281412515E+03  0.71636921678E+03  0.70394975879E+03 0.  0.
        3    1    3    3  502    0 -0.31369611213E+03 -0.10400533729E+03 -0.56824131371E+02  0.33533767020E+03  0.10100000352E+00 0.  1.
       -3    1    3    3    0  502  0.31369611213E+03  0.10400533729E+03  0.18963825652E+03  0.38103154658E+03  0.10100000352E+00 0. -1.
</event>
<event>
 5   0  0.1948138E-02  0.6994957E+03  0.7818609E-02  0.9718095E-01
       -2   -1    0    0    0  501  0.00000000000E+00  0.00000000000E+00  0.19941444952E+03  0.19941444954E+03  0.25500000920E-02 0.  1.
        2   -1    0    0  501    0  0.00000000000E+00  0.00000000000E+00 -0.61341362911E+03  0.61341362912E+03  0.25500000920E-02 0. -1.
    10030    2    1    2    0    0  0.00000000000E+00  0.00000000000E+00 -0.41399917959E+03  0.81282807865E+03  0.69949565027E+03 0.  0.
        3    1    3    3  502    0 -0.64681212816E+02  0.13394921023E+03  0.16082611906E+03  0.21906871293E+03  0.10100000352E+00 0.  1.
       -3    1    3    3    0  502  0.64681212816E+02 -0.13394921023E+03 -0.57482529865E+03  0.59375936572E+03  0.10100000352E+00 0. -1.
</event>
<event>
 5   0  0.1909053E-02  0.7014382E+03  0.7818609E-02  0.9714776E-01
       -2   -1    0    0    0  501  0.00000000000E+00  0.00000000000E+00  0.45264478168E+03  0.45264478169E+03  0.25500000920E-02 0.  1.
        2   -1    0    0  501    0  0.00000000000E+00  0.00000000000E+00 -0.27174484501E+03  0.27174484502E+03  0.25500000920E-02 0. -1.
    10030    2    1    2    0    0  0.00000000000E+00  0.00000000000E+00  0.18089993668E+03  0.72438962671E+03  0.70143819699E+03 0.  0.
        1    1    3    3  502    0  0.40893428569E+02  0.28744285266E+03 -0.11273164806E+03  0.31145479695E+03  0.50400001928E-02 0. -1.
       -1    1    3    3    0  502 -0.40893428569E+02 -0.28744285266E+03  0.29363158474E+03  0.41293482976E+03  0.50400001928E-02 0.  1.
</event>
<event>
 5   0  0.1909053E-02  0.6779028E+03  0.7818609E-02  0.9755786E-01
       -2   -1    0    0    0  501  0.00000000000E+00  0.00000000000E+00  0.48012545284E+03  0.48012545285E+03  0.25500000920E-02 0. -1.
        2   -1    0    0  501    0  0.00000000000E+00  0.00000000000E+00 -0.23928755590E+03  0.23928755591E+03  0.25500000920E-02 0.  1.
    10030    2    1    2    0    0  0.00000000000E+00  0.00000000000E+00  0.24083789694E+03  0.71941300876E+03  0.67790278401E+03 0.  0.
        1    1    3    3  502    0  0.19819041187E+03  0.77448260183E+01  0.41211070101E+03  0.45735615400E+03  0.50400001928E-02 0. -1.
       -1    1    3    3    0  502 -0.19819041187E+03 -0.77448260183E+01 -0.17127280407E+03  0.26205685476E+03  0.50400001928E-02 0.  1.
</event>
<event>
 5   0  0.2026361E-02  0.7001685E+03  0.7818609E-02  0.9716944E-01
        2   -1    0    0  501    0  0.00000000000E+00  0.00000000000E+00  0.94844706355E+03  0.94844706355E+03  0.25500000920E-02 0.  1.
       -2   -1    0    0    0  501  0.00000000000E+00  0.00000000000E+00 -0.12922067780E+03  0.12922067782E+03  0.25500000920E-02 0. -1.
    10030    2    1    2    0    0  0.00000000000E+00  0.00000000000E+00  0.81922638575E+03  0.10776677414E+04  0.70016847236E+03 0.  0.
        2    1    3    3  502    0  0.21797050546E+03 -0.25815796761E+03  0.55069833909E+03  0.64608462153E+03  0.25500000920E-02 0. -1.
       -2    1    3    3    0  502 -0.21797050546E+03  0.25815796761E+03  0.26852804665E+03  0.43158311985E+03  0.25500000920E-02 0.  1.
</event>
<event>
 5   0  0.1257442E-02  0.7180732E+03  0.7818609E-02  0.9686814E-01
       -1   -1    0    0    0  501  0.00000000000E+00  0.00000000000E+00  0.24805637646E+03  0.24805637651E+03  0.50400001928E-02 0. -1.
        1   -1    0    0  501    0  0.00000000000E+00  0.00000000000E+00 -0.51966931585E+03  0.51966931588E+03  0.50400001928E-02 0.  1.
    10030    2    1    2    0    0  0.00000000000E+00  0.00000000000E+00 -0.27161293940E+03  0.76772569239E+03  0.71807322043E+03 0.  0.
        1    1    3    3  502    0  0.15362316285E+03 -0.90609661036E+02  0.19734403463E+03  0.26599784748E+03  0.50400001928E-02 0. -1.
       -1    1    3    3    0  502 -0.15362316285E+03  0.90609661036E+02 -0.46895697402E+03  0.50172784490E+03  0.50400001928E-02 0.  1.
</event>
<event>
 5   0  0.1909053E-02  0.7032132E+03  0.7818609E-02  0.9711753E-01
        2   -1    0    0  501    0  0.00000000000E+00  0.00000000000E+00  0.14285428984E+03  0.14285428986E+03  0.25500000920E-02 0.  1.
       -2   -1    0    0    0  501  0.00000000000E+00  0.00000000000E+00 -0.86540759397E+03  0.86540759398E+03  0.25500000920E-02 0. -1.
    10030    2    1    2    0    0  0.00000000000E+00  0.00000000000E+00 -0.72255330413E+03  0.10082618838E+04  0.70321316049E+03 0.  0.
        1    1    3    3  502    0 -0.25182465993E+03 -0.54764522287E+02 -0.18326225090E+02  0.25836149636E+03  0.50400001928E-02 0.  1.
       -1    1    3    3    0  502  0.25182465993E+03  0.54764522287E+02 -0.70422707904E+03  0.74990038748E+03  0.50400001928E-02 0. -1.
</event>
<event>
 5   0  0.2006362E-02  0.6931165E+03  0.7818609E-02  0.9729077E-01
        2   -1    0    0  501    0  0.00000000000E+00  0.00000000000E+00  0.36920182122E+03  0.36920182123E+03  0.25500000920E-02 0.  1.
       -2   -1    0    0    0  501  0.00000000000E+00  0.00000000000E+00 -0.32530345909E+03  0.32530345910E+03  0.25500000920E-02 0. -1.
    10030    2    1    2    0    0  0.00000000000E+00  0.00000000000E+00  0.43898362136E+02  0.69450528033E+03  0.69311652570E+03 0.  0.
        4    1    3    3  502    0 -0.41190344996E+02  0.17645109148E+03  0.31795500417E+03  0.36596260708E+03  0.12699999809E+01 0.  1.
       -4    1    3    3    0  502  0.41190344996E+02 -0.17645109148E+03 -0.27405664203E+03  0.32854267325E+03  0.12699999809E+01 0. -1.
</event>
<event>
 5   0  0.1948138E-02  0.7014243E+03  0.7818609E-02  0.9714800E-01
        2   -1    0    0  501    0  0.00000000000E+00  0.00000000000E+00  0.22878818955E+03  0.22878818956E+03  0.25500000920E-02 0.  1.
       -2   -1    0    0    0  501  0.00000000000E+00  0.00000000000E+00 -0.53761079771E+03  0.53761079771E+03  0.25500000920E-02 0. -1.
    10030    2    1    2    0    0  0.00000000000E+00  0.00000000000E+00 -0.30882260816E+03  0.76639898728E+03  0.70142426846E+03 0.  0.
        3    1    3    3  502    0  0.59947440640E+02 -0.30343649069E+03  0.26225646813E+02  0.31041133078E+03  0.10100000352E+00 0.  1.
       -3    1    3    3    0  502 -0.59947440640E+02  0.30343649069E+03 -0.33504825497E+03  0.45598765650E+03  0.10100000352E+00 0. -1.
</event>
<event>
 5   0  0.1197259E-02  0.6992096E+03  0.7818609E-02  0.9718585E-01
       -1   -1    0    0    0  501  0.00000000000E+00  0.00000000000E+00  0.14834937496E+03  0.14834937505E+03  0.50400001928E-02 0.  1.
        1   -1    0    0  501    0  0.00000000000E+00  0.00000000000E+00 -0.82388961383E+03  0.82388961384E+03  0.50400001928E-02 0. -1.
    10030    2    1    2    0    0  0.00000000000E+00  0.00000000000E+00 -0.67554023887E+03  0.97223898889E+03  0.69920958030E+03 0.  0.
        3    1    3    3  502    0  0.22797074802E+03 -0.10736712014E+03 -0.81063231998E+00  0.25199013426E+03  0.10100000352E+00 0.  1.
       -3    1    3    3    0  502 -0.22797074802E+03  0.10736712014E+03 -0.67472960655E+03  0.72024885463E+03  0.10100000352E+00 0. -1.
</event>
<event>
 5   0  0.7947250E-03  0.7031553E+03  0.7818609E-02  0.9711851E-01
        4   -1    0    0  501    0  0.00000000000E+00  0.00000000000E+00  0.45722832751E+03  0.45723009128E+03  0.12699999809E+01 0.  1.
       -4   -1    0    0    0  501  0.00000000000E+00  0.00000000000E+00 -0.27033562889E+03  0.27033861202E+03  0.12699999809E+01 0. -1.
    10030    2    1    2    0    0  0.00000000000E+00  0.00000000000E+00  0.18689269862E+03  0.72756870330E+03  0.70315527249E+03 0.  0.
        4    1    3    3  502    0 -0.11606602109E+03  0.12671111347E+03 -0.22392466323E+03  0.28226033237E+03  0.12699999809E+01 0. -1.
       -4    1    3    3    0  502  0.11606602109E+03 -0.12671111347E+03  0.41081736184E+03  0.44530837093E+03  0.12699999809E+01 0.  1.
</event>
<event>
 5   0  0.1909053E-02  0.7095760E+03  0.7818609E-02  0.9700995E-01
       -2   -1    0    0    0  501  0.00000000000E+00  0.00000000000E+00  0.12463118232E+04  0.12463118232E+04  0.25500000920E-02 0. -1.
        2   -1    0    0  501    0  0.00000000000E+00  0.00000000000E+00 -0.10099761375E+03  0.10099761378E+03  0.25500000920E-02 0.  1.
    10030    2    1    2    0    0  0.00000000000E+00  0.00000000000E+00  0.11453142095E+04  0.13473094370E+04  0.70957598651E+03 0.  0.
        1    1    3    3  502    0  0.31123691242E+03  0.11887226197E+03  0.80423872037E+03  0.87051648445E+03  0.50400001928E-02 0. -1.
       -1    1    3    3    0  502 -0.31123691242E+03 -0.11887226197E+03  0.34107548909E+03  0.47679295255E+03  0.50400001928E-02 0.  1.
</event>
<event>
 5   0  0.2006362E-02  0.6995814E+03  0.7818609E-02  0.9717948E-01
       -2   -1    0    0    0  501  0.00000000000E+00  0.00000000000E+00  0.14350899691E+03  0.14350899693E+03  0.25500000920E-02 0.  1.
        2   -1    0    0  501    0  0.00000000000E+00  0.00000000000E+00 -0.85258450799E+03  0.85258450799E+03  0.25500000920E-02 0. -1.
    10030    2    1    2    0    0  0.00000000000E+00  0.00000000000E+00 -0.70907551109E+03  0.99609350492E+03  0.69958143924E+03 0.  0.
        4    1    3    3  502    0 -0.14077010854E+03 -0.33203983536E+02 -0.80801124967E+03  0.82085474993E+03  0.12699999809E+01 0. -1.
       -4    1    3    3    0  502  0.14077010854E+03  0.33203983536E+02  0.98935738587E+02  0.17523875499E+03  0.12699999809E+01 0.  1.
</event>
<event>
 5   0  0.1948138E-02  0.6998758E+03  0.7818609E-02  0.9717445E-01
        2   -1    0    0  501    0  0.00000000000E+00  0.00000000000E+00  0.15388753559E+04  0.15388753559E+04  0.25500000920E-02 0. -1.
       -2   -1    0    0    0  501  0.00000000000E+00  0.00000000000E+00 -0.79575350761E+02  0.79575350802E+02  0.25500000920E-02 0.  1.
    10030    2    1    2    0    0  0.00000000000E+00  0.00000000000E+00  0.14593000052E+04  0.16184507067E+04  0.69987583545E+03 0.  0.
        3    1    3    3  502    0  0.31113483534E+03 -0.13266394510E+03  0.93715493206E+03  0.99632524056E+03  0.10100000352E+00 0.  1.
       -3    1    3    3    0  502 -0.31113483534E+03  0.13266394510E+03  0.52214507311E+03  0.62212546618E+03  0.10100000352E+00 0. -1.
</event>
<event>
 5   0  0.1257442E-02  0.7016918E+03  0.7818609E-02  0.9714343E-01
       -1   -1    0    0    0  501  0.00000000000E+00  0.00000000000E+00  0.14317640991E+03  0.14317641000E+03  0.50400001928E-02 0. -1.
        1   -1    0    0  501    0  0.00000000000E+00  0.00000000000E+00 -0.85972851145E+03  0.85972851146E+03  0.50400001928E-02 0.  1.
    10030    2    1    2    0    0  0.00000000000E+00  0.00000000000E+00 -0.71655210154E+03  0.10029049215E+04  0.70169178938E+03 0.  0.
        1    1    3    3  502    0 -0.10465037203E+03  0.24809826514E+03 -0.67974483399E+03  0.73113438498E+03  0.50400001928E-02 0.  1.
       -1    1    3    3    0  502  0.10465037203E+03 -0.24809826514E+03 -0.36807267547E+02  0.27177053649E+03  0.50400001928E-02 0. -1.
</event>
<event>
 5   0  0.2026361E-02  0.7031509E+03  0.7818609E-02  0.9711859E-01
        2   -1    0    0  501    0  0.00000000000E+00  0.00000000000E+00  0.82280221508E+03  0.82280221508E+03  0.25500000920E-02 0. -1.
       -2   -1    0    0    0  501  0.00000000000E+00  0.00000000000E+00 -0.15022478627E+03  0.15022478630E+03  0.25500000920E-02 0.  1.
    10030    2    1    2    0    0  0.00000000000E+00  0.00000000000E+00  0.67257742880E+03  0.97302700138E+03  0.70315087120E+03 0.  0.
        2    1    3    3  502    0 -0.61294816855E+01  0.62207529702E+02  0.81505075602E+03  0.81744423797E+03  0.25500000920E-02 0. -1.
       -2    1    3    3    0  502  0.61294816855E+01 -0.62207529702E+02 -0.14247332721E+03  0.15558276341E+03  0.25500000920E-02 0.  1.
</event>
<event>
 5   0  0.1226303E-02  0.6966951E+03  0.7818609E-02  0.9722901E-01
       -1   -1    0    0    0  501  0.00000000000E+00  0.00000000000E+00  0.70614279559E+03  0.70614279561E+03  0.50400001928E-02 0. -1.
        1   -1    0    0  501    0  0.00000000000E+00  0.00000000000E+00 -0.17184347567E+03  0.17184347574E+03  0.50400001928E-02 0.  1.
    10030    2    1    2    0    0  0.00000000000E+00  0.00000000000E+00  0.53429931992E+03  0.87798627135E+03  0.69669514812E+03 0.  0.
        4    1    3    3  502    0 -0.17197368277E+03 -0.12111694702E+02  0.64860760822E+03  0.67112970658E+03  0.12699999809E+01 0. -1.
       -4    1    3    3    0  502  0.17197368277E+03  0.12111694702E+02 -0.11430828830E+03  0.20685656477E+03  0.12699999809E+01 0.  1.
</event>
<event>
 5   0  0.1223742E-02  0.6981973E+03  0.7818609E-02  0.9720320E-01
        1   -1    0    0  501    0  0.00000000000E+00  0.00000000000E+00  0.47629284322E+03  0.47629284325E+03  0.50400001928E-02 0. -1.
       -1   -1    0    0    0  501  0.00000000000E+00  0.00000000000E+00 -0.25587174753E+03  0.25587174758E+03  0.50400001928E-02 0.  1.
    10030    2    1    2    0    0  0.00000000000E+00  0.00000000000E+00  0.22042109569E+03  0.73216459082E+03  0.69819734218E+03 0.  0.
        2    1    3    3  502    0 -0.16644069251E+03  0.17084893873E+03 -0.15709856275E+03  0.28560781224E+03  0.25500000920E-02 0.  1.
       -2    1    3    3    0  502  0.16644069251E+03 -0.17084893873E+03  0.37751965844E+03  0.44655677859E+03  0.25500000920E-02 0. -1.
</event>
<event>
 5   0  0.1973067E-02  0.7079325E+03  0.7818609E-02  0.9703762E-01
        2   -1    0    0  501    0  0.00000000000E+00  0.00000000000E+00  0.63487647603E+03  0.63487647604E+03  0.25500000920E-02 0. -1.
       -2   -1    0    0    0  501  0.00000000000E+00  0.00000000000E+00 -0.19734879509E+03  0.19734879510E+03  0.25500000920E-02 0.  1.
    10030    2    1    2    0    0  0.00000000000E+00  0.00000000000E+00  0.43752768095E+03  0.83222527114E+03  0.70793250408E+03 0.  0.
        5    1    3    3  502    0 -0.15970855145E+03  0.15611158937E+03  0.54154838962E+03  0.58581088931E+03  0.46999998093E+01 0. -1.
       -5    1    3    3    0  502  0.15970855145E+03 -0.15611158937E+03 -0.10402070867E+03  0.24641438183E+03  0.46999998093E+01 0.  1.
</event>
<event>
 5   0  0.1257442E-02  0.7128387E+03  0.7818609E-02  0.9695525E-01
       -1   -1    0    0    0  501  0.00000000000E+00  0.00000000000E+00  0.44986503947E+03  0.44986503949E+03  0.50400001928E-02 0.  1.
        1   -1    0    0  501    0  0.00000000000E+00  0.00000000000E+00 -0.28238411224E+03  0.28238411228E+03  0.50400001928E-02 0. -1.
    10030    2    1    2    0    0  0.00000000000E+00  0.00000000000E+00  0.16748092723E+03  0.73224915177E+03  0.71283866287E+03 0.  0.
        1    1    3    3  502    0  0.17739267794E+03 -0.21229820507E+03  0.31457263285E+03  0.41892079374E+03  0.50400001928E-02 0.  1.
       -1    1    3    3    0  502 -0.17739267794E+03  0.21229820507E+03 -0.14709170562E+03  0.31332835804E+03  0.50400001928E-02 0. -1.
</event>
<event>
 5   0  0.2006362E-02  0.6917024E+03  0.7818609E-02  0.9731528E-01
       -2   -1    0    0    0  501  0.00000000000E+00  0.00000000000E+00  0.25868491443E+03  0.25868491444E+03  0.25500000920E-02 0. -1.
        2   -1    0    0  501    0  0.00000000000E+00  0.00000000000E+00 -0.46238899604E+03  0.46238899605E+03  0.25500000920E-02 0.  1.
    10030    2    1    2    0    0  0.00000000000E+00  0.00000000000E+00 -0.20370408161E+03  0.72107391049E+03  0.69170241544E+03 0.  0.
        4    1    3    3  502    0  0.15149134667E+03  0.26151575226E+03 -0.27713253791E+03  0.41005386630E+03  0.12699999809E+01 0.  1.
       -4    1    3    3    0  502 -0.15149134667E+03 -0.26151575226E+03  0.73428456296E+02  0.31102004420E+03  0.12699999809E+01 0. -1.
</event>
<event>
 5   0  0.1237686E-02  0.6999100E+03  0.7818609E-02  0.9717386E-01
       -1   -1    0    0    0  501  0.00000000000E+00  0.00000000000E+00  0.13625183698E+04  0.13625183698E+04  0.50400001928E-02 0. -1.
        1   -1    0    0  501    0  0.00000000000E+00  0.00000000000E+00 -0.89883922054E+02  0.89883922196E+02  0.50400001928E-02 0.  1.
    10030    2    1    2    0    0  0.00000000000E+00  0.00000000000E+00  0.12726344477E+04  0.14524022920E+04  0.69990998009E+03 0.  0.
        5    1    3    3  502    0  0.16396909497E+02  0.32537455905E+03  0.90132440554E+03  0.95840765665E+03  0.46999998093E+01 0.  1.
       -5    1    3    3    0  502 -0.16396909497E+02 -0.32537455905E+03  0.37131004221E+03  0.49399463536E+03  0.46999998093E+01 0. -1.
</event>
<event>
 5   0  0.1948138E-02  0.7014304E+03  0.7818609E-02  0.9714789E-01
        2   -1    0    0  501    0  0.00000000000E+00  0.00000000000E+00  0.31919633142E+03  0.31919633143E+03  0.25500000920E-02 0.  1.
       -2   -1    0    0    0  501  0.00000000000E+00  0.00000000000E+00 -0.38534637687E+03  0.38534637688E+03  0.25500000920E-02 0. -1.
    10030    2    1    2    0    0  0.00000000000E+00  0.00000000000E+00 -0.66150045450E+02  0.70454270831E+03  0.70143039520E+03 0.  0.
        3    1    3    3  502    0  0.95340489079E+02  0.18046736412E+03  0.25339716559E+03  0.32537426466E+03  0.10100000352E+00 0.  1.
       -3    1    3    3    0  502 -0.95340489079E+02 -0.18046736412E+03 -0.31954721104E+03  0.37916844365E+03  0.10100000352E+00 0. -1.
</event>
<event>
 5   0  0.1948138E-02  0.6947407E+03  0.7818609E-02  0.9726269E-01
       -2   -1    0    0    0  501  0.00000000000E+00  0.00000000000E+00  0.24351051180E+03  0.24351051181E+03  0.25500000920E-02 0. -1.
        2   -1    0    0  501    0  0.00000000000E+00  0.00000000000E+00 -0.49552754433E+03  0.49552754434E+03  0.25500000920E-02 0.  1.
    10030    2    1    2    0    0  0.00000000000E+00  0.00000000000E+00 -0.25201703254E+03  0.73903805615E+03  0.69474071692E+03 0.  0.
        3    1    3    3  502    0  0.20978724387E+03 -0.23323632557E+03 -0.28470612472E+03  0.42363599813E+03  0.10100000352E+00 0.  1.
       -3    1    3    3    0  502 -0.20978724387E+03  0.23323632557E+03  0.32689092180E+02  0.31540205802E+03  0.10100000352E+00 0. -1.
</event>
<event>
 5   0  0.1197259E-02  0.6993596E+03  0.7818609E-02  0.9718328E-01
       -1   -1    0    0    0  501  0.00000000000E+00  0.00000000000E+00  0.19259875987E+03  0.19259875993E+03  0.50400001928E-02 0. -1.
        1   -1    0    0  501    0  0.00000000000E+00  0.00000000000E+00 -0.63487403852E+03  0.63487403854E+03  0.50400001928E-02 0.  1.
    10030    2    1    2    0    0  0.00000000000E+00  0.00000000000E+00 -0.44227527865E+03  0.82747279847E+03  0.69935957140E+03 0.  0.
        3    1    3    3  502    0  0.15969818168E+03  0.31062642333E+03 -0.24106505094E+03  0.42438738564E+03  0.10100000352E+00 0. -1.
       -3    1    3    3    0  502 -0.15969818168E+03 -0.31062642333E+03 -0.20121022771E+03  0.40308541284E+03  0.10100000352E+00 0.  1.
</event>
<event>
 5   0  0.2026361E-02  0.6999633E+03  0.7818609E-02  0.9717295E-01
       -2   -1    0    0    0  501  0.00000000000E+00  0.00000000000E+00  0.24417779359E+03  0.24417779360E+03  0.25500000920E-02 0. -1.
        2   -1    0    0  501    0  0.00000000000E+00  0.00000000000E+00 -0.50163099582E+03  0.50163099582E+03  0.25500000920E-02 0.  1.
    10030    2    1    2    0    0  0.00000000000E+00  0.00000000000E+00 -0.25745320223E+03  0.74580878943E+03  0.69996328407E+03 0.  0.
        2    1    3    3  502    0 -0.26055341458E+03  0.11903495333E+03  0.85514480985E+02  0.29894837084E+03  0.25500000920E-02 0. -1.
       -2    1    3    3    0  502  0.26055341458E+03 -0.11903495333E+03 -0.34296768321E+03  0.44686041859E+03  0.25500000920E-02 0.  1.
</event>
<event>
 5   0  0.2006362E-02  0.7042477E+03  0.7818609E-02  0.9709996E-01
        2   -1    0    0  501    0  0.00000000000E+00  0.00000000000E+00  0.12136281096E+04  0.12136281096E+04  0.25500000920E-02 0.  1.
       -2   -1    0    0    0  501  0.00000000000E+00  0.00000000000E+00 -0.10216573415E+03  0.10216573418E+03  0.25500000920E-02 0. -1.
    10030    2    1    2    0    0  0.00000000000E+00  0.00000000000E+00  0.11114623755E+04  0.13157938438E+04  0.70424770307E+03 0.  0.
        4    1    3    3  502    0 -0.17003189376E+03 -0.13416838534E+03  0.37018962169E+02  0.21973624412E+03  0.12699999809E+01 0. -1.
       -4    1    3    3    0  502  0.17003189376E+03  0.13416838534E+03  0.10744434133E+04  0.10960575997E+04  0.12699999809E+01 0.  1.
</event>
<event>
 5   0  0.2006362E-02  0.6969439E+03  0.7818609E-02  0.9722473E-01
       -2   -1    0    0    0  501  0.00000000000E+00  0.00000000000E+00  0.56085733207E+02  0.56085733265E+02  0.25500000920E-02 0.  1.
        2   -1    0    0  501    0  0.00000000000E+00  0.00000000000E+00 -0.21651265533E+04  0.21651265533E+04  0.25500000920E-02 0. -1.
    10030    2    1    2    0    0  0.00000000000E+00  0.00000000000E+00 -0.21090408201E+04  0.22212122866E+04  0.69694392972E+03 0.  0.
        4    1    3    3  502    0 -0.26526420663E+03 -0.15093429831E+03 -0.51851514309E+03  0.60166920167E+03  0.12699999809E+01 0.  1.
       -4    1    3    3    0  502  0.26526420663E+03  0.15093429831E+03 -0.15905256770E+04  0.16195430849E+04  0.12699999809E+01 0. -1.
</event>
<event>
 5   0  0.1223742E-02  0.7020132E+03  0.7818609E-02  0.9713796E-01
       -1   -1    0    0    0  501  0.00000000000E+00  0.00000000000E+00  0.96075275661E+03  0.96075275663E+03  0.50400001928E-02 0. -1.
        1   -1    0    0  501    0  0.00000000000E+00  0.00000000000E+00 -0.12823863040E+03  0.12823863050E+03  0.50400001928E-02 0.  1.
    10030    2    1    2    0    0  0.00000000000E+00  0.00000000000E+00  0.83251412622E+03  0.10889913871E+04  0.70201315578E+03 0.  0.
        2    1    3    3  502    0 -0.22082136816E+03 -0.21781328935E+03  0.16135789905E+03  0.34962991469E+03  0.25500000920E-02 0.  1.
       -2    1    3    3    0  502  0.22082136816E+03  0.21781328935E+03  0.67115622717E+03  0.73936147244E+03  0.25500000920E-02 0. -1.
</event>
<event>
 5   0  0.1197259E-02  0.6987051E+03  0.7818609E-02  0.9719449E-01
        1   -1    0    0  501    0  0.00000000000E+00  0.00000000000E+00  0.77167490001E+03  0.77167490002E+03  0.50400001928E-02 0.  1.
       -1   -1    0    0    0  501  0.00000000000E+00  0.00000000000E+00 -0.15815884711E+03  0.15815884719E+03  0.50400001928E-02 0. -1.
    10030    2    1    2    0    0  0.00000000000E+00  0.00000000000E+00  0.61351605290E+03  0.92983374721E+03  0.69870512399E+03 0.  0.
        3    1    3    3  502    0 -0.32129567848E+03  0.18781418424E+01  0.12422659647E+03  0.34448033021E+03  0.10100000352E+00 0. -1.
       -3    1    3    3    0  502  0.32129567848E+03 -0.18781418424E+01  0.48928945642E+03  0.58535341700E+03  0.10100000352E+00 0.  1.
</event>
<event>
 5   0  0.1257442E-02  0.6876283E+03  0.7818609E-02  0.9738626E-01
       -1   -1    0    0    0  501  0.00000000000E+00  0.00000000000E+00  0.75030802773E+02  0.75030802943E+02  0.50400001928E-02 0.  1.
        1   -1    0    0  501    0  0.00000000000E+00  0.00000000000E+00 -0.15754619157E+04  0.15754619157E+04  0.50400001928E-02 0. -1.
    10030    2    1    2    0    0  0.00000000000E+00  0.00000000000E+00 -0.15004311130E+04  0.16504927187E+04  0.68762830780E+03 0.  0.
        1    1    3    3  502    0  0.18740947599E+03 -0.25261296597E+03 -0.10834343270E+04  0.11281691199E+04  0.50400001928E-02 0. -1.
       -1    1    3    3    0  502 -0.18740947599E+03  0.25261296597E+03 -0.41699678596E+03  0.52232359874E+03  0.50400001928E-02 0.  1.
</event>
<event>
 5   0  0.1223742E-02  0.6958380E+03  0.7818609E-02  0.9724376E-01
        1   -1    0    0  501    0  0.00000000000E+00  0.00000000000E+00  0.56135215798E+03  0.56135215800E+03  0.50400001928E-02 0.  1.
       -1   -1    0    0    0  501  0.00000000000E+00  0.00000000000E+00 -0.21563583063E+03  0.21563583069E+03  0.50400001928E-02 0. -1.
    10030    2    1    2    0    0  0.00000000000E+00  0.00000000000E+00  0.34571632734E+03  0.77698798870E+03  0.69583802396E+03 0.  0.
        2    1    3    3  502    0 -0.21625759363E+03  0.21528105859E+02  0.47623600142E+03  0.52348021471E+03  0.25500000920E-02 0.  1.
       -2    1    3    3    0  502  0.21625759363E+03 -0.21528105859E+02 -0.13051967407E+03  0.25350777398E+03  0.25500000920E-02 0. -1.
</event>
<event>
 5   0  0.1257442E-02  0.7033496E+03  0.7818609E-02  0.9711521E-01
        1   -1    0    0  501    0  0.00000000000E+00  0.00000000000E+00  0.27116549131E+03  0.27116549136E+03  0.50400001928E-02 0. -1.
       -1   -1    0    0    0  501  0.00000000000E+00  0.00000000000E+00 -0.45608735883E+03  0.45608735886E+03  0.50400001928E-02 0.  1.
    10030    2    1    2    0    0  0.00000000000E+00  0.00000000000E+00 -0.18492186752E+03  0.72725285021E+03  0.70334956533E+03 0.  0.
        1    1    3    3  502    0  0.32792123781E+03 -0.11922722629E+03 -0.47063424888E+02  0.35208299545E+03  0.50400001928E-02 0. -1.
       -1    1    3    3    0  502 -0.32792123781E+03  0.11922722629E+03 -0.13785844263E+03  0.37516985477E+03  0.50400001928E-02 0.  1.
</event>
<event>
 5   0  0.2026361E-02  0.7061027E+03  0.7818609E-02  0.9706852E-01
        2   -1    0    0  501    0  0.00000000000E+00  0.00000000000E+00  0.19522246129E+03  0.19522246131E+03  0.25500000920E-02 0.  1.
       -2   -1    0    0    0  501  0.00000000000E+00  0.00000000000E+00 -0.63847804376E+03  0.63847804377E+03  0.25500000920E-02 0. -1.
    10030    2    1    2    0    0  0.00000000000E+00  0.00000000000E+00 -0.44325558247E+03  0.83370050508E+03  0.70610269846E+03 0.  0.
        2    1    3    3  502    0  0.78325751677E+01 -0.15048905801E+03 -0.59859885025E+03  0.61727537561E+03  0.25500000920E-02 0. -1.
       -2    1    3    3    0  502 -0.78325751677E+01  0.15048905801E+03  0.15534326778E+03  0.21642512946E+03  0.25500000920E-02 0.  1.
</event>
<event>
 5   0  0.1226303E-02  0.7059981E+03  0.7818609E-02  0.9707029E-01
       -1   -1    0    0    0  501  0.00000000000E+00  0.00000000000E+00  0.29120553715E+03  0.29120553719E+03  0.50400001928E-02 0.  1.
        1   -1    0    0  501    0  0.00000000000E+00  0.00000000000E+00 -0.42790503717E+03  0.42790503720E+03  0.50400001928E-02 0. -1.
    10030    2    1    2    0    0  0.00000000000E+00  0.00000000000E+00 -0.13669950002E+03  0.71911057439E+03  0.70599806295E+03 0.  0.
        4    1    3    3  502    0 -0.14448548266E+03 -0.59502032539E+02 -0.39075692155E+03  0.42084335710E+03  0.12699999809E+01 0. -1.
       -4    1    3    3    0  502  0.14448548266E+03  0.59502032539E+02  0.25405742153E+03  0.29826721729E+03  0.12699999809E+01 0.  1.
</event>
<event>
 5   0  0.2006362E-02  0.7038924E+03  0.7818609E-02  0.9710599E-01
       -2   -1    0    0    0  501  0.00000000000E+00  0.00000000000E+00  0.17706127042E+03  0.17706127044E+03  0.25500000920E-02 0.  1.
        2   -1    0    0  501    0  0.00000000000E+00  0.00000000000E+00 -0.69956645688E+03  0.69956645688E+03  0.25500000920E-02 0. -1.
    10030    2    1    2    0    0  0.00000000000E+00  0.00000000000E+00 -0.52250518645E+03  0.87662772733E+03  0.70389239408E+03 0.  0.
        4    1    3    3  502    0 -0.20294779642E+02  0.41565662162E+01  0.17629844671E+03  0.17751594389E+03  0.12699999809E+01 0.  1.
       -4    1    3    3    0  502  0.20294779642E+02 -0.41565662162E+01 -0.69880363316E+03  0.69911178344E+03  0.12699999809E+01 0. -1.
</event>
<event>
 5   0  0.1226303E-02  0.6943952E+03  0.7818609E-02  0.9726866E-01
        1   -1    0    0  501    0  0.00000000000E+00  0.00000000000E+00  0.58558194196E+03  0.58558194198E+03  0.50400001928E-02 0.  1.
       -1   -1    0    0    0  501  0.00000000000E+00  0.00000000000E+00 -0.20585702937E+03  0.20585702944E+03  0.50400001928E-02 0. -1.
    10030    2    1    2    0    0  0.00000000000E+00  0.00000000000E+00  0.37972491258E+03  0.79143897142E+03  0.69439515857E+03 0.  0.
        4    1    3    3  502    0 -0.31987103869E+02  0.71655515757E+02 -0.19561484837E+03  0.21077113075E+03  0.12699999809E+01 0. -1.
       -4    1    3    3    0  502  0.31987103869E+02 -0.71655515757E+02  0.57533976096E+03  0.58066784067E+03  0.12699999809E+01 0.  1.
</event>
<event>
 5   0  0.1197259E-02  0.6891796E+03  0.7818609E-02  0.9735918E-01
        1   -1    0    0  501    0  0.00000000000E+00  0.00000000000E+00  0.70432254698E+03  0.70432254700E+03  0.50400001928E-02 0. -1.
       -1   -1    0    0    0  501  0.00000000000E+00  0.00000000000E+00 -0.16859055427E+03  0.16859055434E+03  0.50400001928E-02 0.  1.
    10030    2    1    2    0    0  0.00000000000E+00  0.00000000000E+00  0.53573199272E+03  0.87291310134E+03  0.68917959523E+03 0.  0.
        3    1    3    3  502    0  0.50971094916E+02 -0.27393043854E+03  0.52466430845E+03  0.59406109487E+03  0.10100000352E+00 0.  1.
       -3    1    3    3    0  502 -0.50971094916E+02  0.27393043854E+03  0.11067684266E+02  0.27885200647E+03  0.10100000352E+00 0. -1.
</event>
<event>
 5   0  0.2026361E-02  0.6979405E+03  0.7818609E-02  0.9720761E-01
        2   -1    0    0  501    0  0.00000000000E+00  0.00000000000E+00  0.66549975359E+03  0.66549975359E+03  0.25500000920E-02 0.  1.
       -2   -1    0    0    0  501  0.00000000000E+00  0.00000000000E+00 -0.18299064128E+03  0.18299064130E+03  0.25500000920E-02 0. -1.
    10030    2    1    2    0    0  0.00000000000E+00  0.00000000000E+00  0.48250911231E+03  0.84849039489E+03  0.69794047509E+03 0.  0.
        2    1    3    3  502    0 -0.20021636365E+03  0.14118238355E+03 -0.60870190616E+02  0.25243660156E+03  0.25500000920E-02 0. -1.
       -2    1    3    3    0  502  0.20021636365E+03 -0.14118238355E+03  0.54337930292E+03  0.59605379333E+03  0.25500000920E-02 0.  1.
</event>
<event>
 5   0  0.1909053E-02  0.6744397E+03  0.7818609E-02  0.9761970E-01
        2   -1    0    0  501    0  0.00000000000E+00  0.00000000000E+00  0.11506220769E+04  0.11506220769E+04  0.25500000920E-02 0. -1.
       -2   -1    0    0    0  501  0.00000000000E+00  0.00000000000E+00 -0.98831094920E+02  0.98831094953E+02  0.25500000920E-02 0.  1.
    10030    2    1    2    0    0  0.00000000000E+00  0.00000000000E+00  0.10517909820E+04  0.12494531719E+04  0.67443973704E+03 0.  0.
        1    1    3    3  502    0  0.18423217436E+03  0.53775692969E+02  0.12213199914E+02  0.19230829805E+03  0.50400001928E-02 0.  1.
       -1    1    3    3    0  502 -0.18423217436E+03 -0.53775692969E+02  0.10395777821E+04  0.10571448738E+04  0.50400001928E-02 0. -1.
</event>
<event>
 5   0  0.1973067E-02  0.7174529E+03  0.7818609E-02  0.9687842E-01
       -2   -1    0    0    0  501  0.00000000000E+00  0.00000000000E+00  0.18448051573E+03  0.18448051575E+03  0.25500000920E-02 0.  1.
        2   -1    0    0  501    0  0.00000000000E+00  0.00000000000E+00 -0.69755147804E+03  0.69755147804E+03  0.25500000920E-02 0. -1.
    10030    2    1    2    0    0  0.00000000000E+00  0.00000000000E+00 -0.51307096231E+03  0.88203199379E+03  0.71745287351E+03 0.  0.
        5    1    3    3  502    0  0.17701972314E+03 -0.66950806639E+02 -0.63113592403E+03  0.65891808101E+03  0.46999998093E+01 0. -1.
       -5    1    3    3    0  502 -0.17701972314E+03  0.66950806639E+02  0.11806496172E+03  0.22311391277E+03  0.46999998093E+01 0.  1.
</event>
<event>
 5   0  0.1226303E-02  0.6996633E+03  0.7818609E-02  0.9717808E-01
        1   -1    0    0  501    0  0.00000000000E+00  0.00000000000E+00  0.15548893200E+04  0.15548893200E+04  0.50400001928E-02 0.  1.
       -1   -1    0    0    0  501  0.00000000000E+00  0.00000000000E+00 -0.78707960148E+02  0.78707960309E+02  0.50400001928E-02 0. -1.
    10030    2    1    2    0    0  0.00000000000E+00  0.00000000000E+00  0.14761813599E+04  0.16335972803E+04  0.69966325264E+03 0.  0.
        4    1    3    3  502    0 -0.20693879804E+03  0.83657289424E+02  0.13670167873E+04  0.13851204705E+04  0.12699999809E+01 0.  1.
       -4    1    3    3    0  502  0.20693879804E+03 -0.83657289424E+02  0.10916457257E+03  0.24847680981E+03  0.12699999809E+01 0. -1.
</event>
<event>
 5   0  0.1257442E-02  0.7012776E+03  0.7818609E-02  0.9715050E-01
        1   -1    0    0  501    0  0.00000000000E+00  0.00000000000E+00  0.34485006188E+03  0.34485006191E+03  0.50400001928E-02 0.  1.
       -1   -1    0    0    0  501  0.00000000000E+00  0.00000000000E+00 -0.35652473450E+03  0.35652473454E+03  0.50400001928E-02 0. -1.
    10030    2    1    2    0    0  0.00000000000E+00  0.00000000000E+00 -0.11674672623E+02  0.70137479645E+03  0.70127762485E+03 0.  0.
        1    1    3    3  502    0 -0.24688221980E+03  0.53893401702E+02 -0.24895999006E+03  0.35473427502E+03  0.50400001928E-02 0. -1.
       -1    1    3    3    0  502  0.24688221980E+03 -0.53893401702E+02  0.23728531744E+03  0.34664052143E+03  0.50400001928E-02 0.  1.
</event>
<event>
 5   0  0.1197259E-02  0.7006955E+03  0.7818609E-02  0.9716044E-01
        1   -1    0    0  501    0  0.00000000000E+00  0.00000000000E+00  0.11475591899E+04  0.11475591899E+04  0.50400001928E-02 0.  1.
       -1   -1    0    0    0  501  0.00000000000E+00  0.00000000000E+00 -0.10696053716E+03  0.10696053728E+03  0.50400001928E-02 0. -1.
    10030    2    1    2    0    0  0.00000000000E+00  0.00000000000E+00  0.10405986528E+04  0.12545197272E+04  0.70069550437E+03 0.  0.
        3    1    3    3  502    0 -0.15433446130E+02  0.12134330998E+03  0.11080857688E+04  0.11148167882E+04  0.10100000352E+00 0.  1.
       -3    1    3    3    0  502  0.15433446130E+02 -0.12134330998E+03 -0.67487116010E+02  0.13970293900E+03  0.10100000352E+00 0. -1.
</event>
<event>
 5   0  0.1948138E-02  0.6974077E+03  0.7818609E-02  0.9721676E-01
       -2   -1    0    0    0  501  0.00000000000E+00  0.00000000000E+00  0.19968479031E+03  0.19968479033E+03  0.25500000920E-02 0.  1.
        2   -1    0    0  501    0  0.00000000000E+00  0.00000000000E+00 -0.60893162783E+03  0.60893162784E+03  0.25500000920E-02 0. -1.
    10030    2    1    2    0    0  0.00000000000E+00  0.00000000000E+00 -0.40924683752E+03  0.80861641816E+03  0.69740772702E+03 0.  0.
        3    1    3    3  502    0  0.13307071064E+02 -0.25022722922E+03  0.76539386440E+02  0.26200960337E+03  0.10100000352E+00 0.  1.
       -3    1    3    3    0  502 -0.13307071064E+02  0.25022722922E+03 -0.48578622396E+03  0.54660681479E+03  0.10100000352E+00 0. -1.
</event>
<event>
 5   0  0.2026361E-02  0.7094248E+03  0.7818609E-02  0.9701249E-01
       -2   -1    0    0    0  501  0.00000000000E+00  0.00000000000E+00  0.68893782222E+02  0.68893782269E+02  0.25500000920E-02 0.  1.
        2   -1    0    0  501    0  0.00000000000E+00  0.00000000000E+00 -0.18263023118E+04  0.18263023118E+04  0.25500000920E-02 0. -1.
    10030    2    1    2    0    0  0.00000000000E+00  0.00000000000E+00 -0.17574085296E+04  0.18951960941E+04  0.70942476356E+03 0.  0.
        2    1    3    3  502    0  0.88608047706E+02 -0.11852968166E+03 -0.17516600891E+02  0.14902182010E+03  0.25500000920E-02 0.  1.
       -2    1    3    3    0  502 -0.88608047706E+02  0.11852968166E+03 -0.17398919287E+04  0.17461742740E+04  0.25500000920E-02 0. -1.
</event>
<event>
 5   0  0.7947250E-03  0.6936146E+03  0.7818609E-02  0.9728215E-01
        4   -1    0    0  501    0  0.00000000000E+00  0.00000000000E+00  0.14411152208E+03  0.14411711799E+03  0.12699999809E+01 0. -1.
       -4   -1    0    0    0  501  0.00000000000E+00  0.00000000000E+00 -0.83457652046E+03  0.83457748675E+03  0.12699999809E+01 0.  1.
    10030    2    1    2    0    0  0.00000000000E+00  0.00000000000E+00 -0.69046499837E+03  0.97869460474E+03  0.69361460147E+03 0.  0.
        4    1    3    3  502    0 -0.24971876795E+03  0.13878658861E+03 -0.67825239883E+02  0.29363762755E+03  0.12699999809E+01 0. -1.
       -4    1    3    3    0  502  0.24971876795E+03 -0.13878658861E+03 -0.62263975849E+03  0.68505697719E+03  0.12699999809E+01 0.  1.
</event>
<event>
 5   0  0.7947250E-03  0.6994756E+03  0.7818609E-02  0.9718129E-01
       -4   -1    0    0    0  501  0.00000000000E+00  0.00000000000E+00  0.56143852708E+03  0.56143996347E+03  0.12699999809E+01 0.  1.
        4   -1    0    0  501    0  0.00000000000E+00  0.00000000000E+00 -0.21785914162E+03  0.21786284329E+03  0.12699999809E+01 0. -1.
    10030    2    1    2    0    0  0.00000000000E+00  0.00000000000E+00  0.34357938546E+03  0.77930280677E+03  0.69947556821E+03 0.  0.
        5    1    3    3  502    0  0.33513299047E+03 -0.58305923339E+02  0.26216932771E+03  0.42949801907E+03  0.46999998093E+01 0. -1.
       -5    1    3    3    0  502 -0.33513299047E+03  0.58305923339E+02  0.81410057743E+02  0.34980478770E+03  0.46999998093E+01 0.  1.
</event>
<event>
 5   0  0.1909053E-02  0.6992481E+03  0.7818609E-02  0.9718519E-01
       -2   -1    0    0    0  501  0.00000000000E+00  0.00000000000E+00  0.18845145900E+03  0.18845145901E+03  0.25500000920E-02 0. -1.
        2   -1    0    0  501    0  0.00000000000E+00  0.00000000000E+00 -0.64863912429E+03  0.64863912429E+03  0.25500000920E-02 0.  1.
    10030    2    1    2    0    0  0.00000000000E+00  0.00000000000E+00 -0.46018766529E+03  0.83709058331E+03  0.69924813720E+03 0.  0.
        1    1    3    3  502    0  0.19482491178E+03  0.24996279315E+03 -0.53344459944E+02  0.32137793272E+03  0.50400001928E-02 0.  1.
       -1    1    3    3    0  502 -0.19482491178E+03 -0.24996279315E+03 -0.40684320535E+03  0.51571265058E+03  0.50400001928E-02 0. -1.
</event>
<event>
 5   0  0.1197259E-02  0.7003460E+03  0.7818609E-02  0.9716641E-01
        1   -1    0    0  501    0  0.00000000000E+00  0.00000000000E+00  0.29609401487E+03  0.29609401491E+03  0.50400001928E-02 0. -1.
       -1   -1    0    0    0  501  0.00000000000E+00  0.00000000000E+00 -0.41412904219E+03  0.41412904222E+03  0.50400001928E-02 0.  1.
    10030    2    1    2    0    0  0.00000000000E+00  0.00000000000E+00 -0.11803502732E+03  0.71022305713E+03  0.70034600249E+03 0.  0.
        3    1    3    3  502    0  0.26060546159E+02 -0.27224812954E+03 -0.28078617693E+03  0.39196821741E+03  0.10100000352E+00 0.  1.
       -3    1    3    3    0  502 -0.26060546159E+02  0.27224812954E+03  0.16275114961E+03  0.31825483972E+03  0.10100000352E+00 0. -1.
</event>
<event>
 5   0  0.1909053E-02  0.6938937E+03  0.7818609E-02  0.9727732E-01
        2   -1    0    0  501    0  0.00000000000E+00  0.00000000000E+00  0.66265365047E+03  0.66265365047E+03  0.25500000920E-02 0.  1.
       -2   -1    0    0    0  501  0.00000000000E+00  0.00000000000E+00 -0.18165163049E+03  0.18165163051E+03  0.25500000920E-02 0. -1.
    10030    2    1    2    0    0  0.00000000000E+00  0.00000000000E+00  0.48100201997E+03  0.84430528099E+03  0.69389369811E+03 0.  0.
        1    1    3    3  502    0 -0.15473808629E+03 -0.12598363291E+03  0.58584865019E+03  0.61889772343E+03  0.50400001928E-02 0.  1.
       -1    1    3    3    0  502  0.15473808629E+03  0.12598363291E+03 -0.10484663022E+03  0.22540755755E+03  0.50400001928E-02 0. -1.
</event>
<event>
 5   0  0.7947250E-03  0.6990157E+03  0.7818609E-02  0.9718917E-01
       -4   -1    0    0    0  501  0.00000000000E+00  0.00000000000E+00  0.43301660042E+03  0.43301846282E+03  0.12699999809E+01 0.  1.
        4   -1    0    0  501    0  0.00000000000E+00  0.00000000000E+00 -0.28210012542E+03  0.28210298414E+03  0.12699999809E+01 0. -1.
    10030    2    1    2    0    0  0.00000000000E+00  0.00000000000E+00  0.15091647500E+03  0.71512144696E+03  0.69901566612E+03 0.  0.
        4    1    3    3  502    0 -0.28556131130E+03 -0.73161527183E+02  0.26755095319E+03  0.39809923012E+03  0.12699999809E+01 0.  1.
       -4    1    3    3    0  502  0.28556131130E+03  0.73161527183E+02 -0.11663447819E+03  0.31702221684E+03  0.12699999809E+01 0. -1.
</event>
<event>
 5   0  0.1223742E-02  0.6977765E+03  0.7818609E-02  0.9721042E-01
        1   -1    0    0  501    0  0.00000000000E+00  0.00000000000E+00  0.45044610258E+03  0.45044610261E+03  0.50400001928E-02 0.  1.
       -1   -1    0    0    0  501  0.00000000000E+00  0.00000000000E+00 -0.27022771198E+03  0.27022771203E+03  0.50400001928E-02 0. -1.
    10030    2    1    2    0    0  0.00000000000E+00  0.00000000000E+00  0.18021839060E+03  0.72067381464E+03  0.69777652497E+03 0.  0.
        2    1    3    3  502    0 -0.20394275204E+03  0.90453239267E+01  0.38232192963E+03  0.43341033891E+03  0.25500000920E-02 0.  1.
       -2    1    3    3    0  502  0.20394275204E+03 -0.90453239267E+01 -0.20210353903E+03  0.28726347573E+03  0.25500000920E-02 0. -1.
</event>
<event>
 5   0  0.2006362E-02  0.7138292E+03  0.7818609E-02  0.9693870E-01
        2   -1    0    0  501    0  0.00000000000E+00  0.00000000000E+00  0.34294634097E+03  0.34294634098E+03  0.25500000920E-02 0.  1.
       -2   -1    0    0    0  501  0.00000000000E+00  0.00000000000E+00 -0.37145183824E+03  0.37145183825E+03  0.25500000920E-02 0. -1.
    10030    2    1    2    0    0  0.00000000000E+00  0.00000000000E+00 -0.28505497271E+02  0.71439817922E+03  0.71382924786E+03 0.  0.
        4    1    3    3  502    0 -0.15775420908E+03  0.30088699301E+03 -0.12373400844E+03  0.36156754665E+03  0.12699999809E+01 0. -1.
       -4    1    3    3    0  502  0.15775420908E+03 -0.30088699301E+03  0.95228511169E+02  0.35283063258E+03  0.12699999809E+01 0.  1.
</event>
<event>
 5   0  0.2026361E-02  0.6913099E+03  0.7818609E-02  0.9732210E-01
       -2   -1    0    0    0  501  0.00000000000E+00  0.00000000000E+00  0.11816969390E+03  0.11816969392E+03  0.25500000920E-02 0. -1.
        2   -1    0    0  501    0  0.00000000000E+00  0.00000000000E+00 -0.10110659515E+04  0.10110659515E+04  0.25500000920E-02 0.  1.
    10030    2    1    2    0    0  0.00000000000E+00  0.00000000000E+00 -0.89289625763E+03  0.11292356454E+04  0.69130992765E+03 0.  0.
        2    1    3    3  502    0  0.22140581649E+03 -0.25638453248E+03 -0.33417984767E+03  0.47584633514E+03  0.25500000920E-02 0. -1.
       -2    1    3    3    0  502 -0.22140581649E+03  0.25638453248E+03 -0.55871640995E+03  0.65338931031E+03  0.25500000920E-02 0.  1.
</event>
<event>
 5   0  0.1237686E-02  0.7012423E+03  0.7818609E-02  0.9715110E-01
       -1   -1    0    0    0  501  0.00000000000E+00  0.00000000000E+00  0.83360407222E+02  0.83360407374E+02  0.50400001928E-02 0. -1.
        1   -1    0    0  501    0  0.00000000000E+00  0.00000000000E+00 -0.14747431732E+04  0.14747431732E+04  0.50400001928E-02 0.  1.
    10030    2    1    2    0    0  0.00000000000E+00  0.00000000000E+00 -0.13913827660E+04  0.15581035806E+04  0.70124230218E+03 0.  0.
        5    1    3    3  502    0 -0.28541539827E+03  0.18331721345E+03 -0.89250313258E+03  0.95480421133E+03  0.46999998093E+01 0. -1.
       -5    1    3    3    0  502  0.28541539827E+03 -0.18331721345E+03 -0.49887963340E+03  0.60329936925E+03  0.46999998093E+01 0.  1.
</event>
<event>
 5   0  0.1973067E-02  0.7007838E+03  0.7818609E-02  0.9715893E-01
       -2   -1    0    0    0  501  0.00000000000E+00  0.00000000000E+00  0.91442740384E+02  0.91442740419E+02  0.25500000920E-02 0.  1.
        2   -1    0    0  501    0  0.00000000000E+00  0.00000000000E+00 -0.13426380134E+04  0.13426380134E+04  0.25500000920E-02 0. -1.
    10030    2    1    2    0    0  0.00000000000E+00  0.00000000000E+00 -0.12511952730E+04  0.14340807538E+04  0.70078384490E+03 0.  0.
        5    1    3    3  502    0  0.25587373521E+03  0.20587968002E+03 -0.37584854139E+03  0.49914128970E+03  0.46999998093E+01 0.  1.
       -5    1    3    3    0  502 -0.25587373521E+03 -0.20587968002E+03 -0.87534673164E+03  0.93493946414E+03  0.46999998093E+01 0. -1.
</event>
<event>
 5   0  0.2026361E-02  0.6953242E+03  0.7818609E-02  0.9725262E-01
        2   -1    0    0  501    0  0.00000000000E+00  0.00000000000E+00  0.16376562401E+04  0.16376562401E+04  0.25500000920E-02 0. -1.
       -2   -1    0    0    0  501  0.00000000000E+00  0.00000000000E+00 -0.73806038035E+02  0.73806038079E+02  0.25500000920E-02 0.  1.
    10030    2    1    2    0    0  0.00000000000E+00  0.00000000000E+00  0.15638502021E+04  0.17114622782E+04  0.69532415113E+03 0.  0.
        2    1    3    3  502    0 -0.14093986706E+03 -0.10084103520E+03  0.15237628317E+04  0.15335860353E+04  0.25500000920E-02 0. -1.
       -2    1    3    3    0  502  0.14093986706E+03  0.10084103520E+03  0.40087370397E+02  0.17787624287E+03  0.25500000920E-02 0.  1.
</event>
<event>
 5   0  0.1973067E-02  0.6989288E+03  0.7818609E-02  0.9719066E-01
       -2   -1    0    0    0  501  0.00000000000E+00  0.00000000000E+00  0.54488128486E+03  0.54488128487E+03  0.25500000920E-02 0.  1.
        2   -1    0    0  501    0  0.00000000000E+00  0.00000000000E+00 -0.22413205078E+03  0.22413205080E+03  0.25500000920E-02 0. -1.
    10030    2    1    2    0    0  0.00000000000E+00  0.00000000000E+00  0.32074923408E+03  0.76901333566E+03  0.69892877982E+03 0.  0.
        5    1    3    3  502    0  0.25947068946E+03  0.27964996510E+02 -0.95296992870E+02  0.27786811002E+03  0.46999998093E+01 0. -1.
       -5    1    3    3    0  502 -0.25947068946E+03 -0.27964996510E+02  0.41604622695E+03  0.49114522564E+03  0.46999998093E+01 0.  1.
</event>
<event>
 5   0  0.1197259E-02  0.6969878E+03  0.7818609E-02  0.9722397E-01
       -1   -1    0    0    0  501  0.00000000000E+00  0.00000000000E+00  0.14016922078E+03  0.14016922087E+03  0.50400001928E-02 0. -1.
        1   -1    0    0  501    0  0.00000000000E+00  0.00000000000E+00 -0.86643833766E+03  0.86643833767E+03  0.50400001928E-02 0.  1.
    10030    2    1    2    0    0  0.00000000000E+00  0.00000000000E+00 -0.72626911688E+03  0.10066075585E+04  0.69698776661E+03 0.  0.
        3    1    3    3  502    0 -0.86979332428E+01  0.26802898993E+02  0.13852115473E+03  0.14135830342E+03  0.10100000352E+00 0. -1.
       -3    1    3    3    0  502  0.86979332428E+01 -0.26802898993E+02 -0.86479027161E+03  0.86524925513E+03  0.10100000352E+00 0.  1.
</event>
<event>
 5   0  0.1909053E-02  0.6988568E+03  0.7818609E-02  0.9719189E-01
        2   -1    0    0  501    0  0.00000000000E+00  0.00000000000E+00  0.10658203236E+04  0.10658203236E+04  0.25500000920E-02 0. -1.
       -2   -1    0    0    0  501  0.00000000000E+00  0.00000000000E+00 -0.11455983592E+03  0.11455983595E+03  0.25500000920E-02 0.  1.
    10030    2    1    2    0    0  0.00000000000E+00  0.00000000000E+00  0.95126048764E+03  0.11803801595E+04  0.69885678477E+03 0.  0.
        1    1    3    3  502    0  0.23010218547E+03 -0.39017129454E+02  0.91487454501E+03  0.94417412869E+03  0.50400001928E-02 0. -1.
       -1    1    3    3    0  502 -0.23010218547E+03  0.39017129454E+02  0.36385942626E+02  0.23620603082E+03  0.50400001928E-02 0.  1.
</event>
<event>
 5   0  0.1197259E-02  0.6977432E+03  0.7818609E-02  0.9721099E-01
       -1   -1    0    0    0  501  0.00000000000E+00  0.00000000000E+00  0.47421921514E+03  0.47421921516E+03  0.50400001928E-02 0. -1.
        1   -1    0    0  501    0  0.00000000000E+00  0.00000000000E+00 -0.25665638370E+03  0.25665638375E+03  0.50400001928E-02 0.  1.
    10030    2    1    2    0    0  0.00000000000E+00  0.00000000000E+00  0.21756283144E+03  0.73087559891E+03  0.69774318733E+03 0.  0.
        3    1    3    3  502    0  0.10870591957E+03 -0.23858412846E+03 -0.13230409284E+03  0.29367285623E+03  0.10100000352E+00 0.  1.
       -3    1    3    3    0  502 -0.10870591957E+03  0.23858412846E+03  0.34986692429E+03  0.43720274268E+03  0.10100000352E+00 0. -1.
</event>
<event>
 5   0  0.2026361E-02  0.7075718E+03  0.7818609E-02  0.9704370E-01
       -2   -1    0    0    0  501  0.00000000000E+00  0.00000000000E+00  0.20490652217E+03  0.20490652219E+03  0.25500000920E-02 0.  1.
        2   -1    0    0  501    0  0.00000000000E+00  0.00000000000E+00 -0.61083681391E+03  0.61083681391E+03  0.25500000920E-02 0. -1.
    10030    2    1    2    0    0  0.00000000000E+00  0.00000000000E+00 -0.40593029173E+03  0.81574333610E+03  0.70757175512E+03 0.  0.
        2    1    3    3  502    0  0.16192821027E+03  0.23506382935E+03 -0.44393770916E+03  0.52778446242E+03  0.25500000920E-02 0. -1.
       -2    1    3    3    0  502 -0.16192821027E+03 -0.23506382935E+03  0.38007417426E+02  0.28795887369E+03  0.25500000920E-02 0.  1.
</event>
<event>
 5   0  0.1948138E-02  0.7032674E+03  0.7818609E-02  0.9711661E-01
        2   -1    0    0  501    0  0.00000000000E+00  0.00000000000E+00  0.24435479269E+04  0.24435479269E+04  0.25500000920E-02 0.  1.
       -2   -1    0    0    0  501  0.00000000000E+00  0.00000000000E+00 -0.50601125802E+02  0.50601125866E+02  0.25500000920E-02 0. -1.
    10030    2    1    2    0    0  0.00000000000E+00  0.00000000000E+00  0.23929468011E+04  0.24941490527E+04  0.70326744879E+03 0.  0.
        3    1    3    3  502    0  0.12157808697E+03 -0.28936448012E+03  0.17587189942E+04  0.17865065196E+04  0.10100000352E+00 0.  1.
       -3    1    3    3    0  502 -0.12157808697E+03  0.28936448012E+03  0.63422780683E+03  0.70764253316E+03  0.10100000352E+00 0. -1.
</event>
<event>
 5   0  0.1909053E-02  0.7014239E+03  0.7818609E-02  0.9714800E-01
        2   -1    0    0  501    0  0.00000000000E+00  0.00000000000E+00  0.10659424091E+03  0.10659424094E+03  0.25500000920E-02 0. -1.
       -2   -1    0    0    0  501  0.00000000000E+00  0.00000000000E+00 -0.11538978877E+04  0.11538978877E+04  0.25500000920E-02 0.  1.
    10030    2    1    2    0    0  0.00000000000E+00  0.00000000000E+00 -0.10473036468E+04  0.12604921286E+04  0.70142389307E+03 0.  0.
        1    1    3    3  502    0 -0.34167663560E+03 -0.28815021985E+02 -0.65602045946E+03  0.74022704089E+03  0.50400001928E-02 0. -1.
       -1    1    3    3    0  502  0.34167663560E+03  0.28815021985E+02 -0.39128318732E+03  0.52026508773E+03  0.50400001928E-02 0.  1.
</event>
<event>
 5   0  0.1973067E-02  0.7008079E+03  0.7818609E-02  0.9715852E-01
       -2   -1    0    0    0  501  0.00000000000E+00  0.00000000000E+00  0.19305142141E+03  0.19305142143E+03  0.25500000920E-02 0. -1.
        2   -1    0    0  501    0  0.00000000000E+00  0.00000000000E+00 -0.63601158692E+03  0.63601158692E+03  0.25500000920E-02 0.  1.
    10030    2    1    2    0    0  0.00000000000E+00  0.00000000000E+00 -0.44296016551E+03  0.82906300835E+03  0.70080793630E+03 0.  0.
        5    1    3    3  502    0 -0.13892598989E+03 -0.26906226293E+03 -0.42999187856E+03  0.52593729439E+03  0.46999998093E+01 0.  1.
       -5    1    3    3    0  502  0.13892598989E+03  0.26906226293E+03 -0.12968286949E+02  0.30312571396E+03  0.46999998093E+01 0. -1.
</event>
<event>
 5   0  0.1226303E-02  0.7007248E+03  0.7818609E-02  0.9715993E-01
       -1   -1    0    0    0  501  0.00000000000E+00  0.00000000000E+00  0.90756296097E+02  0.90756296237E+02  0.50400001928E-02 0. -1.
        1   -1    0    0  501    0  0.00000000000E+00  0.00000000000E+00 -0.13525652941E+04  0.13525652941E+04  0.50400001928E-02 0.  1.
    10030    2    1    2    0    0  0.00000000000E+00  0.00000000000E+00 -0.12618089980E+04  0.14433215903E+04  0.70072481453E+03 0.  0.
        4    1    3    3  502    0 -0.26136728449E+03  0.22423013310E+03 -0.76375780868E+03  0.83780642944E+03  0.12699999809E+01 0.  1.
       -4    1    3    3    0  502  0.26136728449E+03 -0.22423013310E+03 -0.49805118928E+03  0.60551516086E+03  0.12699999809E+01 0. -1.
</event>
<event>
 5   0  0.1237686E-02  0.6934439E+03  0.7818609E-02  0.9728510E-01
        1   -1    0    0  501    0  0.00000000000E+00  0.00000000000E+00  0.49231837962E+03  0.49231837965E+03  0.50400001928E-02 0.  1.
       -1   -1    0    0    0  501  0.00000000000E+00  0.00000000000E+00 -0.24418366829E+03  0.24418366834E+03  0.50400001928E-02 0. -1.
    10030    2    1    2    0    0  0.00000000000E+00  0.00000000000E+00  0.24813471133E+03  0.73650204799E+03  0.69344389227E+03 0.  0.
        5    1    3    3  502    0  0.16373317800E+03 -0.28223535436E+03 -0.37747189793E+00  0.32632434986E+03  0.46999998093E+01 0. -1.
       -5    1    3    3    0  502 -0.16373317800E+03  0.28223535436E+03  0.24851218323E+03  0.41017769813E+03  0.46999998093E+01 0.  1.
</event>
<event>
 5   0  0.7947250E-03  0.7021794E+03  0.7818609E-02  0.9713512E-01
       -3   -1    0    0    0  501  0.00000000000E+00  0.00000000000E+00  0.11466934164E+03  0.11466938612E+03  0.10100000352E+00 0.  1.
        3   -1    0    0  501    0  0.00000000000E+00  0.00000000000E+00 -0.10749513335E+04  0.10749513382E+04  0.10100000352E+00 0. -1.
    10030    2    1    2    0    0  0.00000000000E+00  0.00000000000E+00 -0.96028199185E+03  0.11896207244E+04  0.70217943856E+03 0.  0.
        1    1    3    3  502    0  0.19830003099E+03  0.39559032216E+02  0.61107968611E+01  0.20229968162E+03  0.50400001928E-02 0.  1.
       -1    1    3    3    0  502 -0.19830003099E+03 -0.39559032216E+02 -0.96639278872E+03  0.98732104273E+03  0.50400001928E-02 0. -1.
</event>
<event>
 5   0  0.2006362E-02  0.7008485E+03  0.7818609E-02  0.9715782E-01
       -2   -1    0    0    0  501  0.00000000000E+00  0.00000000000E+00  0.35617192475E+03  0.35617192476E+03  0.25500000920E-02 0.  1.
        2   -1    0    0  501    0  0.00000000000E+00  0.00000000000E+00 -0.34476933016E+03  0.34476933017E+03  0.25500000920E-02 0. -1.
    10030    2    1    2    0    0  0.00000000000E+00  0.00000000000E+00  0.11402594589E+02  0.70094125493E+03  0.70084850267E+03 0.  0.
        4    1    3    3  502    0  0.59576618698E+01  0.35029779831E+03 -0.14761272124E+01  0.35035386838E+03  0.12699999809E+01 0. -1.
       -4    1    3    3    0  502 -0.59576618698E+01 -0.35029779831E+03  0.12878721801E+02  0.35058738655E+03  0.12699999809E+01 0.  1.
</event>
<event>
 5   0  0.1226303E-02  0.6986512E+03  0.7818609E-02  0.9719542E-01
       -1   -1    0    0    0  501  0.00000000000E+00  0.00000000000E+00  0.28382372002E+03  0.28382372007E+03  0.50400001928E-02 0. -1.
        1   -1    0    0  501    0  0.00000000000E+00  0.00000000000E+00 -0.42994426838E+03  0.42994426841E+03  0.50400001928E-02 0.  1.
    10030    2    1    2    0    0  0.00000000000E+00  0.00000000000E+00 -0.14612054836E+03  0.71376798848E+03  0.69865121966E+03 0.  0.
        4    1    3    3  502    0 -0.31059361984E+03  0.99116577107E+02 -0.20121069312E+03  0.38311858278E+03  0.12699999809E+01 0.  1.
       -4    1    3    3    0  502  0.31059361984E+03 -0.99116577107E+02  0.55090144764E+02  0.33064940570E+03  0.12699999809E+01 0. -1.
</event>
<event>
 5   0  0.7947250E-03  0.6989616E+03  0.7818609E-02  0.9719010E-01
       -3   -1    0    0    0  501  0.00000000000E+00  0.00000000000E+00  0.67170794489E+03  0.67170795249E+03  0.10100000352E+00 0. -1.
        3   -1    0    0  501    0  0.00000000000E+00  0.00000000000E+00 -0.18183025589E+03  0.18183028394E+03  0.10100000352E+00 0.  1.
    10030    2    1    2    0    0  0.00000000000E+00  0.00000000000E+00  0.48987768900E+03  0.85353823643E+03  0.69896163762E+03 0.  0.
        1    1    3    3  502    0  0.23289341081E+02 -0.11344495401E+03  0.64759443514E+03  0.65786830251E+03  0.50400001928E-02 0. -1.
       -1    1    3    3    0  502 -0.23289341081E+02  0.11344495401E+03 -0.15771674614E+03  0.19566993391E+03  0.50400001928E-02 0.  1.
</event>
<event>
 5   0  0.1257442E-02  0.6745297E+03  0.7818609E-02  0.9761809E-01
        1   -1    0    0  501    0  0.00000000000E+00  0.00000000000E+00  0.26793969830E+03  0.26793969834E+03  0.50400001928E-02 0.  1.
       -1   -1    0    0    0  501  0.00000000000E+00  0.00000000000E+00 -0.42452680322E+03  0.42452680325E+03  0.50400001928E-02 0. -1.
    10030    2    1    2    0    0  0.00000000000E+00  0.00000000000E+00 -0.15658710492E+03  0.69246650160E+03  0.67452971351E+03 0.  0.
        1    1    3    3  502    0 -0.71330864043E+02 -0.29866014714E+03  0.64920964681E+02  0.31384822341E+03  0.50400001928E-02 0.  1.
       -1    1    3    3    0  502  0.71330864043E+02  0.29866014714E+03 -0.22150806961E+03  0.37861827819E+03  0.50400001928E-02 0. -1.
</event>
<event>
 5   0  0.1909053E-02  0.7129107E+03  0.7818609E-02  0.9695404E-01
        2   -1    0    0  501    0  0.00000000000E+00  0.00000000000E+00  0.56317462303E+03  0.56317462304E+03  0.25500000920E-02 0. -1.
       -2   -1    0    0    0  501  0.00000000000E+00  0.00000000000E+00 -0.22561462572E+03  0.22561462574E+03  0.25500000920E-02 0.  1.
    10030    2    1    2    0    0  0.00000000000E+00  0.00000000000E+00  0.33755999731E+03  0.78878924878E+03  0.71291074280E+03 0.  0.
        1    1    3    3  502    0 -0.17994142756E+03  0.12229646507E+03 -0.14362885260E+03  0.26070019187E+03  0.50400001928E-02 0.  1.
       -1    1    3    3    0  502  0.17994142756E+03 -0.12229646507E+03  0.48118884991E+03  0.52808905690E+03  0.50400001928E-02 0. -1.
</event>
<event>
 5   0  0.1237686E-02  0.6991527E+03  0.7818609E-02  0.9718682E-01
       -1   -1    0    0    0  501  0.00000000000E+00  0.00000000000E+00  0.78275883790E+02  0.78275883952E+02  0.50400001928E-02 0. -1.
        1   -1    0    0  501    0  0.00000000000E+00  0.00000000000E+00 -0.15611911834E+04  0.15611911834E+04  0.50400001928E-02 0.  1.
    10030    2    1    2    0    0  0.00000000000E+00  0.00000000000E+00 -0.14829152996E+04  0.16394670673E+04  0.69915268657E+03 0.  0.
        5    1    3    3  502    0 -0.12844612675E+03  0.25265831043E+02  0.18549824177E+02  0.13229873647E+03  0.46999998093E+01 0. -1.
       -5    1    3    3    0  502  0.12844612675E+03 -0.25265831043E+02 -0.15014651238E+04  0.15071683309E+04  0.46999998093E+01 0.  1.
</event>
<event>
 5   0  0.2006362E-02  0.7036414E+03  0.7818609E-02  0.9711025E-01
       -2   -1    0    0    0  501  0.00000000000E+00  0.00000000000E+00  0.14499870684E+03  0.14499870686E+03  0.25500000920E-02 0. -1.
        2   -1    0    0  501    0  0.00000000000E+00  0.00000000000E+00 -0.85364755264E+03  0.85364755265E+03  0.25500000920E-02 0.  1.
    10030    2    1    2    0    0  0.00000000000E+00  0.00000000000E+00 -0.70864884581E+03  0.99864625951E+03  0.70364136104E+03 0.  0.
        4    1    3    3  502    0  0.84649436505E+02  0.25149654511E+03 -0.26479248240E+02  0.26668108817E+03  0.12699999809E+01 0. -1.
       -4    1    3    3    0  502 -0.84649436505E+02 -0.25149654511E+03 -0.68216959757E+03  0.73196517133E+03  0.12699999809E+01 0.  1.
</event>
<event>
 5   0  0.1909053E-02  0.7074781E+03  0.7818609E-02  0.9704528E-01
       -2   -1    0    0    0  501  0.00000000000E+00  0.00000000000E+00  0.19672522337E+03  0.19672522339E+03  0.25500000920E-02 0. -1.
        2   -1    0    0  501    0  0.00000000000E+00  0.00000000000E+00 -0.63607153281E+03  0.63607153282E+03  0.25500000920E-02 0.  1.
    10030    2    1    2    0    0  0.00000000000E+00  0.00000000000E+00 -0.43934630944E+03  0.83279675621E+03  0.70747809686E+03 0.  0.
        1    1    3    3  502    0  0.12755912270E+03 -0.32581459845E+03 -0.28089355639E+03  0.44869552304E+03  0.50400001928E-02 0.  1.
       -1    1    3    3    0  502 -0.12755912270E+03  0.32581459845E+03 -0.15845275305E+03  0.38410123317E+03  0.50400001928E-02 0. -1.
</event>
<event>
 5   0  0.1948138E-02  0.7026322E+03  0.7818609E-02  0.9712741E-01
       -2   -1    0    0    0  501  0.00000000000E+00  0.00000000000E+00  0.22518533350E+03  0.22518533351E+03  0.25500000920E-02 0. -1.
        2   -1    0    0  501    0  0.00000000000E+00  0.00000000000E+00 -0.54809528398E+03  0.54809528398E+03  0.25500000920E-02 0.  1.
    10030    2    1    2    0    0  0.00000000000E+00  0.00000000000E+00 -0.32290995048E+03  0.77328061749E+03  0.70263224896E+03 0.  0.
        3    1    3    3  502    0 -0.18509852524E+03 -0.18263773961E+02  0.16655264844E+03  0.24966943023E+03  0.10100000352E+00 0. -1.
       -3    1    3    3    0  502  0.18509852524E+03  0.18263773961E+02 -0.48946259892E+03  0.52361118727E+03  0.10100000352E+00 0.  1.
</event>
<event>
 5   0  0.2026361E-02  0.6969439E+03  0.7818609E-02  0.9722473E-01
        2   -1    0    0  501    0  0.00000000000E+00  0.00000000000E+00  0.18176287091E+04  0.18176287091E+04  0.25500000920E-02 0. -1.
       -2   -1    0    0    0  501  0.00000000000E+00  0.00000000000E+00 -0.66808303320E+02  0.66808303369E+02  0.25500000920E-02 0.  1.
    10030    2    1    2    0    0  0.00000000000E+00  0.00000000000E+00  0.17508204057E+04  0.18844370124E+04  0.69694387196E+03 0.  0.
        2    1    3    3  502    0 -0.31678648043E+01 -0.20359454794E+03  0.11077802694E+03  0.23180281831E+03  0.25500000920E-02 0.  1.
       -2    1    3    3    0  502  0.31678648043E+01  0.20359454794E+03  0.16400423788E+04  0.16526341941E+04  0.25500000920E-02 0. -1.
</event>
<event>
 5   0  0.1909053E-02  0.6980280E+03  0.7818609E-02  0.9720611E-01
       -2   -1    0    0    0  501  0.00000000000E+00  0.00000000000E+00  0.16935266518E+03  0.16935266520E+03  0.25500000920E-02 0. -1.
        2   -1    0    0  501    0  0.00000000000E+00  0.00000000000E+00 -0.71927279057E+03  0.71927279057E+03  0.25500000920E-02 0.  1.
    10030    2    1    2    0    0  0.00000000000E+00  0.00000000000E+00 -0.54992012539E+03  0.88862545577E+03  0.69802797676E+03 0.  0.
        1    1    3    3  502    0  0.12709568654E+03  0.17090302395E+03 -0.62695267541E+03  0.66214108342E+03  0.50400001928E-02 0.  1.
       -1    1    3    3    0  502 -0.12709568654E+03 -0.17090302395E+03  0.77032550016E+02  0.22648437235E+03  0.50400001928E-02 0. -1.
</event>
<event>
 5   0  0.1948138E-02  0.7013185E+03  0.7818609E-02  0.9714980E-01
       -2   -1    0    0    0  501  0.00000000000E+00  0.00000000000E+00  0.34894538256E+03  0.34894538257E+03  0.25500000920E-02 0. -1.
        2   -1    0    0  501    0  0.00000000000E+00  0.00000000000E+00 -0.35238156014E+03  0.35238156015E+03  0.25500000920E-02 0.  1.
    10030    2    1    2    0    0  0.00000000000E+00  0.00000000000E+00 -0.34361775763E+01  0.70132694272E+03  0.70131852482E+03 0.  0.
        3    1    3    3  502    0  0.17640509889E+03 -0.16985847632E+03  0.24926549512E+03  0.34943376790E+03  0.10100000352E+00 0. -1.
       -3    1    3    3    0  502 -0.17640509889E+03  0.16985847632E+03 -0.25270167270E+03  0.35189317481E+03  0.10100000352E+00 0.  1.
</event>
<event>
 5   0  0.7947250E-03  0.6984094E+03  0.7818609E-02  0.9719956E-01
       -3   -1    0    0    0  501  0.00000000000E+00  0.00000000000E+00  0.40421687189E+03  0.40421688451E+03  0.10100000352E+00 0.  1.
        3   -1    0    0  501    0  0.00000000000E+00  0.00000000000E+00 -0.30167942464E+03  0.30167944155E+03  0.10100000352E+00 0. -1.
    10030    2    1    2    0    0  0.00000000000E+00  0.00000000000E+00  0.10253744725E+03  0.70589632605E+03  0.69840940361E+03 0.  0.
        5    1    3    3  502    0 -0.14081492847E+03 -0.31944849028E+03  0.44439685832E+02  0.35195618718E+03  0.46999998093E+01 0.  1.
       -5    1    3    3    0  502  0.14081492847E+03  0.31944849028E+03  0.58097761416E+02  0.35394013887E+03  0.46999998093E+01 0. -1.
</event>
<event>
 5   0  0.2026361E-02  0.7084416E+03  0.7818609E-02  0.9702904E-01
       -2   -1    0    0    0  501  0.00000000000E+00  0.00000000000E+00  0.95125094430E+02  0.95125094464E+02  0.25500000920E-02 0. -1.
        2   -1    0    0  501    0  0.00000000000E+00  0.00000000000E+00 -0.13190248224E+04  0.13190248224E+04  0.25500000920E-02 0.  1.
    10030    2    1    2    0    0  0.00000000000E+00  0.00000000000E+00 -0.12238997280E+04  0.14141499169E+04  0.70844155952E+03 0.  0.
        2    1    3    3  502    0 -0.80382203449E+02 -0.58520588862E+02 -0.12905982118E+04  0.12944225362E+04  0.25500000920E-02 0.  1.
       -2    1    3    3    0  502  0.80382203449E+02  0.58520588862E+02  0.66698483760E+02  0.11972738072E+03  0.25500000920E-02 0. -1.
</event>
<event>
 5   0  0.1197259E-02  0.7202225E+03  0.7818609E-02  0.9683261E-01
       -1   -1    0    0    0  501  0.00000000000E+00  0.00000000000E+00  0.66062856285E+02  0.66062856477E+02  0.50400001928E-02 0.  1.
        1   -1    0    0  501    0  0.00000000000E+00  0.00000000000E+00 -0.19629806227E+04  0.19629806227E+04  0.50400001928E-02 0. -1.
    10030    2    1    2    0    0  0.00000000000E+00  0.00000000000E+00 -0.18969177664E+04  0.20290434792E+04  0.72022248498E+03 0.  0.
        3    1    3    3  502    0  0.98068178002E+02  0.20935539159E+03 -0.17263097203E+04  0.17417210764E+04  0.10100000352E+00 0. -1.
       -3    1    3    3    0  502 -0.98068178002E+02 -0.20935539159E+03 -0.17060804615E+03  0.28732240277E+03  0.10100000352E+00 0.  1.
</event>
<event>
 5   0  0.1257442E-02  0.7049564E+03  0.7818609E-02  0.9708793E-01
       -1   -1    0    0    0  501  0.00000000000E+00  0.00000000000E+00  0.75096578080E+02  0.75096578249E+02  0.50400001928E-02 0.  1.
        1   -1    0    0  501    0  0.00000000000E+00  0.00000000000E+00 -0.16544147864E+04  0.16544147864E+04  0.50400001928E-02 0. -1.
    10030    2    1    2    0    0  0.00000000000E+00  0.00000000000E+00 -0.15793182083E+04  0.17295113647E+04  0.70495642231E+03 0.  0.
        1    1    3    3  502    0  0.29844808872E+03 -0.72493933243E+02 -0.12139857077E+04  0.12522331774E+04  0.50400001928E-02 0. -1.
       -1    1    3    3    0  502 -0.29844808872E+03  0.72493933243E+02 -0.36533250065E+03  0.47727818730E+03  0.50400001928E-02 0.  1.
</event>
<event>
 5   0  0.2006362E-02  0.6980491E+03  0.7818609E-02  0.9720574E-01
       -2   -1    0    0    0  501  0.00000000000E+00  0.00000000000E+00  0.29529503093E+03  0.29529503094E+03  0.25500000920E-02 0. -1.
        2   -1    0    0  501    0  0.00000000000E+00  0.00000000000E+00 -0.41253024091E+03  0.41253024092E+03  0.25500000920E-02 0.  1.
    10030    2    1    2    0    0  0.00000000000E+00  0.00000000000E+00 -0.11723520997E+03  0.70782527186E+03  0.69804908210E+03 0.  0.
        4    1    3    3  502    0 -0.32485133675E+03 -0.11244003938E+03 -0.11984003296E+03  0.36405274322E+03  0.12699999809E+01 0.  1.
       -4    1    3    3    0  502  0.32485133675E+03  0.11244003938E+03  0.26048229860E+01  0.34377252864E+03  0.12699999809E+01 0. -1.
</event>
<event>
 5   0  0.1973067E-02  0.7227828E+03  0.7818609E-02  0.9679045E-01
        2   -1    0    0  501    0  0.00000000000E+00  0.00000000000E+00  0.82773755038E+03  0.82773755038E+03  0.25500000920E-02 0. -1.
       -2   -1    0    0    0  501  0.00000000000E+00  0.00000000000E+00 -0.15778400544E+03  0.15778400546E+03  0.25500000920E-02 0.  1.
    10030    2    1    2    0    0  0.00000000000E+00  0.00000000000E+00  0.66995354494E+03  0.98552155584E+03  0.72278280600E+03 0.  0.
        5    1    3    3  502    0  0.20658022385E+03  0.66448436878E+02  0.72896007373E+03  0.76058902354E+03  0.46999998093E+01 0. -1.
       -5    1    3    3    0  502 -0.20658022385E+03 -0.66448436878E+02 -0.59006528786E+02  0.22493253230E+03  0.46999998093E+01 0.  1.
</event>
<event>
 5   0  0.1973067E-02  0.7079682E+03  0.7818609E-02  0.9703702E-01
        2   -1    0    0  501    0  0.00000000000E+00  0.00000000000E+00  0.30935683837E+03  0.30935683838E+03  0.25500000920E-02 0. -1.
       -2   -1    0    0    0  501  0.00000000000E+00  0.00000000000E+00 -0.40504923694E+03  0.40504923695E+03  0.25500000920E-02 0.  1.
    10030    2    1    2    0    0  0.00000000000E+00  0.00000000000E+00 -0.95692398564E+02  0.71440607533E+03  0.70796822339E+03 0.  0.
        5    1    3    3  502    0  0.11500085900E+03 -0.88324736475E+01 -0.38552246881E+03  0.40243368909E+03  0.46999998093E+01 0.  1.
       -5    1    3    3    0  502 -0.11500085900E+03  0.88324736475E+01  0.28983007024E+03  0.31197238624E+03  0.46999998093E+01 0. -1.
</event>
<event>
 5   0  0.1226303E-02  0.6993032E+03  0.7818609E-02  0.9718425E-01
        1   -1    0    0  501    0  0.00000000000E+00  0.00000000000E+00  0.51322891746E+03  0.51322891748E+03  0.50400001928E-02 0. -1.
       -1   -1    0    0    0  501  0.00000000000E+00  0.00000000000E+00 -0.23820994525E+03  0.23820994530E+03  0.50400001928E-02 0.  1.
    10030    2    1    2    0    0  0.00000000000E+00  0.00000000000E+00  0.27501897221E+03  0.75143886278E+03  0.69930317419E+03 0.  0.
        4    1    3    3  502    0  0.33510378985E+03 -0.40043993864E+02  0.23573891286E+03  0.41167040136E+03  0.12699999809E+01 0. -1.
       -4    1    3    3    0  502 -0.33510378985E+03  0.40043993864E+02  0.39280059348E+02  0.33976846143E+03  0.12699999809E+01 0.  1.
</event>
<event>
 5   0  0.1237686E-02  0.6933857E+03  0.7818609E-02  0.9728611E-01
        1   -1    0    0  501    0  0.00000000000E+00  0.00000000000E+00  0.26804796923E+03  0.26804796928E+03  0.50400001928E-02 0.  1.
       -1   -1    0    0    0  501  0.00000000000E+00  0.00000000000E+00 -0.44841202675E+03  0.44841202678E+03  0.50400001928E-02 0. -1.
    10030    2    1    2    0    0  0.00000000000E+00  0.00000000000E+00 -0.18036405752E+03  0.71645999606E+03  0.69338570270E+03 0.  0.
        5    1    3    3  502    0 -0.12157225847E+03 -0.19489204377E+03  0.17809459778E+03  0.29069313461E+03  0.46999998093E+01 0.  1.
       -5    1    3    3    0  502  0.12157225847E+03  0.19489204377E+03 -0.35845865529E+03  0.42576686145E+03  0.46999998093E+01 0. -1.
</event>
<event>
 5   0  0.1909053E-02  0.7265555E+03  0.7818609E-02  0.9672866E-01
       -2   -1    0    0    0  501  0.00000000000E+00  0.00000000000E+00  0.18556726679E+03  0.18556726680E+03  0.25500000920E-02 0.  1.
        2   -1    0    0  501    0  0.00000000000E+00  0.00000000000E+00 -0.71117456368E+03  0.71117456368E+03  0.25500000920E-02 0. -1.
    10030    2    1    2    0    0  0.00000000000E+00  0.00000000000E+00 -0.52560729689E+03  0.89674183048E+03  0.72655548996E+03 0.  0.
        1    1    3    3  502    0  0.18575560718E+03  0.73780783366E+01  0.12241113821E+03  0.22258496900E+03  0.50400001928E-02 0.  1.
       -1    1    3    3    0  502 -0.18575560718E+03 -0.73780783366E+01 -0.64801843510E+03  0.67415686149E+03  0.50400001928E-02 0. -1.
</event>
<event>
 5   0  0.2006362E-02  0.7014623E+03  0.7818609E-02  0.9714735E-01
        2   -1    0    0  501    0  0.00000000000E+00  0.00000000000E+00  0.20520871207E+03  0.20520871208E+03  0.25500000920E-02 0. -1.
       -2   -1    0    0    0  501  0.00000000000E+00  0.00000000000E+00 -0.59944985628E+03  0.59944985628E+03  0.25500000920E-02 0.  1.
    10030    2    1    2    0    0  0.00000000000E+00  0.00000000000E+00 -0.39424114421E+03  0.80465856837E+03  0.70146228114E+03 0.  0.
        4    1    3    3  502    0  0.14455111814E+03  0.29221019415E+03 -0.34548881973E+03  0.47502206347E+03  0.12699999809E+01 0. -1.
       -4    1    3    3    0  502 -0.14455111814E+03 -0.29221019415E+03 -0.48752324483E+02  0.32963650490E+03  0.12699999809E+01 0.  1.
</event>
<event>
 5   0  0.2026361E-02  0.7009153E+03  0.7818609E-02  0.9715668E-01
       -2   -1    0    0    0  501  0.00000000000E+00  0.00000000000E+00  0.13156106658E+04  0.13156106658E+04  0.25500000920E-02 0. -1.
        2   -1    0    0  501    0  0.00000000000E+00  0.00000000000E+00 -0.93356314957E+02  0.93356314991E+02  0.25500000920E-02 0.  1.
    10030    2    1    2    0    0  0.00000000000E+00  0.00000000000E+00  0.12222543509E+04  0.14089669808E+04  0.70091529789E+03 0.  0.
        2    1    3    3  502    0  0.38161230645E+02 -0.30727970684E+03  0.94108771678E+03  0.99071852129E+03  0.25500000920E-02 0. -1.
       -2    1    3    3    0  502 -0.38161230645E+02  0.30727970684E+03  0.28116663409E+03  0.41824845952E+03  0.25500000920E-02 0.  1.
</event>
<event>
 5   0  0.2026361E-02  0.6990669E+03  0.7818609E-02  0.9718829E-01
       -2   -1    0    0    0  501  0.00000000000E+00  0.00000000000E+00  0.20858042037E+03  0.20858042039E+03  0.25500000920E-02 0. -1.
        2   -1    0    0  501    0  0.00000000000E+00  0.00000000000E+00 -0.58573877372E+03  0.58573877373E+03  0.25500000920E-02 0.  1.
    10030    2    1    2    0    0  0.00000000000E+00  0.00000000000E+00 -0.37715835335E+03  0.79431919412E+03  0.69906692000E+03 0.  0.
        2    1    3    3  502    0  0.14088436999E+03  0.77757503061E+02 -0.54114653474E+03  0.56456550289E+03  0.25500000920E-02 0.  1.
       -2    1    3    3    0  502 -0.14088436999E+03 -0.77757503061E+02  0.16398818139E+03  0.22975369123E+03  0.25500000920E-02 0. -1.
</event>
<event>
 5   0  0.7947250E-03  0.6987071E+03  0.7818609E-02  0.9719446E-01
        4   -1    0    0  501    0  0.00000000000E+00  0.00000000000E+00  0.30576520839E+03  0.30576784586E+03  0.12699999809E+01 0.  1.
       -4   -1    0    0    0  501  0.00000000000E+00  0.00000000000E+00 -0.39915020015E+03  0.39915222056E+03  0.12699999809E+01 0. -1.
    10030    2    1    2    0    0  0.00000000000E+00  0.00000000000E+00 -0.93384991762E+02  0.70492006642E+03  0.69870705117E+03 0.  0.
        2    1    3    3  502    0 -0.19595084134E+03 -0.60381446495E+02 -0.33205962672E+03  0.39026432966E+03  0.25500000920E-02 0. -1.
       -2    1    3    3    0  502  0.19595084134E+03  0.60381446495E+02  0.23867463495E+03  0.31465573677E+03  0.25500000920E-02 0.  1.
</event>
<event>
 5   0  0.1257442E-02  0.6995979E+03  0.7818609E-02  0.9717920E-01
       -1   -1    0    0    0  501  0.00000000000E+00  0.00000000000E+00  0.27904502832E+03  0.27904502836E+03  0.50400001928E-02 0. -1.
        1   -1    0    0  501    0  0.00000000000E+00  0.00000000000E+00 -0.43849302353E+03  0.43849302356E+03  0.50400001928E-02 0.  1.
    10030    2    1    2    0    0  0.00000000000E+00  0.00000000000E+00 -0.15944799522E+03  0.71753805193E+03  0.69959787934E+03 0.  0.
        1    1    3    3  502    0 -0.10231039762E+03  0.66612710941E+01  0.26328823585E+03  0.28254643009E+03  0.50400001928E-02 0. -1.
       -1    1    3    3    0  502  0.10231039762E+03 -0.66612710941E+01 -0.42273623106E+03  0.43499162184E+03  0.50400001928E-02 0.  1.
</event>
<event>
 5   0  0.1973067E-02  0.7001048E+03  0.7818609E-02  0.9717053E-01
        2   -1    0    0  501    0  0.00000000000E+00  0.00000000000E+00  0.11479065363E+04  0.11479065363E+04  0.25500000920E-02 0.  1.
       -2   -1    0    0    0  501  0.00000000000E+00  0.00000000000E+00 -0.10674796549E+03  0.10674796552E+03  0.25500000920E-02 0. -1.
    10030    2    1    2    0    0  0.00000000000E+00  0.00000000000E+00  0.10411585708E+04  0.12546545019E+04  0.70010481313E+03 0.  0.
        5    1    3    3  502    0 -0.21793222104E+02 -0.32876133750E+02  0.11438544806E+04  0.11445439911E+04  0.46999998093E+01 0.  1.
       -5    1    3    3    0  502  0.21793222104E+02  0.32876133750E+02 -0.10269590977E+03  0.11011051077E+03  0.46999998093E+01 0. -1.
</event>
<event>
 5   0  0.1909053E-02  0.6957380E+03  0.7818609E-02  0.9724549E-01
       -2   -1    0    0    0  501  0.00000000000E+00  0.00000000000E+00  0.13907831750E+03  0.13907831753E+03  0.25500000920E-02 0. -1.
        2   -1    0    0  501    0  0.00000000000E+00  0.00000000000E+00 -0.87010566085E+03  0.87010566085E+03  0.25500000920E-02 0.  1.
    10030    2    1    2    0    0  0.00000000000E+00  0.00000000000E+00 -0.73102734334E+03  0.10091839784E+04  0.69573797187E+03 0.  0.
        1    1    3    3  502    0  0.83852130631E+02  0.21570246701E+03 -0.74224245892E+03  0.77748479209E+03  0.50400001928E-02 0.  1.
       -1    1    3    3    0  502 -0.83852130631E+02 -0.21570246701E+03  0.11215115578E+02  0.23169918629E+03  0.50400001928E-02 0. -1.
</event>
<event>
 5   0  0.1226303E-02  0.7007411E+03  0.7818609E-02  0.9715966E-01
       -1   -1    0    0    0  501  0.00000000000E+00  0.00000000000E+00  0.68531395836E+03  0.68531395837E+03  0.50400001928E-02 0.  1.
        1   -1    0    0  501    0  0.00000000000E+00  0.00000000000E+00 -0.17912890605E+03  0.17912890612E+03  0.50400001928E-02 0. -1.
    10030    2    1    2    0    0  0.00000000000E+00  0.00000000000E+00  0.50618505231E+03  0.86444286449E+03  0.70074114964E+03 0.  0.
        4    1    3    3  502    0  0.59262669131E+02  0.12777890976E+03  0.64884643493E+03  0.66395995569E+03  0.12699999809E+01 0.  1.
       -4    1    3    3    0  502 -0.59262669131E+02 -0.12777890976E+03 -0.14266138262E+03  0.20048290881E+03  0.12699999809E+01 0. -1.
</event>
<event>
 5   0  0.1197259E-02  0.7016789E+03  0.7818609E-02  0.9714365E-01
       -1   -1    0    0    0  501  0.00000000000E+00  0.00000000000E+00  0.21532366940E+03  0.21532366946E+03  0.50400001928E-02 0. -1.
        1   -1    0    0  501    0  0.00000000000E+00  0.00000000000E+00 -0.57164316873E+03  0.57164316875E+03  0.50400001928E-02 0.  1.
    10030    2    1    2    0    0  0.00000000000E+00  0.00000000000E+00 -0.35631949932E+03  0.78696683821E+03  0.70167885734E+03 0.  0.
        3    1    3    3  502    0  0.28175616419E+03  0.20711327303E+03 -0.14632178449E+03  0.37906796059E+03  0.10100000352E+00 0. -1.
       -3    1    3    3    0  502 -0.28175616419E+03 -0.20711327303E+03 -0.20999771484E+03  0.40789887762E+03  0.10100000352E+00 0.  1.
</event>
<event>
 5   0  0.1973067E-02  0.7019675E+03  0.7818609E-02  0.9713873E-01
        2   -1    0    0  501    0  0.00000000000E+00  0.00000000000E+00  0.88287774238E+03  0.88287774238E+03  0.25500000920E-02 0. -1.
       -2   -1    0    0    0  501  0.00000000000E+00  0.00000000000E+00 -0.13953187157E+03  0.13953187159E+03  0.25500000920E-02 0.  1.
    10030    2    1    2    0    0  0.00000000000E+00  0.00000000000E+00  0.74334587081E+03  0.10224096140E+04  0.70196747439E+03 0.  0.
        5    1    3    3  502    0  0.33177051339E+03 -0.96824128894E+02  0.28282805284E+03  0.44660987781E+03  0.46999998093E+01 0.  1.
       -5    1    3    3    0  502 -0.33177051339E+03  0.96824128894E+02  0.46051781797E+03  0.57579973616E+03  0.46999998093E+01 0. -1.
</event>
<event>
 5   0  0.1973067E-02  0.6773653E+03  0.7818609E-02  0.9756743E-01
        2   -1    0    0  501    0  0.00000000000E+00  0.00000000000E+00  0.89241986157E+03  0.89241986158E+03  0.25500000920E-02 0.  1.
       -2   -1    0    0    0  501  0.00000000000E+00  0.00000000000E+00 -0.12853359622E+03  0.12853359625E+03  0.25500000920E-02 0. -1.
    10030    2    1    2    0    0  0.00000000000E+00  0.00000000000E+00  0.76388626535E+03  0.10209534578E+04  0.67736529041E+03 0.  0.
        5    1    3    3  502    0 -0.24588528073E+03  0.17499799879E+03  0.15039634434E+03  0.33723140608E+03  0.46999998093E+01 0. -1.
       -5    1    3    3    0  502  0.24588528073E+03 -0.17499799879E+03  0.61348992101E+03  0.68372205175E+03  0.46999998093E+01 0.  1.
</event>
<event>
 5   0  0.2026361E-02  0.6944050E+03  0.7818609E-02  0.9726848E-01
        2   -1    0    0  501    0  0.00000000000E+00  0.00000000000E+00  0.14860025981E+04  0.14860025981E+04  0.25500000920E-02 0.  1.
       -2   -1    0    0    0  501  0.00000000000E+00  0.00000000000E+00 -0.81123400168E+02  0.81123400208E+02  0.25500000920E-02 0. -1.
    10030    2    1    2    0    0  0.00000000000E+00  0.00000000000E+00  0.14048791979E+04  0.15671259983E+04  0.69440502144E+03 0.  0.
        2    1    3    3  502    0 -0.16269189663E+03  0.70350720469E+02  0.28676575059E+02  0.17955562665E+03  0.25500000920E-02 0. -1.
       -2    1    3    3    0  502  0.16269189663E+03 -0.70350720469E+02  0.13762026229E+04  0.13875703717E+04  0.25500000920E-02 0.  1.
</event>
<event>
 5   0  0.2006362E-02  0.6916275E+03  0.7818609E-02  0.9731658E-01
        2   -1    0    0  501    0  0.00000000000E+00  0.00000000000E+00  0.59664049600E+03  0.59664049600E+03  0.25500000920E-02 0. -1.
       -2   -1    0    0    0  501  0.00000000000E+00  0.00000000000E+00 -0.20043417716E+03  0.20043417717E+03  0.25500000920E-02 0.  1.
    10030    2    1    2    0    0  0.00000000000E+00  0.00000000000E+00  0.39620631884E+03  0.79707467318E+03  0.69162749188E+03 0.  0.
        4    1    3    3  502    0  0.30151272979E+03 -0.25350759621E+02  0.51458930745E+01  0.30262300037E+03  0.12699999809E+01 0.  1.
       -4    1    3    3    0  502 -0.30151272979E+03  0.25350759621E+02  0.39106042576E+03  0.49445167280E+03  0.12699999809E+01 0. -1.
</event>
<event>
 5   0  0.1257442E-02  0.7055728E+03  0.7818609E-02  0.9707749E-01
        1   -1    0    0  501    0  0.00000000000E+00  0.00000000000E+00  0.27161642170E+03  0.27161642175E+03  0.50400001928E-02 0. -1.
       -1   -1    0    0    0  501  0.00000000000E+00  0.00000000000E+00 -0.45821325784E+03  0.45821325787E+03  0.50400001928E-02 0.  1.
    10030    2    1    2    0    0  0.00000000000E+00  0.00000000000E+00 -0.18659683614E+03  0.72982967962E+03  0.70557280418E+03 0.  0.
        1    1    3    3  502    0  0.20195546153E+03  0.11378104666E+02  0.20567607502E+03  0.28847550601E+03  0.50400001928E-02 0. -1.
       -1    1    3    3    0  502 -0.20195546153E+03 -0.11378104666E+02 -0.39227291116E+03  0.44135417361E+03  0.50400001928E-02 0.  1.
</event>
<event>
 5   0  0.1257442E-02  0.7099081E+03  0.7818609E-02  0.9700437E-01
       -1   -1    0    0    0  501  0.00000000000E+00  0.00000000000E+00  0.10936470192E+03  0.10936470204E+03  0.50400001928E-02 0.  1.
        1   -1    0    0  501    0  0.00000000000E+00  0.00000000000E+00 -0.11520387126E+04  0.11520387126E+04  0.50400001928E-02 0. -1.
    10030    2    1    2    0    0  0.00000000000E+00  0.00000000000E+00 -0.10426740107E+04  0.12614034147E+04  0.70990807993E+03 0.  0.
        1    1    3    3  502    0 -0.14328855928E+03 -0.28490966705E+03 -0.24442551755E+03  0.40180712196E+03  0.50400001928E-02 0.  1.
       -1    1    3    3    0  502  0.14328855928E+03  0.28490966705E+03 -0.79824849316E+03  0.85959629272E+03  0.50400001928E-02 0. -1.
</event>
<event>
 5   0  0.1197259E-02  0.6984043E+03  0.7818609E-02  0.9719965E-01
        1   -1    0    0  501    0  0.00000000000E+00  0.00000000000E+00  0.28167512923E+04  0.28167512923E+04  0.50400001928E-02 0.  1.
       -1   -1    0    0    0  501  0.00000000000E+00  0.00000000000E+00 -0.43291761001E+02  0.43291761295E+02  0.50400001928E-02 0. -1.
    10030    2    1    2    0    0  0.00000000000E+00  0.00000000000E+00  0.27734595313E+04  0.28600430536E+04  0.69840425020E+03 0.  0.
        3    1    3    3  502    0  0.24153339133E+03  0.10239665108E+03  0.44290959314E+03  0.51477409723E+03  0.10100000352E+00 0. -1.
       -3    1    3    3    0  502 -0.24153339133E+03 -0.10239665108E+03  0.23305499382E+04  0.23452689564E+04  0.10100000352E+00 0.  1.
</event>
<event>
 5   0  0.1909053E-02  0.6991700E+03  0.7818609E-02  0.9718653E-01
       -2   -1    0    0    0  501  0.00000000000E+00  0.00000000000E+00  0.21138077146E+03  0.21138077148E+03  0.25500000920E-02 0.  1.
        2   -1    0    0  501    0  0.00000000000E+00  0.00000000000E+00 -0.57814946188E+03  0.57814946189E+03  0.25500000920E-02 0. -1.
    10030    2    1    2    0    0  0.00000000000E+00  0.00000000000E+00 -0.36676869042E+03  0.78953023337E+03  0.69917002019E+03 0.  0.
        1    1    3    3  502    0 -0.22076150688E+03  0.27061672419E+03 -0.20090120576E+03  0.40290240609E+03  0.50400001928E-02 0.  1.
       -1    1    3    3    0  502  0.22076150688E+03 -0.27061672419E+03 -0.16586748466E+03  0.38662782728E+03  0.50400001928E-02 0. -1.
</event>
<event>
 5   0  0.7947250E-03  0.7018758E+03  0.7818609E-02  0.9714030E-01
        3   -1    0    0  501    0  0.00000000000E+00  0.00000000000E+00  0.61257250763E+02  0.61257334027E+02  0.10100000352E+00 0.  1.
       -3   -1    0    0    0  501  0.00000000000E+00  0.00000000000E+00 -0.20104935910E+04  0.20104935935E+04  0.10100000352E+00 0. -1.
    10030    2    1    2    0    0  0.00000000000E+00  0.00000000000E+00 -0.19492363402E+04  0.20717509275E+04  0.70187576946E+03 0.  0.
        2    1    3    3  502    0 -0.45628839199E+02 -0.25633194883E+03 -0.16691816838E+04  0.16893654289E+04  0.25500000920E-02 0. -1.
       -2    1    3    3    0  502  0.45628839199E+02  0.25633194883E+03 -0.28005465643E+03  0.38238549862E+03  0.25500000920E-02 0.  1.
</event>
<event>
 5   0  0.2006362E-02  0.7029367E+03  0.7818609E-02  0.9712223E-01
        2   -1    0    0  501    0  0.00000000000E+00  0.00000000000E+00  0.52826169562E+03  0.52826169563E+03  0.25500000920E-02 0.  1.
       -2   -1    0    0    0  501  0.00000000000E+00  0.00000000000E+00 -0.23384240405E+03  0.23384240407E+03  0.25500000920E-02 0. -1.
    10030    2    1    2    0    0  0.00000000000E+00  0.00000000000E+00  0.29441929157E+03  0.76210409969E+03  0.70293665399E+03 0.  0.
        4    1    3    3  502    0  0.42686824292E+02  0.26875619882E+03 -0.93945631702E+02  0.28788791914E+03  0.12699999809E+01 0. -1.
       -4    1    3    3    0  502 -0.42686824292E+02 -0.26875619882E+03  0.38836492327E+03  0.47421618055E+03  0.12699999809E+01 0.  1.
</event>
<event>
 5   0  0.1226303E-02  0.7031195E+03  0.7818609E-02  0.9711912E-01
       -1   -1    0    0    0  501  0.00000000000E+00  0.00000000000E+00  0.57225627940E+03  0.57225627943E+03  0.50400001928E-02 0.  1.
        1   -1    0    0  501    0  0.00000000000E+00  0.00000000000E+00 -0.21597709415E+03  0.21597709420E+03  0.50400001928E-02 0. -1.
    10030    2    1    2    0    0  0.00000000000E+00  0.00000000000E+00  0.35627918526E+03  0.78823337363E+03  0.70311947310E+03 0.  0.
        4    1    3    3  502    0  0.28722586891E+03 -0.29274782492E+01  0.40537147733E+03  0.49682483576E+03  0.12699999809E+01 0.  1.
       -4    1    3    3    0  502 -0.28722586891E+03  0.29274782492E+01 -0.49092292069E+02  0.29140853787E+03  0.12699999809E+01 0. -1.
</event>
<event>
 5   0  0.1237686E-02  0.7531370E+03  0.7818609E-02  0.9630442E-01
        1   -1    0    0  501    0  0.00000000000E+00  0.00000000000E+00  0.41066146432E+03  0.41066146435E+03  0.50400001928E-02 0. -1.
       -1   -1    0    0    0  501  0.00000000000E+00  0.00000000000E+00 -0.34530594600E+03  0.34530594604E+03  0.50400001928E-02 0.  1.
    10030    2    1    2    0    0  0.00000000000E+00  0.00000000000E+00  0.65355518321E+02  0.75596741039E+03  0.75313702723E+03 0.  0.
        5    1    3    3  502    0 -0.21475096069E+03 -0.24559001015E+03  0.22139850760E+03  0.39429914705E+03  0.46999998093E+01 0. -1.
       -5    1    3    3    0  502  0.21475096069E+03  0.24559001015E+03 -0.15604298928E+03  0.36166826333E+03  0.46999998093E+01 0.  1.
</event>
<event>
 5   0  0.1909053E-02  0.6973369E+03  0.7818609E-02  0.9721797E-01
        2   -1    0    0  501    0  0.00000000000E+00  0.00000000000E+00  0.70311037679E+03  0.70311037679E+03  0.25500000920E-02 0. -1.
       -2   -1    0    0    0  501  0.00000000000E+00  0.00000000000E+00 -0.17290268995E+03  0.17290268996E+03  0.25500000920E-02 0.  1.
    10030    2    1    2    0    0  0.00000000000E+00  0.00000000000E+00  0.53020768684E+03  0.87601306676E+03  0.69733686404E+03 0.  0.
        1    1    3    3  502    0  0.33056942741E+03 -0.63667532364E+02  0.15107075356E+03  0.36898790444E+03  0.50400001928E-02 0.  1.
       -1    1    3    3    0  502 -0.33056942741E+03  0.63667532364E+02  0.37913693329E+03  0.50702516232E+03  0.50400001928E-02 0. -1.
</event>
<event>
 5   0  0.1197259E-02  0.7008394E+03  0.7818609E-02  0.9715798E-01
       -1   -1    0    0    0  501  0.00000000000E+00  0.00000000000E+00  0.10921041837E+04  0.10921041837E+04  0.50400001928E-02 0. -1.
        1   -1    0    0  501    0  0.00000000000E+00  0.00000000000E+00 -0.11243794956E+03  0.11243794967E+03  0.50400001928E-02 0.  1.
    10030    2    1    2    0    0  0.00000000000E+00  0.00000000000E+00  0.97966623411E+03  0.12045421334E+04  0.70083936873E+03 0.  0.
        3    1    3    3  502    0  0.26697821433E+03  0.11789539100E+03  0.82318050432E+03  0.87338585004E+03  0.10100000352E+00 0.  1.
       -3    1    3    3    0  502 -0.26697821433E+03 -0.11789539100E+03  0.15648572979E+03  0.33115628331E+03  0.10100000352E+00 0. -1.
</event>
<event>
 5   0  0.2026361E-02  0.6986669E+03  0.7818609E-02  0.9719515E-01
        2   -1    0    0  501    0  0.00000000000E+00  0.00000000000E+00  0.35502892617E+03  0.35502892618E+03  0.25500000920E-02 0.  1.
       -2   -1    0    0    0  501  0.00000000000E+00  0.00000000000E+00 -0.34372934145E+03  0.34372934146E+03  0.25500000920E-02 0. -1.
    10030    2    1    2    0    0  0.00000000000E+00  0.00000000000E+00  0.11299584727E+02  0.69875826764E+03  0.69866689916E+03 0.  0.
        2    1    3    3  502    0 -0.29317346686E+03 -0.12317087449E+03 -0.13897932966E+03  0.34704034358E+03  0.25500000920E-02 0. -1.
       -2    1    3    3    0  502  0.29317346686E+03  0.12317087449E+03  0.15027891439E+03  0.35171792406E+03  0.25500000920E-02 0.  1.
</event>
<event>
 5   0  0.2026361E-02  0.6985912E+03  0.7818609E-02  0.9719644E-01
       -2   -1    0    0    0  501  0.00000000000E+00  0.00000000000E+00  0.22160216093E+03  0.22160216095E+03  0.25500000920E-02 0. -1.
        2   -1    0    0  501    0  0.00000000000E+00  0.00000000000E+00 -0.55056960659E+03  0.55056960660E+03  0.25500000920E-02 0.  1.
    10030    2    1    2    0    0  0.00000000000E+00  0.00000000000E+00 -0.32896744566E+03  0.77217176755E+03  0.69859119540E+03 0.  0.
        2    1    3    3  502    0  0.25512312169E+03 -0.21411157425E+02 -0.42712667207E+03  0.49797935588E+03  0.25500000920E-02 0. -1.
       -2    1    3    3    0  502 -0.25512312169E+03  0.21411157425E+02  0.98159226408E+02  0.27419241167E+03  0.25500000920E-02 0.  1.
</event>
<event>
 5   0  0.2006362E-02  0.7028407E+03  0.7818609E-02  0.9712386E-01
       -2   -1    0    0    0  501  0.00000000000E+00  0.00000000000E+00  0.54713729170E+02  0.54713729229E+02  0.25500000920E-02 0. -1.
        2   -1    0    0  501    0  0.00000000000E+00  0.00000000000E+00 -0.22571350542E+04  0.22571350542E+04  0.25500000920E-02 0.  1.
    10030    2    1    2    0    0  0.00000000000E+00  0.00000000000E+00 -0.22024213250E+04  0.23118487834E+04  0.70284073907E+03 0.  0.
        4    1    3    3  502    0 -0.19951321799E+03  0.26783142896E+03 -0.14608653528E+04  0.14985554345E+04  0.12699999809E+01 0.  1.
       -4    1    3    3    0  502  0.19951321799E+03 -0.26783142896E+03 -0.74155597222E+03  0.81329334888E+03  0.12699999809E+01 0. -1.
</event>
<event>
 5   0  0.1948138E-02  0.6989260E+03  0.7818609E-02  0.9719071E-01
       -2   -1    0    0    0  501  0.00000000000E+00  0.00000000000E+00  0.17237946359E+03  0.17237946360E+03  0.25500000920E-02 0. -1.
        2   -1    0    0  501    0  0.00000000000E+00  0.00000000000E+00 -0.70846253352E+03  0.70846253352E+03  0.25500000920E-02 0.  1.
    10030    2    1    2    0    0  0.00000000000E+00  0.00000000000E+00 -0.53608306993E+03  0.88084199713E+03  0.69892600898E+03 0.  0.
        3    1    3    3  502    0  0.11677608812E+03 -0.32895329113E+03 -0.28903412716E+03  0.45319715286E+03  0.10100000352E+00 0. -1.
       -3    1    3    3    0  502 -0.11677608812E+03  0.32895329113E+03 -0.24704894277E+03  0.42764484426E+03  0.10100000352E+00 0.  1.
</event>
<event>
 5   0  0.1909053E-02  0.7361898E+03  0.7818609E-02  0.9657269E-01
       -2   -1    0    0    0  501  0.00000000000E+00  0.00000000000E+00  0.27317546735E+03  0.27317546736E+03  0.25500000920E-02 0. -1.
        2   -1    0    0  501    0  0.00000000000E+00  0.00000000000E+00 -0.49599573362E+03  0.49599573362E+03  0.25500000920E-02 0.  1.
    10030    2    1    2    0    0  0.00000000000E+00  0.00000000000E+00 -0.22282026627E+03  0.76917120098E+03  0.73618982970E+03 0.  0.
        1    1    3    3  502    0  0.68291910111E+02 -0.21434814218E+03 -0.41581287768E+03  0.47276765997E+03  0.50400001928E-02 0.  1.
       -1    1    3    3    0  502 -0.68291910111E+02  0.21434814218E+03  0.19299261141E+03  0.29640354101E+03  0.50400001928E-02 0. -1.
</event>
<event>
 5   0  0.1973067E-02  0.6933984E+03  0.7818609E-02  0.9728589E-01
       -2   -1    0    0    0  501  0.00000000000E+00  0.00000000000E+00  0.14471592204E+03  0.14471592206E+03  0.25500000920E-02 0. -1.
        2   -1    0    0  501    0  0.00000000000E+00  0.00000000000E+00 -0.83059512989E+03  0.83059512990E+03  0.25500000920E-02 0.  1.
    10030    2    1    2    0    0  0.00000000000E+00  0.00000000000E+00 -0.68587920785E+03  0.97531105196E+03  0.69339841384E+03 0.  0.
        5    1    3    3  502    0 -0.60393710270E+02 -0.25766156763E+03 -0.27977441088E+02  0.26616106191E+03  0.46999998093E+01 0. -1.
       -5    1    3    3    0  502  0.60393710270E+02  0.25766156763E+03 -0.65790176676E+03  0.70914999004E+03  0.46999998093E+01 0.  1.
</event>
<event>
 5   0  0.1226303E-02  0.7303463E+03  0.7818609E-02  0.9666699E-01
        1   -1    0    0  501    0  0.00000000000E+00  0.00000000000E+00  0.92924513349E+02  0.92924513486E+02  0.50400001928E-02 0.  1.
       -1   -1    0    0    0  501  0.00000000000E+00  0.00000000000E+00 -0.14350512954E+04  0.14350512954E+04  0.50400001928E-02 0. -1.
    10030    2    1    2    0    0  0.00000000000E+00  0.00000000000E+00 -0.13421267820E+04  0.15279758089E+04  0.73034633802E+03 0.  0.
        4    1    3    3  502    0 -0.25107089510E+02  0.21850595524E+03 -0.12809262954E+04  0.12996726532E+04  0.12699999809E+01 0. -1.
       -4    1    3    3    0  502  0.25107089510E+02 -0.21850595524E+03 -0.61200486647E+02  0.22830315566E+03  0.12699999809E+01 0.  1.
</event>
<event>
 5   0  0.1237686E-02  0.7009185E+03  0.7818609E-02  0.9715663E-01
        1   -1    0    0  501    0  0.00000000000E+00  0.00000000000E+00  0.13877784245E+04  0.13877784245E+04  0.50400001928E-02 0.  1.
       -1   -1    0    0    0  501  0.00000000000E+00  0.00000000000E+00 -0.88502373971E+02  0.88502374115E+02  0.50400001928E-02 0. -1.
    10030    2    1    2    0    0  0.00000000000E+00  0.00000000000E+00  0.12992760505E+04  0.14762807986E+04  0.70091849805E+03 0.  0.
        5    1    3    3  502    0 -0.50119227942E+01 -0.21552373363E+03  0.12315161088E+04  0.12502518208E+04  0.46999998093E+01 0.  1.
       -5    1    3    3    0  502  0.50119227942E+01  0.21552373363E+03  0.67759941733E+02  0.22602897785E+03  0.46999998093E+01 0. -1.
</event>
<event>
 5   0  0.2006362E-02  0.6983230E+03  0.7818609E-02  0.9720104E-01
        2   -1    0    0  501    0  0.00000000000E+00  0.00000000000E+00  0.65230490899E+03  0.65230490899E+03  0.25500000920E-02 0.  1.
       -2   -1    0    0    0  501  0.00000000000E+00  0.00000000000E+00 -0.18689689482E+03  0.18689689484E+03  0.25500000920E-02 0. -1.
    10030    2    1    2    0    0  0.00000000000E+00  0.00000000000E+00  0.46540801417E+03  0.83920180383E+03  0.69832302547E+03 0.  0.
        4    1    3    3  502    0  0.10840239364E+03 -0.30409845251E+02  0.62988966689E+03  0.63987377114E+03  0.12699999809E+01 0.  1.
       -4    1    3    3    0  502 -0.10840239364E+03  0.30409845251E+02 -0.16448165272E+03  0.19932803269E+03  0.12699999809E+01 0. -1.
</event>
<event>
 5   0  0.2026361E-02  0.7002741E+03  0.7818609E-02  0.9716764E-01
        2   -1    0    0  501    0  0.00000000000E+00  0.00000000000E+00  0.15449355271E+04  0.15449355271E+04  0.25500000920E-02 0. -1.
       -2   -1    0    0    0  501  0.00000000000E+00  0.00000000000E+00 -0.79353442043E+02  0.79353442084E+02  0.25500000920E-02 0.  1.
    10030    2    1    2    0    0  0.00000000000E+00  0.00000000000E+00  0.14655820851E+04  0.16242889692E+04  0.70027409447E+03 0.  0.
        2    1    3    3  502    0  0.33709638541E+02  0.30558818894E+03  0.11214411203E+04  0.11628201353E+04  0.25500000920E-02 0. -1.
       -2    1    3    3    0  502 -0.33709638541E+02 -0.30558818894E+03  0.34414096479E+03  0.46146883383E+03  0.25500000920E-02 0.  1.
</event>
<event>
 5   0  0.1237686E-02  0.7030805E+03  0.7818609E-02  0.9711979E-01
       -1   -1    0    0    0  501  0.00000000000E+00  0.00000000000E+00  0.17091547150E+03  0.17091547157E+03  0.50400001928E-02 0.  1.
        1   -1    0    0  501    0  0.00000000000E+00  0.00000000000E+00 -0.72305063018E+03  0.72305063020E+03  0.50400001928E-02 0. -1.
    10030    2    1    2    0    0  0.00000000000E+00  0.00000000000E+00 -0.55213515869E+03  0.89396610177E+03  0.70308047737E+03 0.  0.
        5    1    3    3  502    0 -0.14727883685E+03  0.35501197024E+02  0.12723429302E+03  0.19789402743E+03  0.46999998093E+01 0.  1.
       -5    1    3    3    0  502  0.14727883685E+03 -0.35501197024E+02 -0.67936945171E+03  0.69607207435E+03  0.46999998093E+01 0. -1.
</event>
<event>
 5   0  0.1223742E-02  0.7050537E+03  0.7818609E-02  0.9708629E-01
        1   -1    0    0  501    0  0.00000000000E+00  0.00000000000E+00  0.54704713817E+03  0.54704713819E+03  0.50400001928E-02 0.  1.
       -1   -1    0    0    0  501  0.00000000000E+00  0.00000000000E+00 -0.22717452831E+03  0.22717452836E+03  0.50400001928E-02 0. -1.
    10030    2    1    2    0    0  0.00000000000E+00  0.00000000000E+00  0.31987260987E+03  0.77422166656E+03  0.70505368762E+03 0.  0.
        2    1    3    3  502    0 -0.21617512511E+03  0.26605701064E+03  0.69670103172E+02  0.34981701061E+03  0.25500000920E-02 0. -1.
       -2    1    3    3    0  502  0.21617512511E+03 -0.26605701064E+03  0.25020250669E+03  0.42440465595E+03  0.25500000920E-02 0.  1.
</event>
<event>
 5   0  0.1973067E-02  0.6984957E+03  0.7818609E-02  0.9719808E-01
        2   -1    0    0  501    0  0.00000000000E+00  0.00000000000E+00  0.73095073019E+03  0.73095073019E+03  0.25500000920E-02 0. -1.
       -2   -1    0    0    0  501  0.00000000000E+00  0.00000000000E+00 -0.16687042790E+03  0.16687042792E+03  0.25500000920E-02 0.  1.
    10030    2    1    2    0    0  0.00000000000E+00  0.00000000000E+00  0.56408030228E+03  0.89782115811E+03  0.69849570116E+03 0.  0.
        5    1    3    3  502    0 -0.10528183288E+03  0.12356135949E+03  0.67946564216E+03  0.69860383821E+03  0.46999998093E+01 0. -1.
       -5    1    3    3    0  502  0.10528183288E+03 -0.12356135949E+03 -0.11538533987E+03  0.19921731990E+03  0.46999998093E+01 0.  1.
</event>
<event>
 5   0  0.1223742E-02  0.7011059E+03  0.7818609E-02  0.9715343E-01
        1   -1    0    0  501    0  0.00000000000E+00  0.00000000000E+00  0.14740834011E+03  0.14740834019E+03  0.50400001928E-02 0.  1.
       -1   -1    0    0    0  501  0.00000000000E+00  0.00000000000E+00 -0.83365284395E+03  0.83365284397E+03  0.50400001928E-02 0. -1.
    10030    2    1    2    0    0  0.00000000000E+00  0.00000000000E+00 -0.68624450385E+03  0.98106118416E+03  0.70110593208E+03 0.  0.
        2    1    3    3  502    0  0.27484210702E+03 -0.15019834972E+03 -0.12280541719E+03  0.33642071659E+03  0.25500000920E-02 0.  1.
       -2    1    3    3    0  502 -0.27484210702E+03  0.15019834972E+03 -0.56343908666E+03  0.64464046757E+03  0.25500000920E-02 0. -1.
</event>
<event>
 5   0  0.1197259E-02  0.7037930E+03  0.7818609E-02  0.9710768E-01
        1   -1    0    0  501    0  0.00000000000E+00  0.00000000000E+00  0.44514352676E+03  0.44514352679E+03  0.50400001928E-02 0.  1.
       -1   -1    0    0    0  501  0.00000000000E+00  0.00000000000E+00 -0.27818250600E+03  0.27818250604E+03  0.50400001928E-02 0. -1.
    10030    2    1    2    0    0  0.00000000000E+00  0.00000000000E+00  0.16696102077E+03  0.72332603283E+03  0.70379298612E+03 0.  0.
        3    1    3    3  502    0  0.17521274342E+03 -0.29611495680E+03  0.15933654110E+03  0.37917241017E+03  0.10100000352E+00 0.  1.
       -3    1    3    3    0  502 -0.17521274342E+03  0.29611495680E+03  0.76244796669E+01  0.34415362266E+03  0.10100000352E+00 0. -1.
</event>
<event>
 5   0  0.1257442E-02  0.6985184E+03  0.7818609E-02  0.9719769E-01
        1   -1    0    0  501    0  0.00000000000E+00  0.00000000000E+00  0.52887443096E+03  0.52887443098E+03  0.50400001928E-02 0. -1.
       -1   -1    0    0    0  501  0.00000000000E+00  0.00000000000E+00 -0.23064452736E+03  0.23064452741E+03  0.50400001928E-02 0.  1.
    10030    2    1    2    0    0  0.00000000000E+00  0.00000000000E+00  0.29822990360E+03  0.75951895839E+03  0.69851841261E+03 0.  0.
        1    1    3    3  502    0 -0.11146504560E+03 -0.20957376485E+03 -0.12945421833E+03  0.27037753970E+03  0.50400001928E-02 0.  1.
       -1    1    3    3    0  502  0.11146504560E+03  0.20957376485E+03  0.42768412193E+03  0.48914141870E+03  0.50400001928E-02 0. -1.
</event>
<event>
 5   0  0.1909053E-02  0.7005599E+03  0.7818609E-02  0.9716275E-01
        2   -1    0    0  501    0  0.00000000000E+00  0.00000000000E+00  0.81696644669E+03  0.81696644669E+03  0.25500000920E-02 0. -1.
       -2   -1    0    0    0  501  0.00000000000E+00  0.00000000000E+00 -0.15018492570E+03  0.15018492572E+03  0.25500000920E-02 0.  1.
    10030    2    1    2    0    0  0.00000000000E+00  0.00000000000E+00  0.66678152099E+03  0.96715137241E+03  0.70055990495E+03 0.  0.
        1    1    3    3  502    0  0.76512625208E+02  0.19515990900E+03 -0.54033479709E+02  0.21647445312E+03  0.50400001928E-02 0.  1.
       -1    1    3    3    0  502 -0.76512625208E+02 -0.19515990900E+03  0.72081500070E+03  0.75067691929E+03  0.50400001928E-02 0. -1.
</event>
<event>
 5   0  0.7947250E-03  0.6989764E+03  0.7818609E-02  0.9718984E-01
        3   -1    0    0  501    0  0.00000000000E+00  0.00000000000E+00  0.18014693985E+04  0.18014694013E+04  0.10100000352E+00 0. -1.
       -3   -1    0    0    0  501  0.00000000000E+00  0.00000000000E+00 -0.67801276036E+02  0.67801351263E+02  0.10100000352E+00 0.  1.
    10030    2    1    2    0    0  0.00000000000E+00  0.00000000000E+00  0.17336681224E+04  0.18692707525E+04  0.69897638561E+03 0.  0.
        4    1    3    3  502    0 -0.15609168490E+03  0.30572656112E+03  0.69132516027E+03  0.77185842898E+03  0.12699999809E+01 0. -1.
       -4    1    3    3    0  502  0.15609168490E+03 -0.30572656112E+03  0.10423429621E+04  0.10974123236E+04  0.12699999809E+01 0.  1.
</event>
<event>
 5   0  0.1948138E-02  0.7018410E+03  0.7818609E-02  0.9714089E-01
        2   -1    0    0  501    0  0.00000000000E+00  0.00000000000E+00  0.78724544070E+03  0.78724544070E+03  0.25500000920E-02 0.  1.
       -2   -1    0    0    0  501  0.00000000000E+00  0.00000000000E+00 -0.15642542162E+03  0.15642542164E+03  0.25500000920E-02 0. -1.
    10030    2    1    2    0    0  0.00000000000E+00  0.00000000000E+00  0.63082001908E+03  0.94367086234E+03  0.70184100760E+03 0.  0.
        3    1    3    3  502    0 -0.58972754067E+02 -0.34389783440E+03  0.36574926595E+03  0.50548594636E+03  0.10100000352E+00 0.  1.
       -3    1    3    3    0  502  0.58972754067E+02  0.34389783440E+03  0.26507075313E+03  0.43818491598E+03  0.10100000352E+00 0. -1.
</event>
<event>
 5   0  0.1973067E-02  0.7019468E+03  0.7818609E-02  0.9713909E-01
        2   -1    0    0  501    0  0.00000000000E+00  0.00000000000E+00  0.64894372696E+03  0.64894372696E+03  0.25500000920E-02 0.  1.
       -2   -1    0    0    0  501  0.00000000000E+00  0.00000000000E+00 -0.18981975632E+03  0.18981975633E+03  0.25500000920E-02 0. -1.
    10030    2    1    2    0    0  0.00000000000E+00  0.00000000000E+00  0.45912397064E+03  0.83876348329E+03  0.70194683594E+03 0.  0.
        5    1    3    3  502    0  0.10404184044E+03 -0.29815372406E+03  0.41250388869E+03  0.51952083299E+03  0.46999998093E+01 0. -1.
       -5    1    3    3    0  502 -0.10404184044E+03  0.29815372406E+03  0.46620081951E+02  0.31924265030E+03  0.46999998093E+01 0.  1.
</event>
<event>
 5   0  0.2006362E-02  0.7127665E+03  0.7818609E-02  0.9695645E-01
        2   -1    0    0  501    0  0.00000000000E+00  0.00000000000E+00  0.10670974800E+04  0.10670974800E+04  0.25500000920E-02 0. -1.
       -2   -1    0    0    0  501  0.00000000000E+00  0.00000000000E+00 -0.11902288274E+03  0.11902288277E+03  0.25500000920E-02 0.  1.
    10030    2    1    2    0    0  0.00000000000E+00  0.00000000000E+00  0.94807459723E+03  0.11861203627E+04  0.71276649263E+03 0.  0.
        4    1    3    3  502    0  0.17018199386E+03 -0.12670803803E+03 -0.24632801962E+01  0.21218981735E+03  0.12699999809E+01 0.  1.
       -4    1    3    3    0  502 -0.17018199386E+03  0.12670803803E+03  0.95053787743E+03  0.97393054540E+03  0.12699999809E+01 0. -1.
</event>
<event>
 5   0  0.1909053E-02  0.7136458E+03  0.7818609E-02  0.9694176E-01
        2   -1    0    0  501    0  0.00000000000E+00  0.00000000000E+00  0.19725689137E+04  0.19725689137E+04  0.25500000920E-02 0. -1.
       -2   -1    0    0    0  501  0.00000000000E+00  0.00000000000E+00 -0.64546589069E+02  0.64546589119E+02  0.25500000920E-02 0.  1.
    10030    2    1    2    0    0  0.00000000000E+00  0.00000000000E+00  0.19080223246E+04  0.20371155028E+04  0.71364583691E+03 0.  0.
        1    1    3    3  502    0 -0.34391800337E+03 -0.94390215125E+02  0.98699158669E+03  0.10494481874E+04  0.50400001928E-02 0. -1.
       -1    1    3    3    0  502  0.34391800337E+03  0.94390215125E+02  0.92103073792E+03  0.98766731543E+03  0.50400001928E-02 0.  1.
</event>
<event>
 5   0  0.1223742E-02  0.6932525E+03  0.7818609E-02  0.9728841E-01
       -1   -1    0    0    0  501  0.00000000000E+00  0.00000000000E+00  0.21499283759E+03  0.21499283765E+03  0.50400001928E-02 0. -1.
        1   -1    0    0  501    0  0.00000000000E+00  0.00000000000E+00 -0.55885476357E+03  0.55885476359E+03  0.50400001928E-02 0.  1.
    10030    2    1    2    0    0  0.00000000000E+00  0.00000000000E+00 -0.34386192598E+03  0.77384760124E+03  0.69325254115E+03 0.  0.
        2    1    3    3  502    0  0.25859100033E+03 -0.18952623022E+02  0.84859609273E+02  0.27281799915E+03  0.25500000920E-02 0. -1.
       -2    1    3    3    0  502 -0.25859100033E+03  0.18952623022E+02 -0.42872153525E+03  0.50102960208E+03  0.25500000920E-02 0.  1.
</event>
<event>
 5   0  0.1197259E-02  0.7058553E+03  0.7818609E-02  0.9707271E-01
       -1   -1    0    0    0  501  0.00000000000E+00  0.00000000000E+00  0.27874827549E+03  0.27874827554E+03  0.50400001928E-02 0.  1.
        1   -1    0    0  501    0  0.00000000000E+00  0.00000000000E+00 -0.44684737343E+03  0.44684737346E+03  0.50400001928E-02 0. -1.
    10030    2    1    2    0    0  0.00000000000E+00  0.00000000000E+00 -0.16809909794E+03  0.72559564899E+03  0.70585532449E+03 0.  0.
        3    1    3    3  502    0  0.29134952389E+03  0.10854741700E+03 -0.25572561565E+03  0.40257010261E+03  0.10100000352E+00 0. -1.
       -3    1    3    3    0  502 -0.29134952389E+03 -0.10854741700E+03  0.87626517715E+02  0.32302554639E+03  0.10100000352E+00 0.  1.
</event>
<event>
 5   0  0.7947250E-03  0.7014595E+03  0.7818609E-02  0.9714739E-01
       -3   -1    0    0    0  501  0.00000000000E+00  0.00000000000E+00  0.67587403040E+03  0.67587403795E+03  0.10100000352E+00 0. -1.
        3   -1    0    0  501    0  0.00000000000E+00  0.00000000000E+00 -0.18200336054E+03  0.18200338856E+03  0.10100000352E+00 0.  1.
    10030    2    1    2    0    0  0.00000000000E+00  0.00000000000E+00  0.49387066987E+03  0.85787742651E+03  0.70145950729E+03 0.  0.
        1    1    3    3  502    0  0.25269002750E+03  0.65121125224E+02  0.53353875677E+03  0.59393317465E+03  0.50400001928E-02 0. -1.
       -1    1    3    3    0  502 -0.25269002750E+03 -0.65121125224E+02 -0.39668086900E+02  0.26394425187E+03  0.50400001928E-02 0.  1.
</event>
<event>
 5   0  0.1948138E-02  0.7002177E+03  0.7818609E-02  0.9716860E-01
        2   -1    0    0  501    0  0.00000000000E+00  0.00000000000E+00  0.10610850546E+04  0.10610850546E+04  0.25500000920E-02 0.  1.
       -2   -1    0    0    0  501  0.00000000000E+00  0.00000000000E+00 -0.11551967402E+03  0.11551967405E+03  0.25500000920E-02 0. -1.
    10030    2    1    2    0    0  0.00000000000E+00  0.00000000000E+00  0.94556538058E+03  0.11766047287E+04  0.70021767940E+03 0.  0.
        3    1    3    3  502    0 -0.69739268879E+02 -0.28596629828E+02 -0.10172416972E+03  0.12660627855E+03  0.10100000352E+00 0. -1.
       -3    1    3    3    0  502  0.69739268879E+02  0.28596629828E+02  0.10472895503E+04  0.10499984501E+04  0.10100000352E+00 0.  1.
</event>
<event>
 5   0  0.1948138E-02  0.6736213E+03  0.7818609E-02  0.9763438E-01
        2   -1    0    0  501    0  0.00000000000E+00  0.00000000000E+00  0.98442294086E+03  0.98442294086E+03  0.25500000920E-02 0.  1.
       -2   -1    0    0    0  501  0.00000000000E+00  0.00000000000E+00 -0.11523646748E+03  0.11523646751E+03  0.25500000920E-02 0. -1.
    10030    2    1    2    0    0  0.00000000000E+00  0.00000000000E+00  0.86918647338E+03  0.10996594084E+04  0.67362132457E+03 0.  0.
        3    1    3    3  502    0 -0.99077892645E+02 -0.20630821104E+03  0.83798547982E+03  0.86867668401E+03  0.10100000352E+00 0.  1.
       -3    1    3    3    0  502  0.99077892645E+02  0.20630821104E+03  0.31200993560E+02  0.23098272436E+03  0.10100000352E+00 0. -1.
</event>
<event>
 5   0  0.1223742E-02  0.6991139E+03  0.7818609E-02  0.9718749E-01
        1   -1    0    0  501    0  0.00000000000E+00  0.00000000000E+00  0.11608546668E+04  0.11608546669E+04  0.50400001928E-02 0.  1.
       -1   -1    0    0    0  501  0.00000000000E+00  0.00000000000E+00 -0.10525870173E+03  0.10525870185E+03  0.50400001928E-02 0. -1.
    10030    2    1    2    0    0  0.00000000000E+00  0.00000000000E+00  0.10555959651E+04  0.12661133687E+04  0.69911388259E+03 0.  0.
        2    1    3    3  502    0 -0.28843949869E+03 -0.15721821924E+03  0.31141909092E+03  0.45265523643E+03  0.25500000920E-02 0. -1.
       -2    1    3    3    0  502  0.28843949869E+03  0.15721821924E+03  0.74417687420E+03  0.81345813228E+03  0.25500000920E-02 0.  1.
</event>
<event>
 5   0  0.1257442E-02  0.7018837E+03  0.7818609E-02  0.9714016E-01
        1   -1    0    0  501    0  0.00000000000E+00  0.00000000000E+00  0.79509661211E+03  0.79509661213E+03  0.50400001928E-02 0. -1.
       -1   -1    0    0    0  501  0.00000000000E+00  0.00000000000E+00 -0.15489964742E+03  0.15489964750E+03  0.50400001928E-02 0.  1.
    10030    2    1    2    0    0  0.00000000000E+00  0.00000000000E+00  0.64019696469E+03  0.94999625963E+03  0.70188370811E+03 0.  0.
        1    1    3    3  502    0 -0.18688063983E+03 -0.96806710888E+02  0.70019761896E+03  0.73114473153E+03  0.50400001928E-02 0. -1.
       -1    1    3    3    0  502  0.18688063983E+03  0.96806710888E+02 -0.60000654270E+02  0.21885152810E+03  0.50400001928E-02 0.  1.
</event>
<event>
 5   0  0.1973067E-02  0.6963487E+03  0.7818609E-02  0.9723497E-01
        2   -1    0    0  501    0  0.00000000000E+00  0.00000000000E+00  0.24764014596E+04  0.24764014596E+04  0.25500000920E-02 0. -1.
       -2   -1    0    0    0  501  0.00000000000E+00  0.00000000000E+00 -0.48952235649E+02  0.48952235715E+02  0.25500000920E-02 0.  1.
    10030    2    1    2    0    0  0.00000000000E+00  0.00000000000E+00  0.24274492239E+04  0.25253536953E+04  0.69634872843E+03 0.  0.
        5    1    3    3  502    0  0.42450089633E+02  0.29466071715E+03  0.55916887395E+03  0.63349733065E+03  0.46999998093E+01 0.  1.
       -5    1    3    3    0  502 -0.42450089633E+02 -0.29466071715E+03  0.18682803500E+04  0.18918563646E+04  0.46999998093E+01 0. -1.
</event>
<event>
 5   0  0.1226303E-02  0.7016687E+03  0.7818609E-02  0.9714383E-01
       -1   -1    0    0    0  501  0.00000000000E+00  0.00000000000E+00  0.48831621079E+03  0.48831621081E+03  0.50400001928E-02 0.  1.
        1   -1    0    0  501    0  0.00000000000E+00  0.00000000000E+00 -0.25205950985E+03  0.25205950990E+03  0.50400001928E-02 0. -1.
    10030    2    1    2    0    0  0.00000000000E+00  0.00000000000E+00  0.23625670094E+03  0.74037572071E+03  0.70166871034E+03 0.  0.
        4    1    3    3  502    0 -0.86344840827E+02 -0.20497031499E+03  0.40441614551E+03  0.46154338173E+03  0.12699999809E+01 0.  1.
       -4    1    3    3    0  502  0.86344840827E+02  0.20497031499E+03 -0.16815944457E+03  0.27883233898E+03  0.12699999809E+01 0. -1.
</event>
<event>
 5   0  0.1226303E-02  0.6963642E+03  0.7818609E-02  0.9723470E-01
       -1   -1    0    0    0  501  0.00000000000E+00  0.00000000000E+00  0.28451435410E+03  0.28451435414E+03  0.50400001928E-02 0.  1.
        1   -1    0    0  501    0  0.00000000000E+00  0.00000000000E+00 -0.42609720773E+03  0.42609720776E+03  0.50400001928E-02 0. -1.
    10030    2    1    2    0    0  0.00000000000E+00  0.00000000000E+00 -0.14158285363E+03  0.71061156190E+03  0.69636419169E+03 0.  0.
        4    1    3    3  502    0 -0.10045953487E+03  0.21360321675E+03  0.19039582780E+03  0.30326660959E+03  0.12699999809E+01 0.  1.
       -4    1    3    3    0  502  0.10045953487E+03 -0.21360321675E+03 -0.33197868143E+03  0.40734495231E+03  0.12699999809E+01 0. -1.
</event>
<event>
 5   0  0.2006362E-02  0.7041984E+03  0.7818609E-02  0.9710079E-01
       -2   -1    0    0    0  501  0.00000000000E+00  0.00000000000E+00  0.22196427354E+03  0.22196427355E+03  0.25500000920E-02 0. -1.
        2   -1    0    0  501    0  0.00000000000E+00  0.00000000000E+00 -0.55853069880E+03  0.55853069881E+03  0.25500000920E-02 0.  1.
    10030    2    1    2    0    0  0.00000000000E+00  0.00000000000E+00 -0.33656642527E+03  0.78049497236E+03  0.70419844026E+03 0.  0.
        4    1    3    3  502    0 -0.21254476056E+03 -0.48830807868E+02 -0.47466103579E+03  0.52236427408E+03  0.12699999809E+01 0.  1.
       -4    1    3    3    0  502  0.21254476056E+03  0.48830807868E+02  0.13809461052E+03  0.25813069828E+03  0.12699999809E+01 0. -1.
</event>
<event>
 5   0  0.1257442E-02  0.7218085E+03  0.7818609E-02  0.9680647E-01
        1   -1    0    0  501    0  0.00000000000E+00  0.00000000000E+00  0.16281698764E+04  0.16281698764E+04  0.50400001928E-02 0. -1.
       -1   -1    0    0    0  501  0.00000000000E+00  0.00000000000E+00 -0.79998959143E+02  0.79998959301E+02  0.50400001928E-02 0.  1.
    10030    2    1    2    0    0  0.00000000000E+00  0.00000000000E+00  0.15481709172E+04  0.17081688357E+04  0.72180854957E+03 0.  0.
        1    1    3    3  502    0 -0.16622388918E+03 -0.27838008184E+03  0.11492059878E+04  0.11940687810E+04  0.50400001928E-02 0. -1.
       -1    1    3    3    0  502  0.16622388918E+03  0.27838008184E+03  0.39896492941E+03  0.51410005468E+03  0.50400001928E-02 0.  1.
</event>
<event>
 5   0  0.1257442E-02  0.6989540E+03  0.7818609E-02  0.9719023E-01
       -1   -1    0    0    0  501  0.00000000000E+00  0.00000000000E+00  0.49532672980E+03  0.49532672983E+03  0.50400001928E-02 0. -1.
        1   -1    0    0  501    0  0.00000000000E+00  0.00000000000E+00 -0.24657295564E+03  0.24657295569E+03  0.50400001928E-02 0.  1.
    10030    2    1    2    0    0  0.00000000000E+00  0.00000000000E+00  0.24875377416E+03  0.74189968552E+03  0.69895400650E+03 0.  0.
        1    1    3    3  502    0  0.22723926409E+03 -0.17997923530E+03  0.33157303994E+03  0.44042126325E+03  0.50400001928E-02 0. -1.
       -1    1    3    3    0  502 -0.22723926409E+03  0.17997923530E+03 -0.82819265777E+02  0.30147842227E+03  0.50400001928E-02 0.  1.
</event>
<event>
 5   0  0.1257442E-02  0.7017102E+03  0.7818609E-02  0.9714312E-01
        1   -1    0    0  501    0  0.00000000000E+00  0.00000000000E+00  0.12961906040E+03  0.12961906050E+03  0.50400001928E-02 0. -1.
       -1   -1    0    0    0  501  0.00000000000E+00  0.00000000000E+00 -0.94970071564E+03  0.94970071566E+03  0.50400001928E-02 0.  1.
    10030    2    1    2    0    0  0.00000000000E+00  0.00000000000E+00 -0.82008165524E+03  0.10793197762E+04  0.70171023787E+03 0.  0.
        1    1    3    3  502    0 -0.12048324534E+03 -0.32902048113E+03 -0.43792403001E+03  0.56084591957E+03  0.50400001928E-02 0.  1.
       -1    1    3    3    0  502  0.12048324534E+03  0.32902048113E+03 -0.38215762523E+03  0.51847385658E+03  0.50400001928E-02 0. -1.
</event>
<event>
 5   0  0.1237686E-02  0.7019694E+03  0.7818609E-02  0.9713870E-01
        1   -1    0    0  501    0  0.00000000000E+00  0.00000000000E+00  0.38512787541E+03  0.38512787544E+03  0.50400001928E-02 0. -1.
       -1   -1    0    0    0  501  0.00000000000E+00  0.00000000000E+00 -0.31986845884E+03  0.31986845888E+03  0.50400001928E-02 0.  1.
    10030    2    1    2    0    0  0.00000000000E+00  0.00000000000E+00  0.65259416574E+02  0.70499633432E+03  0.70196940101E+03 0.  0.
        5    1    3    3  502    0 -0.97411225781E+02  0.32199470676E+03 -0.67794627357E+02  0.34320218471E+03  0.46999998093E+01 0.  1.
       -5    1    3    3    0  502  0.97411225781E+02 -0.32199470676E+03  0.13305404393E+03  0.36179414962E+03  0.46999998093E+01 0. -1.
</event>
<event>
 5   0  0.1237686E-02  0.6997807E+03  0.7818609E-02  0.9717607E-01
       -1   -1    0    0    0  501  0.00000000000E+00  0.00000000000E+00  0.21758147055E+03  0.21758147061E+03  0.50400001928E-02 0. -1.
        1   -1    0    0  501    0  0.00000000000E+00  0.00000000000E+00 -0.56265471601E+03  0.56265471603E+03  0.50400001928E-02 0.  1.
    10030    2    1    2    0    0  0.00000000000E+00  0.00000000000E+00 -0.34507324546E+03  0.78023618663E+03  0.69978065292E+03 0.  0.
        5    1    3    3  502    0 -0.26289246749E+03  0.14298221601E+03  0.29531302483E+02  0.30074998152E+03  0.46999998093E+01 0. -1.
       -5    1    3    3    0  502  0.26289246749E+03 -0.14298221601E+03 -0.37460454794E+03  0.47948620512E+03  0.46999998093E+01 0.  1.
</event>
<event>
 5   0  0.1223742E-02  0.6991401E+03  0.7818609E-02  0.9718704E-01
        1   -1    0    0  501    0  0.00000000000E+00  0.00000000000E+00  0.19158605160E+04  0.19158605160E+04  0.50400001928E-02 0. -1.
       -1   -1    0    0    0  501  0.00000000000E+00  0.00000000000E+00 -0.63782940437E+02  0.63782940636E+02  0.50400001928E-02 0.  1.
    10030    2    1    2    0    0  0.00000000000E+00  0.00000000000E+00  0.18520775755E+04  0.19796434566E+04  0.69914009292E+03 0.  0.
        2    1    3    3  502    0 -0.55305734746E+02 -0.71070293719E+02 -0.30374544525E+02  0.95038539060E+02  0.25500000920E-02 0.  1.
       -2    1    3    3    0  502  0.55305734746E+02  0.71070293719E+02  0.18824521201E+04  0.18846049176E+04  0.25500000920E-02 0. -1.
</event>
<event>
 5   0  0.1223742E-02  0.6968242E+03  0.7818609E-02  0.9722679E-01
        1   -1    0    0  501    0  0.00000000000E+00  0.00000000000E+00  0.37423369237E+03  0.37423369241E+03  0.50400001928E-02 0. -1.
       -1   -1    0    0    0  501  0.00000000000E+00  0.00000000000E+00 -0.32437219889E+03  0.32437219892E+03  0.50400001928E-02 0.  1.
    10030    2    1    2    0    0  0.00000000000E+00  0.00000000000E+00  0.49861493486E+02  0.69860589133E+03  0.69682424102E+03 0.  0.
        2    1    3    3  502    0  0.13849138801E+03  0.25277915831E+03  0.22117042546E+03  0.36330913082E+03  0.25500000920E-02 0. -1.
       -2    1    3    3    0  502 -0.13849138801E+03 -0.25277915831E+03 -0.17130893197E+03  0.33529676051E+03  0.25500000920E-02 0.  1.
</event>
<event>
 5   0  0.1223742E-02  0.7016042E+03  0.7818609E-02  0.9714493E-01
       -1   -1    0    0    0  501  0.00000000000E+00  0.00000000000E+00  0.60408845945E+03  0.60408845947E+03  0.50400001928E-02 0. -1.
        1   -1    0    0  501    0  0.00000000000E+00  0.00000000000E+00 -0.20371539962E+03  0.20371539969E+03  0.50400001928E-02 0.  1.
    10030    2    1    2    0    0  0.00000000000E+00  0.00000000000E+00  0.40037305983E+03  0.80780385916E+03  0.70160422450E+03 0.  0.
        2    1    3    3  502    0  0.31291778343E+03  0.11840125851E+03  0.78742020774E+02  0.34371020213E+03  0.25500000920E-02 0.  1.
       -2    1    3    3    0  502 -0.31291778343E+03 -0.11840125851E+03  0.32163103905E+03  0.46409365703E+03  0.25500000920E-02 0. -1.
</event>
<event>
 5   0  0.1973067E-02  0.7166715E+03  0.7818609E-02  0.9689139E-01
       -2   -1    0    0    0  501  0.00000000000E+00  0.00000000000E+00  0.13914747179E+03  0.13914747181E+03  0.25500000920E-02 0.  1.
        2   -1    0    0  501    0  0.00000000000E+00  0.00000000000E+00 -0.92279447847E+03  0.92279447847E+03  0.25500000920E-02 0. -1.
    10030    2    1    2    0    0  0.00000000000E+00  0.00000000000E+00 -0.78364700668E+03  0.10619419503E+04  0.71667152497E+03 0.  0.
        5    1    3    3  502    0 -0.27103072929E+03  0.13355664920E+03 -0.67718395681E+03  0.74154921356E+03  0.46999998093E+01 0. -1.
       -5    1    3    3    0  502  0.27103072929E+03 -0.13355664920E+03 -0.10646304987E+03  0.32039273673E+03  0.46999998093E+01 0.  1.
</event>
<event>
 5   0  0.1257442E-02  0.6906658E+03  0.7818609E-02  0.9733329E-01
        1   -1    0    0  501    0  0.00000000000E+00  0.00000000000E+00  0.33935714452E+03  0.33935714455E+03  0.50400001928E-02 0. -1.
       -1   -1    0    0    0  501  0.00000000000E+00  0.00000000000E+00 -0.35141393338E+03  0.35141393342E+03  0.50400001928E-02 0.  1.
    10030    2    1    2    0    0  0.00000000000E+00  0.00000000000E+00 -0.12056788865E+02  0.69077107797E+03  0.69066584975E+03 0.  0.
        1    1    3    3  502    0  0.24336993893E+03 -0.91161669125E+02  0.22141656940E+03  0.34141569138E+03  0.50400001928E-02 0. -1.
       -1    1    3    3    0  502 -0.24336993893E+03  0.91161669125E+02 -0.23347335827E+03  0.34935538659E+03  0.50400001928E-02 0.  1.
</event>
<event>
 5   0  0.1237686E-02  0.6957657E+03  0.7818609E-02  0.9724501E-01
        1   -1    0    0  501    0  0.00000000000E+00  0.00000000000E+00  0.84996564806E+03  0.84996564808E+03  0.50400001928E-02 0.  1.
       -1   -1    0    0    0  501  0.00000000000E+00  0.00000000000E+00 -0.14238513634E+03  0.14238513643E+03  0.50400001928E-02 0. -1.
    10030    2    1    2    0    0  0.00000000000E+00  0.00000000000E+00  0.70758051173E+03  0.99235078451E+03  0.69576569256E+03 0.  0.
        5    1    3    3  502    0  0.23709659492E+03 -0.25236771879E+03  0.40101091395E+03  0.52984535850E+03  0.46999998093E+01 0.  1.
       -5    1    3    3    0  502 -0.23709659492E+03  0.25236771879E+03  0.30656959777E+03  0.46250542601E+03  0.46999998093E+01 0. -1.
</event>
<event>
 5   0  0.1948138E-02  0.7042143E+03  0.7818609E-02  0.9710052E-01
       -2   -1    0    0    0  501  0.00000000000E+00  0.00000000000E+00  0.78542709811E+02  0.78542709853E+02  0.25500000920E-02 0.  1.
        2   -1    0    0  501    0  0.00000000000E+00  0.00000000000E+00 -0.15784973675E+04  0.15784973675E+04  0.25500000920E-02 0. -1.
    10030    2    1    2    0    0  0.00000000000E+00  0.00000000000E+00 -0.14999546577E+04  0.16570400774E+04  0.70421434439E+03 0.  0.
        3    1    3    3  502    0 -0.25559769972E+03 -0.83252917592E+02 -0.12850957752E+04  0.13129098956E+04  0.10100000352E+00 0. -1.
       -3    1    3    3    0  502  0.25559769972E+03  0.83252917592E+02 -0.21485888248E+03  0.34413018172E+03  0.10100000352E+00 0.  1.
</event>
<event>
 5   0  0.1226303E-02  0.6887805E+03  0.7818609E-02  0.9736614E-01
       -1   -1    0    0    0  501  0.00000000000E+00  0.00000000000E+00  0.23414815990E+03  0.23414815995E+03  0.50400001928E-02 0. -1.
        1   -1    0    0  501    0  0.00000000000E+00  0.00000000000E+00 -0.50653667733E+03  0.50653667735E+03  0.50400001928E-02 0.  1.
    10030    2    1    2    0    0  0.00000000000E+00  0.00000000000E+00 -0.27238851742E+03  0.74068483731E+03  0.68878046124E+03 0.  0.
        4    1    3    3  502    0 -0.84656421247E+02 -0.31354258341E+03 -0.12985585844E+02  0.32503215166E+03  0.12699999809E+01 0. -1.
       -4    1    3    3    0  502  0.84656421247E+02  0.31354258341E+03 -0.25940293158E+03  0.41565268565E+03  0.12699999809E+01 0.  1.
</event>
<event>
 5   0  0.2006362E-02  0.7269012E+03  0.7818609E-02  0.9672302E-01
       -2   -1    0    0    0  501  0.00000000000E+00  0.00000000000E+00  0.12507060266E+04  0.12507060266E+04  0.25500000920E-02 0. -1.
        2   -1    0    0  501    0  0.00000000000E+00  0.00000000000E+00 -0.10561742935E+03  0.10561742938E+03  0.25500000920E-02 0.  1.
    10030    2    1    2    0    0  0.00000000000E+00  0.00000000000E+00  0.11450885973E+04  0.13563234560E+04  0.72690124618E+03 0.  0.
        4    1    3    3  502    0  0.98803046029E+02  0.86672013924E+02  0.12048074672E+04  0.12119557442E+04  0.12699999809E+01 0. -1.
       -4    1    3    3    0  502 -0.98803046029E+02 -0.86672013924E+02 -0.59718869909E+02  0.14436771185E+03  0.12699999809E+01 0.  1.
</event>
<event>
 5   0  0.1909053E-02  0.7008440E+03  0.7818609E-02  0.9715790E-01
       -2   -1    0    0    0  501  0.00000000000E+00  0.00000000000E+00  0.32986911896E+03  0.32986911897E+03  0.25500000920E-02 0.  1.
        2   -1    0    0  501    0  0.00000000000E+00  0.00000000000E+00 -0.37225549622E+03  0.37225549622E+03  0.25500000920E-02 0. -1.
    10030    2    1    2    0    0  0.00000000000E+00  0.00000000000E+00 -0.42386377251E+02  0.70212461520E+03  0.70084404135E+03 0.  0.
        1    1    3    3  502    0  0.30102471417E+03 -0.16470495013E+03  0.50014059324E+02  0.34676361587E+03  0.50400001928E-02 0.  1.
       -1    1    3    3    0  502 -0.30102471417E+03  0.16470495013E+03 -0.92400436575E+02  0.35536099933E+03  0.50400001928E-02 0. -1.
</event>
<event>
 5   0  0.1197259E-02  0.7014001E+03  0.7818609E-02  0.9714841E-01
       -1   -1    0    0    0  501  0.00000000000E+00  0.00000000000E+00  0.25305076616E+03  0.25305076621E+03  0.50400001928E-02 0. -1.
        1   -1    0    0  501    0  0.00000000000E+00  0.00000000000E+00 -0.48603096408E+03  0.48603096410E+03  0.50400001928E-02 0.  1.
    10030    2    1    2    0    0  0.00000000000E+00  0.00000000000E+00 -0.23298019792E+03  0.73908173031E+03  0.70140005094E+03 0.  0.
        3    1    3    3  502    0  0.14477221992E+03  0.72806431135E+02 -0.44421458915E+03  0.47284921856E+03  0.10100000352E+00 0.  1.
       -3    1    3    3    0  502 -0.14477221992E+03 -0.72806431135E+02  0.21123439123E+03  0.26623251175E+03  0.10100000352E+00 0. -1.
</event>
<event>
 5   0  0.1948138E-02  0.7037706E+03  0.7818609E-02  0.9710806E-01
       -2   -1    0    0    0  501  0.00000000000E+00  0.00000000000E+00  0.46267140811E+03  0.46267140811E+03  0.25500000920E-02 0. -1.
        2   -1    0    0  501    0  0.00000000000E+00  0.00000000000E+00 -0.26762681073E+03  0.26762681074E+03  0.25500000920E-02 0.  1.
    10030    2    1    2    0    0  0.00000000000E+00  0.00000000000E+00  0.19504459738E+03  0.73029821886E+03  0.70377062563E+03 0.  0.
        3    1    3    3  502    0 -0.80333872619E+02 -0.14970918134E+03  0.41728834973E+03  0.45055071533E+03  0.10100000352E+00 0. -1.
       -3    1    3    3    0  502  0.80333872619E+02  0.14970918134E+03 -0.22224375235E+03  0.27974750352E+03  0.10100000352E+00 0.  1.
</event>
<event>
 5   0  0.1226303E-02  0.7026935E+03  0.7818609E-02  0.9712637E-01
       -1   -1    0    0    0  501  0.00000000000E+00  0.00000000000E+00  0.14377762200E+03  0.14377762209E+03  0.50400001928E-02 0.  1.
        1   -1    0    0  501    0  0.00000000000E+00  0.00000000000E+00 -0.85857958161E+03  0.85857958163E+03  0.50400001928E-02 0. -1.
    10030    2    1    2    0    0  0.00000000000E+00  0.00000000000E+00 -0.71480195961E+03  0.10023572037E+04  0.70269347682E+03 0.  0.
        4    1    3    3  502    0 -0.26193810040E+03  0.22661563817E+03 -0.27329239718E+03  0.44119900630E+03  0.12699999809E+01 0.  1.
       -4    1    3    3    0  502  0.26193810040E+03 -0.22661563817E+03 -0.44150956243E+03  0.56115819741E+03  0.12699999809E+01 0. -1.
</event>
<event>
 5   0  0.2026361E-02  0.6952982E+03  0.7818609E-02  0.9725307E-01
       -2   -1    0    0    0  501  0.00000000000E+00  0.00000000000E+00  0.39040682676E+03  0.39040682677E+03  0.25500000920E-02 0.  1.
        2   -1    0    0  501    0  0.00000000000E+00  0.00000000000E+00 -0.30957427682E+03  0.30957427683E+03  0.25500000920E-02 0. -1.
    10030    2    1    2    0    0  0.00000000000E+00  0.00000000000E+00  0.80832549938E+02  0.69998110360E+03  0.69529824124E+03 0.  0.
        2    1    3    3  502    0 -0.27243878996E+03 -0.15166280959E+03 -0.11435727576E+03  0.33211758251E+03  0.25500000920E-02 0. -1.
       -2    1    3    3    0  502  0.27243878996E+03  0.15166280959E+03  0.19518982570E+03  0.36786352109E+03  0.25500000920E-02 0.  1.
</event>
<event>
 5   0  0.1226303E-02  0.7111119E+03  0.7818609E-02  0.9698416E-01
       -1   -1    0    0    0  501  0.00000000000E+00  0.00000000000E+00  0.80117729980E+02  0.80117730139E+02  0.50400001928E-02 0.  1.
        1   -1    0    0  501    0  0.00000000000E+00  0.00000000000E+00 -0.15779283985E+04  0.15779283985E+04  0.50400001928E-02 0. -1.
    10030    2    1    2    0    0  0.00000000000E+00  0.00000000000E+00 -0.14978106685E+04  0.16580461286E+04  0.71111192225E+03 0.  0.
        4    1    3    3  502    0  0.26638979363E+03 -0.12635312295E+03 -0.28556395479E+03  0.41045952176E+03  0.12699999809E+01 0.  1.
       -4    1    3    3    0  502 -0.26638979363E+03  0.12635312295E+03 -0.12122467137E+04  0.12475866068E+04  0.12699999809E+01 0. -1.
</event>
<event>
 5   0  0.1226303E-02  0.6970261E+03  0.7818609E-02  0.9722332E-01
        1   -1    0    0  501    0  0.00000000000E+00  0.00000000000E+00  0.20094395615E+03  0.20094395621E+03  0.50400001928E-02 0. -1.
       -1   -1    0    0    0  501  0.00000000000E+00  0.00000000000E+00 -0.60445384992E+03  0.60445384994E+03  0.50400001928E-02 0.  1.
    10030    2    1    2    0    0  0.00000000000E+00  0.00000000000E+00 -0.40350989377E+03  0.80539780615E+03  0.69702610552E+03 0.  0.
        4    1    3    3  502    0  0.27897324812E+03 -0.12526275894E+03 -0.39490603575E+03  0.49946893989E+03  0.12699999809E+01 0.  1.
       -4    1    3    3    0  502 -0.27897324812E+03  0.12526275894E+03 -0.86038580237E+01  0.30592886626E+03  0.12699999809E+01 0. -1.
</event>
<event>
 5   0  0.1223742E-02  0.6870645E+03  0.7818609E-02  0.9739613E-01
       -1   -1    0    0    0  501  0.00000000000E+00  0.00000000000E+00  0.12901669296E+03  0.12901669306E+03  0.50400001928E-02 0.  1.
        1   -1    0    0  501    0  0.00000000000E+00  0.00000000000E+00 -0.91472188451E+03  0.91472188452E+03  0.50400001928E-02 0. -1.
    10030    2    1    2    0    0  0.00000000000E+00  0.00000000000E+00 -0.78570519155E+03  0.10437385776E+04  0.68706445862E+03 0.  0.
        2    1    3    3  502    0 -0.26815702260E+03  0.37933258227E+02 -0.71790552239E+02  0.28018030667E+03  0.25500000920E-02 0.  1.
       -2    1    3    3    0  502  0.26815702260E+03 -0.37933258227E+02 -0.71391463931E+03  0.76355827091E+03  0.25500000920E-02 0. -1.
</event>
<event>
 5   0  0.2026361E-02  0.6954311E+03  0.7818609E-02  0.9725078E-01
        2   -1    0    0  501    0  0.00000000000E+00  0.00000000000E+00  0.99116976412E+03  0.99116976413E+03  0.25500000920E-02 0.  1.
       -2   -1    0    0    0  501  0.00000000000E+00  0.00000000000E+00 -0.12198324091E+03  0.12198324093E+03  0.25500000920E-02 0. -1.
    10030    2    1    2    0    0  0.00000000000E+00  0.00000000000E+00  0.86918652322E+03  0.11131530051E+04  0.69543108971E+03 0.  0.
        2    1    3    3  502    0  0.11299562946E+03  0.30982529282E+03  0.25818288897E+03  0.41882947426E+03  0.25500000920E-02 0.  1.
       -2    1    3    3    0  502 -0.11299562946E+03 -0.30982529282E+03  0.61100363425E+03  0.69432353080E+03  0.25500000920E-02 0. -1.
</event>
<event>
 5   0  0.1909053E-02  0.7224928E+03  0.7818609E-02  0.9679521E-01
       -2   -1    0    0    0  501  0.00000000000E+00  0.00000000000E+00  0.44307423148E+03  0.44307423149E+03  0.25500000920E-02 0.  1.
        2   -1    0    0  501    0  0.00000000000E+00  0.00000000000E+00 -0.29453067415E+03  0.29453067416E+03  0.25500000920E-02 0. -1.
    10030    2    1    2    0    0  0.00000000000E+00  0.00000000000E+00  0.14854355734E+03  0.73760490565E+03  0.72249277395E+03 0.  0.
        1    1    3    3  502    0  0.16227758980E+03 -0.14273666175E+02  0.40344608356E+03  0.43509366355E+03  0.50400001928E-02 0.  1.
       -1    1    3    3    0  502 -0.16227758980E+03  0.14273666175E+02 -0.25490252622E+03  0.30251124210E+03  0.50400001928E-02 0. -1.
</event>
<event>
 5   0  0.1973067E-02  0.7007944E+03  0.7818609E-02  0.9715875E-01
        2   -1    0    0  501    0  0.00000000000E+00  0.00000000000E+00  0.73447641468E+03  0.73447641469E+03  0.25500000920E-02 0.  1.
       -2   -1    0    0    0  501  0.00000000000E+00  0.00000000000E+00 -0.16716423644E+03  0.16716423646E+03  0.25500000920E-02 0. -1.
    10030    2    1    2    0    0  0.00000000000E+00  0.00000000000E+00  0.56731217825E+03  0.90164065115E+03  0.70079437513E+03 0.  0.
        5    1    3    3  502    0  0.31844054382E+03  0.11232207932E+03  0.16340583437E+03  0.37515888121E+03  0.46999998093E+01 0. -1.
       -5    1    3    3    0  502 -0.31844054382E+03 -0.11232207932E+03  0.40390634388E+03  0.52648176993E+03  0.46999998093E+01 0.  1.
</event>
<event>
 5   0  0.1909053E-02  0.6987270E+03  0.7818609E-02  0.9719412E-01
       -2   -1    0    0    0  501  0.00000000000E+00  0.00000000000E+00  0.26172054736E+03  0.26172054737E+03  0.25500000920E-02 0.  1.
        2   -1    0    0  501    0  0.00000000000E+00  0.00000000000E+00 -0.46635567170E+03  0.46635567170E+03  0.25500000920E-02 0. -1.
    10030    2    1    2    0    0  0.00000000000E+00  0.00000000000E+00 -0.20463512434E+03  0.72807621907E+03  0.69872701870E+03 0.  0.
        1    1    3    3  502    0  0.23552855868E+03  0.13567569271E+03 -0.33102082205E+03  0.42831808297E+03  0.50400001928E-02 0. -1.
       -1    1    3    3    0  502 -0.23552855868E+03 -0.13567569271E+03  0.12638569771E+03  0.29975813610E+03  0.50400001928E-02 0.  1.
</event>
<event>
 5   0  0.1257442E-02  0.7157353E+03  0.7818609E-02  0.9690695E-01
       -1   -1    0    0    0  501  0.00000000000E+00  0.00000000000E+00  0.17813849590E+03  0.17813849597E+03  0.50400001928E-02 0. -1.
        1   -1    0    0  501    0  0.00000000000E+00  0.00000000000E+00 -0.71893091978E+03  0.71893091980E+03  0.50400001928E-02 0.  1.
    10030    2    1    2    0    0  0.00000000000E+00  0.00000000000E+00 -0.54079242389E+03  0.89706941577E+03  0.71573534981E+03 0.  0.
        1    1    3    3  502    0 -0.25504213907E+03 -0.13427813521E+02  0.43799475320E+02  0.25912389496E+03  0.50400001928E-02 0. -1.
       -1    1    3    3    0  502  0.25504213907E+03  0.13427813521E+02 -0.58459189921E+03  0.63794552081E+03  0.50400001928E-02 0.  1.
</event>
<event>
 5   0  0.1973067E-02  0.6934338E+03  0.7818609E-02  0.9728528E-01
       -2   -1    0    0    0  501  0.00000000000E+00  0.00000000000E+00  0.42067748105E+03  0.42067748105E+03  0.25500000920E-02 0. -1.
        2   -1    0    0  501    0  0.00000000000E+00  0.00000000000E+00 -0.28575958706E+03  0.28575958707E+03  0.25500000920E-02 0.  1.
    10030    2    1    2    0    0  0.00000000000E+00  0.00000000000E+00  0.13491789399E+03  0.70643706813E+03  0.69343384191E+03 0.  0.
        5    1    3    3  502    0 -0.22940181954E+03  0.17771787874E+03  0.26070438481E+03  0.39012524334E+03  0.46999998093E+01 0. -1.
       -5    1    3    3    0  502  0.22940181954E+03 -0.17771787874E+03 -0.12578649082E+03  0.31631182479E+03  0.46999998093E+01 0.  1.
</event>
<event>
 5   0  0.7947250E-03  0.7004367E+03  0.7818609E-02  0.9716486E-01
        3   -1    0    0  501    0  0.00000000000E+00  0.00000000000E+00  0.49287339206E+03  0.49287340241E+03  0.10100000352E+00 0.  1.
       -3   -1    0    0    0  501  0.00000000000E+00  0.00000000000E+00 -0.24885271386E+03  0.24885273435E+03  0.10100000352E+00 0. -1.
    10030    2    1    2    0    0  0.00000000000E+00  0.00000000000E+00  0.24402067820E+03  0.74172613676E+03  0.70043669990E+03 0.  0.
        2    1    3    3  502    0  0.60949186625E+01  0.22427000965E+03  0.40678413035E+03  0.46455087340E+03  0.25500000920E-02 0.  1.
       -2    1    3    3    0  502 -0.60949186625E+01 -0.22427000965E+03 -0.16276345215E+03  0.27717526337E+03  0.25500000920E-02 0. -1.
</event>
<event>
 5   0  0.2006362E-02  0.6965891E+03  0.7818609E-02  0.9723083E-01
       -2   -1    0    0    0  501  0.00000000000E+00  0.00000000000E+00  0.23159267478E+03  0.23159267479E+03  0.25500000920E-02 0. -1.
        2   -1    0    0  501    0  0.00000000000E+00  0.00000000000E+00 -0.52380361585E+03  0.52380361586E+03  0.25500000920E-02 0.  1.
    10030    2    1    2    0    0  0.00000000000E+00  0.00000000000E+00 -0.29221094107E+03  0.75539629065E+03  0.69658906239E+03 0.  0.
        4    1    3    3  502    0  0.12051456120E+03  0.50317388586E+01  0.20821741500E+03  0.24063495729E+03  0.12699999809E+01 0. -1.
       -4    1    3    3    0  502 -0.12051456120E+03 -0.50317388586E+01 -0.50042835608E+03  0.51476133336E+03  0.12699999809E+01 0.  1.
</event>
<event>
 5   0  0.2006362E-02  0.6902559E+03  0.7818609E-02  0.9734042E-01
       -2   -1    0    0    0  501  0.00000000000E+00  0.00000000000E+00  0.56698303825E+02  0.56698303883E+02  0.25500000920E-02 0. -1.
        2   -1    0    0  501    0  0.00000000000E+00  0.00000000000E+00 -0.21008267880E+04  0.21008267880E+04  0.25500000920E-02 0.  1.
    10030    2    1    2    0    0  0.00000000000E+00  0.00000000000E+00 -0.20441284841E+04  0.21575250919E+04  0.69025593970E+03 0.  0.
        4    1    3    3  502    0 -0.10784238965E+03  0.26301788942E+03 -0.16337999956E+04  0.16583462937E+04  0.12699999809E+01 0.  1.
       -4    1    3    3    0  502  0.10784238965E+03 -0.26301788942E+03 -0.41032848854E+03  0.49917879820E+03  0.12699999809E+01 0. -1.
</event>
<event>
 5   0  0.7947250E-03  0.6995384E+03  0.7818609E-02  0.9718022E-01
       -4   -1    0    0    0  501  0.00000000000E+00  0.00000000000E+00  0.10526782317E+03  0.10527548383E+03  0.12699999809E+01 0.  1.
        4   -1    0    0  501    0  0.00000000000E+00  0.00000000000E+00 -0.11621137696E+04  0.11621144635E+04  0.12699999809E+01 0. -1.
    10030    2    1    2    0    0  0.00000000000E+00  0.00000000000E+00 -0.10568459464E+04  0.12673899473E+04  0.69953836509E+03 0.  0.
        1    1    3    3  502    0  0.14366957418E+03  0.52702809426E+02  0.41400926916E+02  0.15853255010E+03  0.50400001928E-02 0.  1.
       -1    1    3    3    0  502 -0.14366957418E+03 -0.52702809426E+02 -0.10982468733E+04  0.11088573972E+04  0.50400001928E-02 0. -1.
</event>
<event>
 5   0  0.7947250E-03  0.7030568E+03  0.7818609E-02  0.9712019E-01
        3   -1    0    0  501    0  0.00000000000E+00  0.00000000000E+00  0.10485918370E+04  0.10485918418E+04  0.10100000352E+00 0. -1.
       -3   -1    0    0    0  501  0.00000000000E+00  0.00000000000E+00 -0.11784583481E+03  0.11784587809E+03  0.10100000352E+00 0.  1.
    10030    2    1    2    0    0  0.00000000000E+00  0.00000000000E+00  0.93074600217E+03  0.11664377199E+04  0.70305677861E+03 0.  0.
        5    1    3    3  502    0 -0.24767380408E+03  0.11727564695E+03  0.83057823602E+03  0.87463031433E+03  0.46999998093E+01 0. -1.
       -5    1    3    3    0  502  0.24767380408E+03 -0.11727564695E+03  0.10016776615E+03  0.29180740561E+03  0.46999998093E+01 0.  1.
</event>
<event>
 5   0  0.1257442E-02  0.6989149E+03  0.7818609E-02  0.9719090E-01
        1   -1    0    0  501    0  0.00000000000E+00  0.00000000000E+00  0.26550662171E+03  0.26550662176E+03  0.50400001928E-02 0.  1.
       -1   -1    0    0    0  501  0.00000000000E+00  0.00000000000E+00 -0.45995284512E+03  0.45995284515E+03  0.50400001928E-02 0. -1.
    10030    2    1    2    0    0  0.00000000000E+00  0.00000000000E+00 -0.19444622341E+03  0.72545946691E+03  0.69891494785E+03 0.  0.
        1    1    3    3  502    0 -0.27071285743E+03 -0.42434844434E+02 -0.32233396681E+03  0.42306660632E+03  0.50400001928E-02 0. -1.
       -1    1    3    3    0  502  0.27071285743E+03  0.42434844434E+02  0.12788774339E+03  0.30239286059E+03  0.50400001928E-02 0.  1.
</event>
<event>
 5   0  0.1237686E-02  0.7011146E+03  0.7818609E-02  0.9715328E-01
        1   -1    0    0  501    0  0.00000000000E+00  0.00000000000E+00  0.41412685913E+03  0.41412685916E+03  0.50400001928E-02 0. -1.
       -1   -1    0    0    0  501  0.00000000000E+00  0.00000000000E+00 -0.29674581001E+03  0.29674581005E+03  0.50400001928E-02 0.  1.
    10030    2    1    2    0    0  0.00000000000E+00  0.00000000000E+00  0.11738104912E+03  0.71087266921E+03  0.70111457063E+03 0.  0.
        5    1    3    3  502    0 -0.88552005713E+02  0.29950851027E+03 -0.10265156095E+03  0.32879513136E+03  0.46999998093E+01 0.  1.
       -5    1    3    3    0  502  0.88552005713E+02 -0.29950851027E+03  0.22003261007E+03  0.38207753785E+03  0.46999998093E+01 0. -1.
</event>
<event>
 5   0  0.2006362E-02  0.7026252E+03  0.7818609E-02  0.9712753E-01
        2   -1    0    0  501    0  0.00000000000E+00  0.00000000000E+00  0.10904629210E+04  0.10904629210E+04  0.25500000920E-02 0. -1.
       -2   -1    0    0    0  501  0.00000000000E+00  0.00000000000E+00 -0.11318179554E+03  0.11318179557E+03  0.25500000920E-02 0.  1.
    10030    2    1    2    0    0  0.00000000000E+00  0.00000000000E+00  0.97728112544E+03  0.12036447166E+04  0.70262522412E+03 0.  0.
        4    1    3    3  502    0  0.26189146789E+03 -0.22806539136E+03  0.57957808763E+03  0.67565770643E+03  0.12699999809E+01 0.  1.
       -4    1    3    3    0  502 -0.26189146789E+03  0.22806539136E+03  0.39770303781E+03  0.52798701014E+03  0.12699999809E+01 0. -1.
</event>
<event>
 5   0  0.1973067E-02  0.6985185E+03  0.7818609E-02  0.9719769E-01
        2   -1    0    0  501    0  0.00000000000E+00  0.00000000000E+00  0.17507454443E+04  0.17507454443E+04  0.25500000920E-02 0.  1.
       -2   -1    0    0    0  501  0.00000000000E+00  0.00000000000E+00 -0.69674335509E+02  0.69674335555E+02  0.25500000920E-02 0. -1.
    10030    2    1    2    0    0  0.00000000000E+00  0.00000000000E+00  0.16810711088E+04  0.18204197799E+04  0.69851850519E+03 0.  0.
        5    1    3    3  502    0  0.28659437320E+03 -0.93620793521E+02  0.38124702323E+03  0.48607876980E+03  0.46999998093E+01 0. -1.
       -5    1    3    3    0  502 -0.28659437320E+03  0.93620793521E+02  0.12998240856E+04  0.13343410101E+04  0.46999998093E+01 0.  1.
</event>
<event>
 5   0  0.1909053E-02  0.6952401E+03  0.7818609E-02  0.9725407E-01
       -2   -1    0    0    0  501  0.00000000000E+00  0.00000000000E+00  0.13037107529E+03  0.13037107531E+03  0.25500000920E-02 0. -1.
        2   -1    0    0  501    0  0.00000000000E+00  0.00000000000E+00 -0.92689035696E+03  0.92689035696E+03  0.25500000920E-02 0.  1.
    10030    2    1    2    0    0  0.00000000000E+00  0.00000000000E+00 -0.79651928167E+03  0.10572614323E+04  0.69524008090E+03 0.  0.
        1    1    3    3  502    0  0.24704018653E+02  0.18602842788E+03 -0.84324156779E+03  0.86387105877E+03  0.50400001928E-02 0.  1.
       -1    1    3    3    0  502 -0.24704018653E+02 -0.18602842788E+03  0.46722286116E+02  0.19339037350E+03  0.50400001928E-02 0. -1.
</event>
<event>
 5   0  0.1909053E-02  0.6981777E+03  0.7818609E-02  0.9720354E-01
        2   -1    0    0  501    0  0.00000000000E+00  0.00000000000E+00  0.24814457954E+03  0.24814457955E+03  0.25500000920E-02 0. -1.
       -2   -1    0    0    0  501  0.00000000000E+00  0.00000000000E+00 -0.49109684984E+03  0.49109684985E+03  0.25500000920E-02 0.  1.
    10030    2    1    2    0    0  0.00000000000E+00  0.00000000000E+00 -0.24295227030E+03  0.73924142940E+03  0.69817768892E+03 0.  0.
        1    1    3    3  502    0  0.21758970538E+03 -0.12866364613E+03 -0.37639224735E+03  0.45339909310E+03  0.50400001928E-02 0.  1.
       -1    1    3    3    0  502 -0.21758970538E+03  0.12866364613E+03  0.13343997705E+03  0.28584233631E+03  0.50400001928E-02 0. -1.
</event>
<event>
 5   0  0.1237686E-02  0.7041488E+03  0.7818609E-02  0.9710163E-01
       -1   -1    0    0    0  501  0.00000000000E+00  0.00000000000E+00  0.38629360006E+03  0.38629360009E+03  0.50400001928E-02 0. -1.
        1   -1    0    0  501    0  0.00000000000E+00  0.00000000000E+00 -0.32088648151E+03  0.32088648155E+03  0.50400001928E-02 0.  1.
    10030    2    1    2    0    0  0.00000000000E+00  0.00000000000E+00  0.65407118546E+02  0.70718008165E+03  0.70414883137E+03 0.  0.
        5    1    3    3  502    0 -0.22468934263E+03  0.13360283223E+03  0.26951362974E+03  0.37549261522E+03  0.46999998093E+01 0.  1.
       -5    1    3    3    0  502  0.22468934263E+03 -0.13360283223E+03 -0.20410651119E+03  0.33168746642E+03  0.46999998093E+01 0. -1.
</event>
<event>
 5   0  0.1237686E-02  0.6817606E+03  0.7818609E-02  0.9748943E-01
       -1   -1    0    0    0  501  0.00000000000E+00  0.00000000000E+00  0.51279147594E+03  0.51279147596E+03  0.50400001928E-02 0. -1.
        1   -1    0    0  501    0  0.00000000000E+00  0.00000000000E+00 -0.22660163879E+03  0.22660163885E+03  0.50400001928E-02 0.  1.
    10030    2    1    2    0    0  0.00000000000E+00  0.00000000000E+00  0.28618983715E+03  0.73939311481E+03  0.68176062907E+03 0.  0.
        5    1    3    3  502    0  0.58752169017E+02 -0.16079955344E+03  0.46274576467E+03  0.49342076007E+03  0.46999998093E+01 0. -1.
       -5    1    3    3    0  502 -0.58752169017E+02  0.16079955344E+03 -0.17655592753E+03  0.24597235474E+03  0.46999998093E+01 0.  1.
</event>
<event>
 5   0  0.2006362E-02  0.6671313E+03  0.7818609E-02  0.9775154E-01
        2   -1    0    0  501    0  0.00000000000E+00  0.00000000000E+00  0.15122629881E+04  0.15122629881E+04  0.25500000920E-02 0.  1.
       -2   -1    0    0    0  501  0.00000000000E+00  0.00000000000E+00 -0.73575863567E+02  0.73575863611E+02  0.25500000920E-02 0. -1.
    10030    2    1    2    0    0  0.00000000000E+00  0.00000000000E+00  0.14386871246E+04  0.15858388518E+04  0.66713133738E+03 0.  0.
        4    1    3    3  502    0  0.18005002046E+03  0.20861773107E+03  0.27256815698E+03  0.38760080067E+03  0.12699999809E+01 0. -1.
       -4    1    3    3    0  502 -0.18005002046E+03 -0.20861773107E+03  0.11661189676E+04  0.11982380511E+04  0.12699999809E+01 0.  1.
</event>
<event>
 5   0  0.1226303E-02  0.7067973E+03  0.7818609E-02  0.9705678E-01
        1   -1    0    0  501    0  0.00000000000E+00  0.00000000000E+00  0.39555146099E+03  0.39555146102E+03  0.50400001928E-02 0.  1.
       -1   -1    0    0    0  501  0.00000000000E+00  0.00000000000E+00 -0.31573790466E+03  0.31573790470E+03  0.50400001928E-02 0. -1.
    10030    2    1    2    0    0  0.00000000000E+00  0.00000000000E+00  0.79813556333E+02  0.71128936572E+03  0.70679725382E+03 0.  0.
        4    1    3    3  502    0 -0.67106093210E+02 -0.33726114528E+03  0.12191499533E+03  0.36484679915E+03  0.12699999809E+01 0. -1.
       -4    1    3    3    0  502  0.67106093210E+02  0.33726114528E+03 -0.42101439001E+02  0.34644256657E+03  0.12699999809E+01 0.  1.
</event>
<event>
 5   0  0.2006362E-02  0.6964375E+03  0.7818609E-02  0.9723344E-01
        2   -1    0    0  501    0  0.00000000000E+00  0.00000000000E+00  0.48754091570E+03  0.48754091571E+03  0.25500000920E-02 0.  1.
       -2   -1    0    0    0  501  0.00000000000E+00  0.00000000000E+00 -0.24870997293E+03  0.24870997294E+03  0.25500000920E-02 0. -1.
    10030    2    1    2    0    0  0.00000000000E+00  0.00000000000E+00  0.23883094277E+03  0.73625088865E+03  0.69643747158E+03 0.  0.
        4    1    3    3  502    0 -0.24570646364E+02  0.17170904680E+03  0.43861514779E+03  0.47166998441E+03  0.12699999809E+01 0.  1.
       -4    1    3    3    0  502  0.24570646364E+02 -0.17170904680E+03 -0.19978420502E+03  0.26458090425E+03  0.12699999809E+01 0. -1.
</event>
<event>
 5   0  0.1197259E-02  0.7005399E+03  0.7818609E-02  0.9716309E-01
       -1   -1    0    0    0  501  0.00000000000E+00  0.00000000000E+00  0.11527070860E+03  0.11527070871E+03  0.50400001928E-02 0.  1.
        1   -1    0    0  501    0  0.00000000000E+00  0.00000000000E+00 -0.10643556646E+04  0.10643556646E+04  0.50400001928E-02 0. -1.
    10030    2    1    2    0    0  0.00000000000E+00  0.00000000000E+00 -0.94908495599E+03  0.11796263733E+04  0.70053988245E+03 0.  0.
        3    1    3    3  502    0  0.32099421102E+02 -0.31804456295E+03 -0.71567473506E+03  0.78381952862E+03  0.10100000352E+00 0. -1.
       -3    1    3    3    0  502 -0.32099421102E+02  0.31804456295E+03 -0.23341022093E+03  0.39580684468E+03  0.10100000352E+00 0.  1.
</event>
<event>
 5   0  0.1226303E-02  0.7005027E+03  0.7818609E-02  0.9716373E-01
        1   -1    0    0  501    0  0.00000000000E+00  0.00000000000E+00  0.44958973854E+03  0.44958973857E+03  0.50400001928E-02 0. -1.
       -1   -1    0    0    0  501  0.00000000000E+00  0.00000000000E+00 -0.27286211950E+03  0.27286211955E+03  0.50400001928E-02 0.  1.
    10030    2    1    2    0    0  0.00000000000E+00  0.00000000000E+00  0.17672761904E+03  0.72245185812E+03  0.70050270233E+03 0.  0.
        4    1    3    3  502    0 -0.14989668704E+03 -0.31534151923E+03  0.59836568267E+02  0.35424753823E+03  0.12699999809E+01 0.  1.
       -4    1    3    3    0  502  0.14989668704E+03  0.31534151923E+03  0.11689105077E+03  0.36820431989E+03  0.12699999809E+01 0. -1.
</event>
<event>
 5   0  0.1223742E-02  0.7006990E+03  0.7818609E-02  0.9716038E-01
        1   -1    0    0  501    0  0.00000000000E+00  0.00000000000E+00  0.44616284575E+03  0.44616284578E+03  0.50400001928E-02 0. -1.
       -1   -1    0    0    0  501  0.00000000000E+00  0.00000000000E+00 -0.27511202946E+03  0.27511202950E+03  0.50400001928E-02 0.  1.
    10030    2    1    2    0    0  0.00000000000E+00  0.00000000000E+00  0.17105081629E+03  0.72127487528E+03  0.70069898241E+03 0.  0.
        2    1    3    3  502    0  0.26261238304E+03 -0.22737799197E+03  0.13245756952E+03  0.37176743092E+03  0.25500000920E-02 0. -1.
       -2    1    3    3    0  502 -0.26261238304E+03  0.22737799197E+03  0.38593246771E+02  0.34950744436E+03  0.25500000920E-02 0.  1.
</event>
<event>
 5   0  0.1909053E-02  0.6969193E+03  0.7818609E-02  0.9722515E-01
        2   -1    0    0  501    0  0.00000000000E+00  0.00000000000E+00  0.37572671716E+03  0.37572671717E+03  0.25500000920E-02 0.  1.
       -2   -1    0    0    0  501  0.00000000000E+00  0.00000000000E+00 -0.32317141157E+03  0.32317141158E+03  0.25500000920E-02 0. -1.
    10030    2    1    2    0    0  0.00000000000E+00  0.00000000000E+00  0.52555305597E+02  0.69889812875E+03  0.69691931687E+03 0.  0.
        1    1    3    3  502    0  0.24360813134E+03  0.15596464043E+02  0.27565209230E+03  0.36820136795E+03  0.50400001928E-02 0.  1.
       -1    1    3    3    0  502 -0.24360813134E+03 -0.15596464043E+02 -0.22309678670E+03  0.33069676080E+03  0.50400001928E-02 0. -1.
</event>
<event>
 5   0  0.1257442E-02  0.7015314E+03  0.7818609E-02  0.9714617E-01
        1   -1    0    0  501    0  0.00000000000E+00  0.00000000000E+00  0.11355240000E+03  0.11355240012E+03  0.50400001928E-02 0. -1.
       -1   -1    0    0    0  501  0.00000000000E+00  0.00000000000E+00 -0.10835223292E+04  0.10835223292E+04  0.50400001928E-02 0.  1.
    10030    2    1    2    0    0  0.00000000000E+00  0.00000000000E+00 -0.96996992921E+03  0.11970747293E+04  0.70153135643E+03 0.  0.
        1    1    3    3  502    0  0.55063359745E+02  0.26015048031E+03 -0.87531704914E+03  0.91481702134E+03  0.50400001928E-02 0.  1.
       -1    1    3    3    0  502 -0.55063359745E+02 -0.26015048031E+03 -0.94652880064E+02  0.28225770799E+03  0.50400001928E-02 0. -1.
</event>
<event>
 5   0  0.1909053E-02  0.6977957E+03  0.7818609E-02  0.9721009E-01
       -2   -1    0    0    0  501  0.00000000000E+00  0.00000000000E+00  0.60650471762E+03  0.60650471763E+03  0.25500000920E-02 0. -1.
        2   -1    0    0  501    0  0.00000000000E+00  0.00000000000E+00 -0.20070696938E+03  0.20070696940E+03  0.25500000920E-02 0.  1.
    10030    2    1    2    0    0  0.00000000000E+00  0.00000000000E+00  0.40579774824E+03  0.80721168703E+03  0.69779574031E+03 0.  0.
        1    1    3    3  502    0 -0.17306891746E+03  0.16481897135E+03 -0.91146471000E+02  0.25578471946E+03  0.50400001928E-02 0.  1.
       -1    1    3    3    0  502  0.17306891746E+03 -0.16481897135E+03  0.49694421924E+03  0.55142696757E+03  0.50400001928E-02 0. -1.
</event>
<event>
 5   0  0.2026361E-02  0.6934644E+03  0.7818609E-02  0.9728475E-01
        2   -1    0    0  501    0  0.00000000000E+00  0.00000000000E+00  0.98229817231E+03  0.98229817231E+03  0.25500000920E-02 0. -1.
       -2   -1    0    0    0  501  0.00000000000E+00  0.00000000000E+00 -0.12238974099E+03  0.12238974101E+03  0.25500000920E-02 0.  1.
    10030    2    1    2    0    0  0.00000000000E+00  0.00000000000E+00  0.85990843132E+03  0.11046879133E+04  0.69346440109E+03 0.  0.
        2    1    3    3  502    0 -0.24592861288E+03  0.19873682952E+03  0.20328886215E+03  0.37590367320E+03  0.25500000920E-02 0.  1.
       -2    1    3    3    0  502  0.24592861288E+03 -0.19873682952E+03  0.65661956917E+03  0.72878424013E+03  0.25500000920E-02 0. -1.
</event>
<event>
 5   0  0.2006362E-02  0.6951101E+03  0.7818609E-02  0.9725631E-01
        2   -1    0    0  501    0  0.00000000000E+00  0.00000000000E+00  0.14805268837E+04  0.14805268837E+04  0.25500000920E-02 0. -1.
       -2   -1    0    0    0  501  0.00000000000E+00  0.00000000000E+00 -0.81588857434E+02  0.81588857474E+02  0.25500000920E-02 0.  1.
    10030    2    1    2    0    0  0.00000000000E+00  0.00000000000E+00  0.13989380262E+04  0.15621157412E+04  0.69511005423E+03 0.  0.
        4    1    3    3  502    0  0.85194832818E+02 -0.71935002798E+02 -0.40296866768E+02  0.11856751046E+03  0.12699999809E+01 0.  1.
       -4    1    3    3    0  502 -0.85194832818E+02  0.71935002798E+02  0.14392348930E+04  0.14435482307E+04  0.12699999809E+01 0. -1.
</event>
<event>
 5   0  0.1223742E-02  0.6974595E+03  0.7818609E-02  0.9721587E-01
       -1   -1    0    0    0  501  0.00000000000E+00  0.00000000000E+00  0.11822336196E+03  0.11822336207E+03  0.50400001928E-02 0.  1.
        1   -1    0    0  501    0  0.00000000000E+00  0.00000000000E+00 -0.10286666491E+04  0.10286666491E+04  0.50400001928E-02 0. -1.
    10030    2    1    2    0    0  0.00000000000E+00  0.00000000000E+00 -0.91044328713E+03  0.11468900112E+04  0.69745947454E+03 0.  0.
        2    1    3    3  502    0  0.53466151805E+02  0.32375791590E+03 -0.26111060434E+03  0.41935255478E+03  0.25500000920E-02 0. -1.
       -2    1    3    3    0  502 -0.53466151805E+02 -0.32375791590E+03 -0.64933268279E+03  0.72753745639E+03  0.25500000920E-02 0.  1.
</event>
<event>
 5   0  0.1257442E-02  0.7067266E+03  0.7818609E-02  0.9705798E-01
        1   -1    0    0  501    0  0.00000000000E+00  0.00000000000E+00  0.34813330583E+03  0.34813330587E+03  0.50400001928E-02 0.  1.
       -1   -1    0    0    0  501  0.00000000000E+00  0.00000000000E+00 -0.35867181341E+03  0.35867181344E+03  0.50400001928E-02 0. -1.
    10030    2    1    2    0    0  0.00000000000E+00  0.00000000000E+00 -0.10538507579E+02  0.70680511931E+03  0.70672655005E+03 0.  0.
        1    1    3    3  502    0  0.83281150717E+02  0.19291401912E+03  0.27886448724E+03  0.34916610819E+03  0.50400001928E-02 0.  1.
       -1    1    3    3    0  502 -0.83281150717E+02 -0.19291401912E+03 -0.28940299482E+03  0.35763901112E+03  0.50400001928E-02 0. -1.
</event>
<event>
 5   0  0.2006362E-02  0.6985577E+03  0.7818609E-02  0.9719702E-01
       -2   -1    0    0    0  501  0.00000000000E+00  0.00000000000E+00  0.46042610828E+03  0.46042610829E+03  0.25500000920E-02 0. -1.
        2   -1    0    0  501    0  0.00000000000E+00  0.00000000000E+00 -0.26496261439E+03  0.26496261441E+03  0.25500000920E-02 0.  1.
    10030    2    1    2    0    0  0.00000000000E+00  0.00000000000E+00  0.19546349389E+03  0.72538872270E+03  0.69855767233E+03 0.  0.
        4    1    3    3  502    0 -0.32686686023E+03 -0.31418699593E+02  0.22131995318E+03  0.39599648177E+03  0.12699999809E+01 0. -1.
       -4    1    3    3    0  502  0.32686686023E+03  0.31418699593E+02 -0.25856459286E+02  0.32939224093E+03  0.12699999809E+01 0.  1.
</event>
<event>
 5   0  0.1948138E-02  0.7081097E+03  0.7818609E-02  0.9703463E-01
       -2   -1    0    0    0  501  0.00000000000E+00  0.00000000000E+00  0.22687870425E+03  0.22687870426E+03  0.25500000920E-02 0.  1.
        2   -1    0    0  501    0  0.00000000000E+00  0.00000000000E+00 -0.55251916571E+03  0.55251916572E+03  0.25500000920E-02 0. -1.
    10030    2    1    2    0    0  0.00000000000E+00  0.00000000000E+00 -0.32564046146E+03  0.77939786998E+03  0.70810968754E+03 0.  0.
        3    1    3    3  502    0  0.17385188467E+03  0.42562566080E+02  0.17341497693E+03  0.24921640046E+03  0.10100000352E+00 0.  1.
       -3    1    3    3    0  502 -0.17385188467E+03 -0.42562566080E+02 -0.49905543839E+03  0.53018146952E+03  0.10100000352E+00 0. -1.
</event>
<event>
 5   0  0.7947250E-03  0.7104925E+03  0.7818609E-02  0.9699455E-01
        4   -1    0    0  501    0  0.00000000000E+00  0.00000000000E+00  0.14548629008E+03  0.14549183311E+03  0.12699999809E+01 0. -1.
       -4   -1    0    0    0  501  0.00000000000E+00  0.00000000000E+00 -0.86741250493E+03  0.86741343465E+03  0.12699999809E+01 0.  1.
    10030    2    1    2    0    0  0.00000000000E+00  0.00000000000E+00 -0.72192621484E+03  0.10129052678E+04  0.71049252056E+03 0.  0.
        1    1    3    3  502    0 -0.35246967053E+03  0.37294205613E+01 -0.29799042085E+03  0.46157022019E+03  0.50400001928E-02 0.  1.
       -1    1    3    3    0  502  0.35246967053E+03 -0.37294205613E+01 -0.42393579399E+03  0.55133504757E+03  0.50400001928E-02 0. -1.
</event>
<event>
 5   0  0.7947250E-03  0.7059692E+03  0.7818609E-02  0.9707078E-01
       -3   -1    0    0    0  501  0.00000000000E+00  0.00000000000E+00  0.37888610065E+03  0.37888611412E+03  0.10100000352E+00 0. -1.
        3   -1    0    0  501    0  0.00000000000E+00  0.00000000000E+00 -0.32885371034E+03  0.32885372585E+03  0.10100000352E+00 0.  1.
    10030    2    1    2    0    0  0.00000000000E+00  0.00000000000E+00  0.50032390312E+02  0.70773983997E+03  0.70596915017E+03 0.  0.
        4    1    3    3  502    0  0.45342838452E+01  0.15724911972E+03  0.34179712049E+03  0.37626417562E+03  0.12699999809E+01 0. -1.
       -4    1    3    3    0  502 -0.45342838452E+01 -0.15724911972E+03 -0.29176473017E+03  0.33147566435E+03  0.12699999809E+01 0.  1.
</event>
<event>
 5   0  0.1197259E-02  0.7024823E+03  0.7818609E-02  0.9712997E-01
        1   -1    0    0  501    0  0.00000000000E+00  0.00000000000E+00  0.42230637619E+03  0.42230637622E+03  0.50400001928E-02 0. -1.
       -1   -1    0    0    0  501  0.00000000000E+00  0.00000000000E+00 -0.29213468903E+03  0.29213468908E+03  0.50400001928E-02 0.  1.
    10030    2    1    2    0    0  0.00000000000E+00  0.00000000000E+00  0.13017168716E+03  0.71444106530E+03  0.70248228992E+03 0.  0.
        3    1    3    3  502    0  0.23697476179E+03 -0.28189119982E+02  0.32719132821E+03  0.40497634458E+03  0.10100000352E+00 0. -1.
       -3    1    3    3    0  502 -0.23697476179E+03  0.28189119982E+02 -0.19701964105E+03  0.30946472072E+03  0.10100000352E+00 0.  1.
</event>
<event>
 5   0  0.2026361E-02  0.7038292E+03  0.7818609E-02  0.9710706E-01
        2   -1    0    0  501    0  0.00000000000E+00  0.00000000000E+00  0.13062761808E+03  0.13062761811E+03  0.25500000920E-02 0.  1.
       -2   -1    0    0    0  501  0.00000000000E+00  0.00000000000E+00 -0.94806828304E+03  0.94806828304E+03  0.25500000920E-02 0. -1.
    10030    2    1    2    0    0  0.00000000000E+00  0.00000000000E+00 -0.81744066496E+03  0.10786959012E+04  0.70382924523E+03 0.  0.
        2    1    3    3  502    0 -0.96105644691E+02 -0.32120678083E+01 -0.92754294041E+03  0.93251408495E+03  0.25500000920E-02 0. -1.
       -2    1    3    3    0  502  0.96105644691E+02  0.32120678083E+01  0.11010227545E+03  0.14618181620E+03  0.25500000920E-02 0.  1.
</event>
<event>
 5   0  0.2006362E-02  0.6967933E+03  0.7818609E-02  0.9722732E-01
        2   -1    0    0  501    0  0.00000000000E+00  0.00000000000E+00  0.60586523570E+03  0.60586523571E+03  0.25500000920E-02 0.  1.
       -2   -1    0    0    0  501  0.00000000000E+00  0.00000000000E+00 -0.20034197825E+03  0.20034197827E+03  0.25500000920E-02 0. -1.
    10030    2    1    2    0    0  0.00000000000E+00  0.00000000000E+00  0.40552325745E+03  0.80620721398E+03  0.69679334063E+03 0.  0.
        4    1    3    3  502    0 -0.11542004991E+03  0.29565245790E+03  0.36901310933E+03  0.48672831389E+03  0.12699999809E+01 0. -1.
       -4    1    3    3    0  502  0.11542004991E+03 -0.29565245790E+03  0.36510148116E+02  0.31947890009E+03  0.12699999809E+01 0.  1.
</event>
<event>
 5   0  0.1257442E-02  0.7005634E+03  0.7818609E-02  0.9716269E-01
       -1   -1    0    0    0  501  0.00000000000E+00  0.00000000000E+00  0.18923537002E+03  0.18923537008E+03  0.50400001928E-02 0. -1.
        1   -1    0    0  501    0  0.00000000000E+00  0.00000000000E+00 -0.64838450130E+03  0.64838450132E+03  0.50400001928E-02 0.  1.
    10030    2    1    2    0    0  0.00000000000E+00  0.00000000000E+00 -0.45914913128E+03  0.83761987141E+03  0.70056343340E+03 0.  0.
        1    1    3    3  502    0  0.89427035115E+02  0.29203981254E+03 -0.24520707557E+02  0.30640775421E+03  0.50400001928E-02 0. -1.
       -1    1    3    3    0  502 -0.89427035115E+02 -0.29203981254E+03 -0.43462842373E+03  0.53121211719E+03  0.50400001928E-02 0.  1.
</event>
<event>
 5   0  0.1257442E-02  0.6980564E+03  0.7818609E-02  0.9720562E-01
       -1   -1    0    0    0  501  0.00000000000E+00  0.00000000000E+00  0.12033560831E+03  0.12033560841E+03  0.50400001928E-02 0. -1.
        1   -1    0    0  501    0  0.00000000000E+00  0.00000000000E+00 -0.10123412084E+04  0.10123412084E+04  0.50400001928E-02 0.  1.
    10030    2    1    2    0    0  0.00000000000E+00  0.00000000000E+00 -0.89200560009E+03  0.11326768168E+04  0.69805643094E+03 0.  0.
        1    1    3    3  502    0  0.20465332823E+03 -0.45498687825E+02  0.67840625914E+01  0.20975971701E+03  0.50400001928E-02 0. -1.
       -1    1    3    3    0  502 -0.20465332823E+03  0.45498687825E+02 -0.89878966268E+03  0.92291709981E+03  0.50400001928E-02 0.  1.
</event>
<event>
 5   0  0.1948138E-02  0.7003333E+03  0.7818609E-02  0.9716662E-01
        2   -1    0    0  501    0  0.00000000000E+00  0.00000000000E+00  0.10842051646E+04  0.10842051646E+04  0.25500000920E-02 0. -1.
       -2   -1    0    0    0  501  0.00000000000E+00  0.00000000000E+00 -0.11309362928E+03  0.11309362931E+03  0.25500000920E-02 0.  1.
    10030    2    1    2    0    0  0.00000000000E+00  0.00000000000E+00  0.97111153528E+03  0.11972987939E+04  0.70033334053E+03 0.  0.
        3    1    3    3  502    0  0.31653549372E+01 -0.52446691785E+02  0.10774275756E+04  0.10787079613E+04  0.10100000352E+00 0. -1.
       -3    1    3    3    0  502 -0.31653549372E+01  0.52446691785E+02 -0.10631604029E+03  0.11859083259E+03  0.10100000352E+00 0.  1.
</event>
<event>
 5   0  0.1226303E-02  0.6995818E+03  0.7818609E-02  0.9717948E-01
       -1   -1    0    0    0  501  0.00000000000E+00  0.00000000000E+00  0.25268210253E+03  0.25268210258E+03  0.50400001928E-02 0.  1.
        1   -1    0    0  501    0  0.00000000000E+00  0.00000000000E+00 -0.48421977794E+03  0.48421977796E+03  0.50400001928E-02 0. -1.
    10030    2    1    2    0    0  0.00000000000E+00  0.00000000000E+00 -0.23153767541E+03  0.73690188055E+03  0.69958179394E+03 0.  0.
        4    1    3    3  502    0 -0.13428286156E+03 -0.10694029233E+03 -0.43679578863E+03  0.46931896073E+03  0.12699999809E+01 0. -1.
       -4    1    3    3    0  502  0.13428286156E+03  0.10694029233E+03  0.20525811322E+03  0.26758291982E+03  0.12699999809E+01 0.  1.
</event>
<event>
 5   0  0.1257442E-02  0.6923113E+03  0.7818609E-02  0.9730472E-01
       -1   -1    0    0    0  501  0.00000000000E+00  0.00000000000E+00  0.24498643141E+03  0.24498643146E+03  0.50400001928E-02 0.  1.
        1   -1    0    0  501    0  0.00000000000E+00  0.00000000000E+00 -0.48910349069E+03  0.48910349072E+03  0.50400001928E-02 0. -1.
    10030    2    1    2    0    0  0.00000000000E+00  0.00000000000E+00 -0.24411705928E+03  0.73408992218E+03  0.69231125602E+03 0.  0.
        1    1    3    3  502    0  0.12454635484E+03 -0.11455777986E+03 -0.44225589990E+03  0.47352461441E+03  0.50400001928E-02 0. -1.
       -1    1    3    3    0  502 -0.12454635484E+03  0.11455777986E+03  0.19813884061E+03  0.26056530777E+03  0.50400001928E-02 0.  1.
</event>
<event>
 5   0  0.7947250E-03  0.6989291E+03  0.7818609E-02  0.9719065E-01
        3   -1    0    0  501    0  0.00000000000E+00  0.00000000000E+00  0.35554146932E+03  0.35554148367E+03  0.10100000352E+00 0. -1.
       -3   -1    0    0    0  501  0.00000000000E+00  0.00000000000E+00 -0.34349147155E+03  0.34349148640E+03  0.10100000352E+00 0.  1.
    10030    2    1    2    0    0  0.00000000000E+00  0.00000000000E+00  0.12049997768E+02  0.69903297007E+03  0.69892910284E+03 0.  0.
        1    1    3    3  502    0  0.18137316994E+02 -0.46321253670E+02 -0.33993224836E+03  0.34355284064E+03  0.50400001928E-02 0.  1.
       -1    1    3    3    0  502 -0.18137316994E+02  0.46321253670E+02  0.35198224613E+03  0.35548012944E+03  0.50400001928E-02 0. -1.
</event>
<event>
 5   0  0.1257442E-02  0.6879817E+03  0.7818609E-02  0.9738009E-01
       -1   -1    0    0    0  501  0.00000000000E+00  0.00000000000E+00  0.42903357306E+03  0.42903357309E+03  0.50400001928E-02 0. -1.
        1   -1    0    0  501    0  0.00000000000E+00  0.00000000000E+00 -0.27580526621E+03  0.27580526626E+03  0.50400001928E-02 0.  1.
    10030    2    1    2    0    0  0.00000000000E+00  0.00000000000E+00  0.15322830685E+03  0.70483883934E+03  0.68798174062E+03 0.  0.
        1    1    3    3  502    0 -0.22978362859E+03 -0.13453662359E+03 -0.14650423080E+03  0.30391464052E+03  0.50400001928E-02 0.  1.
       -1    1    3    3    0  502  0.22978362859E+03  0.13453662359E+03  0.29973253764E+03  0.40092419882E+03  0.50400001928E-02 0. -1.
</event>
<event>
 5   0  0.1197259E-02  0.7028147E+03  0.7818609E-02  0.9712431E-01
       -1   -1    0    0    0  501  0.00000000000E+00  0.00000000000E+00  0.35878174220E+03  0.35878174223E+03  0.50400001928E-02 0. -1.
        1   -1    0    0  501    0  0.00000000000E+00  0.00000000000E+00 -0.34418457560E+03  0.34418457564E+03  0.50400001928E-02 0.  1.
    10030    2    1    2    0    0  0.00000000000E+00  0.00000000000E+00  0.14597166596E+02  0.70296631787E+03  0.70281474571E+03 0.  0.
        3    1    3    3  502    0 -0.20201652393E+02 -0.29438259461E+03 -0.18357735159E+03  0.34751960087E+03  0.10100000352E+00 0.  1.
       -3    1    3    3    0  502  0.20201652393E+02  0.29438259461E+03  0.19817451819E+03  0.35544671700E+03  0.10100000352E+00 0. -1.
</event>
<event>
 5   0  0.1973067E-02  0.6892399E+03  0.7818609E-02  0.9735812E-01
        2   -1    0    0  501    0  0.00000000000E+00  0.00000000000E+00  0.38889134434E+03  0.38889134435E+03  0.25500000920E-02 0.  1.
       -2   -1    0    0    0  501  0.00000000000E+00  0.00000000000E+00 -0.30538839987E+03  0.30538839988E+03  0.25500000920E-02 0. -1.
    10030    2    1    2    0    0  0.00000000000E+00  0.00000000000E+00  0.83502944472E+02  0.69427974424E+03  0.68923988678E+03 0.  0.
        5    1    3    3  502    0 -0.13431733225E+03  0.20213510940E+03  0.28816455238E+03  0.37677665458E+03  0.46999998093E+01 0.  1.
       -5    1    3    3    0  502  0.13431733225E+03 -0.20213510940E+03 -0.20466160790E+03  0.31750308966E+03  0.46999998093E+01 0. -1.
</event>
<event>
 5   0  0.1226303E-02  0.7012650E+03  0.7818609E-02  0.9715071E-01
        1   -1    0    0  501    0  0.00000000000E+00  0.00000000000E+00  0.76093980256E+03  0.76093980258E+03  0.50400001928E-02 0. -1.
       -1   -1    0    0    0  501  0.00000000000E+00  0.00000000000E+00 -0.16156750670E+03  0.16156750678E+03  0.50400001928E-02 0.  1.
    10030    2    1    2    0    0  0.00000000000E+00  0.00000000000E+00  0.59937229586E+03  0.92250730936E+03  0.70126499041E+03 0.  0.
        4    1    3    3  502    0  0.25696448682E+03 -0.53635520909E+02 -0.61024490727E+01  0.26257640674E+03  0.12699999809E+01 0. -1.
       -4    1    3    3    0  502 -0.25696448682E+03  0.53635520909E+02  0.60547474493E+03  0.65993090262E+03  0.12699999809E+01 0.  1.
</event>
<event>
 5   0  0.1257442E-02  0.7009009E+03  0.7818609E-02  0.9715693E-01
        1   -1    0    0  501    0  0.00000000000E+00  0.00000000000E+00  0.99445038831E+03  0.99445038832E+03  0.50400001928E-02 0. -1.
       -1   -1    0    0    0  501  0.00000000000E+00  0.00000000000E+00 -0.12350089805E+03  0.12350089816E+03  0.50400001928E-02 0.  1.
    10030    2    1    2    0    0  0.00000000000E+00  0.00000000000E+00  0.87094949025E+03  0.11179512865E+04  0.70090089482E+03 0.  0.
        1    1    3    3  502    0  0.19908207824E+03  0.12611366567E+03  0.21760787555E+02  0.23666825399E+03  0.50400001928E-02 0.  1.
       -1    1    3    3    0  502 -0.19908207824E+03 -0.12611366567E+03  0.84918870270E+03  0.88128303249E+03  0.50400001928E-02 0. -1.
</event>
<event>
 5   0  0.1257442E-02  0.6949696E+03  0.7818609E-02  0.9725874E-01
       -1   -1    0    0    0  501  0.00000000000E+00  0.00000000000E+00  0.18423023320E+03  0.18423023327E+03  0.50400001928E-02 0.  1.
        1   -1    0    0  501    0  0.00000000000E+00  0.00000000000E+00 -0.65540651991E+03  0.65540651993E+03  0.50400001928E-02 0. -1.
    10030    2    1    2    0    0  0.00000000000E+00  0.00000000000E+00 -0.47117628671E+03  0.83963675320E+03  0.69496962823E+03 0.  0.
        1    1    3    3  502    0  0.60934374857E+02 -0.41246154367E+02 -0.64588623451E+03  0.65006405165E+03  0.50400001928E-02 0. -1.
       -1    1    3    3    0  502 -0.60934374857E+02  0.41246154367E+02  0.17470994779E+03  0.18957270155E+03  0.50400001928E-02 0.  1.
</event>
<event>
 5   0  0.1973067E-02  0.7008043E+03  0.7818609E-02  0.9715858E-01
        2   -1    0    0  501    0  0.00000000000E+00  0.00000000000E+00  0.18449722731E+03  0.18449722733E+03  0.25500000920E-02 0.  1.
       -2   -1    0    0    0  501  0.00000000000E+00  0.00000000000E+00 -0.66549337562E+03  0.66549337563E+03  0.25500000920E-02 0. -1.
    10030    2    1    2    0    0  0.00000000000E+00  0.00000000000E+00 -0.48099614831E+03  0.84999060295E+03  0.70080434532E+03 0.  0.
        5    1    3    3  502    0  0.66415725813E+01 -0.35026780959E+03 -0.23408658091E+03  0.42136713954E+03  0.46999998093E+01 0.  1.
       -5    1    3    3    0  502 -0.66415725813E+01  0.35026780959E+03 -0.24690956740E+03  0.42862346341E+03  0.46999998093E+01 0. -1.
</event>
<event>
 5   0  0.2006362E-02  0.6975721E+03  0.7818609E-02  0.9721393E-01
       -2   -1    0    0    0  501  0.00000000000E+00  0.00000000000E+00  0.17665795826E+03  0.17665795828E+03  0.25500000920E-02 0.  1.
        2   -1    0    0  501    0  0.00000000000E+00  0.00000000000E+00 -0.68862844338E+03  0.68862844339E+03  0.25500000920E-02 0. -1.
    10030    2    1    2    0    0  0.00000000000E+00  0.00000000000E+00 -0.51197048512E+03  0.86528640167E+03  0.69757206027E+03 0.  0.
        4    1    3    3  502    0 -0.28622742022E+03  0.17459818115E+02 -0.50226241376E+03  0.57835985901E+03  0.12699999809E+01 0. -1.
       -4    1    3    3    0  502  0.28622742022E+03 -0.17459818115E+02 -0.97080713626E+01  0.28692654266E+03  0.12699999809E+01 0.  1.
</event>
<event>
 5   0  0.1237686E-02  0.6880250E+03  0.7818609E-02  0.9737933E-01
       -1   -1    0    0    0  501  0.00000000000E+00  0.00000000000E+00  0.20986339351E+03  0.20986339357E+03  0.50400001928E-02 0.  1.
        1   -1    0    0  501    0  0.00000000000E+00  0.00000000000E+00 -0.56391252661E+03  0.56391252663E+03  0.50400001928E-02 0. -1.
    10030    2    1    2    0    0  0.00000000000E+00  0.00000000000E+00 -0.35404913310E+03  0.77377592020E+03  0.68802498940E+03 0.  0.
        5    1    3    3  502    0 -0.26455092834E+03  0.21304389848E+03 -0.11596608223E+03  0.35895002242E+03  0.46999998093E+01 0.  1.
       -5    1    3    3    0  502  0.26455092834E+03 -0.21304389848E+03 -0.23808305087E+03  0.41482589779E+03  0.46999998093E+01 0. -1.
</event>
<event>
 5   0  0.2006362E-02  0.6988518E+03  0.7818609E-02  0.9719198E-01
       -2   -1    0    0    0  501  0.00000000000E+00  0.00000000000E+00  0.25546295345E+03  0.25546295346E+03  0.25500000920E-02 0. -1.
        2   -1    0    0  501    0  0.00000000000E+00  0.00000000000E+00 -0.47794973530E+03  0.47794973531E+03  0.25500000920E-02 0.  1.
    10030    2    1    2    0    0  0.00000000000E+00  0.00000000000E+00 -0.22248678185E+03  0.73341268877E+03  0.69885177538E+03 0.  0.
        4    1    3    3  502    0  0.89175224768E+01  0.34928830072E+03 -0.11530775329E+03  0.36793930219E+03  0.12699999809E+01 0. -1.
       -4    1    3    3    0  502 -0.89175224768E+01 -0.34928830072E+03 -0.10717902856E+03  0.36547338657E+03  0.12699999809E+01 0.  1.
</event>
<event>
 5   0  0.1197259E-02  0.6986442E+03  0.7818609E-02  0.9719554E-01
        1   -1    0    0  501    0  0.00000000000E+00  0.00000000000E+00  0.92397641456E+03  0.92397641457E+03  0.50400001928E-02 0. -1.
       -1   -1    0    0    0  501  0.00000000000E+00  0.00000000000E+00 -0.13206605866E+03  0.13206605876E+03  0.50400001928E-02 0.  1.
    10030    2    1    2    0    0  0.00000000000E+00  0.00000000000E+00  0.79191035589E+03  0.10560424733E+04  0.69864418247E+03 0.  0.
        3    1    3    3  502    0  0.63475576328E+02  0.16486843863E+03  0.85147210538E+03  0.86960652441E+03  0.10100000352E+00 0. -1.
       -3    1    3    3    0  502 -0.63475576328E+02 -0.16486843863E+03 -0.59561749490E+02  0.18643594892E+03  0.10100000352E+00 0.  1.
</event>
<event>
 5   0  0.2026361E-02  0.7009676E+03  0.7818609E-02  0.9715579E-01
        2   -1    0    0  501    0  0.00000000000E+00  0.00000000000E+00  0.10910004192E+04  0.10910004192E+04  0.25500000920E-02 0. -1.
       -2   -1    0    0    0  501  0.00000000000E+00  0.00000000000E+00 -0.11259287811E+03  0.11259287813E+03  0.25500000920E-02 0.  1.
    10030    2    1    2    0    0  0.00000000000E+00  0.00000000000E+00  0.97840754109E+03  0.12035932973E+04  0.70096755198E+03 0.  0.
        2    1    3    3  502    0 -0.11073472398E+03  0.32463914515E+03  0.61285637717E+03  0.70231452548E+03  0.25500000920E-02 0. -1.
       -2    1    3    3    0  502  0.11073472398E+03 -0.32463914515E+03  0.36555116391E+03  0.50127877185E+03  0.25500000920E-02 0.  1.
</event>
<event>
 5   0  0.1909053E-02  0.6974807E+03  0.7818609E-02  0.9721550E-01
        2   -1    0    0  501    0  0.00000000000E+00  0.00000000000E+00  0.65076806012E+03  0.65076806013E+03  0.25500000920E-02 0. -1.
       -2   -1    0    0    0  501  0.00000000000E+00  0.00000000000E+00 -0.18688662246E+03  0.18688662248E+03  0.25500000920E-02 0.  1.
    10030    2    1    2    0    0  0.00000000000E+00  0.00000000000E+00  0.46388143766E+03  0.83765468261E+03  0.69748073743E+03 0.  0.
        1    1    3    3  502    0 -0.28718777243E+03  0.18605492991E+03  0.15113940203E+03  0.37408070312E+03  0.50400001928E-02 0. -1.
       -1    1    3    3    0  502  0.28718777243E+03 -0.18605492991E+03  0.31274203564E+03  0.46357397949E+03  0.50400001928E-02 0.  1.
</event>
<event>
 5   0  0.7947250E-03  0.6959577E+03  0.7818609E-02  0.9724170E-01
        3   -1    0    0  501    0  0.00000000000E+00  0.00000000000E+00  0.11047018310E+03  0.11047022928E+03  0.10100000352E+00 0.  1.
       -3   -1    0    0    0  501  0.00000000000E+00  0.00000000000E+00 -0.10961259803E+04  0.10961259849E+04  0.10100000352E+00 0. -1.
    10030    2    1    2    0    0  0.00000000000E+00  0.00000000000E+00 -0.98565579716E+03  0.12065962142E+04  0.69595766655E+03 0.  0.
        5    1    3    3  502    0  0.18165406505E+03 -0.29490888925E+03 -0.43538635124E+03  0.55637470931E+03  0.46999998093E+01 0. -1.
       -5    1    3    3    0  502 -0.18165406505E+03  0.29490888925E+03 -0.55026944592E+03  0.65022150489E+03  0.46999998093E+01 0.  1.
</event>
<event>
 5   0  0.1226303E-02  0.7032656E+03  0.7818609E-02  0.9711664E-01
       -1   -1    0    0    0  501  0.00000000000E+00  0.00000000000E+00  0.10536316185E+03  0.10536316197E+03  0.50400001928E-02 0. -1.
        1   -1    0    0  501    0  0.00000000000E+00  0.00000000000E+00 -0.11735186837E+04  0.11735186837E+04  0.50400001928E-02 0.  1.
    10030    2    1    2    0    0  0.00000000000E+00  0.00000000000E+00 -0.10681555219E+04  0.12788818457E+04  0.70326563713E+03 0.  0.
        4    1    3    3  502    0 -0.25031848269E+03 -0.16405825116E+03 -0.86973372963E+03  0.91978955523E+03  0.12699999809E+01 0.  1.
       -4    1    3    3    0  502  0.25031848269E+03  0.16405825116E+03 -0.19842179225E+03  0.35909229049E+03  0.12699999809E+01 0. -1.
</event>
<event>
 5   0  0.1909053E-02  0.7017452E+03  0.7818609E-02  0.9714252E-01
        2   -1    0    0  501    0  0.00000000000E+00  0.00000000000E+00  0.17359433882E+04  0.17359433882E+04  0.25500000920E-02 0.  1.
       -2   -1    0    0    0  501  0.00000000000E+00  0.00000000000E+00 -0.70919124202E+02  0.70919124247E+02  0.25500000920E-02 0. -1.
    10030    2    1    2    0    0  0.00000000000E+00  0.00000000000E+00  0.16650242640E+04  0.18068625124E+04  0.70174520959E+03 0.  0.
        1    1    3    3  502    0 -0.35040149866E+03 -0.37825183664E+01  0.87828786113E+03  0.94561360223E+03  0.50400001928E-02 0.  1.
       -1    1    3    3    0  502  0.35040149866E+03  0.37825183664E+01  0.78673640283E+03  0.86124891017E+03  0.50400001928E-02 0. -1.
</event>
<event>
 5   0  0.7947250E-03  0.7050180E+03  0.7818609E-02  0.9708689E-01
        4   -1    0    0  501    0  0.00000000000E+00  0.00000000000E+00  0.28952412721E+03  0.28952691263E+03  0.12699999809E+01 0.  1.
       -4   -1    0    0    0  501  0.00000000000E+00  0.00000000000E+00 -0.42919025564E+03  0.42919213464E+03  0.12699999809E+01 0. -1.
    10030    2    1    2    0    0  0.00000000000E+00  0.00000000000E+00 -0.13966612843E+03  0.71871904726E+03  0.70501804336E+03 0.  0.
        4    1    3    3  502    0 -0.24554699573E+03 -0.20151519165E+03 -0.22564072779E+03  0.38963707539E+03  0.12699999809E+01 0.  1.
       -4    1    3    3    0  502  0.24554699573E+03  0.20151519165E+03  0.85974599367E+02  0.32908197188E+03  0.12699999809E+01 0. -1.
</event>
<event>
 5   0  0.2006362E-02  0.7006864E+03  0.7818609E-02  0.9716059E-01
        2   -1    0    0  501    0  0.00000000000E+00  0.00000000000E+00  0.81380846954E+03  0.81380846954E+03  0.25500000920E-02 0. -1.
       -2   -1    0    0    0  501  0.00000000000E+00  0.00000000000E+00 -0.15082215468E+03  0.15082215470E+03  0.25500000920E-02 0.  1.
    10030    2    1    2    0    0  0.00000000000E+00  0.00000000000E+00  0.66298631486E+03  0.96463062424E+03  0.70068636888E+03 0.  0.
        4    1    3    3  502    0  0.28389371593E+03  0.16935250478E+03  0.17175619742E+03  0.37252881374E+03  0.12699999809E+01 0.  1.
       -4    1    3    3    0  502 -0.28389371593E+03 -0.16935250478E+03  0.49123011744E+03  0.59210181050E+03  0.12699999809E+01 0. -1.
</event>
<event>
 5   0  0.1948138E-02  0.6980732E+03  0.7818609E-02  0.9720533E-01
        2   -1    0    0  501    0  0.00000000000E+00  0.00000000000E+00  0.54398904606E+03  0.54398904607E+03  0.25500000920E-02 0.  1.
       -2   -1    0    0    0  501  0.00000000000E+00  0.00000000000E+00 -0.22395037437E+03  0.22395037438E+03  0.25500000920E-02 0. -1.
    10030    2    1    2    0    0  0.00000000000E+00  0.00000000000E+00  0.32003867169E+03  0.76793942045E+03  0.69807320683E+03 0.  0.
        3    1    3    3  502    0  0.21010530108E+03  0.27352497593E+03  0.10112227038E+03  0.35942436446E+03  0.10100000352E+00 0. -1.
       -3    1    3    3    0  502 -0.21010530108E+03 -0.27352497593E+03  0.21891640131E+03  0.40851505598E+03  0.10100000352E+00 0.  1.
</event>
<event>
 5   0  0.1223742E-02  0.6987832E+03  0.7818609E-02  0.9719315E-01
       -1   -1    0    0    0  501  0.00000000000E+00  0.00000000000E+00  0.92721120415E+03  0.92721120416E+03  0.50400001928E-02 0.  1.
        1   -1    0    0  501    0  0.00000000000E+00  0.00000000000E+00 -0.13165768707E+03  0.13165768716E+03  0.50400001928E-02 0. -1.
    10030    2    1    2    0    0  0.00000000000E+00  0.00000000000E+00  0.79555351709E+03  0.10588688913E+04  0.69878317844E+03 0.  0.
        2    1    3    3  502    0 -0.44531173501E+02 -0.32267528606E+03  0.58928214260E+03  0.67331701986E+03  0.25500000920E-02 0.  1.
       -2    1    3    3    0  502  0.44531173501E+02  0.32267528606E+03  0.20627137449E+03  0.38555187146E+03  0.25500000920E-02 0. -1.
</event>
<event>
 5   0  0.1226303E-02  0.6967651E+03  0.7818609E-02  0.9722780E-01
       -1   -1    0    0    0  501  0.00000000000E+00  0.00000000000E+00  0.14891385458E+03  0.14891385467E+03  0.50400001928E-02 0. -1.
        1   -1    0    0  501    0  0.00000000000E+00  0.00000000000E+00 -0.81503764677E+03  0.81503764678E+03  0.50400001928E-02 0.  1.
    10030    2    1    2    0    0  0.00000000000E+00  0.00000000000E+00 -0.66612379218E+03  0.96395150145E+03  0.69676508999E+03 0.  0.
        4    1    3    3  502    0 -0.33685492660E+03  0.84076418995E+02 -0.37288794259E+03  0.50949692485E+03  0.12699999809E+01 0.  1.
       -4    1    3    3    0  502  0.33685492660E+03 -0.84076418995E+02 -0.29323584960E+03  0.45445457660E+03  0.12699999809E+01 0. -1.
</event>
<event>
 5   0  0.1197259E-02  0.6922636E+03  0.7818609E-02  0.9730555E-01
       -1   -1    0    0    0  501  0.00000000000E+00  0.00000000000E+00  0.82808841958E+03  0.82808841959E+03  0.50400001928E-02 0. -1.
        1   -1    0    0  501    0  0.00000000000E+00  0.00000000000E+00 -0.14467926371E+03  0.14467926379E+03  0.50400001928E-02 0.  1.
    10030    2    1    2    0    0  0.00000000000E+00  0.00000000000E+00  0.68340915587E+03  0.97276768339E+03  0.69226359973E+03 0.  0.
        3    1    3    3  502    0  0.34495883812E+03 -0.81719761066E+01  0.30338021731E+03  0.45945940805E+03  0.10100000352E+00 0.  1.
       -3    1    3    3    0  502 -0.34495883812E+03  0.81719761066E+01  0.38002893856E+03  0.51330827534E+03  0.10100000352E+00 0. -1.
</event>
<event>
 5   0  0.1197259E-02  0.7015788E+03  0.7818609E-02  0.9714536E-01
       -1   -1    0    0    0  501  0.00000000000E+00  0.00000000000E+00  0.16391203274E+03  0.16391203282E+03  0.50400001928E-02 0.  1.
        1   -1    0    0  501    0  0.00000000000E+00  0.00000000000E+00 -0.75072700913E+03  0.75072700915E+03  0.50400001928E-02 0. -1.
    10030    2    1    2    0    0  0.00000000000E+00  0.00000000000E+00 -0.58681497639E+03  0.91463904197E+03  0.70157876292E+03 0.  0.
        3    1    3    3  502    0  0.32782402971E+03  0.20146964225E+01 -0.13067870919E+03  0.35291583797E+03  0.10100000352E+00 0.  1.
       -3    1    3    3    0  502 -0.32782402971E+03 -0.20146964225E+01 -0.45613626720E+03  0.56172320400E+03  0.10100000352E+00 0. -1.
</event>
<event>
 5   0  0.1909053E-02  0.7017526E+03  0.7818609E-02  0.9714240E-01
        2   -1    0    0  501    0  0.00000000000E+00  0.00000000000E+00  0.60842901947E+03  0.60842901948E+03  0.25500000920E-02 0.  1.
       -2   -1    0    0    0  501  0.00000000000E+00  0.00000000000E+00 -0.20234765117E+03  0.20234765118E+03  0.25500000920E-02 0. -1.
    10030    2    1    2    0    0  0.00000000000E+00  0.00000000000E+00  0.40608136831E+03  0.81077667066E+03  0.70175261453E+03 0.  0.
        1    1    3    3  502    0  0.95242528409E+02  0.14002576366E+03  0.55808748483E+03  0.58321522139E+03  0.50400001928E-02 0.  1.
       -1    1    3    3    0  502 -0.95242528409E+02 -0.14002576366E+03 -0.15200611653E+03  0.22756144927E+03  0.50400001928E-02 0. -1.
</event>
<event>
 5   0  0.1973067E-02  0.6944305E+03  0.7818609E-02  0.9726804E-01
       -2   -1    0    0    0  501  0.00000000000E+00  0.00000000000E+00  0.49030203979E+02  0.49030204045E+02  0.25500000920E-02 0.  1.
        2   -1    0    0  501    0  0.00000000000E+00  0.00000000000E+00 -0.24588608066E+04  0.24588608066E+04  0.25500000920E-02 0. -1.
    10030    2    1    2    0    0  0.00000000000E+00  0.00000000000E+00 -0.24098306026E+04  0.25078910107E+04  0.69443054941E+03 0.  0.
        5    1    3    3  502    0 -0.45927310210E+02  0.15749529967E+03 -0.99897120322E+02  0.19213435895E+03  0.46999998093E+01 0.  1.
       -5    1    3    3    0  502  0.45927310210E+02 -0.15749529967E+03 -0.23099334823E+04  0.23157566517E+04  0.46999998093E+01 0. -1.
</event>
<event>
 5   0  0.2026361E-02  0.7024474E+03  0.7818609E-02  0.9713056E-01
       -2   -1    0    0    0  501  0.00000000000E+00  0.00000000000E+00  0.12642324852E+03  0.12642324854E+03  0.25500000920E-02 0.  1.
        2   -1    0    0  501    0  0.00000000000E+00  0.00000000000E+00 -0.97575489258E+03  0.97575489258E+03  0.25500000920E-02 0. -1.
    10030    2    1    2    0    0  0.00000000000E+00  0.00000000000E+00 -0.84933164406E+03  0.11021781411E+04  0.70244744512E+03 0.  0.
        2    1    3    3  502    0  0.22438532410E+03  0.21645451222E+03 -0.17090180274E+03  0.35554009017E+03  0.25500000920E-02 0.  1.
       -2    1    3    3    0  502 -0.22438532410E+03 -0.21645451222E+03 -0.67842984132E+03  0.74663805095E+03  0.25500000920E-02 0. -1.
</event>
<event>
 5   0  0.1257442E-02  0.7221500E+03  0.7818609E-02  0.9680085E-01
        1   -1    0    0  501    0  0.00000000000E+00  0.00000000000E+00  0.73392386745E+03  0.73392386746E+03  0.50400001928E-02 0. -1.
       -1   -1    0    0    0  501  0.00000000000E+00  0.00000000000E+00 -0.17764127290E+03  0.17764127297E+03  0.50400001928E-02 0.  1.
    10030    2    1    2    0    0  0.00000000000E+00  0.00000000000E+00  0.55628259455E+03  0.91156514043E+03  0.72215003999E+03 0.  0.
        1    1    3    3  502    0 -0.10673629287E+03 -0.30391590600E+03  0.72199180478E+02  0.33010640076E+03  0.50400001928E-02 0.  1.
       -1    1    3    3    0  502  0.10673629287E+03  0.30391590600E+03  0.48408341407E+03  0.58145873967E+03  0.50400001928E-02 0. -1.
</event>
<event>
 5   0  0.2026361E-02  0.6983716E+03  0.7818609E-02  0.9720021E-01
       -2   -1    0    0    0  501  0.00000000000E+00  0.00000000000E+00  0.50146720465E+02  0.50146720530E+02  0.25500000920E-02 0. -1.
        2   -1    0    0  501    0  0.00000000000E+00  0.00000000000E+00 -0.24314791897E+04  0.24314791897E+04  0.25500000920E-02 0.  1.
    10030    2    1    2    0    0  0.00000000000E+00  0.00000000000E+00 -0.23813324692E+04  0.24816259102E+04  0.69837155533E+03 0.  0.
        2    1    3    3  502    0 -0.21881221444E+02  0.13036406845E+03 -0.23391340140E+04  0.23428660896E+04  0.25500000920E-02 0.  1.
       -2    1    3    3    0  502  0.21881221444E+02 -0.13036406845E+03 -0.42198455213E+02  0.13875982064E+03  0.25500000920E-02 0. -1.
</event>
<event>
 5   0  0.1257442E-02  0.6986580E+03  0.7818609E-02  0.9719530E-01
       -1   -1    0    0    0  501  0.00000000000E+00  0.00000000000E+00  0.92634128299E+02  0.92634128437E+02  0.50400001928E-02 0. -1.
        1   -1    0    0  501    0  0.00000000000E+00  0.00000000000E+00 -0.13173410405E+04  0.13173410405E+04  0.50400001928E-02 0.  1.
    10030    2    1    2    0    0  0.00000000000E+00  0.00000000000E+00 -0.12247069122E+04  0.14099751690E+04  0.69865796801E+03 0.  0.
        1    1    3    3  502    0 -0.83922692194E+01  0.25291153050E+03 -0.12634243483E+03  0.28283755640E+03  0.50400001928E-02 0. -1.
       -1    1    3    3    0  502  0.83922692194E+01 -0.25291153050E+03 -0.10983644774E+04  0.11271376126E+04  0.50400001928E-02 0.  1.
</event>
<event>
 5   0  0.1237686E-02  0.6984137E+03  0.7818609E-02  0.9719949E-01
       -1   -1    0    0    0  501  0.00000000000E+00  0.00000000000E+00  0.24046323037E+03  0.24046323043E+03  0.50400001928E-02 0.  1.
        1   -1    0    0  501    0  0.00000000000E+00  0.00000000000E+00 -0.50712713871E+03  0.50712713874E+03  0.50400001928E-02 0. -1.
    10030    2    1    2    0    0  0.00000000000E+00  0.00000000000E+00 -0.26666390834E+03  0.74759036916E+03  0.69841371697E+03 0.  0.
        5    1    3    3  502    0 -0.11597333845E+03 -0.25547488832E+03 -0.35582861728E+03  0.45315927517E+03  0.46999998093E+01 0. -1.
       -5    1    3    3    0  502  0.11597333845E+03  0.25547488832E+03  0.89164708946E+02  0.29443109400E+03  0.46999998093E+01 0.  1.
</event>
<event>
 5   0  0.2006362E-02  0.7006236E+03  0.7818609E-02  0.9716166E-01
        2   -1    0    0  501    0  0.00000000000E+00  0.00000000000E+00  0.16989547896E+04  0.16989547896E+04  0.25500000920E-02 0. -1.
       -2   -1    0    0    0  501  0.00000000000E+00  0.00000000000E+00 -0.72231675152E+02  0.72231675197E+02  0.25500000920E-02 0.  1.
    10030    2    1    2    0    0  0.00000000000E+00  0.00000000000E+00  0.16267231145E+04  0.17711864648E+04  0.70062358083E+03 0.  0.
        4    1    3    3  502    0  0.33086178305E+03 -0.71640947377E+02  0.58563260318E+03  0.67643854387E+03  0.12699999809E+01 0.  1.
       -4    1    3    3    0  502 -0.33086178305E+03  0.71640947377E+02  0.10410905113E+04  0.10947479209E+04  0.12699999809E+01 0. -1.
</event>
<event>
 5   0  0.1257442E-02  0.7072473E+03  0.7818609E-02  0.9704918E-01
       -1   -1    0    0    0  501  0.00000000000E+00  0.00000000000E+00  0.51246154932E+03  0.51246154935E+03  0.50400001928E-02 0. -1.
        1   -1    0    0  501    0  0.00000000000E+00  0.00000000000E+00 -0.24401766603E+03  0.24401766608E+03  0.50400001928E-02 0.  1.
    10030    2    1    2    0    0  0.00000000000E+00  0.00000000000E+00  0.26844388330E+03  0.75647921543E+03  0.70724725867E+03 0.  0.
        1    1    3    3  502    0  0.19707496804E+03 -0.29179458286E+03  0.16916154958E+03  0.39063826169E+03  0.50400001928E-02 0. -1.
       -1    1    3    3    0  502 -0.19707496804E+03  0.29179458286E+03  0.99282333715E+02  0.36584095373E+03  0.50400001928E-02 0.  1.
</event>
<event>
 5   0  0.1237686E-02  0.6959824E+03  0.7818609E-02  0.9724128E-01
       -1   -1    0    0    0  501  0.00000000000E+00  0.00000000000E+00  0.12639613514E+04  0.12639613514E+04  0.50400001928E-02 0. -1.
        1   -1    0    0  501    0  0.00000000000E+00  0.00000000000E+00 -0.95808208671E+02  0.95808208804E+02  0.50400001928E-02 0.  1.
    10030    2    1    2    0    0  0.00000000000E+00  0.00000000000E+00  0.11681531427E+04  0.13597695602E+04  0.69598239346E+03 0.  0.
        5    1    3    3  502    0  0.13011119014E+03 -0.44572929410E+02 -0.40387920292E+02  0.14341876425E+03  0.46999998093E+01 0.  1.
       -5    1    3    3    0  502 -0.13011119014E+03  0.44572929410E+02  0.12085410630E+04  0.12163507959E+04  0.46999998093E+01 0. -1.
</event>
<event>
 5   0  0.1257442E-02  0.7016318E+03  0.7818609E-02  0.9714446E-01
        1   -1    0    0  501    0  0.00000000000E+00  0.00000000000E+00  0.12738187016E+04  0.12738187016E+04  0.50400001928E-02 0.  1.
       -1   -1    0    0    0  501  0.00000000000E+00  0.00000000000E+00 -0.96616416883E+02  0.96616417014E+02  0.50400001928E-02 0. -1.
    10030    2    1    2    0    0  0.00000000000E+00  0.00000000000E+00  0.11772022847E+04  0.13704351186E+04  0.70163180886E+03 0.  0.
        1    1    3    3  502    0  0.19505106840E+03  0.84174118357E+02  0.43303198162E+02  0.21680721501E+03  0.50400001928E-02 0. -1.
       -1    1    3    3    0  502 -0.19505106840E+03 -0.84174118357E+02  0.11338990865E+04  0.11536279036E+04  0.50400001928E-02 0.  1.
</event>
<event>
 5   0  0.1223742E-02  0.6962218E+03  0.7818609E-02  0.9723715E-01
       -1   -1    0    0    0  501  0.00000000000E+00  0.00000000000E+00  0.90313715220E+02  0.90313715360E+02  0.50400001928E-02 0.  1.
        1   -1    0    0  501    0  0.00000000000E+00  0.00000000000E+00 -0.13417805605E+04  0.13417805605E+04  0.50400001928E-02 0. -1.
    10030    2    1    2    0    0  0.00000000000E+00  0.00000000000E+00 -0.12514668453E+04  0.14320942759E+04  0.69622176793E+03 0.  0.
        2    1    3    3  502    0 -0.12324213622E+03 -0.12799261885E+03 -0.12414819010E+04  0.12541323874E+04  0.25500000920E-02 0. -1.
       -2    1    3    3    0  502  0.12324213622E+03  0.12799261885E+03 -0.99849442558E+01  0.17796188844E+03  0.25500000920E-02 0.  1.
</event>
<event>
 5   0  0.1223742E-02  0.6963479E+03  0.7818609E-02  0.9723498E-01
        1   -1    0    0  501    0  0.00000000000E+00  0.00000000000E+00  0.52060916499E+03  0.52060916501E+03  0.50400001928E-02 0. -1.
       -1   -1    0    0    0  501  0.00000000000E+00  0.00000000000E+00 -0.23285240190E+03  0.23285240195E+03  0.50400001928E-02 0.  1.
    10030    2    1    2    0    0  0.00000000000E+00  0.00000000000E+00  0.28775676309E+03  0.75346156697E+03  0.69634788590E+03 0.  0.
        2    1    3    3  502    0  0.14009587451E+03  0.13966171649E+03  0.45389680084E+03  0.49513084627E+03  0.25500000920E-02 0. -1.
       -2    1    3    3    0  502 -0.14009587451E+03 -0.13966171649E+03 -0.16614003775E+03  0.25833072070E+03  0.25500000920E-02 0.  1.
</event>
<event>
 5   0  0.7947250E-03  0.6966514E+03  0.7818609E-02  0.9722976E-01
       -3   -1    0    0    0  501  0.00000000000E+00  0.00000000000E+00  0.87051868384E+03  0.87051868970E+03  0.10100000352E+00 0.  1.
        3   -1    0    0  501    0  0.00000000000E+00  0.00000000000E+00 -0.13937755043E+03  0.13937758703E+03  0.10100000352E+00 0. -1.
    10030    2    1    2    0    0  0.00000000000E+00  0.00000000000E+00  0.73114113341E+03  0.10098962767E+04  0.69665137104E+03 0.  0.
        5    1    3    3  502    0  0.24639163170E+03  0.71373406656E+02  0.24039635037E+02  0.25768778279E+03  0.46999998093E+01 0. -1.
       -5    1    3    3    0  502 -0.24639163170E+03 -0.71373406656E+02  0.70710149837E+03  0.75220849393E+03  0.46999998093E+01 0.  1.
</event>
<event>
 5   0  0.1237686E-02  0.6969387E+03  0.7818609E-02  0.9722482E-01
       -1   -1    0    0    0  501  0.00000000000E+00  0.00000000000E+00  0.10473318541E+04  0.10473318541E+04  0.50400001928E-02 0.  1.
        1   -1    0    0  501    0  0.00000000000E+00  0.00000000000E+00 -0.11594307041E+03  0.11594307052E+03  0.50400001928E-02 0. -1.
    10030    2    1    2    0    0  0.00000000000E+00  0.00000000000E+00  0.93138878366E+03  0.11632749246E+04  0.69693865145E+03 0.  0.
        5    1    3    3  502    0  0.16096323542E+03  0.95969703702E+02  0.95599973442E+03  0.97420579417E+03  0.46999998093E+01 0.  1.
       -5    1    3    3    0  502 -0.16096323542E+03 -0.95969703702E+02 -0.24610950759E+02  0.18906913043E+03  0.46999998093E+01 0. -1.
</event>
<event>
 5   0  0.1909053E-02  0.6993507E+03  0.7818609E-02  0.9718343E-01
       -2   -1    0    0    0  501  0.00000000000E+00  0.00000000000E+00  0.20845306014E+03  0.20845306015E+03  0.25500000920E-02 0. -1.
        2   -1    0    0  501    0  0.00000000000E+00  0.00000000000E+00 -0.58657255253E+03  0.58657255253E+03  0.25500000920E-02 0.  1.
    10030    2    1    2    0    0  0.00000000000E+00  0.00000000000E+00 -0.37811949239E+03  0.79502561268E+03  0.69935068049E+03 0.  0.
        1    1    3    3  502    0 -0.37806757635E+02  0.18281981570E+03  0.14705884298E+03  0.23765255996E+03  0.50400001928E-02 0. -1.
       -1    1    3    3    0  502  0.37806757635E+02 -0.18281981570E+03 -0.52517833537E+03  0.55737305272E+03  0.50400001928E-02 0.  1.
</event>
<event>
 5   0  0.1223742E-02  0.7111846E+03  0.7818609E-02  0.9698294E-01
       -1   -1    0    0    0  501  0.00000000000E+00  0.00000000000E+00  0.17675037587E+03  0.17675037594E+03  0.50400001928E-02 0.  1.
        1   -1    0    0  501    0  0.00000000000E+00  0.00000000000E+00 -0.71539237857E+03  0.71539237859E+03  0.50400001928E-02 0. -1.
    10030    2    1    2    0    0  0.00000000000E+00  0.00000000000E+00 -0.53864200271E+03  0.89214275453E+03  0.71118456633E+03 0.  0.
        2    1    3    3  502    0  0.34737501881E+03 -0.22101455681E+01 -0.36462245329E+03  0.50361078413E+03  0.25500000920E-02 0. -1.
       -2    1    3    3    0  502 -0.34737501881E+03  0.22101455681E+01 -0.17401954941E+03  0.38853197040E+03  0.25500000920E-02 0.  1.
</event>
<event>
 5   0  0.1948138E-02  0.6977391E+03  0.7818609E-02  0.9721106E-01
        2   -1    0    0  501    0  0.00000000000E+00  0.00000000000E+00  0.79227149202E+03  0.79227149203E+03  0.25500000920E-02 0.  1.
       -2   -1    0    0    0  501  0.00000000000E+00  0.00000000000E+00 -0.15362152961E+03  0.15362152964E+03  0.25500000920E-02 0. -1.
    10030    2    1    2    0    0  0.00000000000E+00  0.00000000000E+00  0.63864996241E+03  0.94589302166E+03  0.69773908730E+03 0.  0.
        3    1    3    3  502    0  0.25715606518E+03 -0.20473562079E+03  0.47779182348E+03  0.57994047372E+03  0.10100000352E+00 0.  1.
       -3    1    3    3    0  502 -0.25715606518E+03  0.20473562079E+03  0.16085813893E+03  0.36595254794E+03  0.10100000352E+00 0. -1.
</event>
<event>
 5   0  0.1226303E-02  0.6832275E+03  0.7818609E-02  0.9746353E-01
        1   -1    0    0  501    0  0.00000000000E+00  0.00000000000E+00  0.26607691147E+03  0.26607691152E+03  0.50400001928E-02 0.  1.
       -1   -1    0    0    0  501  0.00000000000E+00  0.00000000000E+00 -0.43859476107E+03  0.43859476110E+03  0.50400001928E-02 0. -1.
    10030    2    1    2    0    0  0.00000000000E+00  0.00000000000E+00 -0.17251784960E+03  0.70467167262E+03  0.68322745683E+03 0.  0.
        4    1    3    3  502    0  0.28670377386E+03  0.33389335314E+02  0.10218990803E+03  0.30619975810E+03  0.12699999809E+01 0.  1.
       -4    1    3    3    0  502 -0.28670377386E+03 -0.33389335314E+02 -0.27470775763E+03  0.39847191452E+03  0.12699999809E+01 0. -1.
</event>
<event>
 5   0  0.1909053E-02  0.6914179E+03  0.7818609E-02  0.9732022E-01
       -2   -1    0    0    0  501  0.00000000000E+00  0.00000000000E+00  0.10176565244E+04  0.10176565244E+04  0.25500000920E-02 0.  1.
        2   -1    0    0  501    0  0.00000000000E+00  0.00000000000E+00 -0.11744107573E+03  0.11744107576E+03  0.25500000920E-02 0. -1.
    10030    2    1    2    0    0  0.00000000000E+00  0.00000000000E+00  0.90021544862E+03  0.11350976001E+04  0.69141789669E+03 0.  0.
        1    1    3    3  502    0 -0.32144779228E+03 -0.17661306205E+02  0.65694878790E+03  0.73158889744E+03  0.50400001928E-02 0.  1.
       -1    1    3    3    0  502  0.32144779228E+03  0.17661306205E+02  0.24326666072E+03  0.40350870268E+03  0.50400001928E-02 0. -1.
</event>
<event>
 5   0  0.1197259E-02  0.6985945E+03  0.7818609E-02  0.9719639E-01
       -1   -1    0    0    0  501  0.00000000000E+00  0.00000000000E+00  0.76981061128E+03  0.76981061130E+03  0.50400001928E-02 0.  1.
        1   -1    0    0  501    0  0.00000000000E+00  0.00000000000E+00 -0.15849166188E+03  0.15849166196E+03  0.50400001928E-02 0. -1.
    10030    2    1    2    0    0  0.00000000000E+00  0.00000000000E+00  0.61131894940E+03  0.92830227326E+03  0.69859448369E+03 0.  0.
        3    1    3    3  502    0  0.22786415965E+03 -0.20394746966E+03  0.52995727967E+03  0.61185894952E+03  0.10100000352E+00 0.  1.
       -3    1    3    3    0  502 -0.22786415965E+03  0.20394746966E+03  0.81361669727E+02  0.31644332373E+03  0.10100000352E+00 0. -1.
</event>
<event>
 5   0  0.2006362E-02  0.6982031E+03  0.7818609E-02  0.9720310E-01
        2   -1    0    0  501    0  0.00000000000E+00  0.00000000000E+00  0.54668000782E+03  0.54668000782E+03  0.25500000920E-02 0. -1.
       -2   -1    0    0    0  501  0.00000000000E+00  0.00000000000E+00 -0.22293093095E+03  0.22293093096E+03  0.25500000920E-02 0.  1.
    10030    2    1    2    0    0  0.00000000000E+00  0.00000000000E+00  0.32374907687E+03  0.76961093878E+03  0.69820307384E+03 0.  0.
        4    1    3    3  502    0  0.40539235999E+02  0.17664597149E+03 -0.16700790386E+03  0.24645584138E+03  0.12699999809E+01 0.  1.
       -4    1    3    3    0  502 -0.40539235999E+02 -0.17664597149E+03  0.49075698073E+03  0.52315509740E+03  0.12699999809E+01 0. -1.
</event>
<event>
 5   0  0.7947250E-03  0.7020414E+03  0.7818609E-02  0.9713747E-01
       -3   -1    0    0    0  501  0.00000000000E+00  0.00000000000E+00  0.30883411691E+03  0.30883413343E+03  0.10100000352E+00 0.  1.
        3   -1    0    0  501    0  0.00000000000E+00  0.00000000000E+00 -0.39896992079E+03  0.39896993357E+03  0.10100000352E+00 0. -1.
    10030    2    1    2    0    0  0.00000000000E+00  0.00000000000E+00 -0.90135803880E+02  0.70780406700E+03  0.70204140485E+03 0.  0.
        4    1    3    3  502    0  0.63796084765E+02 -0.34515710311E+03 -0.48343317938E+02  0.35431914364E+03  0.12699999809E+01 0.  1.
       -4    1    3    3    0  502 -0.63796084765E+02  0.34515710311E+03 -0.41792485942E+02  0.35348492336E+03  0.12699999809E+01 0. -1.
</event>
<event>
 5   0  0.2006362E-02  0.6944369E+03  0.7818609E-02  0.9726793E-01
        2   -1    0    0  501    0  0.00000000000E+00  0.00000000000E+00  0.79271189695E+03  0.79271189695E+03  0.25500000920E-02 0.  1.
       -2   -1    0    0    0  501  0.00000000000E+00  0.00000000000E+00 -0.15208633720E+03  0.15208633722E+03  0.25500000920E-02 0. -1.
    10030    2    1    2    0    0  0.00000000000E+00  0.00000000000E+00  0.64062555975E+03  0.94479823418E+03  0.69443689094E+03 0.  0.
        4    1    3    3  502    0 -0.14462913758E+03 -0.13343233689E+03 -0.68895283424E+02  0.20849448180E+03  0.12699999809E+01 0. -1.
       -4    1    3    3    0  502  0.14462913758E+03  0.13343233689E+03  0.70952084317E+03  0.73630375237E+03  0.12699999809E+01 0.  1.
</event>
<event>
 5   0  0.1973067E-02  0.7017151E+03  0.7818609E-02  0.9714304E-01
       -2   -1    0    0    0  501  0.00000000000E+00  0.00000000000E+00  0.21538076518E+03  0.21538076520E+03  0.25500000920E-02 0.  1.
        2   -1    0    0  501    0  0.00000000000E+00  0.00000000000E+00 -0.57155060007E+03  0.57155060007E+03  0.25500000920E-02 0. -1.
    10030    2    1    2    0    0  0.00000000000E+00  0.00000000000E+00 -0.35616983489E+03  0.78693136527E+03  0.70171505782E+03 0.  0.
        5    1    3    3  502    0  0.22415401109E+01 -0.27017679067E+03  0.72873201902E+02  0.27988053929E+03  0.46999998093E+01 0.  1.
       -5    1    3    3    0  502 -0.22415401109E+01  0.27017679067E+03 -0.42904303679E+03  0.50705082599E+03  0.46999998093E+01 0. -1.
</event>
<event>
 5   0  0.2026361E-02  0.7043975E+03  0.7818609E-02  0.9709741E-01
        2   -1    0    0  501    0  0.00000000000E+00  0.00000000000E+00  0.15593767233E+03  0.15593767235E+03  0.25500000920E-02 0. -1.
       -2   -1    0    0    0  501  0.00000000000E+00  0.00000000000E+00 -0.79547141835E+03  0.79547141836E+03  0.25500000920E-02 0.  1.
    10030    2    1    2    0    0  0.00000000000E+00  0.00000000000E+00 -0.63953374602E+03  0.95140909071E+03  0.70439750538E+03 0.  0.
        2    1    3    3  502    0  0.17392335919E+03  0.11151909103E+03 -0.70502333922E+03  0.73467254705E+03  0.25500000920E-02 0.  1.
       -2    1    3    3    0  502 -0.17392335919E+03 -0.11151909103E+03  0.65489593195E+02  0.21673654367E+03  0.25500000920E-02 0. -1.
</event>
<event>
 5   0  0.1948138E-02  0.6952329E+03  0.7818609E-02  0.9725419E-01
        2   -1    0    0  501    0  0.00000000000E+00  0.00000000000E+00  0.22496000809E+03  0.22496000811E+03  0.25500000920E-02 0. -1.
       -2   -1    0    0    0  501  0.00000000000E+00  0.00000000000E+00 -0.53714970665E+03  0.53714970665E+03  0.25500000920E-02 0.  1.
    10030    2    1    2    0    0  0.00000000000E+00  0.00000000000E+00 -0.31218969856E+03  0.76210971476E+03  0.69523291741E+03 0.  0.
        3    1    3    3  502    0  0.22324834274E+03  0.11802528285E+03  0.10577242202E+03  0.27378386620E+03  0.10100000352E+00 0. -1.
       -3    1    3    3    0  502 -0.22324834274E+03 -0.11802528285E+03 -0.41796212058E+03  0.48832584856E+03  0.10100000352E+00 0.  1.
</event>
<event>
 5   0  0.1948138E-02  0.6958970E+03  0.7818609E-02  0.9724275E-01
        2   -1    0    0  501    0  0.00000000000E+00  0.00000000000E+00  0.10892430531E+04  0.10892430531E+04  0.25500000920E-02 0. -1.
       -2   -1    0    0    0  501  0.00000000000E+00  0.00000000000E+00 -0.11114888354E+03  0.11114888357E+03  0.25500000920E-02 0.  1.
    10030    2    1    2    0    0  0.00000000000E+00  0.00000000000E+00  0.97809416952E+03  0.12003919366E+04  0.69589697304E+03 0.  0.
        3    1    3    3  502    0  0.55402463083E+02  0.29892260908E+03  0.78098789060E+03  0.83807294109E+03  0.10100000352E+00 0. -1.
       -3    1    3    3    0  502 -0.55402463083E+02 -0.29892260908E+03  0.19710627892E+03  0.36231899553E+03  0.10100000352E+00 0.  1.
</event>
<event>
 5   0  0.2026361E-02  0.7008741E+03  0.7818609E-02  0.9715739E-01
       -2   -1    0    0    0  501  0.00000000000E+00  0.00000000000E+00  0.18116715389E+03  0.18116715390E+03  0.25500000920E-02 0. -1.
        2   -1    0    0  501    0  0.00000000000E+00  0.00000000000E+00 -0.67786083305E+03  0.67786083306E+03  0.25500000920E-02 0.  1.
    10030    2    1    2    0    0  0.00000000000E+00  0.00000000000E+00 -0.49669367917E+03  0.85902798696E+03  0.70087407675E+03 0.  0.
        2    1    3    3  502    0  0.10865524365E+03 -0.24569650311E+03  0.27447783058E+02  0.27004835570E+03  0.25500000920E-02 0. -1.
       -2    1    3    3    0  502 -0.10865524365E+03  0.24569650311E+03 -0.52414146222E+03  0.58897963126E+03  0.25500000920E-02 0.  1.
</event>
<event>
 5   0  0.7947250E-03  0.7001012E+03  0.7818609E-02  0.9717059E-01
       -3   -1    0    0    0  501  0.00000000000E+00  0.00000000000E+00  0.65731006425E+03  0.65731007201E+03  0.10100000352E+00 0.  1.
        3   -1    0    0  501    0  0.00000000000E+00  0.00000000000E+00 -0.18641947708E+03  0.18641950444E+03  0.10100000352E+00 0. -1.
    10030    2    1    2    0    0  0.00000000000E+00  0.00000000000E+00  0.47089058717E+03  0.84372957645E+03  0.70010117346E+03 0.  0.
        2    1    3    3  502    0 -0.34283494974E+02 -0.11340675805E+03 -0.16152248803E+03  0.20031466483E+03  0.25500000920E-02 0. -1.
       -2    1    3    3    0  502  0.34283494974E+02  0.11340675805E+03  0.63241307520E+03  0.64341491162E+03  0.25500000920E-02 0.  1.
</event>
<event>
 5   0  0.1973067E-02  0.7190287E+03  0.7818609E-02  0.9685233E-01
        2   -1    0    0  501    0  0.00000000000E+00  0.00000000000E+00  0.12644847594E+04  0.12644847594E+04  0.25500000920E-02 0.  1.
       -2   -1    0    0    0  501  0.00000000000E+00  0.00000000000E+00 -0.10221600897E+03  0.10221600900E+03  0.25500000920E-02 0. -1.
    10030    2    1    2    0    0  0.00000000000E+00  0.00000000000E+00  0.11622687505E+04  0.13667007684E+04  0.71902874918E+03 0.  0.
        5    1    3    3  502    0  0.12054994750E+03 -0.33759686526E+03  0.63229843987E+03  0.72686129374E+03  0.46999998093E+01 0.  1.
       -5    1    3    3    0  502 -0.12054994750E+03  0.33759686526E+03  0.52997031059E+03  0.63983947470E+03  0.46999998093E+01 0. -1.
</event>
<event>
 5   0  0.1948138E-02  0.7016058E+03  0.7818609E-02  0.9714490E-01
        2   -1    0    0  501    0  0.00000000000E+00  0.00000000000E+00  0.12817528356E+03  0.12817528359E+03  0.25500000920E-02 0. -1.
       -2   -1    0    0    0  501  0.00000000000E+00  0.00000000000E+00 -0.96011228843E+03  0.96011228844E+03  0.25500000920E-02 0.  1.
    10030    2    1    2    0    0  0.00000000000E+00  0.00000000000E+00 -0.83193700487E+03  0.10882875720E+04  0.70160577203E+03 0.  0.
        3    1    3    3  502    0  0.17662025792E+03 -0.11219191734E+03  0.20783432100E+02  0.21027054733E+03  0.10100000352E+00 0. -1.
       -3    1    3    3    0  502 -0.17662025792E+03  0.11219191734E+03 -0.85272043697E+03  0.87801702469E+03  0.10100000352E+00 0.  1.
</event>
<event>
 5   0  0.1226303E-02  0.6354404E+03  0.7818609E-02  0.9834489E-01
       -1   -1    0    0    0  501  0.00000000000E+00  0.00000000000E+00  0.40614012856E+03  0.40614012859E+03  0.50400001928E-02 0.  1.
        1   -1    0    0  501    0  0.00000000000E+00  0.00000000000E+00 -0.24854999451E+03  0.24854999456E+03  0.50400001928E-02 0. -1.
    10030    2    1    2    0    0  0.00000000000E+00  0.00000000000E+00  0.15759013405E+03  0.65469012316E+03  0.63544040398E+03 0.  0.
        4    1    3    3  502    0 -0.21151912818E+03  0.21516829969E+03 -0.23752914113E+02  0.30266078802E+03  0.12699999809E+01 0.  1.
       -4    1    3    3    0  502  0.21151912818E+03 -0.21516829969E+03  0.18134304817E+03  0.35202933513E+03  0.12699999809E+01 0. -1.
</event>
<event>
 5   0  0.1909053E-02  0.7006625E+03  0.7818609E-02  0.9716100E-01
        2   -1    0    0  501    0  0.00000000000E+00  0.00000000000E+00  0.12287310280E+04  0.12287310280E+04  0.25500000920E-02 0.  1.
       -2   -1    0    0    0  501  0.00000000000E+00  0.00000000000E+00 -0.99885154534E+02  0.99885154567E+02  0.25500000920E-02 0. -1.
    10030    2    1    2    0    0  0.00000000000E+00  0.00000000000E+00  0.11288458734E+04  0.13286161825E+04  0.70066251115E+03 0.  0.
        1    1    3    3  502    0  0.31050852789E+03  0.55197469276E+02  0.85368127150E+03  0.91007363430E+03  0.50400001928E-02 0.  1.
       -1    1    3    3    0  502 -0.31050852789E+03 -0.55197469276E+02  0.27516460194E+03  0.41854254824E+03  0.50400001928E-02 0. -1.
</event>
<event>
 5   0  0.2026361E-02  0.6964135E+03  0.7818609E-02  0.9723385E-01
       -2   -1    0    0    0  501  0.00000000000E+00  0.00000000000E+00  0.65734751118E+02  0.65734751167E+02  0.25500000920E-02 0. -1.
        2   -1    0    0  501    0  0.00000000000E+00  0.00000000000E+00 -0.18445028286E+04  0.18445028286E+04  0.25500000920E-02 0.  1.
    10030    2    1    2    0    0  0.00000000000E+00  0.00000000000E+00 -0.17787680775E+04  0.19102375798E+04  0.69641348184E+03 0.  0.
        2    1    3    3  502    0 -0.24805333905E+03  0.19504128202E+03 -0.12932279407E+04  0.13311686848E+04  0.25500000920E-02 0.  1.
       -2    1    3    3    0  502  0.24805333905E+03 -0.19504128202E+03 -0.48554013673E+03  0.57906889494E+03  0.25500000920E-02 0. -1.
</event>
<event>
 5   0  0.1223742E-02  0.6896191E+03  0.7818609E-02  0.9735152E-01
       -1   -1    0    0    0  501  0.00000000000E+00  0.00000000000E+00  0.39288560667E+03  0.39288560671E+03  0.50400001928E-02 0.  1.
        1   -1    0    0  501    0  0.00000000000E+00  0.00000000000E+00 -0.30261636260E+03  0.30261636264E+03  0.50400001928E-02 0. -1.
    10030    2    1    2    0    0  0.00000000000E+00  0.00000000000E+00  0.90269244072E+02  0.69550196935E+03  0.68961906365E+03 0.  0.
        2    1    3    3  502    0 -0.31486064874E+03  0.13877037120E+03  0.67667309235E+02  0.35067550355E+03  0.25500000920E-02 0. -1.
       -2    1    3    3    0  502  0.31486064874E+03 -0.13877037120E+03  0.22601934837E+02  0.34482646579E+03  0.25500000920E-02 0.  1.
</event>
<event>
 5   0  0.1973067E-02  0.7007902E+03  0.7818609E-02  0.9715882E-01
        2   -1    0    0  501    0  0.00000000000E+00  0.00000000000E+00  0.10583426589E+04  0.10583426589E+04  0.25500000920E-02 0.  1.
       -2   -1    0    0    0  501  0.00000000000E+00  0.00000000000E+00 -0.11600846674E+03  0.11600846677E+03  0.25500000920E-02 0. -1.
    10030    2    1    2    0    0  0.00000000000E+00  0.00000000000E+00  0.94233419216E+03  0.11743511257E+04  0.70079015164E+03 0.  0.
        5    1    3    3  502    0  0.14816969798E+03  0.31388596783E+03  0.39122193314E+03  0.52302519172E+03  0.46999998093E+01 0.  1.
       -5    1    3    3    0  502 -0.14816969798E+03 -0.31388596783E+03  0.55111225902E+03  0.65132593395E+03  0.46999998093E+01 0. -1.
</event>
<event>
 5   0  0.1197259E-02  0.6981330E+03  0.7818609E-02  0.9720430E-01
       -1   -1    0    0    0  501  0.00000000000E+00  0.00000000000E+00  0.14375204887E+03  0.14375204896E+03  0.50400001928E-02 0.  1.
        1   -1    0    0  501    0  0.00000000000E+00  0.00000000000E+00 -0.84762225548E+03  0.84762225550E+03  0.50400001928E-02 0. -1.
    10030    2    1    2    0    0  0.00000000000E+00  0.00000000000E+00 -0.70387020661E+03  0.99137430445E+03  0.69813304161E+03 0.  0.
        3    1    3    3  502    0 -0.13159166058E+03  0.22359643019E+03 -0.68355448046E+03  0.73113505365E+03  0.10100000352E+00 0. -1.
       -3    1    3    3    0  502  0.13159166058E+03 -0.22359643019E+03 -0.20315726154E+02  0.26023925080E+03  0.10100000352E+00 0.  1.
</event>
<event>
 5   0  0.1197259E-02  0.6970249E+03  0.7818609E-02  0.9722334E-01
        1   -1    0    0  501    0  0.00000000000E+00  0.00000000000E+00  0.26325661310E+03  0.26325661315E+03  0.50400001928E-02 0.  1.
       -1   -1    0    0    0  501  0.00000000000E+00  0.00000000000E+00 -0.46137850453E+03  0.46137850455E+03  0.50400001928E-02 0. -1.
    10030    2    1    2    0    0  0.00000000000E+00  0.00000000000E+00 -0.19812189142E+03  0.72463511770E+03  0.69702494212E+03 0.  0.
        3    1    3    3  502    0  0.20216674620E+03 -0.21553121439E+03  0.93016477657E+02  0.30980182854E+03  0.10100000352E+00 0.  1.
       -3    1    3    3    0  502 -0.20216674620E+03  0.21553121439E+03 -0.29113836908E+03  0.41483328917E+03  0.10100000352E+00 0. -1.
</event>
<event>
 5   0  0.1223742E-02  0.7018542E+03  0.7818609E-02  0.9714066E-01
        1   -1    0    0  501    0  0.00000000000E+00  0.00000000000E+00  0.42365176256E+03  0.42365176259E+03  0.50400001928E-02 0.  1.
       -1   -1    0    0    0  501  0.00000000000E+00  0.00000000000E+00 -0.29068649221E+03  0.29068649225E+03  0.50400001928E-02 0. -1.
    10030    2    1    2    0    0  0.00000000000E+00  0.00000000000E+00  0.13296527035E+03  0.71433825484E+03  0.70185424357E+03 0.  0.
        2    1    3    3  502    0 -0.12463406548E+02  0.21378259953E+03  0.34944121685E+03  0.40983838327E+03  0.25500000920E-02 0.  1.
       -2    1    3    3    0  502  0.12463406548E+02 -0.21378259953E+03 -0.21647594651E+03  0.30449987157E+03  0.25500000920E-02 0. -1.
</event>
<event>
 5   0  0.2006362E-02  0.7001880E+03  0.7818609E-02  0.9716911E-01
        2   -1    0    0  501    0  0.00000000000E+00  0.00000000000E+00  0.13325779291E+04  0.13325779291E+04  0.25500000920E-02 0. -1.
       -2   -1    0    0    0  501  0.00000000000E+00  0.00000000000E+00 -0.91976469473E+02  0.91976469509E+02  0.25500000920E-02 0.  1.
    10030    2    1    2    0    0  0.00000000000E+00  0.00000000000E+00  0.12406014596E+04  0.14245543986E+04  0.70018801259E+03 0.  0.
        4    1    3    3  502    0 -0.25652157511E+03  0.20781141323E+03  0.85735023811E+03  0.91871646641E+03  0.12699999809E+01 0. -1.
       -4    1    3    3    0  502  0.25652157511E+03 -0.20781141323E+03  0.38325122153E+03  0.50583793222E+03  0.12699999809E+01 0.  1.
</event>
<event>
 5   0  0.2026361E-02  0.6998535E+03  0.7818609E-02  0.9717483E-01
       -2   -1    0    0    0  501  0.00000000000E+00  0.00000000000E+00  0.53919710738E+03  0.53919710738E+03  0.25500000920E-02 0.  1.
        2   -1    0    0  501    0  0.00000000000E+00  0.00000000000E+00 -0.22709457443E+03  0.22709457444E+03  0.25500000920E-02 0. -1.
    10030    2    1    2    0    0  0.00000000000E+00  0.00000000000E+00  0.31210253295E+03  0.76629168183E+03  0.69985352079E+03 0.  0.
        2    1    3    3  502    0 -0.32585911836E+03  0.88535819452E+02  0.55544059430E+02  0.34221031383E+03  0.25500000920E-02 0. -1.
       -2    1    3    3    0  502  0.32585911836E+03 -0.88535819452E+02  0.25655847352E+03  0.42408136800E+03  0.25500000920E-02 0.  1.
</event>
<event>
 5   0  0.2006362E-02  0.7023723E+03  0.7818609E-02  0.9713184E-01
       -2   -1    0    0    0  501  0.00000000000E+00  0.00000000000E+00  0.29362704892E+03  0.29362704893E+03  0.25500000920E-02 0. -1.
        2   -1    0    0  501    0  0.00000000000E+00  0.00000000000E+00 -0.42002838942E+03  0.42002838942E+03  0.25500000920E-02 0.  1.
    10030    2    1    2    0    0  0.00000000000E+00  0.00000000000E+00 -0.12640134050E+03  0.71365543835E+03  0.70237225586E+03 0.  0.
        4    1    3    3  502    0  0.85086327835E+02 -0.25573057103E+02 -0.40841805206E+03  0.41797198780E+03  0.12699999809E+01 0.  1.
       -4    1    3    3    0  502 -0.85086327835E+02  0.25573057103E+02  0.28201671156E+03  0.29568345055E+03  0.12699999809E+01 0. -1.
</event>
<event>
 5   0  0.1909053E-02  0.6977332E+03  0.7818609E-02  0.9721117E-01
        2   -1    0    0  501    0  0.00000000000E+00  0.00000000000E+00  0.87074123805E+03  0.87074123805E+03  0.25500000920E-02 0.  1.
       -2   -1    0    0    0  501  0.00000000000E+00  0.00000000000E+00 -0.13977504357E+03  0.13977504360E+03  0.25500000920E-02 0. -1.
    10030    2    1    2    0    0  0.00000000000E+00  0.00000000000E+00  0.73096619448E+03  0.10105162817E+04  0.69773317107E+03 0.  0.
        1    1    3    3  502    0 -0.33925228888E+03  0.48908820997E+02  0.27135900619E+03  0.43717261871E+03  0.50400001928E-02 0. -1.
       -1    1    3    3    0  502  0.33925228888E+03 -0.48908820997E+02  0.45960718829E+03  0.57334366294E+03  0.50400001928E-02 0.  1.
</event>
<event>
 5   0  0.1948138E-02  0.6998604E+03  0.7818609E-02  0.9717471E-01
        2   -1    0    0  501    0  0.00000000000E+00  0.00000000000E+00  0.38882361771E+03  0.38882361772E+03  0.25500000920E-02 0.  1.
       -2   -1    0    0    0  501  0.00000000000E+00  0.00000000000E+00 -0.31492723095E+03  0.31492723096E+03  0.25500000920E-02 0. -1.
    10030    2    1    2    0    0  0.00000000000E+00  0.00000000000E+00  0.73896386760E+02  0.70375084869E+03  0.69986040112E+03 0.  0.
        3    1    3    3  502    0  0.31165075201E+03 -0.13937373782E+03 -0.40289629035E+02  0.34376517338E+03  0.10100000352E+00 0.  1.
       -3    1    3    3    0  502 -0.31165075201E+03  0.13937373782E+03  0.11418601580E+03  0.35998567531E+03  0.10100000352E+00 0. -1.
</event>
<event>
 5   0  0.1257442E-02  0.7007338E+03  0.7818609E-02  0.9715978E-01
       -1   -1    0    0    0  501  0.00000000000E+00  0.00000000000E+00  0.15384287589E+03  0.15384287597E+03  0.50400001928E-02 0.  1.
        1   -1    0    0  501    0  0.00000000000E+00  0.00000000000E+00 -0.79793720570E+03  0.79793720572E+03  0.50400001928E-02 0. -1.
    10030    2    1    2    0    0  0.00000000000E+00  0.00000000000E+00 -0.64409432981E+03  0.95178008169E+03  0.70073377127E+03 0.  0.
        1    1    3    3  502    0 -0.72733720924E+02  0.33634080652E+03 -0.41154439202E+03  0.53645514157E+03  0.50400001928E-02 0. -1.
       -1    1    3    3    0  502  0.72733720924E+02 -0.33634080652E+03 -0.23254993779E+03  0.41532494012E+03  0.50400001928E-02 0.  1.
</event>
<event>
 5   0  0.2026361E-02  0.7259702E+03  0.7818609E-02  0.9673822E-01
        2   -1    0    0  501    0  0.00000000000E+00  0.00000000000E+00  0.65768314088E+03  0.65768314089E+03  0.25500000920E-02 0. -1.
       -2   -1    0    0    0  501  0.00000000000E+00  0.00000000000E+00 -0.20033688014E+03  0.20033688016E+03  0.25500000920E-02 0.  1.
    10030    2    1    2    0    0  0.00000000000E+00  0.00000000000E+00  0.45734626074E+03  0.85802002105E+03  0.72597021585E+03 0.  0.
        2    1    3    3  502    0  0.23082938208E+03 -0.51768055052E+02 -0.96715156169E+02  0.25556986637E+03  0.25500000920E-02 0.  1.
       -2    1    3    3    0  502 -0.23082938208E+03  0.51768055052E+02  0.55406141691E+03  0.60245015468E+03  0.25500000920E-02 0. -1.
</event>
<event>
 5   0  0.1223742E-02  0.7003199E+03  0.7818609E-02  0.9716685E-01
       -1   -1    0    0    0  501  0.00000000000E+00  0.00000000000E+00  0.43740515186E+03  0.43740515189E+03  0.50400001928E-02 0. -1.
        1   -1    0    0  501    0  0.00000000000E+00  0.00000000000E+00 -0.28031676970E+03  0.28031676974E+03  0.50400001928E-02 0.  1.
    10030    2    1    2    0    0  0.00000000000E+00  0.00000000000E+00  0.15708838216E+03  0.71772192163E+03  0.70031992473E+03 0.  0.
        2    1    3    3  502    0 -0.13914371470E+02 -0.31557796430E+03  0.23339111504E+03  0.39275243331E+03  0.25500000920E-02 0. -1.
       -2    1    3    3    0  502  0.13914371470E+02  0.31557796430E+03 -0.76302732885E+02  0.32496948832E+03  0.25500000920E-02 0.  1.
</event>
<event>
 5   0  0.2006362E-02  0.7102201E+03  0.7818609E-02  0.9699912E-01
       -2   -1    0    0    0  501  0.00000000000E+00  0.00000000000E+00  0.16249454366E+03  0.16249454368E+03  0.25500000920E-02 0.  1.
        2   -1    0    0  501    0  0.00000000000E+00  0.00000000000E+00 -0.77604534043E+03  0.77604534044E+03  0.25500000920E-02 0. -1.
    10030    2    1    2    0    0  0.00000000000E+00  0.00000000000E+00 -0.61355079677E+03  0.93853988412E+03  0.71022006017E+03 0.  0.
        4    1    3    3  502    0  0.19494820410E+03  0.29679496191E+03 -0.31084178725E+03  0.47192825864E+03  0.12699999809E+01 0.  1.
       -4    1    3    3    0  502 -0.19494820410E+03 -0.29679496191E+03 -0.30270900951E+03  0.46661162548E+03  0.12699999809E+01 0. -1.
</event>
<event>
 5   0  0.2006362E-02  0.6995446E+03  0.7818609E-02  0.9718011E-01
        2   -1    0    0  501    0  0.00000000000E+00  0.00000000000E+00  0.16546577058E+03  0.16546577060E+03  0.25500000920E-02 0. -1.
       -2   -1    0    0    0  501  0.00000000000E+00  0.00000000000E+00 -0.73937145696E+03  0.73937145696E+03  0.25500000920E-02 0.  1.
    10030    2    1    2    0    0  0.00000000000E+00  0.00000000000E+00 -0.57390568638E+03  0.90483722756E+03  0.69954461725E+03 0.  0.
        4    1    3    3  502    0  0.33597671154E+03  0.81433072422E+02 -0.21817548044E+03  0.40879560804E+03  0.12699999809E+01 0. -1.
       -4    1    3    3    0  502 -0.33597671154E+03 -0.81433072422E+02 -0.35573020594E+03  0.49604161952E+03  0.12699999809E+01 0.  1.
</event>
<event>
 5   0  0.1226303E-02  0.7011195E+03  0.7818609E-02  0.9715320E-01
       -1   -1    0    0    0  501  0.00000000000E+00  0.00000000000E+00  0.14558070434E+03  0.14558070443E+03  0.50400001928E-02 0.  1.
        1   -1    0    0  501    0  0.00000000000E+00  0.00000000000E+00 -0.84415131672E+03  0.84415131673E+03  0.50400001928E-02 0. -1.
    10030    2    1    2    0    0  0.00000000000E+00  0.00000000000E+00 -0.69857061238E+03  0.98973202116E+03  0.70111951423E+03 0.  0.
        4    1    3    3  502    0 -0.22993747211E+03  0.22332793797E+03 -0.54963910257E+03  0.63627931361E+03  0.12699999809E+01 0.  1.
       -4    1    3    3    0  502  0.22993747211E+03 -0.22332793797E+03 -0.14893150981E+03  0.35345270755E+03  0.12699999809E+01 0. -1.
</event>
<event>
 5   0  0.1197259E-02  0.6994636E+03  0.7818609E-02  0.9718150E-01
        1   -1    0    0  501    0  0.00000000000E+00  0.00000000000E+00  0.44283321673E+03  0.44283321676E+03  0.50400001928E-02 0. -1.
       -1   -1    0    0    0  501  0.00000000000E+00  0.00000000000E+00 -0.27620403351E+03  0.27620403355E+03  0.50400001928E-02 0.  1.
    10030    2    1    2    0    0  0.00000000000E+00  0.00000000000E+00  0.16662918322E+03  0.71903725031E+03  0.69946356777E+03 0.  0.
        3    1    3    3  502    0 -0.59375514970E+02 -0.11563109823E+03  0.41707912964E+03  0.43686498285E+03  0.10100000352E+00 0. -1.
       -3    1    3    3    0  502  0.59375514970E+02  0.11563109823E+03 -0.25044994643E+03  0.28217226746E+03  0.10100000352E+00 0.  1.
</event>
<event>
 5   0  0.1948138E-02  0.6994096E+03  0.7818609E-02  0.9718242E-01
       -2   -1    0    0    0  501  0.00000000000E+00  0.00000000000E+00  0.17951948891E+03  0.17951948893E+03  0.25500000920E-02 0. -1.
        2   -1    0    0  501    0  0.00000000000E+00  0.00000000000E+00 -0.68122663732E+03  0.68122663732E+03  0.25500000920E-02 0.  1.
    10030    2    1    2    0    0  0.00000000000E+00  0.00000000000E+00 -0.50170714840E+03  0.86074612626E+03  0.69940963041E+03 0.  0.
        3    1    3    3  502    0  0.10798001023E+02  0.34891603366E+03 -0.22520197350E+03  0.41542139382E+03  0.10100000352E+00 0.  1.
       -3    1    3    3    0  502 -0.10798001023E+02 -0.34891603366E+03 -0.27650517490E+03  0.44532473244E+03  0.10100000352E+00 0. -1.
</event>
<event>
 5   0  0.1237686E-02  0.7026821E+03  0.7818609E-02  0.9712656E-01
       -1   -1    0    0    0  501  0.00000000000E+00  0.00000000000E+00  0.60803416677E+03  0.60803416679E+03  0.50400001928E-02 0.  1.
        1   -1    0    0  501    0  0.00000000000E+00  0.00000000000E+00 -0.20301577794E+03  0.20301577800E+03  0.50400001928E-02 0. -1.
    10030    2    1    2    0    0  0.00000000000E+00  0.00000000000E+00  0.40501838883E+03  0.81104994479E+03  0.70268208861E+03 0.  0.
        5    1    3    3  502    0  0.22175723003E+03 -0.72604468083E+02 -0.10061543588E+03  0.25415198955E+03  0.46999998093E+01 0. -1.
       -5    1    3    3    0  502 -0.22175723003E+03  0.72604468083E+02  0.50563382471E+03  0.55689795524E+03  0.46999998093E+01 0.  1.
</event>
<event>
 5   0  0.1226303E-02  0.7052063E+03  0.7818609E-02  0.9708370E-01
        1   -1    0    0  501    0  0.00000000000E+00  0.00000000000E+00  0.17729789140E+04  0.17729789141E+04  0.50400001928E-02 0.  1.
       -1   -1    0    0    0  501  0.00000000000E+00  0.00000000000E+00 -0.70124334199E+02  0.70124334380E+02  0.50400001928E-02 0. -1.
    10030    2    1    2    0    0  0.00000000000E+00  0.00000000000E+00  0.17028545799E+04  0.18431032484E+04  0.70520625655E+03 0.  0.
        4    1    3    3  502    0  0.38931283921E+01 -0.34676478910E+03  0.10180895890E+04  0.10755319612E+04  0.12699999809E+01 0. -1.
       -4    1    3    3    0  502 -0.38931283921E+01  0.34676478910E+03  0.68476499081E+03  0.76757128721E+03  0.12699999809E+01 0.  1.
</event>
<event>
 5   0  0.2006362E-02  0.7081397E+03  0.7818609E-02  0.9703413E-01
       -2   -1    0    0    0  501  0.00000000000E+00  0.00000000000E+00  0.31139451125E+03  0.31139451126E+03  0.25500000920E-02 0.  1.
        2   -1    0    0  501    0  0.00000000000E+00  0.00000000000E+00 -0.40259365144E+03  0.40259365144E+03  0.25500000920E-02 0. -1.
    10030    2    1    2    0    0  0.00000000000E+00  0.00000000000E+00 -0.91199140189E+02  0.71398816270E+03  0.70813968488E+03 0.  0.
        4    1    3    3  502    0  0.20572754847E+03  0.14724819608E+03  0.20415165234E+03  0.32509285674E+03  0.12699999809E+01 0.  1.
       -4    1    3    3    0  502 -0.20572754847E+03 -0.14724819608E+03 -0.29535079253E+03  0.38889530596E+03  0.12699999809E+01 0. -1.
</event>
<event>
 5   0  0.1909053E-02  0.6944613E+03  0.7818609E-02  0.9726751E-01
       -2   -1    0    0    0  501  0.00000000000E+00  0.00000000000E+00  0.50485873574E+02  0.50485873638E+02  0.25500000920E-02 0. -1.
        2   -1    0    0  501    0  0.00000000000E+00  0.00000000000E+00 -0.23881755547E+04  0.23881755547E+04  0.25500000920E-02 0.  1.
    10030    2    1    2    0    0  0.00000000000E+00  0.00000000000E+00 -0.23376896811E+04  0.24386614283E+04  0.69446131413E+03 0.  0.
        1    1    3    3  502    0  0.25664813807E+03 -0.43261372037E+02 -0.19759701123E+04  0.19930373047E+04  0.50400001928E-02 0.  1.
       -1    1    3    3    0  502 -0.25664813807E+03  0.43261372037E+02 -0.36171956876E+03  0.44562412361E+03  0.50400001928E-02 0. -1.
</event>
<event>
 5   0  0.1223742E-02  0.7028893E+03  0.7818609E-02  0.9712304E-01
        1   -1    0    0  501    0  0.00000000000E+00  0.00000000000E+00  0.66360708169E+03  0.66360708171E+03  0.50400001928E-02 0.  1.
       -1   -1    0    0    0  501  0.00000000000E+00  0.00000000000E+00 -0.18612422103E+03  0.18612422110E+03  0.50400001928E-02 0. -1.
    10030    2    1    2    0    0  0.00000000000E+00  0.00000000000E+00  0.47748286066E+03  0.84973130280E+03  0.70288932610E+03 0.  0.
        2    1    3    3  502    0 -0.60921750134E+02 -0.31904825111E+03  0.76503352783E+02  0.33370047823E+03  0.25500000920E-02 0. -1.
       -2    1    3    3    0  502  0.60921750134E+02  0.31904825111E+03  0.40097950787E+03  0.51603082458E+03  0.25500000920E-02 0.  1.
</event>
<event>
 5   0  0.2026361E-02  0.6971401E+03  0.7818609E-02  0.9722136E-01
       -2   -1    0    0    0  501  0.00000000000E+00  0.00000000000E+00  0.22650272656E+03  0.22650272657E+03  0.25500000920E-02 0. -1.
        2   -1    0    0  501    0  0.00000000000E+00  0.00000000000E+00 -0.53642216737E+03  0.53642216737E+03  0.25500000920E-02 0.  1.
    10030    2    1    2    0    0  0.00000000000E+00  0.00000000000E+00 -0.30991944081E+03  0.76292489394E+03  0.69714011074E+03 0.  0.
        2    1    3    3  502    0  0.17125128226E+02  0.34806703951E+03 -0.16323281290E+03  0.38482318696E+03  0.25500000920E-02 0. -1.
       -2    1    3    3    0  502 -0.17125128226E+02 -0.34806703951E+03 -0.14668662791E+03  0.37810170698E+03  0.25500000920E-02 0.  1.
</event>
<event>
 5   0  0.7947250E-03  0.7030028E+03  0.7818609E-02  0.9712111E-01
       -3   -1    0    0    0  501  0.00000000000E+00  0.00000000000E+00  0.51600870768E+03  0.51600871757E+03  0.10100000352E+00 0. -1.
        3   -1    0    0  501    0  0.00000000000E+00  0.00000000000E+00 -0.23944020654E+03  0.23944022784E+03  0.10100000352E+00 0.  1.
    10030    2    1    2    0    0  0.00000000000E+00  0.00000000000E+00  0.27656850115E+03  0.75544894540E+03  0.70300282595E+03 0.  0.
        3    1    3    3  502    0 -0.27085499054E+03  0.97245393020E+02  0.35516815768E+03  0.45712528129E+03  0.10100000352E+00 0. -1.
       -3    1    3    3    0  502  0.27085499054E+03 -0.97245393020E+02 -0.78599656530E+02  0.29832366412E+03  0.10100000352E+00 0.  1.
</event>
<event>
 5   0  0.1909053E-02  0.6980521E+03  0.7818609E-02  0.9720569E-01
        2   -1    0    0  501    0  0.00000000000E+00  0.00000000000E+00  0.14262306601E+04  0.14262306601E+04  0.25500000920E-02 0. -1.
       -2   -1    0    0    0  501  0.00000000000E+00  0.00000000000E+00 -0.85413374817E+02  0.85413374855E+02  0.25500000920E-02 0.  1.
    10030    2    1    2    0    0  0.00000000000E+00  0.00000000000E+00  0.13408172853E+04  0.15116440349E+04  0.69805207249E+03 0.  0.
        1    1    3    3  502    0 -0.34495107682E+03  0.53070943996E+02  0.66309590507E+03  0.74933567234E+03  0.50400001928E-02 0.  1.
       -1    1    3    3    0  502  0.34495107682E+03 -0.53070943996E+02  0.67772138020E+03  0.76230836261E+03  0.50400001928E-02 0. -1.
</event>
<event>
 5   0  0.1948138E-02  0.6874952E+03  0.7818609E-02  0.9738859E-01
        2   -1    0    0  501    0  0.00000000000E+00  0.00000000000E+00  0.28029987577E+03  0.28029987578E+03  0.25500000920E-02 0. -1.
       -2   -1    0    0    0  501  0.00000000000E+00  0.00000000000E+00 -0.42155712567E+03  0.42155712567E+03  0.25500000920E-02 0.  1.
    10030    2    1    2    0    0  0.00000000000E+00  0.00000000000E+00 -0.14125724989E+03  0.70185700146E+03  0.68749519260E+03 0.  0.
        3    1    3    3  502    0  0.10064094183E+03 -0.12585066661E+03 -0.38060858765E+03  0.41331573483E+03  0.10100000352E+00 0.  1.
       -3    1    3    3    0  502 -0.10064094183E+03  0.12585066661E+03  0.23935133776E+03  0.28854126663E+03  0.10100000352E+00 0. -1.
</event>
<event>
 5   0  0.2026361E-02  0.6998304E+03  0.7818609E-02  0.9717522E-01
       -2   -1    0    0    0  501  0.00000000000E+00  0.00000000000E+00  0.17503212168E+03  0.17503212170E+03  0.25500000920E-02 0.  1.
        2   -1    0    0  501    0  0.00000000000E+00  0.00000000000E+00 -0.69953250315E+03  0.69953250316E+03  0.25500000920E-02 0. -1.
    10030    2    1    2    0    0  0.00000000000E+00  0.00000000000E+00 -0.52450038147E+03  0.87456462486E+03  0.69983043153E+03 0.  0.
        2    1    3    3  502    0  0.23812630821E+03  0.64995132644E+02  0.47691176662E+02  0.25140197745E+03  0.25500000920E-02 0.  1.
       -2    1    3    3    0  502 -0.23812630821E+03 -0.64995132644E+02 -0.57219155813E+03  0.62316264741E+03  0.25500000920E-02 0. -1.
</event>
<event>
 5   0  0.1237686E-02  0.7050032E+03  0.7818609E-02  0.9708714E-01
       -1   -1    0    0    0  501  0.00000000000E+00  0.00000000000E+00  0.16274483404E+03  0.16274483412E+03  0.50400001928E-02 0. -1.
        1   -1    0    0  501    0  0.00000000000E+00  0.00000000000E+00 -0.76351047996E+03  0.76351047997E+03  0.50400001928E-02 0.  1.
    10030    2    1    2    0    0  0.00000000000E+00  0.00000000000E+00 -0.60076564591E+03  0.92625531410E+03  0.70500322381E+03 0.  0.
        5    1    3    3  502    0  0.13868276916E+03 -0.14586598193E+03 -0.68054463395E+03  0.70969915030E+03  0.46999998093E+01 0.  1.
       -5    1    3    3    0  502 -0.13868276916E+03  0.14586598193E+03  0.79778988033E+02  0.21655616379E+03  0.46999998093E+01 0. -1.
</event>
<event>
 5   0  0.2006362E-02  0.6998509E+03  0.7818609E-02  0.9717487E-01
        2   -1    0    0  501    0  0.00000000000E+00  0.00000000000E+00  0.26596603631E+03  0.26596603632E+03  0.25500000920E-02 0. -1.
       -2   -1    0    0    0  501  0.00000000000E+00  0.00000000000E+00 -0.46038896482E+03  0.46038896483E+03  0.25500000920E-02 0.  1.
    10030    2    1    2    0    0  0.00000000000E+00  0.00000000000E+00 -0.19442292852E+03  0.72635500115E+03  0.69985092167E+03 0.  0.
        4    1    3    3  502    0  0.57614150289E+02 -0.11710616350E+03  0.23975790108E+03  0.27298114931E+03  0.12699999809E+01 0. -1.
       -4    1    3    3    0  502 -0.57614150289E+02  0.11710616350E+03 -0.43418082960E+03  0.45337385184E+03  0.12699999809E+01 0.  1.
</event>
<event>
 5   0  0.1197259E-02  0.6966838E+03  0.7818609E-02  0.9722920E-01
       -1   -1    0    0    0  501  0.00000000000E+00  0.00000000000E+00  0.17379533244E+03  0.17379533251E+03  0.50400001928E-02 0.  1.
        1   -1    0    0  501    0  0.00000000000E+00  0.00000000000E+00 -0.69818960030E+03  0.69818960031E+03  0.50400001928E-02 0. -1.
    10030    2    1    2    0    0  0.00000000000E+00  0.00000000000E+00 -0.52439426786E+03  0.87198493282E+03  0.69668384143E+03 0.  0.
        3    1    3    3  502    0  0.13634120284E+03  0.11031347738E+03  0.11450599001E+03  0.20945075515E+03  0.10100000352E+00 0.  1.
       -3    1    3    3    0  502 -0.13634120284E+03 -0.11031347738E+03 -0.63890025787E+03  0.66253417768E+03  0.10100000352E+00 0. -1.
</event>
<event>
 5   0  0.1257442E-02  0.7013838E+03  0.7818609E-02  0.9714869E-01
       -1   -1    0    0    0  501  0.00000000000E+00  0.00000000000E+00  0.38506524826E+03  0.38506524829E+03  0.50400001928E-02 0. -1.
        1   -1    0    0  501    0  0.00000000000E+00  0.00000000000E+00 -0.31938688957E+03  0.31938688961E+03  0.50400001928E-02 0.  1.
    10030    2    1    2    0    0  0.00000000000E+00  0.00000000000E+00  0.65678358687E+02  0.70445213790E+03  0.70138375216E+03 0.  0.
        1    1    3    3  502    0  0.65877502556E+02  0.27787687804E+03 -0.17159337041E+03  0.33316615898E+03  0.50400001928E-02 0. -1.
       -1    1    3    3    0  502 -0.65877502556E+02 -0.27787687804E+03  0.23727172910E+03  0.37128597893E+03  0.50400001928E-02 0.  1.
</event>
<event>
 5   0  0.1948138E-02  0.7000039E+03  0.7818609E-02  0.9717226E-01
        2   -1    0    0  501    0  0.00000000000E+00  0.00000000000E+00  0.22209403376E+04  0.22209403376E+04  0.25500000920E-02 0.  1.
       -2   -1    0    0    0  501  0.00000000000E+00  0.00000000000E+00 -0.55157431530E+02  0.55157431589E+02  0.25500000920E-02 0. -1.
    10030    2    1    2    0    0  0.00000000000E+00  0.00000000000E+00  0.21657829060E+04  0.22760977691E+04  0.70000389905E+03 0.  0.
        3    1    3    3  502    0  0.30952360180E+03 -0.16337943489E+03  0.10891074860E+04  0.11439636472E+04  0.10100000352E+00 0. -1.
       -3    1    3    3    0  502 -0.30952360180E+03  0.16337943489E+03  0.10766754200E+04  0.11321341220E+04  0.10100000352E+00 0.  1.
</event>
<event>
 5   0  0.1237686E-02  0.7004083E+03  0.7818609E-02  0.9716534E-01
        1   -1    0    0  501    0  0.00000000000E+00  0.00000000000E+00  0.70315737081E+03  0.70315737083E+03  0.50400001928E-02 0. -1.
       -1   -1    0    0    0  501  0.00000000000E+00  0.00000000000E+00 -0.17441750800E+03  0.17441750808E+03  0.50400001928E-02 0.  1.
    10030    2    1    2    0    0  0.00000000000E+00  0.00000000000E+00  0.52873986281E+03  0.87757487890E+03  0.70040832774E+03 0.  0.
        5    1    3    3  502    0 -0.38440240614E+02 -0.34567161154E+03  0.31533196458E+03  0.46949212241E+03  0.46999998093E+01 0. -1.
       -5    1    3    3    0  502  0.38440240614E+02  0.34567161154E+03  0.21340789823E+03  0.40808275649E+03  0.46999998093E+01 0.  1.
</event>
<event>
 5   0  0.1197259E-02  0.6972676E+03  0.7818609E-02  0.9721916E-01
        1   -1    0    0  501    0  0.00000000000E+00  0.00000000000E+00  0.57466959080E+03  0.57466959082E+03  0.50400001928E-02 0. -1.
       -1   -1    0    0    0  501  0.00000000000E+00  0.00000000000E+00 -0.21150503017E+03  0.21150503023E+03  0.50400001928E-02 0.  1.
    10030    2    1    2    0    0  0.00000000000E+00  0.00000000000E+00  0.36316456063E+03  0.78617462106E+03  0.69726755030E+03 0.  0.
        3    1    3    3  502    0  0.18297728015E+02 -0.19954159717E+03  0.50325582372E+03  0.54168080099E+03  0.10100000352E+00 0. -1.
       -3    1    3    3    0  502 -0.18297728015E+02  0.19954159717E+03 -0.14009126309E+03  0.24449382006E+03  0.10100000352E+00 0.  1.
</event>
<event>
 5   0  0.1226303E-02  0.6990267E+03  0.7818609E-02  0.9718898E-01
        1   -1    0    0  501    0  0.00000000000E+00  0.00000000000E+00  0.31084618984E+03  0.31084618988E+03  0.50400001928E-02 0.  1.
       -1   -1    0    0    0  501  0.00000000000E+00  0.00000000000E+00 -0.39299044280E+03  0.39299044283E+03  0.50400001928E-02 0. -1.
    10030    2    1    2    0    0  0.00000000000E+00  0.00000000000E+00 -0.82144252956E+02  0.70383663272E+03  0.69902669996E+03 0.  0.
        4    1    3    3  502    0  0.39569220221E+02  0.29417015752E+03 -0.22688507197E+03  0.37360440783E+03  0.12699999809E+01 0.  1.
       -4    1    3    3    0  502 -0.39569220221E+02 -0.29417015752E+03  0.14474081902E+03  0.33023222489E+03  0.12699999809E+01 0. -1.
</event>
<event>
 5   0  0.1237686E-02  0.6974765E+03  0.7818609E-02  0.9721557E-01
       -1   -1    0    0    0  501  0.00000000000E+00  0.00000000000E+00  0.32630377810E+03  0.32630377813E+03  0.50400001928E-02 0.  1.
        1   -1    0    0  501    0  0.00000000000E+00  0.00000000000E+00 -0.37271521414E+03  0.37271521417E+03  0.50400001928E-02 0. -1.
    10030    2    1    2    0    0  0.00000000000E+00  0.00000000000E+00 -0.46411436042E+02  0.69901899231E+03  0.69747654456E+03 0.  0.
        5    1    3    3  502    0 -0.20017883502E+02 -0.16779559210E+03  0.28249377869E+03  0.32921254743E+03  0.46999998093E+01 0.  1.
       -5    1    3    3    0  502  0.20017883502E+02  0.16779559210E+03 -0.32890521474E+03  0.36980644487E+03  0.46999998093E+01 0. -1.
</event>
<event>
 5   0  0.1226303E-02  0.6998363E+03  0.7818609E-02  0.9717512E-01
       -1   -1    0    0    0  501  0.00000000000E+00  0.00000000000E+00  0.29497971957E+03  0.29497971962E+03  0.50400001928E-02 0.  1.
        1   -1    0    0  501    0  0.00000000000E+00  0.00000000000E+00 -0.41508861597E+03  0.41508861600E+03  0.50400001928E-02 0. -1.
    10030    2    1    2    0    0  0.00000000000E+00  0.00000000000E+00 -0.12010889639E+03  0.71006833561E+03  0.69983633390E+03 0.  0.
        4    1    3    3  502    0  0.71707144421E+02 -0.32397590114E+03 -0.17275870676E+03  0.37409822606E+03  0.12699999809E+01 0. -1.
       -4    1    3    3    0  502 -0.71707144421E+02  0.32397590114E+03  0.52649810364E+02  0.33597010955E+03  0.12699999809E+01 0.  1.
</event>
<event>
 5   0  0.1948138E-02  0.6955562E+03  0.7818609E-02  0.9724862E-01
        2   -1    0    0  501    0  0.00000000000E+00  0.00000000000E+00  0.29519937816E+03  0.29519937817E+03  0.25500000920E-02 0.  1.
       -2   -1    0    0    0  501  0.00000000000E+00  0.00000000000E+00 -0.40972173035E+03  0.40972173035E+03  0.25500000920E-02 0. -1.
    10030    2    1    2    0    0  0.00000000000E+00  0.00000000000E+00 -0.11452235218E+03  0.70492110853E+03  0.69555618040E+03 0.  0.
        3    1    3    3  502    0 -0.18725728267E+03 -0.28539880366E+03 -0.12472943365E+03  0.36342153055E+03  0.10100000352E+00 0. -1.
       -3    1    3    3    0  502  0.18725728267E+03  0.28539880366E+03  0.10207081467E+02  0.34149957798E+03  0.10100000352E+00 0.  1.
</event>
<event>
 5   0  0.1226303E-02  0.6993686E+03  0.7818609E-02  0.9718313E-01
        1   -1    0    0  501    0  0.00000000000E+00  0.00000000000E+00  0.75474538522E+03  0.75474538524E+03  0.50400001928E-02 0. -1.
       -1   -1    0    0    0  501  0.00000000000E+00  0.00000000000E+00 -0.16201370482E+03  0.16201370490E+03  0.50400001928E-02 0.  1.
    10030    2    1    2    0    0  0.00000000000E+00  0.00000000000E+00  0.59273168040E+03  0.91675909014E+03  0.69936856120E+03 0.  0.
        4    1    3    3  502    0  0.15964394395E+03 -0.13255228963E+03  0.66531776996E+03  0.69692585420E+03  0.12699999809E+01 0. -1.
       -4    1    3    3    0  502 -0.15964394395E+03  0.13255228963E+03 -0.72586089559E+02  0.21983323594E+03  0.12699999809E+01 0.  1.
</event>
<event>
 5   0  0.1948138E-02  0.6949634E+03  0.7818609E-02  0.9725884E-01
       -2   -1    0    0    0  501  0.00000000000E+00  0.00000000000E+00  0.81641880433E+02  0.81641880473E+02  0.25500000920E-02 0. -1.
        2   -1    0    0  501    0  0.00000000000E+00  0.00000000000E+00 -0.14789410933E+04  0.14789410933E+04  0.25500000920E-02 0.  1.
    10030    2    1    2    0    0  0.00000000000E+00  0.00000000000E+00 -0.13972992129E+04  0.15605829738E+04  0.69496340030E+03 0.  0.
        3    1    3    3  502    0  0.17141504425E+03  0.29399543861E+03 -0.54102644968E+03  0.63916043743E+03  0.10100000352E+00 0. -1.
       -3    1    3    3    0  502 -0.17141504425E+03 -0.29399543861E+03 -0.85627276319E+03  0.92142253635E+03  0.10100000352E+00 0.  1.
</event>
<event>
 5   0  0.2006362E-02  0.6989856E+03  0.7818609E-02  0.9718969E-01
       -2   -1    0    0    0  501  0.00000000000E+00  0.00000000000E+00  0.15279403772E+03  0.15279403775E+03  0.25500000920E-02 0.  1.
        2   -1    0    0  501    0  0.00000000000E+00  0.00000000000E+00 -0.79941078597E+03  0.79941078597E+03  0.25500000920E-02 0. -1.
    10030    2    1    2    0    0  0.00000000000E+00  0.00000000000E+00 -0.64661674824E+03  0.95220482372E+03  0.69898555579E+03 0.  0.
        4    1    3    3  502    0  0.28341679365E+03 -0.88637616150E+02 -0.57435712016E+03  0.64658287969E+03  0.12699999809E+01 0. -1.
       -4    1    3    3    0  502 -0.28341679365E+03  0.88637616150E+02 -0.72259628078E+02  0.30562194403E+03  0.12699999809E+01 0.  1.
</event>
<event>
 5   0  0.1226303E-02  0.7235953E+03  0.7818609E-02  0.9677711E-01
        1   -1    0    0  501    0  0.00000000000E+00  0.00000000000E+00  0.26006342119E+03  0.26006342124E+03  0.50400001928E-02 0.  1.
       -1   -1    0    0    0  501  0.00000000000E+00  0.00000000000E+00 -0.50332931519E+03  0.50332931522E+03  0.50400001928E-02 0. -1.
    10030    2    1    2    0    0  0.00000000000E+00  0.00000000000E+00 -0.24326589400E+03  0.76339273645E+03  0.72359531154E+03 0.  0.
        4    1    3    3  502    0  0.28107647221E+03  0.58980621630E+02  0.11049868557E+03  0.30772433990E+03  0.12699999809E+01 0.  1.
       -4    1    3    3    0  502 -0.28107647221E+03 -0.58980621630E+02 -0.35376457957E+03  0.45566839655E+03  0.12699999809E+01 0. -1.
</event>
<event>
 5   0  0.1257442E-02  0.6941787E+03  0.7818609E-02  0.9727239E-01
        1   -1    0    0  501    0  0.00000000000E+00  0.00000000000E+00  0.76019404112E+03  0.76019404113E+03  0.50400001928E-02 0.  1.
       -1   -1    0    0    0  501  0.00000000000E+00  0.00000000000E+00 -0.15847404190E+03  0.15847404198E+03  0.50400001928E-02 0. -1.
    10030    2    1    2    0    0  0.00000000000E+00  0.00000000000E+00  0.60171999922E+03  0.91866808311E+03  0.69417871579E+03 0.  0.
        1    1    3    3  502    0 -0.22233838851E+03  0.15363542550E+03  0.58908178511E+03  0.64811692814E+03  0.50400001928E-02 0.  1.
       -1    1    3    3    0  502  0.22233838851E+03 -0.15363542550E+03  0.12638214113E+02  0.27055115497E+03  0.50400001928E-02 0. -1.
</event>
<event>
 5   0  0.2026361E-02  0.6969065E+03  0.7818609E-02  0.9722537E-01
       -2   -1    0    0    0  501  0.00000000000E+00  0.00000000000E+00  0.52241111458E+03  0.52241111458E+03  0.25500000920E-02 0. -1.
        2   -1    0    0  501    0  0.00000000000E+00  0.00000000000E+00 -0.23242166213E+03  0.23242166214E+03  0.25500000920E-02 0.  1.
    10030    2    1    2    0    0  0.00000000000E+00  0.00000000000E+00  0.28998945245E+03  0.75483277673E+03  0.69690647743E+03 0.  0.
        2    1    3    3  502    0  0.30101768050E+03 -0.16342619291E+03  0.21434730585E+03  0.40406005993E+03  0.25500000920E-02 0. -1.
       -2    1    3    3    0  502 -0.30101768050E+03  0.16342619291E+03  0.75642146600E+02  0.35077271680E+03  0.25500000920E-02 0.  1.
</event>
<event>
 5   0  0.1948138E-02  0.7038214E+03  0.7818609E-02  0.9710719E-01
       -2   -1    0    0    0  501  0.00000000000E+00  0.00000000000E+00  0.86681316092E+02  0.86681316129E+02  0.25500000920E-02 0.  1.
        2   -1    0    0  501    0  0.00000000000E+00  0.00000000000E+00 -0.14286947509E+04  0.14286947509E+04  0.25500000920E-02 0. -1.
    10030    2    1    2    0    0  0.00000000000E+00  0.00000000000E+00 -0.13420134348E+04  0.15153760670E+04  0.70382140158E+03 0.  0.
        3    1    3    3  502    0 -0.27309861040E+03  0.55211383619E+02 -0.11338413632E+04  0.11675732932E+04  0.10100000352E+00 0. -1.
       -3    1    3    3    0  502  0.27309861040E+03 -0.55211383619E+02 -0.20817207160E+03  0.34780277383E+03  0.10100000352E+00 0.  1.
</event>
<event>
 5   0  0.1226303E-02  0.7113113E+03  0.7818609E-02  0.9698082E-01
        1   -1    0    0  501    0  0.00000000000E+00  0.00000000000E+00  0.78895796779E+03  0.78895796781E+03  0.50400001928E-02 0. -1.
       -1   -1    0    0    0  501  0.00000000000E+00  0.00000000000E+00 -0.16032657369E+03  0.16032657377E+03  0.50400001928E-02 0.  1.
    10030    2    1    2    0    0  0.00000000000E+00  0.00000000000E+00  0.62863139410E+03  0.94928454157E+03  0.71131126184E+03 0.  0.
        4    1    3    3  502    0 -0.19838302660E+03 -0.21408840343E+03  0.43103083224E+02  0.29504094362E+03  0.12699999809E+01 0.  1.
       -4    1    3    3    0  502  0.19838302660E+03  0.21408840343E+03  0.58552831088E+03  0.65424359796E+03  0.12699999809E+01 0. -1.
</event>
<event>
 5   0  0.1223742E-02  0.7025870E+03  0.7818609E-02  0.9712818E-01
        1   -1    0    0  501    0  0.00000000000E+00  0.00000000000E+00  0.80088200431E+03  0.80088200433E+03  0.50400001928E-02 0. -1.
       -1   -1    0    0    0  501  0.00000000000E+00  0.00000000000E+00 -0.15408901799E+03  0.15408901808E+03  0.50400001928E-02 0.  1.
    10030    2    1    2    0    0  0.00000000000E+00  0.00000000000E+00  0.64679298632E+03  0.95497102241E+03  0.70258699567E+03 0.  0.
        2    1    3    3  502    0  0.24980304062E+03  0.17286002098E+03  0.56319396314E+03  0.63989810602E+03  0.25500000920E-02 0.  1.
       -2    1    3    3    0  502 -0.24980304062E+03 -0.17286002098E+03  0.83599023175E+02  0.31507291639E+03  0.25500000920E-02 0. -1.
</event>
<event>
 5   0  0.1257442E-02  0.7096339E+03  0.7818609E-02  0.9700897E-01
       -1   -1    0    0    0  501  0.00000000000E+00  0.00000000000E+00  0.35494106750E+03  0.35494106754E+03  0.50400001928E-02 0.  1.
        1   -1    0    0  501    0  0.00000000000E+00  0.00000000000E+00 -0.35469290565E+03  0.35469290569E+03  0.50400001928E-02 0. -1.
    10030    2    1    2    0    0  0.00000000000E+00  0.00000000000E+00  0.24816185053E+00  0.70963397322E+03  0.70963392983E+03 0.  0.
        1    1    3    3  502    0 -0.26539734836E+03 -0.12268391882E+03 -0.20089329906E+03  0.35474669003E+03  0.50400001928E-02 0. -1.
       -1    1    3    3    0  502  0.26539734836E+03  0.12268391882E+03  0.20114146091E+03  0.35488728320E+03  0.50400001928E-02 0.  1.
</event>
<event>
 5   0  0.2026361E-02  0.6754434E+03  0.7818609E-02  0.9760174E-01
       -2   -1    0    0    0  501  0.00000000000E+00  0.00000000000E+00  0.72591082491E+02  0.72591082536E+02  0.25500000920E-02 0.  1.
        2   -1    0    0  501    0  0.00000000000E+00  0.00000000000E+00 -0.15712116978E+04  0.15712116978E+04  0.25500000920E-02 0. -1.
    10030    2    1    2    0    0  0.00000000000E+00  0.00000000000E+00 -0.14986206153E+04  0.16438027804E+04  0.67544343362E+03 0.  0.
        2    1    3    3  502    0 -0.65736344448E+02  0.29814678521E+03 -0.11006625854E+04  0.11422219134E+04  0.25500000920E-02 0. -1.
       -2    1    3    3    0  502  0.65736344448E+02 -0.29814678521E+03 -0.39795802989E+03  0.50158086693E+03  0.25500000920E-02 0.  1.
</event>
<event>
 5   0  0.7947250E-03  0.7033439E+03  0.7818609E-02  0.9711531E-01
        3   -1    0    0  501    0  0.00000000000E+00  0.00000000000E+00  0.39569174867E+03  0.39569176156E+03  0.10100000352E+00 0.  1.
       -3   -1    0    0    0  501  0.00000000000E+00  0.00000000000E+00 -0.31254918597E+03  0.31254920229E+03  0.10100000352E+00 0. -1.
    10030    2    1    2    0    0  0.00000000000E+00  0.00000000000E+00  0.83142562700E+02  0.70824096385E+03  0.70334385413E+03 0.  0.
        3    1    3    3  502    0 -0.31093611066E+03 -0.15515724120E+03  0.95966835650E+02  0.36050614163E+03  0.10100000352E+00 0.  1.
       -3    1    3    3    0  502  0.31093611066E+03  0.15515724120E+03 -0.12824272950E+02  0.34773482222E+03  0.10100000352E+00 0. -1.
</event>
<event>
 5   0  0.1197259E-02  0.6977794E+03  0.7818609E-02  0.9721037E-01
       -1   -1    0    0    0  501  0.00000000000E+00  0.00000000000E+00  0.20497153690E+03  0.20497153696E+03  0.50400001928E-02 0.  1.
        1   -1    0    0  501    0  0.00000000000E+00  0.00000000000E+00 -0.59385824614E+03  0.59385824616E+03  0.50400001928E-02 0. -1.
    10030    2    1    2    0    0  0.00000000000E+00  0.00000000000E+00 -0.38888670924E+03  0.79882978313E+03  0.69777944208E+03 0.  0.
        3    1    3    3  502    0  0.74773774415E+01 -0.11641592484E+03  0.18198294241E+03  0.21616285588E+03  0.10100000352E+00 0.  1.
       -3    1    3    3    0  502 -0.74773774415E+01  0.11641592484E+03 -0.57086965165E+03  0.58266692725E+03  0.10100000352E+00 0. -1.
</event>
<event>
 5   0  0.1197259E-02  0.6981152E+03  0.7818609E-02  0.9720461E-01
       -1   -1    0    0    0  501  0.00000000000E+00  0.00000000000E+00  0.42704483439E+03  0.42704483442E+03  0.50400001928E-02 0.  1.
        1   -1    0    0  501    0  0.00000000000E+00  0.00000000000E+00 -0.28531242543E+03  0.28531242548E+03  0.50400001928E-02 0. -1.
    10030    2    1    2    0    0  0.00000000000E+00  0.00000000000E+00  0.14173240895E+03  0.71235725990E+03  0.69811516957E+03 0.  0.
        3    1    3    3  502    0 -0.30465718540E+03  0.15245708929E+03 -0.67246745712E+01  0.34074095167E+03  0.10100000352E+00 0.  1.
       -3    1    3    3    0  502  0.30465718540E+03 -0.15245708929E+03  0.14845708352E+03  0.37161630823E+03  0.10100000352E+00 0. -1.
</event>
<event>
 5   0  0.1948138E-02  0.7096605E+03  0.7818609E-02  0.9700853E-01
        2   -1    0    0  501    0  0.00000000000E+00  0.00000000000E+00  0.16797715033E+04  0.16797715033E+04  0.25500000920E-02 0.  1.
       -2   -1    0    0    0  501  0.00000000000E+00  0.00000000000E+00 -0.74953350663E+02  0.74953350707E+02  0.25500000920E-02 0. -1.
    10030    2    1    2    0    0  0.00000000000E+00  0.00000000000E+00  0.16048181527E+04  0.17547248540E+04  0.70966048943E+03 0.  0.
        3    1    3    3  502    0  0.33086140235E+03  0.12768395318E+03  0.83082092399E+03  0.90334704151E+03  0.10100000352E+00 0.  1.
       -3    1    3    3    0  502 -0.33086140235E+03 -0.12768395318E+03  0.77399722868E+03  0.85137781253E+03  0.10100000352E+00 0. -1.
</event>
<event>
 5   0  0.1948138E-02  0.7031391E+03  0.7818609E-02  0.9711879E-01
        2   -1    0    0  501    0  0.00000000000E+00  0.00000000000E+00  0.18038013909E+04  0.18038013909E+04  0.25500000920E-02 0. -1.
       -2   -1    0    0    0  501  0.00000000000E+00  0.00000000000E+00 -0.68522599898E+02  0.68522599945E+02  0.25500000920E-02 0.  1.
    10030    2    1    2    0    0  0.00000000000E+00  0.00000000000E+00  0.17352787910E+04  0.18723239909E+04  0.70313913574E+03 0.  0.
        3    1    3    3  502    0 -0.25195508798E+03 -0.13636248952E+03  0.32502058576E+03  0.43326029852E+03  0.10100000352E+00 0.  1.
       -3    1    3    3    0  502  0.25195508798E+03  0.13636248952E+03  0.14102582053E+04  0.14390636924E+04  0.10100000352E+00 0. -1.
</event>
<event>
 5   0  0.1257442E-02  0.6987725E+03  0.7818609E-02  0.9719334E-01
        1   -1    0    0  501    0  0.00000000000E+00  0.00000000000E+00  0.21779859183E+03  0.21779859189E+03  0.50400001928E-02 0.  1.
       -1   -1    0    0    0  501  0.00000000000E+00  0.00000000000E+00 -0.56047539809E+03  0.56047539811E+03  0.50400001928E-02 0. -1.
    10030    2    1    2    0    0  0.00000000000E+00  0.00000000000E+00 -0.34267680626E+03  0.77827399000E+03  0.69877250229E+03 0.  0.
        1    1    3    3  502    0  0.30986060651E+03 -0.94189586045E+02 -0.25330108260E+02  0.32484902339E+03  0.50400001928E-02 0.  1.
       -1    1    3    3    0  502 -0.30986060651E+03  0.94189586045E+02 -0.31734669800E+03  0.45342496661E+03  0.50400001928E-02 0. -1.
</event>
<event>
 5   0  0.1909053E-02  0.7027489E+03  0.7818609E-02  0.9712543E-01
        2   -1    0    0  501    0  0.00000000000E+00  0.00000000000E+00  0.56155531146E+03  0.56155531147E+03  0.25500000920E-02 0.  1.
       -2   -1    0    0    0  501  0.00000000000E+00  0.00000000000E+00 -0.21986081607E+03  0.21986081608E+03  0.25500000920E-02 0. -1.
    10030    2    1    2    0    0  0.00000000000E+00  0.00000000000E+00  0.34169449539E+03  0.78141612755E+03  0.70274891406E+03 0.  0.
        1    1    3    3  502    0  0.14063077220E+03  0.19997904951E+03 -0.10978407003E+03  0.26799473202E+03  0.50400001928E-02 0. -1.
       -1    1    3    3    0  502 -0.14063077220E+03 -0.19997904951E+03  0.45147856542E+03  0.51342139553E+03  0.50400001928E-02 0.  1.
</event>
<event>
 5   0  0.1223742E-02  0.7024941E+03  0.7818609E-02  0.9712977E-01
       -1   -1    0    0    0  501  0.00000000000E+00  0.00000000000E+00  0.92128081259E+02  0.92128081397E+02  0.50400001928E-02 0.  1.
        1   -1    0    0  501    0  0.00000000000E+00  0.00000000000E+00 -0.13391625301E+04  0.13391625301E+04  0.50400001928E-02 0. -1.
    10030    2    1    2    0    0  0.00000000000E+00  0.00000000000E+00 -0.12470344488E+04  0.14312906115E+04  0.70249405548E+03 0.  0.
        2    1    3    3  502    0  0.21434116833E+03 -0.73937312148E+02 -0.11700896026E+04  0.11918550838E+04  0.25500000920E-02 0. -1.
       -2    1    3    3    0  502 -0.21434116833E+03  0.73937312148E+02 -0.76944846223E+02  0.23943552773E+03  0.25500000920E-02 0.  1.
</event>
<event>
 5   0  0.1257442E-02  0.6992160E+03  0.7818609E-02  0.9718574E-01
       -1   -1    0    0    0  501  0.00000000000E+00  0.00000000000E+00  0.28934381029E+03  0.28934381034E+03  0.50400001928E-02 0. -1.
        1   -1    0    0  501    0  0.00000000000E+00  0.00000000000E+00 -0.42242391474E+03  0.42242391477E+03  0.50400001928E-02 0.  1.
    10030    2    1    2    0    0  0.00000000000E+00  0.00000000000E+00 -0.13308010445E+03  0.71176772510E+03  0.69921597543E+03 0.  0.
        1    1    3    3  502    0  0.28339984684E+03  0.20258458093E+03 -0.36518957668E+02  0.35027078084E+03  0.50400001928E-02 0. -1.
       -1    1    3    3    0  502 -0.28339984684E+03 -0.20258458093E+03 -0.96561146779E+02  0.36149694426E+03  0.50400001928E-02 0.  1.
</event>
<event>
 5   0  0.1973067E-02  0.7009882E+03  0.7818609E-02  0.9715544E-01
       -2   -1    0    0    0  501  0.00000000000E+00  0.00000000000E+00  0.94308311993E+03  0.94308311993E+03  0.25500000920E-02 0. -1.
        2   -1    0    0  501    0  0.00000000000E+00  0.00000000000E+00 -0.13026011048E+03  0.13026011051E+03  0.25500000920E-02 0.  1.
    10030    2    1    2    0    0  0.00000000000E+00  0.00000000000E+00  0.81282300944E+03  0.10733432304E+04  0.70098819223E+03 0.  0.
        5    1    3    3  502    0  0.16219492217E+03 -0.30765033628E+03  0.34023133312E+03  0.48655459326E+03  0.46999998093E+01 0.  1.
       -5    1    3    3    0  502 -0.16219492217E+03  0.30765033628E+03  0.47259167633E+03  0.58678863718E+03  0.46999998093E+01 0. -1.
</event>
<event>
 5   0  0.1909053E-02  0.7044922E+03  0.7818609E-02  0.9709581E-01
        2   -1    0    0  501    0  0.00000000000E+00  0.00000000000E+00  0.12727682819E+04  0.12727682819E+04  0.25500000920E-02 0.  1.
       -2   -1    0    0    0  501  0.00000000000E+00  0.00000000000E+00 -0.97486167741E+02  0.97486167775E+02  0.25500000920E-02 0. -1.
    10030    2    1    2    0    0  0.00000000000E+00  0.00000000000E+00  0.11752821142E+04  0.13702544497E+04  0.70449216391E+03 0.  0.
        1    1    3    3  502    0 -0.32839523727E+03  0.46511983707E+01  0.33998638674E+03  0.47271112606E+03  0.50400001928E-02 0. -1.
       -1    1    3    3    0  502  0.32839523727E+03 -0.46511983707E+01  0.83529572745E+03  0.89754332365E+03  0.50400001928E-02 0.  1.
</event>
<event>
 5   0  0.1223742E-02  0.7040297E+03  0.7818609E-02  0.9710366E-01
       -1   -1    0    0    0  501  0.00000000000E+00  0.00000000000E+00  0.44964753447E+03  0.44964753450E+03  0.50400001928E-02 0. -1.
        1   -1    0    0  501    0  0.00000000000E+00  0.00000000000E+00 -0.27558127794E+03  0.27558127799E+03  0.50400001928E-02 0.  1.
    10030    2    1    2    0    0  0.00000000000E+00  0.00000000000E+00  0.17406625653E+03  0.72522881249E+03  0.70402966471E+03 0.  0.
        2    1    3    3  502    0  0.32626475226E+03  0.96838784585E+02  0.17967445249E+03  0.38484977283E+03  0.25500000920E-02 0. -1.
       -2    1    3    3    0  502 -0.32626475226E+03 -0.96838784585E+02 -0.56081959670E+01  0.34037903965E+03  0.25500000920E-02 0.  1.
</event>
<event>
 5   0  0.1223742E-02  0.7098456E+03  0.7818609E-02  0.9700542E-01
       -1   -1    0    0    0  501  0.00000000000E+00  0.00000000000E+00  0.33555288486E+03  0.33555288490E+03  0.50400001928E-02 0.  1.
        1   -1    0    0  501    0  0.00000000000E+00  0.00000000000E+00 -0.37541082913E+03  0.37541082917E+03  0.50400001928E-02 0. -1.
    10030    2    1    2    0    0  0.00000000000E+00  0.00000000000E+00 -0.39857944269E+02  0.71096371407E+03  0.70984557969E+03 0.  0.
        2    1    3    3  502    0  0.13870155323E+03 -0.14680254183E+03 -0.31224667937E+03  0.37186972980E+03  0.25500000920E-02 0. -1.
       -2    1    3    3    0  502 -0.13870155323E+03  0.14680254183E+03  0.27238873510E+03  0.33909398427E+03  0.25500000920E-02 0.  1.
</event>
<event>
 5   0  0.2026361E-02  0.6983957E+03  0.7818609E-02  0.9719980E-01
       -2   -1    0    0    0  501  0.00000000000E+00  0.00000000000E+00  0.32713179553E+03  0.32713179554E+03  0.25500000920E-02 0.  1.
        2   -1    0    0  501    0  0.00000000000E+00  0.00000000000E+00 -0.37275234466E+03  0.37275234467E+03  0.25500000920E-02 0. -1.
    10030    2    1    2    0    0  0.00000000000E+00  0.00000000000E+00 -0.45620549136E+02  0.69988414021E+03  0.69839571534E+03 0.  0.
        2    1    3    3  502    0 -0.29271310335E+03 -0.10404092123E+03  0.13700897932E+03  0.33952457140E+03  0.25500000920E-02 0.  1.
       -2    1    3    3    0  502  0.29271310335E+03  0.10404092123E+03 -0.18262952846E+03  0.36035956881E+03  0.25500000920E-02 0. -1.
</event>
<event>
 5   0  0.7947250E-03  0.6976214E+03  0.7818609E-02  0.9721309E-01
        3   -1    0    0  501    0  0.00000000000E+00  0.00000000000E+00  0.21403028925E+03  0.21403031308E+03  0.10100000352E+00 0. -1.
       -3   -1    0    0    0  501  0.00000000000E+00  0.00000000000E+00 -0.56846582745E+03  0.56846583642E+03  0.10100000352E+00 0.  1.
    10030    2    1    2    0    0  0.00000000000E+00  0.00000000000E+00 -0.35443553820E+03  0.78249614950E+03  0.69762143978E+03 0.  0.
        4    1    3    3  502    0  0.56400890828E+02 -0.87608683045E+02 -0.55060009411E+03  0.56037346330E+03  0.12699999809E+01 0.  1.
       -4    1    3    3    0  502 -0.56400890828E+02  0.87608683045E+02  0.19616455591E+03  0.22212268620E+03  0.12699999809E+01 0. -1.
</event>
<event>
 5   0  0.1197259E-02  0.7038122E+03  0.7818609E-02  0.9710735E-01
       -1   -1    0    0    0  501  0.00000000000E+00  0.00000000000E+00  0.12774928587E+03  0.12774928597E+03  0.50400001928E-02 0. -1.
        1   -1    0    0  501    0  0.00000000000E+00  0.00000000000E+00 -0.96938244846E+03  0.96938244848E+03  0.50400001928E-02 0.  1.
    10030    2    1    2    0    0  0.00000000000E+00  0.00000000000E+00 -0.84163316259E+03  0.10971317344E+04  0.70381223514E+03 0.  0.
        3    1    3    3  502    0  0.23674572756E+03  0.25996352658E+03 -0.44331637898E+03  0.56582594209E+03  0.10100000352E+00 0. -1.
       -3    1    3    3    0  502 -0.23674572756E+03 -0.25996352658E+03 -0.39831678362E+03  0.53130579235E+03  0.10100000352E+00 0.  1.
</event>
<event>
 5   0  0.1973067E-02  0.7074328E+03  0.7818609E-02  0.9704605E-01
        2   -1    0    0  501    0  0.00000000000E+00  0.00000000000E+00  0.62560265152E+03  0.62560265152E+03  0.25500000920E-02 0. -1.
       -2   -1    0    0    0  501  0.00000000000E+00  0.00000000000E+00 -0.19999162287E+03  0.19999162288E+03  0.25500000920E-02 0.  1.
    10030    2    1    2    0    0  0.00000000000E+00  0.00000000000E+00  0.42561102865E+03  0.82559427441E+03  0.70743279414E+03 0.  0.
        5    1    3    3  502    0  0.41795416635E+02  0.13217109406E+03  0.59254223380E+03  0.60855931822E+03  0.46999998093E+01 0.  1.
       -5    1    3    3    0  502 -0.41795416635E+02 -0.13217109406E+03 -0.16693120515E+03  0.21703495619E+03  0.46999998093E+01 0. -1.
</event>
<event>
 5   0  0.1197259E-02  0.7296910E+03  0.7818609E-02  0.9667762E-01
       -1   -1    0    0    0  501  0.00000000000E+00  0.00000000000E+00  0.53222991103E+03  0.53222991105E+03  0.50400001928E-02 0. -1.
        1   -1    0    0  501    0  0.00000000000E+00  0.00000000000E+00 -0.25010289610E+03  0.25010289615E+03  0.50400001928E-02 0.  1.
    10030    2    1    2    0    0  0.00000000000E+00  0.00000000000E+00  0.28212701493E+03  0.78233280720E+03  0.72969100903E+03 0.  0.
        3    1    3    3  502    0  0.18984184084E+02 -0.35603502306E+03  0.22404827934E+03  0.42109260094E+03  0.10100000352E+00 0.  1.
       -3    1    3    3    0  502 -0.18984184084E+02  0.35603502306E+03  0.58078735589E+02  0.36124020626E+03  0.10100000352E+00 0. -1.
</event>
<event>
 5   0  0.2026361E-02  0.7296159E+03  0.7818609E-02  0.9667884E-01
        2   -1    0    0  501    0  0.00000000000E+00  0.00000000000E+00  0.60721551902E+03  0.60721551902E+03  0.25500000920E-02 0.  1.
       -2   -1    0    0    0  501  0.00000000000E+00  0.00000000000E+00 -0.21917232232E+03  0.21917232233E+03  0.25500000920E-02 0. -1.
    10030    2    1    2    0    0  0.00000000000E+00  0.00000000000E+00  0.38804319670E+03  0.82638784136E+03  0.72961588650E+03 0.  0.
        2    1    3    3  502    0 -0.28398455901E+03  0.12256082746E+03  0.41311077484E+03  0.51607063323E+03  0.25500000920E-02 0.  1.
       -2    1    3    3    0  502  0.28398455901E+03 -0.12256082746E+03 -0.25067578144E+02  0.31031720813E+03  0.25500000920E-02 0. -1.
</event>
<event>
 5   0  0.2026361E-02  0.7106069E+03  0.7818609E-02  0.9699263E-01
       -2   -1    0    0    0  501  0.00000000000E+00  0.00000000000E+00  0.23352147406E+03  0.23352147407E+03  0.25500000920E-02 0. -1.
        2   -1    0    0  501    0  0.00000000000E+00  0.00000000000E+00 -0.54059494296E+03  0.54059494297E+03  0.25500000920E-02 0.  1.
    10030    2    1    2    0    0  0.00000000000E+00  0.00000000000E+00 -0.30707346890E+03  0.77411641704E+03  0.71060686165E+03 0.  0.
        2    1    3    3  502    0 -0.23927860308E+03  0.20511084239E+03 -0.33225983573E+03  0.45795338846E+03  0.25500000920E-02 0.  1.
       -2    1    3    3    0  502  0.23927860308E+03 -0.20511084239E+03  0.25186366828E+02  0.31616302858E+03  0.25500000920E-02 0. -1.
</event>
<event>
 5   0  0.1257442E-02  0.6908032E+03  0.7818609E-02  0.9733091E-01
        1   -1    0    0  501    0  0.00000000000E+00  0.00000000000E+00  0.29955944669E+03  0.29955944673E+03  0.50400001928E-02 0.  1.
       -1   -1    0    0    0  501  0.00000000000E+00  0.00000000000E+00 -0.39825901903E+03  0.39825901906E+03  0.50400001928E-02 0. -1.
    10030    2    1    2    0    0  0.00000000000E+00  0.00000000000E+00 -0.98699572344E+02  0.69781846579E+03  0.69080315982E+03 0.  0.
        1    1    3    3  502    0  0.17494246206E+03 -0.18960514536E+03 -0.28134987821E+03  0.38172336865E+03  0.50400001928E-02 0. -1.
       -1    1    3    3    0  502 -0.17494246206E+03  0.18960514536E+03  0.18265030587E+03  0.31609509714E+03  0.50400001928E-02 0.  1.
</event>
<event>
 5   0  0.1948138E-02  0.6980705E+03  0.7818609E-02  0.9720538E-01
        2   -1    0    0  501    0  0.00000000000E+00  0.00000000000E+00  0.57464339367E+03  0.57464339367E+03  0.25500000920E-02 0.  1.
       -2   -1    0    0    0  501  0.00000000000E+00  0.00000000000E+00 -0.21200207045E+03  0.21200207047E+03  0.25500000920E-02 0. -1.
    10030    2    1    2    0    0  0.00000000000E+00  0.00000000000E+00  0.36264132322E+03  0.78664546414E+03  0.69807045271E+03 0.  0.
        3    1    3    3  502    0  0.15001738067E+03  0.24181614687E+03  0.40906674401E+03  0.49831302877E+03  0.10100000352E+00 0.  1.
       -3    1    3    3    0  502 -0.15001738067E+03 -0.24181614687E+03 -0.46425420794E+02  0.28833243537E+03  0.10100000352E+00 0. -1.
</event>
<event>
 5   0  0.2026361E-02  0.7002823E+03  0.7818609E-02  0.9716749E-01
       -2   -1    0    0    0  501  0.00000000000E+00  0.00000000000E+00  0.28021488119E+03  0.28021488120E+03  0.25500000920E-02 0.  1.
        2   -1    0    0  501    0  0.00000000000E+00  0.00000000000E+00 -0.43751722406E+03  0.43751722407E+03  0.25500000920E-02 0. -1.
    10030    2    1    2    0    0  0.00000000000E+00  0.00000000000E+00 -0.15730234287E+03  0.71773210527E+03  0.70028233439E+03 0.  0.
        2    1    3    3  502    0 -0.20106837006E+03 -0.24002608063E+03  0.81963117886E+02  0.32366489077E+03  0.25500000920E-02 0.  1.
       -2    1    3    3    0  502  0.20106837006E+03  0.24002608063E+03 -0.23926546076E+03  0.39406721449E+03  0.25500000920E-02 0. -1.
</event>
<event>
 5   0  0.1197259E-02  0.6818005E+03  0.7818609E-02  0.9748872E-01
        1   -1    0    0  501    0  0.00000000000E+00  0.00000000000E+00  0.11229825340E+04  0.11229825341E+04  0.50400001928E-02 0. -1.
       -1   -1    0    0    0  501  0.00000000000E+00  0.00000000000E+00 -0.10348600673E+03  0.10348600685E+03  0.50400001928E-02 0.  1.
    10030    2    1    2    0    0  0.00000000000E+00  0.00000000000E+00  0.10194965273E+04  0.12264685409E+04  0.68180049327E+03 0.  0.
        3    1    3    3  502    0 -0.19013151899E+03  0.98655947958E+02  0.32692287479E+02  0.21668360908E+03  0.10100000352E+00 0.  1.
       -3    1    3    3    0  502  0.19013151899E+03 -0.98655947958E+02  0.98680423984E+03  0.10097849318E+04  0.10100000352E+00 0. -1.
</event>
<event>
 5   0  0.1197259E-02  0.6945677E+03  0.7818609E-02  0.9726568E-01
       -1   -1    0    0    0  501  0.00000000000E+00  0.00000000000E+00  0.18237369632E+03  0.18237369639E+03  0.50400001928E-02 0.  1.
        1   -1    0    0  501    0  0.00000000000E+00  0.00000000000E+00 -0.66131280743E+03  0.66131280745E+03  0.50400001928E-02 0. -1.
    10030    2    1    2    0    0  0.00000000000E+00  0.00000000000E+00 -0.47893911111E+03  0.84368650384E+03  0.69456766741E+03 0.  0.
        3    1    3    3  502    0  0.69197191575E+01  0.27938171988E+03  0.10957679378E+02  0.27968215684E+03  0.10100000352E+00 0.  1.
       -3    1    3    3    0  502 -0.69197191575E+01 -0.27938171988E+03 -0.48989679048E+03  0.56400434701E+03  0.10100000352E+00 0. -1.
</event>
<event>
 5   0  0.1226303E-02  0.7034920E+03  0.7818609E-02  0.9711279E-01
       -1   -1    0    0    0  501  0.00000000000E+00  0.00000000000E+00  0.13693483024E+03  0.13693483033E+03  0.50400001928E-02 0. -1.
        1   -1    0    0  501    0  0.00000000000E+00  0.00000000000E+00 -0.90353381038E+03  0.90353381039E+03  0.50400001928E-02 0.  1.
    10030    2    1    2    0    0  0.00000000000E+00  0.00000000000E+00 -0.76659898014E+03  0.10404686407E+04  0.70349200137E+03 0.  0.
        4    1    3    3  502    0 -0.19228215617E+02  0.13659609760E+03  0.95257505171E+02  0.16764194984E+03  0.12699999809E+01 0. -1.
       -4    1    3    3    0  502  0.19228215617E+02 -0.13659609760E+03 -0.86185648531E+03  0.87282669089E+03  0.12699999809E+01 0.  1.
</event>
<event>
 5   0  0.1948138E-02  0.7078450E+03  0.7818609E-02  0.9703910E-01
       -2   -1    0    0    0  501  0.00000000000E+00  0.00000000000E+00  0.15551064942E+03  0.15551064944E+03  0.25500000920E-02 0.  1.
        2   -1    0    0  501    0  0.00000000000E+00  0.00000000000E+00 -0.80548261066E+03  0.80548261066E+03  0.25500000920E-02 0. -1.
    10030    2    1    2    0    0  0.00000000000E+00  0.00000000000E+00 -0.64997196124E+03  0.96099326010E+03  0.70784496577E+03 0.  0.
        3    1    3    3  502    0 -0.15127845743E+03  0.31074397802E+02  0.10735188960E+03  0.18808303561E+03  0.10100000352E+00 0.  1.
       -3    1    3    3    0  502  0.15127845743E+03 -0.31074397802E+02 -0.75732385084E+03  0.77291022450E+03  0.10100000352E+00 0. -1.
</event>
<event>
 5   0  0.2026361E-02  0.6864720E+03  0.7818609E-02  0.9740651E-01
        2   -1    0    0  501    0  0.00000000000E+00  0.00000000000E+00  0.18787981371E+04  0.18787981371E+04  0.25500000920E-02 0.  1.
       -2   -1    0    0    0  501  0.00000000000E+00  0.00000000000E+00 -0.62705495634E+02  0.62705495686E+02  0.25500000920E-02 0. -1.
    10030    2    1    2    0    0  0.00000000000E+00  0.00000000000E+00  0.18160926414E+04  0.19415036327E+04  0.68647204876E+03 0.  0.
        2    1    3    3  502    0 -0.36129507680E+02  0.17320800698E+02  0.18721614748E+04  0.18725901685E+04  0.25500000920E-02 0.  1.
       -2    1    3    3    0  502  0.36129507680E+02 -0.17320800698E+02 -0.56068833410E+02  0.68913464204E+02  0.25500000920E-02 0. -1.
</event>
<event>
 5   0  0.2006362E-02  0.6990667E+03  0.7818609E-02  0.9718830E-01
       -2   -1    0    0    0  501  0.00000000000E+00  0.00000000000E+00  0.36368094423E+03  0.36368094424E+03  0.25500000920E-02 0. -1.
        2   -1    0    0  501    0  0.00000000000E+00  0.00000000000E+00 -0.33593610236E+03  0.33593610237E+03  0.25500000920E-02 0.  1.
    10030    2    1    2    0    0  0.00000000000E+00  0.00000000000E+00  0.27744841868E+02  0.69961704661E+03  0.69906668899E+03 0.  0.
        4    1    3    3  502    0  0.25149077788E+03  0.20365139682E+03  0.14607654580E+03  0.35505136659E+03  0.12699999809E+01 0.  1.
       -4    1    3    3    0  502 -0.25149077788E+03 -0.20365139682E+03 -0.11833170394E+03  0.34456568001E+03  0.12699999809E+01 0. -1.
</event>
<event>
 5   0  0.1223742E-02  0.6976619E+03  0.7818609E-02  0.9721239E-01
        1   -1    0    0  501    0  0.00000000000E+00  0.00000000000E+00  0.54611078444E+03  0.54611078446E+03  0.50400001928E-02 0.  1.
       -1   -1    0    0    0  501  0.00000000000E+00  0.00000000000E+00 -0.22281747595E+03  0.22281747600E+03  0.50400001928E-02 0. -1.
    10030    2    1    2    0    0  0.00000000000E+00  0.00000000000E+00  0.32329330849E+03  0.76892826047E+03  0.69766188546E+03 0.  0.
        2    1    3    3  502    0  0.97599562742E+02 -0.66493686154E+02 -0.20011383428E+03  0.23236314601E+03  0.25500000920E-02 0. -1.
       -2    1    3    3    0  502 -0.97599562742E+02  0.66493686154E+02  0.52340714277E+03  0.53656511446E+03  0.25500000920E-02 0.  1.
</event>
<event>
 5   0  0.7947250E-03  0.7001547E+03  0.7818609E-02  0.9716968E-01
        3   -1    0    0  501    0  0.00000000000E+00  0.00000000000E+00  0.11152598012E+03  0.11152602585E+03  0.10100000352E+00 0.  1.
       -3   -1    0    0    0  501  0.00000000000E+00  0.00000000000E+00 -0.10988841910E+04  0.10988841956E+04  0.10100000352E+00 0. -1.
    10030    2    1    2    0    0  0.00000000000E+00  0.00000000000E+00 -0.98735821087E+03  0.12104102215E+04  0.70015474553E+03 0.  0.
        2    1    3    3  502    0  0.33073251846E+03  0.40140994639E+02 -0.67954350410E+03  0.75681878425E+03  0.25500000920E-02 0. -1.
       -2    1    3    3    0  502 -0.33073251846E+03 -0.40140994639E+02 -0.30781470677E+03  0.45359143723E+03  0.25500000920E-02 0.  1.
</event>
<event>
 5   0  0.1909053E-02  0.6977888E+03  0.7818609E-02  0.9721021E-01
        2   -1    0    0  501    0  0.00000000000E+00  0.00000000000E+00  0.10249462818E+04  0.10249462818E+04  0.25500000920E-02 0. -1.
       -2   -1    0    0    0  501  0.00000000000E+00  0.00000000000E+00 -0.11876457626E+03  0.11876457629E+03  0.25500000920E-02 0.  1.
    10030    2    1    2    0    0  0.00000000000E+00  0.00000000000E+00  0.90618170556E+03  0.11437108581E+04  0.69778882440E+03 0.  0.
        1    1    3    3  502    0 -0.13553021342E+03  0.32080025337E+03  0.41847352712E+03  0.54442752891E+03  0.50400001928E-02 0.  1.
       -1    1    3    3    0  502  0.13553021342E+03 -0.32080025337E+03  0.48770817845E+03  0.59928332920E+03  0.50400001928E-02 0. -1.
</event>
<event>
 5   0  0.2026361E-02  0.7012815E+03  0.7818609E-02  0.9715043E-01
       -2   -1    0    0    0  501  0.00000000000E+00  0.00000000000E+00  0.12579391034E+03  0.12579391036E+03  0.25500000920E-02 0.  1.
        2   -1    0    0  501    0  0.00000000000E+00  0.00000000000E+00 -0.97738379972E+03  0.97738379973E+03  0.25500000920E-02 0. -1.
    10030    2    1    2    0    0  0.00000000000E+00  0.00000000000E+00 -0.85158988939E+03  0.11031777101E+04  0.70128148438E+03 0.  0.
        2    1    3    3  502    0 -0.18088065283E+03 -0.29891637606E+03 -0.47246345732E+03  0.58761426885E+03  0.25500000920E-02 0.  1.
       -2    1    3    3    0  502  0.18088065283E+03  0.29891637606E+03 -0.37912643207E+03  0.51556344124E+03  0.25500000920E-02 0. -1.
</event>
<event>
 5   0  0.1257442E-02  0.7072038E+03  0.7818609E-02  0.9704992E-01
        1   -1    0    0  501    0  0.00000000000E+00  0.00000000000E+00  0.17498089710E+04  0.17498089710E+04  0.50400001928E-02 0. -1.
       -1   -1    0    0    0  501  0.00000000000E+00  0.00000000000E+00 -0.71455963977E+02  0.71455964155E+02  0.50400001928E-02 0.  1.
    10030    2    1    2    0    0  0.00000000000E+00  0.00000000000E+00  0.16783530070E+04  0.18212649352E+04  0.70720375272E+03 0.  0.
        1    1    3    3  502    0 -0.38359940961E+02 -0.63467711652E+02  0.17295566741E+04  0.17311458415E+04  0.50400001928E-02 0. -1.
       -1    1    3    3    0  502  0.38359940961E+02  0.63467711652E+02 -0.51203667103E+02  0.90119093665E+02  0.50400001928E-02 0.  1.
</event>
<event>
 5   0  0.1197259E-02  0.6994778E+03  0.7818609E-02  0.9718126E-01
        1   -1    0    0  501    0  0.00000000000E+00  0.00000000000E+00  0.19507809985E+04  0.19507809985E+04  0.50400001928E-02 0. -1.
       -1   -1    0    0    0  501  0.00000000000E+00  0.00000000000E+00 -0.62701701913E+02  0.62701702116E+02  0.50400001928E-02 0.  1.
    10030    2    1    2    0    0  0.00000000000E+00  0.00000000000E+00  0.18880792966E+04  0.20134827006E+04  0.69947777342E+03 0.  0.
        3    1    3    3  502    0  0.91051091204E+02 -0.14073935706E+03  0.18276161872E+04  0.18352871181E+04  0.10100000352E+00 0. -1.
       -3    1    3    3    0  502 -0.91051091204E+02  0.14073935706E+03  0.60463109355E+02  0.17819558252E+03  0.10100000352E+00 0.  1.
</event>
<event>
 5   0  0.1226303E-02  0.7019286E+03  0.7818609E-02  0.9713940E-01
       -1   -1    0    0    0  501  0.00000000000E+00  0.00000000000E+00  0.12745274881E+04  0.12745274881E+04  0.50400001928E-02 0.  1.
        1   -1    0    0  501    0  0.00000000000E+00  0.00000000000E+00 -0.96644406136E+02  0.96644406267E+02  0.50400001928E-02 0. -1.
    10030    2    1    2    0    0  0.00000000000E+00  0.00000000000E+00  0.11778830820E+04  0.13711718944E+04  0.70192863537E+03 0.  0.
        4    1    3    3  502    0 -0.12591236958E+03 -0.71799637214E+02  0.12133237131E+04  0.12219513732E+04  0.12699999809E+01 0.  1.
       -4    1    3    3    0  502  0.12591236958E+03  0.71799637214E+02 -0.35440631126E+02  0.14922052122E+03  0.12699999809E+01 0. -1.
</event>
<event>
 5   0  0.7947250E-03  0.6990409E+03  0.7818609E-02  0.9718874E-01
        3   -1    0    0  501    0  0.00000000000E+00  0.00000000000E+00  0.84470169979E+03  0.84470170582E+03  0.10100000352E+00 0. -1.
       -3   -1    0    0    0  501  0.00000000000E+00  0.00000000000E+00 -0.14462447752E+03  0.14462451278E+03  0.10100000352E+00 0.  1.
    10030    2    1    2    0    0  0.00000000000E+00  0.00000000000E+00  0.70007722227E+03  0.98932621861E+03  0.69904094993E+03 0.  0.
        4    1    3    3  502    0  0.14370195022E+03 -0.14337977779E+03 -0.52640011395E+02  0.20971550939E+03  0.12699999809E+01 0.  1.
       -4    1    3    3    0  502 -0.14370195022E+03  0.14337977779E+03  0.75271723366E+03  0.77961070922E+03  0.12699999809E+01 0. -1.
</event>
<event>
 5   0  0.1257442E-02  0.6977669E+03  0.7818609E-02  0.9721059E-01
        1   -1    0    0  501    0  0.00000000000E+00  0.00000000000E+00  0.40432903375E+03  0.40432903378E+03  0.50400001928E-02 0. -1.
       -1   -1    0    0    0  501  0.00000000000E+00  0.00000000000E+00 -0.30104107824E+03  0.30104107828E+03  0.50400001928E-02 0.  1.
    10030    2    1    2    0    0  0.00000000000E+00  0.00000000000E+00  0.10328795551E+03  0.70537011206E+03  0.69776686166E+03 0.  0.
        1    1    3    3  502    0  0.10886227904E+03  0.16106446778E+03  0.34450210310E+03  0.39556852459E+03  0.50400001928E-02 0. -1.
       -1    1    3    3    0  502 -0.10886227904E+03 -0.16106446778E+03 -0.24121414759E+03  0.30980158747E+03  0.50400001928E-02 0.  1.
</event>
<event>
 5   0  0.1948138E-02  0.6941011E+03  0.7818609E-02  0.9727374E-01
       -2   -1    0    0    0  501  0.00000000000E+00  0.00000000000E+00  0.79867728753E+02  0.79867728794E+02  0.25500000920E-02 0.  1.
        2   -1    0    0  501    0  0.00000000000E+00  0.00000000000E+00 -0.15080442542E+04  0.15080442542E+04  0.25500000920E-02 0. -1.
    10030    2    1    2    0    0  0.00000000000E+00  0.00000000000E+00 -0.14281765254E+04  0.15879119830E+04  0.69410105742E+03 0.  0.
        3    1    3    3  502    0 -0.14318224576E+03 -0.23839581812E+03 -0.23908736285E+03  0.36673764311E+03  0.10100000352E+00 0.  1.
       -3    1    3    3    0  502  0.14318224576E+03  0.23839581812E+03 -0.11890891626E+04  0.12211743399E+04  0.10100000352E+00 0. -1.
</event>
<event>
 5   0  0.1223742E-02  0.6967022E+03  0.7818609E-02  0.9722889E-01
        1   -1    0    0  501    0  0.00000000000E+00  0.00000000000E+00  0.61051478128E+03  0.61051478130E+03  0.50400001928E-02 0.  1.
       -1   -1    0    0    0  501  0.00000000000E+00  0.00000000000E+00 -0.19876421725E+03  0.19876421731E+03  0.50400001928E-02 0. -1.
    10030    2    1    2    0    0  0.00000000000E+00  0.00000000000E+00  0.41175056403E+03  0.80927899862E+03  0.69670221086E+03 0.  0.
        2    1    3    3  502    0 -0.79861459861E+02  0.25554973583E+03  0.46474197807E+03  0.53634748666E+03  0.25500000920E-02 0.  1.
       -2    1    3    3    0  502  0.79861459861E+02 -0.25554973583E+03 -0.52991414042E+02  0.27293151196E+03  0.25500000920E-02 0. -1.
</event>
<event>
 5   0  0.1909053E-02  0.6996425E+03  0.7818609E-02  0.9717844E-01
       -2   -1    0    0    0  501  0.00000000000E+00  0.00000000000E+00  0.12603290122E+04  0.12603290122E+04  0.25500000920E-02 0. -1.
        2   -1    0    0  501    0  0.00000000000E+00  0.00000000000E+00 -0.97097576285E+02  0.97097576319E+02  0.25500000920E-02 0.  1.
    10030    2    1    2    0    0  0.00000000000E+00  0.00000000000E+00  0.11632314359E+04  0.13574265885E+04  0.69964245849E+03 0.  0.
        1    1    3    3  502    0 -0.81854273630E+02  0.26186486197E+03  0.16054226652E+03  0.31787913963E+03  0.50400001928E-02 0.  1.
       -1    1    3    3    0  502  0.81854273630E+02 -0.26186486197E+03  0.10026891694E+04  0.10395474489E+04  0.50400001928E-02 0. -1.
</event>
<event>
 5   0  0.1223742E-02  0.6493301E+03  0.7818609E-02  0.9808037E-01
       -1   -1    0    0    0  501  0.00000000000E+00  0.00000000000E+00  0.51189253813E+03  0.51189253815E+03  0.50400001928E-02 0.  1.
        1   -1    0    0  501    0  0.00000000000E+00  0.00000000000E+00 -0.20591705538E+03  0.20591705544E+03  0.50400001928E-02 0. -1.
    10030    2    1    2    0    0  0.00000000000E+00  0.00000000000E+00  0.30597548275E+03  0.71780959360E+03  0.64933012915E+03 0.  0.
        2    1    3    3  502    0  0.10264159438E+02 -0.29063799140E+03 -0.65653094442E+01  0.29089327650E+03  0.25500000920E-02 0. -1.
       -2    1    3    3    0  502 -0.10264159438E+02  0.29063799140E+03  0.31254079219E+03  0.42691631710E+03  0.25500000920E-02 0.  1.
</event>
<event>
 5   0  0.1197259E-02  0.7027009E+03  0.7818609E-02  0.9712624E-01
       -1   -1    0    0    0  501  0.00000000000E+00  0.00000000000E+00  0.58971547746E+03  0.58971547749E+03  0.50400001928E-02 0.  1.
        1   -1    0    0  501    0  0.00000000000E+00  0.00000000000E+00 -0.20933338330E+03  0.20933338336E+03  0.50400001928E-02 0. -1.
    10030    2    1    2    0    0  0.00000000000E+00  0.00000000000E+00  0.38038209416E+03  0.79904886085E+03  0.70270089260E+03 0.  0.
        3    1    3    3  502    0  0.16824434745E+03 -0.21839355259E+03  0.43787568509E+03  0.51743311650E+03  0.10100000352E+00 0.  1.
       -3    1    3    3    0  502 -0.16824434745E+03  0.21839355259E+03 -0.57493590923E+02  0.28161574434E+03  0.10100000352E+00 0. -1.
</event>
<event>
 5   0  0.1909053E-02  0.6959612E+03  0.7818609E-02  0.9724164E-01
       -2   -1    0    0    0  501  0.00000000000E+00  0.00000000000E+00  0.12885532657E+03  0.12885532659E+03  0.25500000920E-02 0. -1.
        2   -1    0    0  501    0  0.00000000000E+00  0.00000000000E+00 -0.93974006966E+03  0.93974006966E+03  0.25500000920E-02 0.  1.
    10030    2    1    2    0    0  0.00000000000E+00  0.00000000000E+00 -0.81088474309E+03  0.10685953963E+04  0.69596124485E+03 0.  0.
        1    1    3    3  502    0 -0.32220501701E+03 -0.78236240304E+02 -0.56759889967E+03  0.65734731551E+03  0.50400001928E-02 0.  1.
       -1    1    3    3    0  502  0.32220501701E+03  0.78236240304E+02 -0.24328584342E+03  0.41124808075E+03  0.50400001928E-02 0. -1.
</event>
<event>
 5   0  0.1226303E-02  0.7005217E+03  0.7818609E-02  0.9716340E-01
       -1   -1    0    0    0  501  0.00000000000E+00  0.00000000000E+00  0.11542227293E+03  0.11542227304E+03  0.50400001928E-02 0.  1.
        1   -1    0    0  501    0  0.00000000000E+00  0.00000000000E+00 -0.10629028593E+04  0.10629028593E+04  0.50400001928E-02 0. -1.
    10030    2    1    2    0    0  0.00000000000E+00  0.00000000000E+00 -0.94748058633E+03  0.11783251323E+04  0.70052170271E+03 0.  0.
        4    1    3    3  502    0 -0.18398490775E+03  0.12060882946E+03 -0.15290772274E+02  0.22052745099E+03  0.12699999809E+01 0.  1.
       -4    1    3    3    0  502  0.18398490775E+03 -0.12060882946E+03 -0.93218981405E+03  0.95779768132E+03  0.12699999809E+01 0. -1.
</event>
<event>
 5   0  0.2026361E-02  0.6947916E+03  0.7818609E-02  0.9726181E-01
       -2   -1    0    0    0  501  0.00000000000E+00  0.00000000000E+00  0.27198726624E+03  0.27198726625E+03  0.25500000920E-02 0. -1.
        2   -1    0    0  501    0  0.00000000000E+00  0.00000000000E+00 -0.44371132343E+03  0.44371132344E+03  0.25500000920E-02 0.  1.
    10030    2    1    2    0    0  0.00000000000E+00  0.00000000000E+00 -0.17172405719E+03  0.71569858969E+03  0.69479156548E+03 0.  0.
        2    1    3    3  502    0 -0.70425134137E+02 -0.24089158811E+03 -0.33328847454E+03  0.41721656728E+03  0.25500000920E-02 0.  1.
       -2    1    3    3    0  502  0.70425134137E+02  0.24089158811E+03  0.16156441735E+03  0.29848202241E+03  0.25500000920E-02 0. -1.
</event>
<event>
 5   0  0.1197259E-02  0.6987177E+03  0.7818609E-02  0.9719428E-01
       -1   -1    0    0    0  501  0.00000000000E+00  0.00000000000E+00  0.16471121520E+03  0.16471121528E+03  0.50400001928E-02 0.  1.
        1   -1    0    0  501    0  0.00000000000E+00  0.00000000000E+00 -0.74100356294E+03  0.74100356296E+03  0.50400001928E-02 0. -1.
    10030    2    1    2    0    0  0.00000000000E+00  0.00000000000E+00 -0.57629234774E+03  0.90571477824E+03  0.69871767507E+03 0.  0.
        3    1    3    3  502    0  0.34596060265E+03 -0.19436142866E+02 -0.34589980174E+03  0.48960513200E+03  0.10100000352E+00 0.  1.
       -3    1    3    3    0  502 -0.34596060265E+03  0.19436142866E+02 -0.23039254600E+03  0.41610964623E+03  0.10100000352E+00 0. -1.
</event>
<event>
 5   0  0.1948138E-02  0.7021069E+03  0.7818609E-02  0.9713636E-01
        2   -1    0    0  501    0  0.00000000000E+00  0.00000000000E+00  0.19473269078E+03  0.19473269079E+03  0.25500000920E-02 0.  1.
       -2   -1    0    0    0  501  0.00000000000E+00  0.00000000000E+00 -0.63285996156E+03  0.63285996156E+03  0.25500000920E-02 0. -1.
    10030    2    1    2    0    0  0.00000000000E+00  0.00000000000E+00 -0.43812727078E+03  0.82759265236E+03  0.70210689559E+03 0.  0.
        3    1    3    3  502    0 -0.16421718498E+03  0.21357258784E+03 -0.48436367642E+03  0.55424607834E+03  0.10100000352E+00 0. -1.
       -3    1    3    3    0  502  0.16421718498E+03 -0.21357258784E+03  0.46236405637E+02  0.27334657402E+03  0.10100000352E+00 0.  1.
</event>
<event>
 5   0  0.1223742E-02  0.6988525E+03  0.7818609E-02  0.9719197E-01
        1   -1    0    0  501    0  0.00000000000E+00  0.00000000000E+00  0.74614625788E+03  0.74614625790E+03  0.50400001928E-02 0.  1.
       -1   -1    0    0    0  501  0.00000000000E+00  0.00000000000E+00 -0.16363908576E+03  0.16363908583E+03  0.50400001928E-02 0. -1.
    10030    2    1    2    0    0  0.00000000000E+00  0.00000000000E+00  0.58250717212E+03  0.90978534373E+03  0.69885246375E+03 0.  0.
        2    1    3    3  502    0  0.14513074061E+03 -0.27382955897E+03  0.81125837168E+02  0.32035442981E+03  0.25500000920E-02 0. -1.
       -2    1    3    3    0  502 -0.14513074061E+03  0.27382955897E+03  0.50138133495E+03  0.58943091392E+03  0.25500000920E-02 0.  1.
</event>
<event>
 5   0  0.2026361E-02  0.6994953E+03  0.7818609E-02  0.9718096E-01
        2   -1    0    0  501    0  0.00000000000E+00  0.00000000000E+00  0.60186658780E+03  0.60186658780E+03  0.25500000920E-02 0. -1.
       -2   -1    0    0    0  501  0.00000000000E+00  0.00000000000E+00 -0.20324006893E+03  0.20324006895E+03  0.25500000920E-02 0.  1.
    10030    2    1    2    0    0  0.00000000000E+00  0.00000000000E+00  0.39862651887E+03  0.80510665675E+03  0.69949526604E+03 0.  0.
        2    1    3    3  502    0  0.20769712270E+03 -0.12139649654E+03  0.49150910903E+03  0.54722610356E+03  0.25500000920E-02 0. -1.
       -2    1    3    3    0  502 -0.20769712270E+03  0.12139649654E+03 -0.92882590165E+02  0.25788055319E+03  0.25500000920E-02 0.  1.
</event>
<event>
 5   0  0.1909053E-02  0.6962200E+03  0.7818609E-02  0.9723718E-01
        2   -1    0    0  501    0  0.00000000000E+00  0.00000000000E+00  0.66676452318E+03  0.66676452319E+03  0.25500000920E-02 0.  1.
       -2   -1    0    0    0  501  0.00000000000E+00  0.00000000000E+00 -0.18174418979E+03  0.18174418981E+03  0.25500000920E-02 0. -1.
    10030    2    1    2    0    0  0.00000000000E+00  0.00000000000E+00  0.48502033339E+03  0.84850871300E+03  0.69622001711E+03 0.  0.
        1    1    3    3  502    0  0.26208577305E+03  0.92679126951E+02  0.49787022421E+03  0.57022200342E+03  0.50400001928E-02 0. -1.
       -1    1    3    3    0  502 -0.26208577305E+03 -0.92679126951E+02 -0.12849890821E+02  0.27828670957E+03  0.50400001928E-02 0.  1.
</event>
<event>
 5   0  0.1257442E-02  0.7046426E+03  0.7818609E-02  0.9709326E-01
        1   -1    0    0  501    0  0.00000000000E+00  0.00000000000E+00  0.33529452791E+03  0.33529452794E+03  0.50400001928E-02 0.  1.
       -1   -1    0    0    0  501  0.00000000000E+00  0.00000000000E+00 -0.37021268925E+03  0.37021268928E+03  0.50400001928E-02 0. -1.
    10030    2    1    2    0    0  0.00000000000E+00  0.00000000000E+00 -0.34918161342E+02  0.70550721723E+03  0.70464257292E+03 0.  0.
        1    1    3    3  502    0  0.93896597423E+02  0.27317919521E+03 -0.21941639663E+03  0.36274922307E+03  0.50400001928E-02 0. -1.
       -1    1    3    3    0  502 -0.93896597423E+02 -0.27317919521E+03  0.18449823529E+03  0.34275799415E+03  0.50400001928E-02 0.  1.
</event>
<event>
 5   0  0.1223742E-02  0.6981777E+03  0.7818609E-02  0.9720354E-01
        1   -1    0    0  501    0  0.00000000000E+00  0.00000000000E+00  0.10244408145E+03  0.10244408157E+03  0.50400001928E-02 0. -1.
       -1   -1    0    0    0  501  0.00000000000E+00  0.00000000000E+00 -0.11895564903E+04  0.11895564903E+04  0.50400001928E-02 0.  1.
    10030    2    1    2    0    0  0.00000000000E+00  0.00000000000E+00 -0.10871124088E+04  0.12920005719E+04  0.69817769105E+03 0.  0.
        2    1    3    3  502    0  0.31747313240E+03  0.10103795106E+03 -0.73644850616E+03  0.80830332152E+03  0.25500000920E-02 0.  1.
       -2    1    3    3    0  502 -0.31747313240E+03 -0.10103795106E+03 -0.35066390268E+03  0.48369725036E+03  0.25500000920E-02 0. -1.
</event>
<event>
 5   0  0.2026361E-02  0.6519317E+03  0.7818609E-02  0.9803161E-01
       -2   -1    0    0    0  501  0.00000000000E+00  0.00000000000E+00  0.35256669963E+03  0.35256669963E+03  0.25500000920E-02 0.  1.
        2   -1    0    0  501    0  0.00000000000E+00  0.00000000000E+00 -0.30137199322E+03  0.30137199323E+03  0.25500000920E-02 0. -1.
    10030    2    1    2    0    0  0.00000000000E+00  0.00000000000E+00  0.51194706402E+02  0.65393869287E+03  0.65193168052E+03 0.  0.
        2    1    3    3  502    0 -0.60972920711E+02 -0.48977580740E+01  0.34675805273E+03  0.35211195980E+03  0.25500000920E-02 0.  1.
       -2    1    3    3    0  502  0.60972920711E+02  0.48977580740E+01 -0.29556334633E+03  0.30182673307E+03  0.25500000920E-02 0. -1.
</event>
<event>
 5   0  0.2006362E-02  0.7055723E+03  0.7818609E-02  0.9707750E-01
       -2   -1    0    0    0  501  0.00000000000E+00  0.00000000000E+00  0.71945602299E+02  0.71945602344E+02  0.25500000920E-02 0.  1.
        2   -1    0    0  501    0  0.00000000000E+00  0.00000000000E+00 -0.17298913194E+04  0.17298913194E+04  0.25500000920E-02 0. -1.
    10030    2    1    2    0    0  0.00000000000E+00  0.00000000000E+00 -0.16579457171E+04  0.18018369218E+04  0.70557231502E+03 0.  0.
        4    1    3    3  502    0  0.85047760106E+02 -0.26114080087E+03 -0.26351574301E+03  0.38061765473E+03  0.12699999809E+01 0.  1.
       -4    1    3    3    0  502 -0.85047760106E+02  0.26114080087E+03 -0.13944299741E+04  0.14212192670E+04  0.12699999809E+01 0. -1.
</event>
<event>
 5   0  0.1948138E-02  0.7010102E+03  0.7818609E-02  0.9715506E-01
       -2   -1    0    0    0  501  0.00000000000E+00  0.00000000000E+00  0.69490391701E+02  0.69490391748E+02  0.25500000920E-02 0.  1.
        2   -1    0    0  501    0  0.00000000000E+00  0.00000000000E+00 -0.17679254628E+04  0.17679254628E+04  0.25500000920E-02 0. -1.
    10030    2    1    2    0    0  0.00000000000E+00  0.00000000000E+00 -0.16984350711E+04  0.18374158545E+04  0.70101022233E+03 0.  0.
        3    1    3    3  502    0 -0.17067728246E+03 -0.15088655030E+03 -0.15474156990E+04  0.15640948953E+04  0.10100000352E+00 0. -1.
       -3    1    3    3    0  502  0.17067728246E+03  0.15088655030E+03 -0.15101937209E+03  0.27332095923E+03  0.10100000352E+00 0.  1.
</event>
<event>
 5   0  0.1973067E-02  0.7043331E+03  0.7818609E-02  0.9709851E-01
        2   -1    0    0  501    0  0.00000000000E+00  0.00000000000E+00  0.90566561380E+03  0.90566561381E+03  0.25500000920E-02 0. -1.
       -2   -1    0    0    0  501  0.00000000000E+00  0.00000000000E+00 -0.13693937880E+03  0.13693937882E+03  0.25500000920E-02 0.  1.
    10030    2    1    2    0    0  0.00000000000E+00  0.00000000000E+00  0.76872623500E+03  0.10426049926E+04  0.70433312167E+03 0.  0.
        5    1    3    3  502    0  0.19303512107E+03  0.29304068637E+03  0.42786889802E+03  0.55337987471E+03  0.46999998093E+01 0.  1.
       -5    1    3    3    0  502 -0.19303512107E+03 -0.29304068637E+03  0.34085733698E+03  0.48922511792E+03  0.46999998093E+01 0. -1.
</event>
<event>
 5   0  0.1226303E-02  0.6936177E+03  0.7818609E-02  0.9728209E-01
       -1   -1    0    0    0  501  0.00000000000E+00  0.00000000000E+00  0.62064433430E+03  0.62064433432E+03  0.50400001928E-02 0.  1.
        1   -1    0    0  501    0  0.00000000000E+00  0.00000000000E+00 -0.19379277851E+03  0.19379277857E+03  0.50400001928E-02 0. -1.
    10030    2    1    2    0    0  0.00000000000E+00  0.00000000000E+00  0.42685155579E+03  0.81443711290E+03  0.69361773347E+03 0.  0.
        4    1    3    3  502    0  0.32709736978E+03  0.76044497892E+02  0.11174277267E+03  0.35392586105E+03  0.12699999809E+01 0.  1.
       -4    1    3    3    0  502 -0.32709736978E+03 -0.76044497892E+02  0.31510878312E+03  0.46051125185E+03  0.12699999809E+01 0. -1.
</event>
<event>
 5   0  0.1197259E-02  0.7020745E+03  0.7818609E-02  0.9713691E-01
        1   -1    0    0  501    0  0.00000000000E+00  0.00000000000E+00  0.89372069908E+03  0.89372069909E+03  0.50400001928E-02 0.  1.
       -1   -1    0    0    0  501  0.00000000000E+00  0.00000000000E+00 -0.13788104701E+03  0.13788104710E+03  0.50400001928E-02 0. -1.
    10030    2    1    2    0    0  0.00000000000E+00  0.00000000000E+00  0.75583965207E+03  0.10316017462E+04  0.70207448544E+03 0.  0.
        3    1    3    3  502    0 -0.33140982177E+02  0.12974543551E+03  0.85471583802E+03  0.86514240256E+03  0.10100000352E+00 0.  1.
       -3    1    3    3    0  502  0.33140982177E+02 -0.12974543551E+03 -0.98876185948E+02  0.16645934364E+03  0.10100000352E+00 0. -1.
</event>
<event>
 5   0  0.1226303E-02  0.7099822E+03  0.7818609E-02  0.9700312E-01
        1   -1    0    0  501    0  0.00000000000E+00  0.00000000000E+00  0.61841484720E+03  0.61841484722E+03  0.50400001928E-02 0.  1.
       -1   -1    0    0    0  501  0.00000000000E+00  0.00000000000E+00 -0.20377692365E+03  0.20377692371E+03  0.50400001928E-02 0. -1.
    10030    2    1    2    0    0  0.00000000000E+00  0.00000000000E+00  0.41463792354E+03  0.82219177093E+03  0.70998218326E+03 0.  0.
        4    1    3    3  502    0  0.14865432717E+03  0.79390573969E+02 -0.15449588134E+03  0.22862974975E+03  0.12699999809E+01 0. -1.
       -4    1    3    3    0  502 -0.14865432717E+03 -0.79390573969E+02  0.56913380488E+03  0.59356202118E+03  0.12699999809E+01 0.  1.
</event>
<event>
 5   0  0.2006362E-02  0.6910887E+03  0.7818609E-02  0.9732594E-01
       -2   -1    0    0    0  501  0.00000000000E+00  0.00000000000E+00  0.25368967081E+03  0.25368967082E+03  0.25500000920E-02 0.  1.
        2   -1    0    0  501    0  0.00000000000E+00  0.00000000000E+00 -0.47065725341E+03  0.47065725342E+03  0.25500000920E-02 0. -1.
    10030    2    1    2    0    0  0.00000000000E+00  0.00000000000E+00 -0.21696758260E+03  0.72434692424E+03  0.69108865912E+03 0.  0.
        4    1    3    3  502    0  0.10559779656E+03 -0.32445530551E+03 -0.51294881514E+02  0.34504335624E+03  0.12699999809E+01 0.  1.
       -4    1    3    3    0  502 -0.10559779656E+03  0.32445530551E+03 -0.16567270108E+03  0.37930356800E+03  0.12699999809E+01 0. -1.
</event>
<event>
 5   0  0.2006362E-02  0.7045804E+03  0.7818609E-02  0.9709431E-01
       -2   -1    0    0    0  501  0.00000000000E+00  0.00000000000E+00  0.19929652776E+03  0.19929652778E+03  0.25500000920E-02 0.  1.
        2   -1    0    0  501    0  0.00000000000E+00  0.00000000000E+00 -0.62273238445E+03  0.62273238446E+03  0.25500000920E-02 0. -1.
    10030    2    1    2    0    0  0.00000000000E+00  0.00000000000E+00 -0.42343585669E+03  0.82202891224E+03  0.70458044809E+03 0.  0.
        4    1    3    3  502    0  0.22362946492E+03 -0.45233669959E+02 -0.52488436115E+03  0.57232982446E+03  0.12699999809E+01 0. -1.
       -4    1    3    3    0  502 -0.22362946492E+03  0.45233669959E+02  0.10144850447E+03  0.24969908778E+03  0.12699999809E+01 0.  1.
</event>
<event>
 5   0  0.1237686E-02  0.7025994E+03  0.7818609E-02  0.9712797E-01
       -1   -1    0    0    0  501  0.00000000000E+00  0.00000000000E+00  0.19955779725E+03  0.19955779732E+03  0.50400001928E-02 0.  1.
        1   -1    0    0  501    0  0.00000000000E+00  0.00000000000E+00 -0.61842477578E+03  0.61842477580E+03  0.50400001928E-02 0. -1.
    10030    2    1    2    0    0  0.00000000000E+00  0.00000000000E+00 -0.41886697853E+03  0.81798257312E+03  0.70259941946E+03 0.  0.
        5    1    3    3  502    0  0.11799911626E+03  0.88458669322E+02  0.16173407842E+03  0.21892631120E+03  0.46999998093E+01 0.  1.
       -5    1    3    3    0  502 -0.11799911626E+03 -0.88458669322E+02 -0.58060105695E+03  0.59905626192E+03  0.46999998093E+01 0. -1.
</event>
<event>
 5   0  0.2026361E-02  0.6968740E+03  0.7818609E-02  0.9722593E-01
        2   -1    0    0  501    0  0.00000000000E+00  0.00000000000E+00  0.47683759576E+03  0.47683759577E+03  0.25500000920E-02 0. -1.
       -2   -1    0    0    0  501  0.00000000000E+00  0.00000000000E+00 -0.25461150324E+03  0.25461150326E+03  0.25500000920E-02 0.  1.
    10030    2    1    2    0    0  0.00000000000E+00  0.00000000000E+00  0.22222609252E+03  0.73144909903E+03  0.69687398306E+03 0.  0.
        2    1    3    3  502    0  0.13301044762E+02  0.13860645149E+03 -0.22413929340E+03  0.26386945454E+03  0.25500000920E-02 0.  1.
       -2    1    3    3    0  502 -0.13301044762E+02 -0.13860645149E+03  0.44636538592E+03  0.46757964449E+03  0.25500000920E-02 0. -1.
</event>
<event>
 5   0  0.1223742E-02  0.7103936E+03  0.7818609E-02  0.9699621E-01
       -1   -1    0    0    0  501  0.00000000000E+00  0.00000000000E+00  0.15373865723E+03  0.15373865731E+03  0.50400001928E-02 0. -1.
        1   -1    0    0  501    0  0.00000000000E+00  0.00000000000E+00 -0.82064440433E+03  0.82064440434E+03  0.50400001928E-02 0.  1.
    10030    2    1    2    0    0  0.00000000000E+00  0.00000000000E+00 -0.66690574710E+03  0.97438306166E+03  0.71039360592E+03 0.  0.
        2    1    3    3  502    0 -0.18688847165E+03 -0.29925073822E+03 -0.38978020494E+03  0.52574415197E+03  0.25500000920E-02 0.  1.
       -2    1    3    3    0  502  0.18688847165E+03  0.29925073822E+03 -0.27712554216E+03  0.44863890969E+03  0.25500000920E-02 0. -1.
</event>
<event>
 5   0  0.1197259E-02  0.6972969E+03  0.7818609E-02  0.9721866E-01
       -1   -1    0    0    0  501  0.00000000000E+00  0.00000000000E+00  0.61425539829E+02  0.61425540036E+02  0.50400001928E-02 0. -1.
        1   -1    0    0  501    0  0.00000000000E+00  0.00000000000E+00 -0.19789120567E+04  0.19789120567E+04  0.50400001928E-02 0.  1.
    10030    2    1    2    0    0  0.00000000000E+00  0.00000000000E+00 -0.19174865169E+04  0.20403375967E+04  0.69729689967E+03 0.  0.
        3    1    3    3  502    0 -0.61640528893E+02  0.20764216989E+03 -0.15932741951E+03  0.26888670909E+03  0.10100000352E+00 0. -1.
       -3    1    3    3    0  502  0.61640528893E+02 -0.20764216989E+03 -0.17581590973E+04  0.17714508876E+04  0.10100000352E+00 0.  1.
</event>
<event>
 5   0  0.1973067E-02  0.6979166E+03  0.7818609E-02  0.9720802E-01
        2   -1    0    0  501    0  0.00000000000E+00  0.00000000000E+00  0.38934546679E+03  0.38934546680E+03  0.25500000920E-02 0.  1.
       -2   -1    0    0    0  501  0.00000000000E+00  0.00000000000E+00 -0.31276053030E+03  0.31276053031E+03  0.25500000920E-02 0. -1.
    10030    2    1    2    0    0  0.00000000000E+00  0.00000000000E+00  0.76584936487E+02  0.70210599711E+03  0.69791659866E+03 0.  0.
        5    1    3    3  502    0 -0.99059495247E+02 -0.16104947916E+03 -0.25672558909E+03  0.31887275900E+03  0.46999998093E+01 0. -1.
       -5    1    3    3    0  502  0.99059495247E+02  0.16104947916E+03  0.33331052558E+03  0.38323323812E+03  0.46999998093E+01 0.  1.
</event>
<event>
 5   0  0.1909053E-02  0.7000227E+03  0.7818609E-02  0.9717193E-01
       -2   -1    0    0    0  501  0.00000000000E+00  0.00000000000E+00  0.29556710596E+03  0.29556710597E+03  0.25500000920E-02 0.  1.
        2   -1    0    0  501    0  0.00000000000E+00  0.00000000000E+00 -0.41448441677E+03  0.41448441678E+03  0.25500000920E-02 0. -1.
    10030    2    1    2    0    0  0.00000000000E+00  0.00000000000E+00 -0.11891731081E+03  0.71005152276E+03  0.70002274117E+03 0.  0.
        1    1    3    3  502    0  0.24548607710E+02  0.34850219110E+03 -0.37904562018E+02  0.35141594612E+03  0.50400001928E-02 0.  1.
       -1    1    3    3    0  502 -0.24548607710E+02 -0.34850219110E+03 -0.81012748793E+02  0.35863557664E+03  0.50400001928E-02 0. -1.
</event>
<event>
 5   0  0.1226303E-02  0.7011219E+03  0.7818609E-02  0.9715316E-01
        1   -1    0    0  501    0  0.00000000000E+00  0.00000000000E+00  0.18492381451E+03  0.18492381458E+03  0.50400001928E-02 0. -1.
       -1   -1    0    0    0  501  0.00000000000E+00  0.00000000000E+00 -0.66455997769E+03  0.66455997771E+03  0.50400001928E-02 0.  1.
    10030    2    1    2    0    0  0.00000000000E+00  0.00000000000E+00 -0.47963616319E+03  0.84948379229E+03  0.70112186125E+03 0.  0.
        4    1    3    3  502    0  0.54867566166E+02  0.34440681475E+03 -0.19672763608E+03  0.40041213712E+03  0.12699999809E+01 0. -1.
       -4    1    3    3    0  502 -0.54867566166E+02 -0.34440681475E+03 -0.28290852711E+03  0.44907165516E+03  0.12699999809E+01 0.  1.
</event>
<event>
 5   0  0.1223742E-02  0.6978681E+03  0.7818609E-02  0.9720885E-01
       -1   -1    0    0    0  501  0.00000000000E+00  0.00000000000E+00  0.47544458876E+03  0.47544458879E+03  0.50400001928E-02 0. -1.
        1   -1    0    0  501    0  0.00000000000E+00  0.00000000000E+00 -0.25608656811E+03  0.25608656816E+03  0.50400001928E-02 0.  1.
    10030    2    1    2    0    0  0.00000000000E+00  0.00000000000E+00  0.21935802065E+03  0.73153115694E+03  0.69786810527E+03 0.  0.
        2    1    3    3  502    0 -0.17736986081E+03  0.11531938264E+03 -0.18118804506E+03  0.27854575067E+03  0.25500000920E-02 0.  1.
       -2    1    3    3    0  502  0.17736986081E+03 -0.11531938264E+03  0.40054606571E+03  0.45298540628E+03  0.25500000920E-02 0. -1.
</event>
<event>
 5   0  0.1197259E-02  0.7023960E+03  0.7818609E-02  0.9713144E-01
       -1   -1    0    0    0  501  0.00000000000E+00  0.00000000000E+00  0.56409166919E+03  0.56409166922E+03  0.50400001928E-02 0. -1.
        1   -1    0    0  501    0  0.00000000000E+00  0.00000000000E+00 -0.21865244160E+03  0.21865244166E+03  0.50400001928E-02 0.  1.
    10030    2    1    2    0    0  0.00000000000E+00  0.00000000000E+00  0.34543922759E+03  0.78274411088E+03  0.70239595896E+03 0.  0.
        3    1    3    3  502    0 -0.11356899283E+03 -0.28959687134E+03 -0.89492672696E+01  0.31119827057E+03  0.10100000352E+00 0.  1.
       -3    1    3    3    0  502  0.11356899283E+03  0.28959687134E+03  0.35438849486E+03  0.47154584031E+03  0.10100000352E+00 0. -1.
</event>
<event>
 5   0  0.2006362E-02  0.6971455E+03  0.7818609E-02  0.9722126E-01
       -2   -1    0    0    0  501  0.00000000000E+00  0.00000000000E+00  0.13747977236E+03  0.13747977239E+03  0.25500000920E-02 0.  1.
        2   -1    0    0  501    0  0.00000000000E+00  0.00000000000E+00 -0.88378797854E+03  0.88378797854E+03  0.25500000920E-02 0. -1.
    10030    2    1    2    0    0  0.00000000000E+00  0.00000000000E+00 -0.74630820618E+03  0.10212677509E+04  0.69714552317E+03 0.  0.
        4    1    3    3  502    0 -0.26717897068E+03  0.98718960427E+01 -0.45523106815E+02  0.27121213626E+03  0.12699999809E+01 0.  1.
       -4    1    3    3    0  502  0.26717897068E+03 -0.98718960427E+01 -0.70078509936E+03  0.75005561466E+03  0.12699999809E+01 0. -1.
</event>
<event>
 5   0  0.1237686E-02  0.6987866E+03  0.7818609E-02  0.9719310E-01
       -1   -1    0    0    0  501  0.00000000000E+00  0.00000000000E+00  0.12180421956E+03  0.12180421966E+03  0.50400001928E-02 0.  1.
        1   -1    0    0  501    0  0.00000000000E+00  0.00000000000E+00 -0.10022286512E+04  0.10022286513E+04  0.50400001928E-02 0. -1.
    10030    2    1    2    0    0  0.00000000000E+00  0.00000000000E+00 -0.88042443168E+03  0.11240328709E+04  0.69878660190E+03 0.  0.
        5    1    3    3  502    0  0.18646607878E+03 -0.12192751110E+03 -0.73429786486E+01  0.22296171383E+03  0.46999998093E+01 0.  1.
       -5    1    3    3    0  502 -0.18646607878E+03  0.12192751110E+03 -0.87308145304E+03  0.90107115709E+03  0.46999998093E+01 0. -1.
</event>
<event>
 5   0  0.1948138E-02  0.7014189E+03  0.7818609E-02  0.9714809E-01
        2   -1    0    0  501    0  0.00000000000E+00  0.00000000000E+00  0.16079727818E+03  0.16079727820E+03  0.25500000920E-02 0. -1.
       -2   -1    0    0    0  501  0.00000000000E+00  0.00000000000E+00 -0.76492047350E+03  0.76492047350E+03  0.25500000920E-02 0.  1.
    10030    2    1    2    0    0  0.00000000000E+00  0.00000000000E+00 -0.60412319532E+03  0.92571775170E+03  0.70141893380E+03 0.  0.
        3    1    3    3  502    0  0.13033115241E+03 -0.32180309265E+03 -0.23668684026E+03  0.42019532397E+03  0.10100000352E+00 0. -1.
       -3    1    3    3    0  502 -0.13033115241E+03  0.32180309265E+03 -0.36743635506E+03  0.50552242774E+03  0.10100000352E+00 0.  1.
</event>
<event>
 5   0  0.1948138E-02  0.6989019E+03  0.7818609E-02  0.9719112E-01
        2   -1    0    0  501    0  0.00000000000E+00  0.00000000000E+00  0.18287832959E+04  0.18287832959E+04  0.25500000920E-02 0. -1.
       -2   -1    0    0    0  501  0.00000000000E+00  0.00000000000E+00 -0.66774424474E+02  0.66774424522E+02  0.25500000920E-02 0.  1.
    10030    2    1    2    0    0  0.00000000000E+00  0.00000000000E+00  0.17620088715E+04  0.18955577205E+04  0.69890185898E+03 0.  0.
        3    1    3    3  502    0  0.15669549093E+03  0.30100604398E+03  0.65477057019E+03  0.73748398300E+03  0.10100000352E+00 0.  1.
       -3    1    3    3    0  502 -0.15669549093E+03 -0.30100604398E+03  0.11072383013E+04  0.11580737375E+04  0.10100000352E+00 0. -1.
</event>
<event>
 5   0  0.1237686E-02  0.7437008E+03  0.7818609E-02  0.9645285E-01
       -1   -1    0    0    0  501  0.00000000000E+00  0.00000000000E+00  0.62400560858E+03  0.62400560860E+03  0.50400001928E-02 0.  1.
        1   -1    0    0  501    0  0.00000000000E+00  0.00000000000E+00 -0.22158889131E+03  0.22158889137E+03  0.50400001928E-02 0. -1.
    10030    2    1    2    0    0  0.00000000000E+00  0.00000000000E+00  0.40241671727E+03  0.84559449996E+03  0.74370077587E+03 0.  0.
        5    1    3    3  502    0  0.18777127157E+03 -0.20612002202E+03 -0.78475311286E+02  0.28969635549E+03  0.46999998093E+01 0. -1.
       -5    1    3    3    0  502 -0.18777127157E+03  0.20612002202E+03  0.48089202855E+03  0.55589814447E+03  0.46999998093E+01 0.  1.
</event>
<event>
 5   0  0.7947250E-03  0.7549131E+03  0.7818609E-02  0.9627674E-01
        3   -1    0    0  501    0  0.00000000000E+00  0.00000000000E+00  0.20018803049E+03  0.20018805596E+03  0.10100000352E+00 0. -1.
       -3   -1    0    0    0  501  0.00000000000E+00  0.00000000000E+00 -0.71169804307E+03  0.71169805024E+03  0.10100000352E+00 0.  1.
    10030    2    1    2    0    0  0.00000000000E+00  0.00000000000E+00 -0.51151001259E+03  0.91188610620E+03  0.75491309282E+03 0.  0.
        5    1    3    3  502    0 -0.16674074369E+03  0.13445201207E+03 -0.63113248155E+03  0.66650590277E+03  0.46999998093E+01 0.  1.
       -5    1    3    3    0  502  0.16674074369E+03 -0.13445201207E+03  0.11962246897E+03  0.24538020343E+03  0.46999998093E+01 0. -1.
</event>
<event>
 5   0  0.7947250E-03  0.7098971E+03  0.7818609E-02  0.9700455E-01
        3   -1    0    0  501    0  0.00000000000E+00  0.00000000000E+00  0.53881845999E+03  0.53881846946E+03  0.10100000352E+00 0.  1.
       -3   -1    0    0    0  501  0.00000000000E+00  0.00000000000E+00 -0.23382359197E+03  0.23382361379E+03  0.10100000352E+00 0. -1.
    10030    2    1    2    0    0  0.00000000000E+00  0.00000000000E+00  0.30499486802E+03  0.77264208325E+03  0.70989711880E+03 0.  0.
        3    1    3    3  502    0  0.16305456094E+03 -0.89008881433E+02 -0.17669048179E+03  0.25637649536E+03  0.10100000352E+00 0. -1.
       -3    1    3    3    0  502 -0.16305456094E+03  0.89008881433E+02  0.48168534981E+03  0.51626558789E+03  0.10100000352E+00 0.  1.
</event>
<event>
 5   0  0.1237686E-02  0.6975778E+03  0.7818609E-02  0.9721383E-01
        1   -1    0    0  501    0  0.00000000000E+00  0.00000000000E+00  0.54707302070E+03  0.54707302072E+03  0.50400001928E-02 0.  1.
       -1   -1    0    0    0  501  0.00000000000E+00  0.00000000000E+00 -0.22237197354E+03  0.22237197359E+03  0.50400001928E-02 0. -1.
    10030    2    1    2    0    0  0.00000000000E+00  0.00000000000E+00  0.32470104716E+03  0.76944499431E+03  0.69757783024E+03 0.  0.
        5    1    3    3  502    0 -0.27655578658E+03 -0.29287068611E+00 -0.72021747145E+02  0.28581884284E+03  0.46999998093E+01 0. -1.
       -5    1    3    3    0  502  0.27655578658E+03  0.29287068611E+00  0.39672279430E+03  0.48362615147E+03  0.46999998093E+01 0.  1.
</event>
<event>
 5   0  0.1948138E-02  0.7056598E+03  0.7818609E-02  0.9707602E-01
        2   -1    0    0  501    0  0.00000000000E+00  0.00000000000E+00  0.41188271220E+03  0.41188271221E+03  0.25500000920E-02 0. -1.
       -2   -1    0    0    0  501  0.00000000000E+00  0.00000000000E+00 -0.30224367700E+03  0.30224367701E+03  0.25500000920E-02 0.  1.
    10030    2    1    2    0    0  0.00000000000E+00  0.00000000000E+00  0.10963903520E+03  0.71412638922E+03  0.70565982013E+03 0.  0.
        3    1    3    3  502    0 -0.15552325756E+03 -0.26450600965E+03 -0.12144842136E+03  0.33000097278E+03  0.10100000352E+00 0.  1.
       -3    1    3    3    0  502  0.15552325756E+03  0.26450600965E+03  0.23108745656E+03  0.38412541645E+03  0.10100000352E+00 0. -1.
</event>
<event>
 5   0  0.7947250E-03  0.7594203E+03  0.7818609E-02  0.9620686E-01
       -3   -1    0    0    0  501  0.00000000000E+00  0.00000000000E+00  0.97310752129E+03  0.97310752653E+03  0.10100000352E+00 0.  1.
        3   -1    0    0  501    0  0.00000000000E+00  0.00000000000E+00 -0.14816428236E+03  0.14816431678E+03  0.10100000352E+00 0. -1.
    10030    2    1    2    0    0  0.00000000000E+00  0.00000000000E+00  0.82494323894E+03  0.11212718433E+04  0.75942030467E+03 0.  0.
        2    1    3    3  502    0 -0.96140294853E+02  0.34335835728E+03  0.60521855786E+03  0.70244389142E+03  0.25500000920E-02 0.  1.
       -2    1    3    3    0  502  0.96140294853E+02 -0.34335835728E+03  0.21972468108E+03  0.41882795190E+03  0.25500000920E-02 0. -1.
</event>
<event>
 5   0  0.2026361E-02  0.6967278E+03  0.7818609E-02  0.9722845E-01
        2   -1    0    0  501    0  0.00000000000E+00  0.00000000000E+00  0.16279439915E+04  0.16279439915E+04  0.25500000920E-02 0. -1.
       -2   -1    0    0    0  501  0.00000000000E+00  0.00000000000E+00 -0.74546416682E+02  0.74546416725E+02  0.25500000920E-02 0.  1.
    10030    2    1    2    0    0  0.00000000000E+00  0.00000000000E+00  0.15533975748E+04  0.17024904082E+04  0.69672775505E+03 0.  0.
        2    1    3    3  502    0  0.19536488808E+03 -0.24167206282E+03  0.11613899584E+04  0.12022476704E+04  0.25500000920E-02 0. -1.
       -2    1    3    3    0  502 -0.19536488808E+03  0.24167206282E+03  0.39200761642E+03  0.50024273786E+03  0.25500000920E-02 0.  1.
</event>
<event>
 5   0  0.1909053E-02  0.7024920E+03  0.7818609E-02  0.9712980E-01
       -2   -1    0    0    0  501  0.00000000000E+00  0.00000000000E+00  0.36022979474E+03  0.36022979475E+03  0.25500000920E-02 0. -1.
        2   -1    0    0  501    0  0.00000000000E+00  0.00000000000E+00 -0.34248629172E+03  0.34248629173E+03  0.25500000920E-02 0.  1.
    10030    2    1    2    0    0  0.00000000000E+00  0.00000000000E+00  0.17743503020E+02  0.70271608648E+03  0.70249204003E+03 0.  0.
        1    1    3    3  502    0  0.25642772744E+02 -0.17850940788E+03 -0.29263872167E+03  0.34374493733E+03  0.50400001928E-02 0.  1.
       -1    1    3    3    0  502 -0.25642772744E+02  0.17850940788E+03  0.31038222469E+03  0.35897114915E+03  0.50400001928E-02 0. -1.
</event>
<event>
 5   0  0.1257442E-02  0.7047767E+03  0.7818609E-02  0.9709098E-01
       -1   -1    0    0    0  501  0.00000000000E+00  0.00000000000E+00  0.33028384672E+03  0.33028384675E+03  0.50400001928E-02 0.  1.
        1   -1    0    0  501    0  0.00000000000E+00  0.00000000000E+00 -0.37597216806E+03  0.37597216810E+03  0.50400001928E-02 0. -1.
    10030    2    1    2    0    0  0.00000000000E+00  0.00000000000E+00 -0.45688321346E+02  0.70625601485E+03  0.70477665668E+03 0.  0.
        1    1    3    3  502    0 -0.19281408034E+03 -0.18374682581E+03 -0.25406072197E+03  0.36808560967E+03  0.50400001928E-02 0. -1.
       -1    1    3    3    0  502  0.19281408034E+03  0.18374682581E+03  0.20837240062E+03  0.33817040518E+03  0.50400001928E-02 0.  1.
</event>
<event>
 5   0  0.2006362E-02  0.7103423E+03  0.7818609E-02  0.9699707E-01
       -2   -1    0    0    0  501  0.00000000000E+00  0.00000000000E+00  0.25729009591E+03  0.25729009592E+03  0.25500000920E-02 0.  1.
        2   -1    0    0  501    0  0.00000000000E+00  0.00000000000E+00 -0.49028916836E+03  0.49028916836E+03  0.25500000920E-02 0. -1.
    10030    2    1    2    0    0  0.00000000000E+00  0.00000000000E+00 -0.23299907245E+03  0.74757926428E+03  0.71034230384E+03 0.  0.
        4    1    3    3  502    0  0.28808338307E+03 -0.80262787007E+02  0.85144970418E+02  0.31094280739E+03  0.12699999809E+01 0.  1.
       -4    1    3    3    0  502 -0.28808338307E+03  0.80262787007E+02 -0.31814404286E+03  0.43663645689E+03  0.12699999809E+01 0. -1.
</event>
<event>
 5   0  0.2006362E-02  0.6995910E+03  0.7818609E-02  0.9717932E-01
        2   -1    0    0  501    0  0.00000000000E+00  0.00000000000E+00  0.17241933175E+04  0.17241933175E+04  0.25500000920E-02 0. -1.
       -2   -1    0    0    0  501  0.00000000000E+00  0.00000000000E+00 -0.70964720477E+02  0.70964720523E+02  0.25500000920E-02 0.  1.
    10030    2    1    2    0    0  0.00000000000E+00  0.00000000000E+00  0.16532285970E+04  0.17951580380E+04  0.69959101442E+03 0.  0.
        4    1    3    3  502    0 -0.72468619604E+01  0.16255568245E+03  0.32068577876E+02  0.16585196258E+03  0.12699999809E+01 0.  1.
       -4    1    3    3    0  502  0.72468619604E+01 -0.16255568245E+03  0.16211600191E+04  0.16293060754E+04  0.12699999809E+01 0. -1.
</event>
<event>
 5   0  0.1948138E-02  0.7066439E+03  0.7818609E-02  0.9705937E-01
       -2   -1    0    0    0  501  0.00000000000E+00  0.00000000000E+00  0.16339619710E+03  0.16339619712E+03  0.25500000920E-02 0.  1.
        2   -1    0    0  501    0  0.00000000000E+00  0.00000000000E+00 -0.76401033558E+03  0.76401033558E+03  0.25500000920E-02 0. -1.
    10030    2    1    2    0    0  0.00000000000E+00  0.00000000000E+00 -0.60061413848E+03  0.92740653270E+03  0.70664385199E+03 0.  0.
        3    1    3    3  502    0 -0.91317384254E+02 -0.23232908680E+03  0.27849796910E+02  0.25117979741E+03  0.10100000352E+00 0.  1.
       -3    1    3    3    0  502  0.91317384254E+02  0.23232908680E+03 -0.62846393539E+03  0.67622673529E+03  0.10100000352E+00 0. -1.
</event>
<event>
 5   0  0.1226303E-02  0.7014046E+03  0.7818609E-02  0.9714833E-01
       -1   -1    0    0    0  501  0.00000000000E+00  0.00000000000E+00  0.21188870683E+03  0.21188870689E+03  0.50400001928E-02 0. -1.
        1   -1    0    0  501    0  0.00000000000E+00  0.00000000000E+00 -0.58045621106E+03  0.58045621109E+03  0.50400001928E-02 0.  1.
    10030    2    1    2    0    0  0.00000000000E+00  0.00000000000E+00 -0.36856750423E+03  0.79234491798E+03  0.70140463633E+03 0.  0.
        4    1    3    3  502    0  0.34763066397E+03 -0.45547677360E+02 -0.19365604740E+03  0.40053207991E+03  0.12699999809E+01 0. -1.
       -4    1    3    3    0  502 -0.34763066397E+03  0.45547677360E+02 -0.17491145684E+03  0.39181283807E+03  0.12699999809E+01 0.  1.
</event>
<event>
 5   0  0.1223742E-02  0.6934711E+03  0.7818609E-02  0.9728463E-01
       -1   -1    0    0    0  501  0.00000000000E+00  0.00000000000E+00  0.16321562448E+03  0.16321562456E+03  0.50400001928E-02 0. -1.
        1   -1    0    0  501    0  0.00000000000E+00  0.00000000000E+00 -0.73660567701E+03  0.73660567702E+03  0.50400001928E-02 0.  1.
    10030    2    1    2    0    0  0.00000000000E+00  0.00000000000E+00 -0.57339005252E+03  0.89982130158E+03  0.69347114032E+03 0.  0.
        2    1    3    3  502    0  0.72962962736E+02 -0.29112964449E+03 -0.61406504958E+02  0.30635081637E+03  0.25500000920E-02 0. -1.
       -2    1    3    3    0  502 -0.72962962736E+02  0.29112964449E+03 -0.51198354756E+03  0.59347048521E+03  0.25500000920E-02 0.  1.
</event>
<event>
 5   0  0.1948138E-02  0.6987431E+03  0.7818609E-02  0.9719384E-01
       -2   -1    0    0    0  501  0.00000000000E+00  0.00000000000E+00  0.11039106359E+04  0.11039106359E+04  0.25500000920E-02 0. -1.
        2   -1    0    0  501    0  0.00000000000E+00  0.00000000000E+00 -0.11057096519E+03  0.11057096521E+03  0.25500000920E-02 0.  1.
    10030    2    1    2    0    0  0.00000000000E+00  0.00000000000E+00  0.99333967075E+03  0.12144816011E+04  0.69874305582E+03 0.  0.
        3    1    3    3  502    0 -0.30008279385E+03  0.40462990117E+02  0.19375469535E+03  0.35948272407E+03  0.10100000352E+00 0.  1.
       -3    1    3    3    0  502  0.30008279385E+03 -0.40462990117E+02  0.79958497539E+03  0.85499887708E+03  0.10100000352E+00 0. -1.
</event>
<event>
 5   0  0.2006362E-02  0.7011990E+03  0.7818609E-02  0.9715184E-01
       -2   -1    0    0    0  501  0.00000000000E+00  0.00000000000E+00  0.14313759983E+03  0.14313759985E+03  0.25500000920E-02 0.  1.
        2   -1    0    0  501    0  0.00000000000E+00  0.00000000000E+00 -0.85875412259E+03  0.85875412259E+03  0.25500000920E-02 0. -1.
    10030    2    1    2    0    0  0.00000000000E+00  0.00000000000E+00 -0.71561652276E+03  0.10018917224E+04  0.70119898449E+03 0.  0.
        4    1    3    3  502    0  0.24944906292E+03 -0.23873976188E+03 -0.44468376079E+03  0.56299801856E+03  0.12699999809E+01 0.  1.
       -4    1    3    3    0  502 -0.24944906292E+03  0.23873976188E+03 -0.27093276197E+03  0.43889370388E+03  0.12699999809E+01 0. -1.
</event>
<event>
 5   0  0.2006362E-02  0.6935816E+03  0.7818609E-02  0.9728272E-01
       -2   -1    0    0    0  501  0.00000000000E+00  0.00000000000E+00  0.66233598683E+02  0.66233598732E+02  0.25500000920E-02 0. -1.
        2   -1    0    0  501    0  0.00000000000E+00  0.00000000000E+00 -0.18157531969E+04  0.18157531969E+04  0.25500000920E-02 0.  1.
    10030    2    1    2    0    0  0.00000000000E+00  0.00000000000E+00 -0.17495195982E+04  0.18819867956E+04  0.69358162778E+03 0.  0.
        4    1    3    3  502    0  0.66248729357E+01 -0.30441143263E+03 -0.13251572483E+04  0.13596887714E+04  0.12699999809E+01 0.  1.
       -4    1    3    3    0  502 -0.66248729357E+01  0.30441143263E+03 -0.42436234988E+03  0.52229802427E+03  0.12699999809E+01 0. -1.
</event>
<event>
 5   0  0.1197259E-02  0.7198085E+03  0.7818609E-02  0.9683944E-01
        1   -1    0    0  501    0  0.00000000000E+00  0.00000000000E+00  0.64031672103E+03  0.64031672105E+03  0.50400001928E-02 0. -1.
       -1   -1    0    0    0  501  0.00000000000E+00  0.00000000000E+00 -0.20229219119E+03  0.20229219126E+03  0.50400001928E-02 0.  1.
    10030    2    1    2    0    0  0.00000000000E+00  0.00000000000E+00  0.43802452984E+03  0.84260891230E+03  0.71980850951E+03 0.  0.
        3    1    3    3  502    0  0.82874483751E+01 -0.35267107850E+03  0.13553359591E+03  0.37790863609E+03  0.10100000352E+00 0.  1.
       -3    1    3    3    0  502 -0.82874483751E+01  0.35267107850E+03  0.30249093392E+03  0.46470027622E+03  0.10100000352E+00 0. -1.
</event>
<event>
 5   0  0.1257442E-02  0.7004652E+03  0.7818609E-02  0.9716437E-01
        1   -1    0    0  501    0  0.00000000000E+00  0.00000000000E+00  0.44615298242E+03  0.44615298245E+03  0.50400001928E-02 0.  1.
       -1   -1    0    0    0  501  0.00000000000E+00  0.00000000000E+00 -0.27493452361E+03  0.27493452365E+03  0.50400001928E-02 0. -1.
    10030    2    1    2    0    0  0.00000000000E+00  0.00000000000E+00  0.17121845881E+03  0.72108750610E+03  0.70046515318E+03 0.  0.
        1    1    3    3  502    0  0.33151868739E+03 -0.41812154291E+02 -0.22408323202E+02  0.33489554985E+03  0.50400001928E-02 0. -1.
       -1    1    3    3    0  502 -0.33151868739E+03  0.41812154291E+02  0.19362678201E+03  0.38619195625E+03  0.50400001928E-02 0.  1.
</event>
<event>
 5   0  0.1223742E-02  0.7006599E+03  0.7818609E-02  0.9716104E-01
       -1   -1    0    0    0  501  0.00000000000E+00  0.00000000000E+00  0.29106245139E+03  0.29106245144E+03  0.50400001928E-02 0.  1.
        1   -1    0    0  501    0  0.00000000000E+00  0.00000000000E+00 -0.42166571953E+03  0.42166571956E+03  0.50400001928E-02 0. -1.
    10030    2    1    2    0    0  0.00000000000E+00  0.00000000000E+00 -0.13060326813E+03  0.71272817099E+03  0.70065985477E+03 0.  0.
        2    1    3    3  502    0 -0.13092755968E+03 -0.12543665884E+03  0.23961915379E+03  0.30048913480E+03  0.25500000920E-02 0.  1.
       -2    1    3    3    0  502  0.13092755968E+03  0.12543665884E+03 -0.37022242192E+03  0.41223903620E+03  0.25500000920E-02 0. -1.
</event>
<event>
 5   0  0.1909053E-02  0.6962727E+03  0.7818609E-02  0.9723628E-01
       -2   -1    0    0    0  501  0.00000000000E+00  0.00000000000E+00  0.28624161730E+03  0.28624161731E+03  0.25500000920E-02 0.  1.
        2   -1    0    0  501    0  0.00000000000E+00  0.00000000000E+00 -0.42341477200E+03  0.42341477201E+03  0.25500000920E-02 0. -1.
    10030    2    1    2    0    0  0.00000000000E+00  0.00000000000E+00 -0.13717315470E+03  0.70965638932E+03  0.69627273143E+03 0.  0.
        1    1    3    3  502    0 -0.12097762423E+03  0.18060986756E+03  0.20856572771E+03  0.30125599185E+03  0.50400001928E-02 0.  1.
       -1    1    3    3    0  502  0.12097762423E+03 -0.18060986756E+03 -0.34573888241E+03  0.40840039748E+03  0.50400001928E-02 0. -1.
</event>
<event>
 5   0  0.2006362E-02  0.6976486E+03  0.7818609E-02  0.9721262E-01
        2   -1    0    0  501    0  0.00000000000E+00  0.00000000000E+00  0.21845975340E+03  0.21845975341E+03  0.25500000920E-02 0. -1.
       -2   -1    0    0    0  501  0.00000000000E+00  0.00000000000E+00 -0.55698306760E+03  0.55698306761E+03  0.25500000920E-02 0.  1.
    10030    2    1    2    0    0  0.00000000000E+00  0.00000000000E+00 -0.33852331421E+03  0.77544282102E+03  0.69764857515E+03 0.  0.
        4    1    3    3  502    0  0.15054220573E+03  0.18262835339E+03  0.11555528589E+03  0.26338319643E+03  0.12699999809E+01 0. -1.
       -4    1    3    3    0  502 -0.15054220573E+03 -0.18262835339E+03 -0.45407860009E+03  0.51205962458E+03  0.12699999809E+01 0.  1.
</event>
<event>
 5   0  0.1237686E-02  0.7022658E+03  0.7818609E-02  0.9713365E-01
       -1   -1    0    0    0  501  0.00000000000E+00  0.00000000000E+00  0.17912649121E+03  0.17912649128E+03  0.50400001928E-02 0. -1.
        1   -1    0    0  501    0  0.00000000000E+00  0.00000000000E+00 -0.68830863296E+03  0.68830863298E+03  0.50400001928E-02 0.  1.
    10030    2    1    2    0    0  0.00000000000E+00  0.00000000000E+00 -0.50918214175E+03  0.86743512427E+03  0.70226579109E+03 0.  0.
        5    1    3    3  502    0 -0.13031542389E+02  0.23969859701E+03 -0.57106859482E+03  0.61948903823E+03  0.46999998093E+01 0.  1.
       -5    1    3    3    0  502  0.13031542389E+02 -0.23969859701E+03  0.61886453066E+02  0.24794608603E+03  0.46999998093E+01 0. -1.
</event>
<event>
 5   0  0.1909053E-02  0.6901445E+03  0.7818609E-02  0.9734236E-01
        2   -1    0    0  501    0  0.00000000000E+00  0.00000000000E+00  0.11377381434E+04  0.11377381434E+04  0.25500000920E-02 0. -1.
       -2   -1    0    0    0  501  0.00000000000E+00  0.00000000000E+00 -0.10465927821E+03  0.10465927824E+03  0.25500000920E-02 0.  1.
    10030    2    1    2    0    0  0.00000000000E+00  0.00000000000E+00  0.10330788652E+04  0.12423974216E+04  0.69014448603E+03 0.  0.
        1    1    3    3  502    0  0.17330599340E+02  0.15460431638E+03  0.10710241319E+04  0.10822640784E+04  0.50400001928E-02 0. -1.
       -1    1    3    3    0  502 -0.17330599340E+02 -0.15460431638E+03 -0.37945266707E+02  0.16013334321E+03  0.50400001928E-02 0.  1.
</event>
<event>
 5   0  0.1257442E-02  0.7023464E+03  0.7818609E-02  0.9713228E-01
        1   -1    0    0  501    0  0.00000000000E+00  0.00000000000E+00  0.18276308543E+03  0.18276308550E+03  0.50400001928E-02 0.  1.
       -1   -1    0    0    0  501  0.00000000000E+00  0.00000000000E+00 -0.67476770314E+03  0.67476770316E+03  0.50400001928E-02 0. -1.
    10030    2    1    2    0    0  0.00000000000E+00  0.00000000000E+00 -0.49200461771E+03  0.85753078866E+03  0.70234643137E+03 0.  0.
        1    1    3    3  502    0 -0.10330734714E+03 -0.33122551359E+03 -0.31220307836E+03  0.46674780234E+03  0.50400001928E-02 0. -1.
       -1    1    3    3    0  502  0.10330734714E+03  0.33122551359E+03 -0.17980153935E+03  0.39078298633E+03  0.50400001928E-02 0.  1.
</event>
<event>
 5   0  0.1237686E-02  0.6971787E+03  0.7818609E-02  0.9722069E-01
       -1   -1    0    0    0  501  0.00000000000E+00  0.00000000000E+00  0.19322777569E+03  0.19322777575E+03  0.50400001928E-02 0.  1.
        1   -1    0    0  501    0  0.00000000000E+00  0.00000000000E+00 -0.62886688672E+03  0.62886688674E+03  0.50400001928E-02 0. -1.
    10030    2    1    2    0    0  0.00000000000E+00  0.00000000000E+00 -0.43563911103E+03  0.82209466250E+03  0.69717874254E+03 0.  0.
        5    1    3    3  502    0  0.81565086855E+02 -0.18655808433E+02  0.18117266036E+03  0.19961594486E+03  0.46999998093E+01 0.  1.
       -5    1    3    3    0  502 -0.81565086855E+02  0.18655808433E+02 -0.61681177139E+03  0.62247871764E+03  0.46999998093E+01 0. -1.
</event>
<event>
 5   0  0.1237686E-02  0.6866038E+03  0.7818609E-02  0.9740420E-01
        1   -1    0    0  501    0  0.00000000000E+00  0.00000000000E+00  0.46121939391E+03  0.46121939394E+03  0.50400001928E-02 0.  1.
       -1   -1    0    0    0  501  0.00000000000E+00  0.00000000000E+00 -0.25553173366E+03  0.25553173371E+03  0.50400001928E-02 0. -1.
    10030    2    1    2    0    0  0.00000000000E+00  0.00000000000E+00  0.20568766025E+03  0.71675112765E+03  0.68660379070E+03 0.  0.
        5    1    3    3  502    0 -0.22659767009E+03  0.10422087568E+03 -0.14336269973E+03  0.28772113007E+03  0.46999998093E+01 0. -1.
       -5    1    3    3    0  502  0.22659767009E+03 -0.10422087568E+03  0.34905035998E+03  0.42902999757E+03  0.46999998093E+01 0.  1.
</event>
<event>
 5   0  0.1973067E-02  0.7087754E+03  0.7818609E-02  0.9702342E-01
        2   -1    0    0  501    0  0.00000000000E+00  0.00000000000E+00  0.18705856932E+03  0.18705856934E+03  0.25500000920E-02 0.  1.
       -2   -1    0    0    0  501  0.00000000000E+00  0.00000000000E+00 -0.67139733774E+03  0.67139733774E+03  0.25500000920E-02 0. -1.
    10030    2    1    2    0    0  0.00000000000E+00  0.00000000000E+00 -0.48433876842E+03  0.85845590708E+03  0.70877535356E+03 0.  0.
        5    1    3    3  502    0 -0.34224555714E+03 -0.91597838841E+02 -0.25041521125E+03  0.43388022942E+03  0.46999998093E+01 0. -1.
       -5    1    3    3    0  502  0.34224555714E+03  0.91597838841E+02 -0.23392355716E+03  0.42457567765E+03  0.46999998093E+01 0.  1.
</event>
<event>
 5   0  0.1973067E-02  0.6971264E+03  0.7818609E-02  0.9722159E-01
       -2   -1    0    0    0  501  0.00000000000E+00  0.00000000000E+00  0.15956179286E+03  0.15956179288E+03  0.25500000920E-02 0.  1.
        2   -1    0    0  501    0  0.00000000000E+00  0.00000000000E+00 -0.76143733142E+03  0.76143733143E+03  0.25500000920E-02 0. -1.
    10030    2    1    2    0    0  0.00000000000E+00  0.00000000000E+00 -0.60187553856E+03  0.92099912431E+03  0.69712640393E+03 0.  0.
        5    1    3    3  502    0 -0.98362305272E+02  0.10921406117E+03 -0.71844900793E+03  0.73334434016E+03  0.46999998093E+01 0. -1.
       -5    1    3    3    0  502  0.98362305272E+02 -0.10921406117E+03  0.11657346936E+03  0.18765478415E+03  0.46999998093E+01 0.  1.
</event>
<event>
 5   0  0.2006362E-02  0.6896438E+03  0.7818609E-02  0.9735108E-01
       -2   -1    0    0    0  501  0.00000000000E+00  0.00000000000E+00  0.80708916858E+02  0.80708916898E+02  0.25500000920E-02 0. -1.
        2   -1    0    0  501    0  0.00000000000E+00  0.00000000000E+00 -0.14732219591E+04  0.14732219591E+04  0.25500000920E-02 0.  1.
    10030    2    1    2    0    0  0.00000000000E+00  0.00000000000E+00 -0.13925130422E+04  0.15539308760E+04  0.68964381717E+03 0.  0.
        4    1    3    3  502    0  0.24886130114E+03 -0.69528051374E+02 -0.18177568817E+03  0.31592738223E+03  0.12699999809E+01 0. -1.
       -4    1    3    3    0  502 -0.24886130114E+03  0.69528051374E+02 -0.12107373541E+04  0.12380034938E+04  0.12699999809E+01 0.  1.
</event>
<event>
 5   0  0.1257442E-02  0.7008884E+03  0.7818609E-02  0.9715714E-01
        1   -1    0    0  501    0  0.00000000000E+00  0.00000000000E+00  0.54081498446E+03  0.54081498448E+03  0.50400001928E-02 0.  1.
       -1   -1    0    0    0  501  0.00000000000E+00  0.00000000000E+00 -0.22708532139E+03  0.22708532145E+03  0.50400001928E-02 0. -1.
    10030    2    1    2    0    0  0.00000000000E+00  0.00000000000E+00  0.31372966307E+03  0.76790030593E+03  0.70088842076E+03 0.  0.
        1    1    3    3  502    0 -0.31070269777E+03  0.13864803196E+03  0.64861635923E+02  0.34636176898E+03  0.50400001928E-02 0. -1.
       -1    1    3    3    0  502  0.31070269777E+03 -0.13864803196E+03  0.24886802715E+03  0.42153853695E+03  0.50400001928E-02 0.  1.
</event>
<event>
 5   0  0.1973067E-02  0.6987196E+03  0.7818609E-02  0.9719424E-01
       -2   -1    0    0    0  501  0.00000000000E+00  0.00000000000E+00  0.25295495338E+03  0.25295495340E+03  0.25500000920E-02 0. -1.
        2   -1    0    0  501    0  0.00000000000E+00  0.00000000000E+00 -0.48250590092E+03  0.48250590093E+03  0.25500000920E-02 0.  1.
    10030    2    1    2    0    0  0.00000000000E+00  0.00000000000E+00 -0.22955094754E+03  0.73546085432E+03  0.69871956515E+03 0.  0.
        5    1    3    3  502    0  0.10510025762E+02  0.28979853308E+03  0.90239407841E+02  0.30374148736E+03  0.46999998093E+01 0. -1.
       -5    1    3    3    0  502 -0.10510025762E+02 -0.28979853308E+03 -0.31979035538E+03  0.43171936696E+03  0.46999998093E+01 0.  1.
</event>
<event>
 5   0  0.1197259E-02  0.6960689E+03  0.7818609E-02  0.9723979E-01
       -1   -1    0    0    0  501  0.00000000000E+00  0.00000000000E+00  0.49963817170E+03  0.49963817173E+03  0.50400001928E-02 0.  1.
        1   -1    0    0  501    0  0.00000000000E+00  0.00000000000E+00 -0.24243138386E+03  0.24243138392E+03  0.50400001928E-02 0. -1.
    10030    2    1    2    0    0  0.00000000000E+00  0.00000000000E+00  0.25720678784E+03  0.74206955564E+03  0.69606888575E+03 0.  0.
        3    1    3    3  502    0  0.23007170140E+03  0.90907352937E+02  0.38958958815E+03  0.46149452001E+03  0.10100000352E+00 0.  1.
       -3    1    3    3    0  502 -0.23007170140E+03 -0.90907352937E+02 -0.13238280031E+03  0.28057503563E+03  0.10100000352E+00 0. -1.
</event>
<event>
 5   0  0.1948138E-02  0.7028510E+03  0.7818609E-02  0.9712369E-01
       -2   -1    0    0    0  501  0.00000000000E+00  0.00000000000E+00  0.25047540515E+03  0.25047540516E+03  0.25500000920E-02 0. -1.
        2   -1    0    0  501    0  0.00000000000E+00  0.00000000000E+00 -0.49306194874E+03  0.49306194875E+03  0.25500000920E-02 0.  1.
    10030    2    1    2    0    0  0.00000000000E+00  0.00000000000E+00 -0.24258654360E+03  0.74353735391E+03  0.70285102655E+03 0.  0.
        3    1    3    3  502    0  0.50885724027E+02 -0.18905427398E+02  0.24601331438E+03  0.25193120717E+03  0.10100000352E+00 0. -1.
       -3    1    3    3    0  502 -0.50885724027E+02  0.18905427398E+02 -0.48859985798E+03  0.49160614674E+03  0.10100000352E+00 0.  1.
</event>
<event>
 5   0  0.1973067E-02  0.7010618E+03  0.7818609E-02  0.9715418E-01
        2   -1    0    0  501    0  0.00000000000E+00  0.00000000000E+00  0.56616113439E+03  0.56616113439E+03  0.25500000920E-02 0.  1.
       -2   -1    0    0    0  501  0.00000000000E+00  0.00000000000E+00 -0.21702640673E+03  0.21702640674E+03  0.25500000920E-02 0. -1.
    10030    2    1    2    0    0  0.00000000000E+00  0.00000000000E+00  0.34913472766E+03  0.78318754114E+03  0.70106181363E+03 0.  0.
        5    1    3    3  502    0  0.14573956935E+03  0.16047883539E+03 -0.13311699766E+03  0.25443212012E+03  0.46999998093E+01 0. -1.
       -5    1    3    3    0  502 -0.14573956935E+03 -0.16047883539E+03  0.48225172532E+03  0.52875542102E+03  0.46999998093E+01 0.  1.
</event>
<event>
 5   0  0.1226303E-02  0.7032589E+03  0.7818609E-02  0.9711675E-01
        1   -1    0    0  501    0  0.00000000000E+00  0.00000000000E+00  0.85527354568E+03  0.85527354569E+03  0.50400001928E-02 0. -1.
       -1   -1    0    0    0  501  0.00000000000E+00  0.00000000000E+00 -0.14456574094E+03  0.14456574103E+03  0.50400001928E-02 0.  1.
    10030    2    1    2    0    0  0.00000000000E+00  0.00000000000E+00  0.71070780473E+03  0.99983928672E+03  0.70325885388E+03 0.  0.
        4    1    3    3  502    0 -0.56183673348E+02  0.24798743148E+02 -0.13687866801E+03  0.15002988192E+03  0.12699999809E+01 0.  1.
       -4    1    3    3    0  502  0.56183673348E+02 -0.24798743148E+02  0.84758647274E+03  0.84980940480E+03  0.12699999809E+01 0. -1.
</event>
<event>
 5   0  0.1948138E-02  0.6966930E+03  0.7818609E-02  0.9722904E-01
       -2   -1    0    0    0  501  0.00000000000E+00  0.00000000000E+00  0.22111448917E+03  0.22111448919E+03  0.25500000920E-02 0.  1.
        2   -1    0    0  501    0  0.00000000000E+00  0.00000000000E+00 -0.54878942126E+03  0.54878942126E+03  0.25500000920E-02 0. -1.
    10030    2    1    2    0    0  0.00000000000E+00  0.00000000000E+00 -0.32767493208E+03  0.76990391045E+03  0.69669302437E+03 0.  0.
        3    1    3    3  502    0  0.12163201824E+03 -0.12434031013E+03  0.16968985855E+03  0.24300106765E+03  0.10100000352E+00 0.  1.
       -3    1    3    3    0  502 -0.12163201824E+03  0.12434031013E+03 -0.49736479063E+03  0.52690284280E+03  0.10100000352E+00 0. -1.
</event>
<event>
 5   0  0.2026361E-02  0.6942877E+03  0.7818609E-02  0.9727051E-01
       -2   -1    0    0    0  501  0.00000000000E+00  0.00000000000E+00  0.23317956746E+03  0.23317956748E+03  0.25500000920E-02 0. -1.
        2   -1    0    0  501    0  0.00000000000E+00  0.00000000000E+00 -0.51680701260E+03  0.51680701261E+03  0.25500000920E-02 0.  1.
    10030    2    1    2    0    0  0.00000000000E+00  0.00000000000E+00 -0.28362744514E+03  0.74998658009E+03  0.69428765125E+03 0.  0.
        2    1    3    3  502    0  0.28623034471E+03 -0.16695661663E+03 -0.30040418819E+02  0.33272323159E+03  0.25500000920E-02 0. -1.
       -2    1    3    3    0  502 -0.28623034471E+03  0.16695661663E+03 -0.25358702632E+03  0.41726334849E+03  0.25500000920E-02 0.  1.
</event>
<event>
 5   0  0.2006362E-02  0.7007198E+03  0.7818609E-02  0.9716002E-01
        2   -1    0    0  501    0  0.00000000000E+00  0.00000000000E+00  0.14910182027E+04  0.14910182027E+04  0.25500000920E-02 0. -1.
       -2   -1    0    0    0  501  0.00000000000E+00  0.00000000000E+00 -0.82327667859E+02  0.82327667899E+02  0.25500000920E-02 0.  1.
    10030    2    1    2    0    0  0.00000000000E+00  0.00000000000E+00  0.14086905348E+04  0.15733458706E+04  0.70071977679E+03 0.  0.
        4    1    3    3  502    0 -0.43306396159E+02  0.34158894937E+03  0.55897029377E+03  0.65651188603E+03  0.12699999809E+01 0. -1.
       -4    1    3    3    0  502  0.43306396159E+02 -0.34158894937E+03  0.84972024105E+03  0.91683398455E+03  0.12699999809E+01 0.  1.
</event>
<event>
 5   0  0.1948138E-02  0.6994053E+03  0.7818609E-02  0.9718250E-01
        2   -1    0    0  501    0  0.00000000000E+00  0.00000000000E+00  0.46816830898E+03  0.46816830898E+03  0.25500000920E-02 0. -1.
       -2   -1    0    0    0  501  0.00000000000E+00  0.00000000000E+00 -0.26121363805E+03  0.26121363806E+03  0.25500000920E-02 0.  1.
    10030    2    1    2    0    0  0.00000000000E+00  0.00000000000E+00  0.20695467092E+03  0.72938194705E+03  0.69940531086E+03 0.  0.
        3    1    3    3  502    0 -0.74725462185E+02 -0.33115930255E+03  0.19098789982E+03  0.38952120153E+03  0.10100000352E+00 0.  1.
       -3    1    3    3    0  502  0.74725462185E+02  0.33115930255E+03  0.15966771099E+02  0.33986074552E+03  0.10100000352E+00 0. -1.
</event>
<event>
 5   0  0.1909053E-02  0.6977977E+03  0.7818609E-02  0.9721006E-01
        2   -1    0    0  501    0  0.00000000000E+00  0.00000000000E+00  0.86250413650E+03  0.86250413650E+03  0.25500000920E-02 0. -1.
       -2   -1    0    0    0  501  0.00000000000E+00  0.00000000000E+00 -0.14113603630E+03  0.14113603632E+03  0.25500000920E-02 0.  1.
    10030    2    1    2    0    0  0.00000000000E+00  0.00000000000E+00  0.72136810020E+03  0.10036401728E+04  0.69779772179E+03 0.  0.
        1    1    3    3  502    0 -0.91458435956E+02  0.33489467307E+03  0.41074271774E+03  0.53779983987E+03  0.50400001928E-02 0.  1.
       -1    1    3    3    0  502  0.91458435956E+02 -0.33489467307E+03  0.31062538246E+03  0.46584033296E+03  0.50400001928E-02 0. -1.
</event>
<event>
 5   0  0.1909053E-02  0.7021450E+03  0.7818609E-02  0.9713571E-01
        2   -1    0    0  501    0  0.00000000000E+00  0.00000000000E+00  0.22813328366E+03  0.22813328368E+03  0.25500000920E-02 0.  1.
       -2   -1    0    0    0  501  0.00000000000E+00  0.00000000000E+00 -0.54026275958E+03  0.54026275959E+03  0.25500000920E-02 0. -1.
    10030    2    1    2    0    0  0.00000000000E+00  0.00000000000E+00 -0.31212947592E+03  0.76839604327E+03  0.70214504881E+03 0.  0.
        1    1    3    3  502    0 -0.28772568372E+03 -0.49824271063E+02  0.57217723991E+02  0.29756074174E+03  0.50400001928E-02 0.  1.
       -1    1    3    3    0  502  0.28772568372E+03  0.49824271063E+02 -0.36934719991E+03  0.47083530153E+03  0.50400001928E-02 0. -1.
</event>
<event>
 5   0  0.1257442E-02  0.7003738E+03  0.7818609E-02  0.9716593E-01
       -1   -1    0    0    0  501  0.00000000000E+00  0.00000000000E+00  0.13114345854E+03  0.13114345864E+03  0.50400001928E-02 0.  1.
        1   -1    0    0  501    0  0.00000000000E+00  0.00000000000E+00 -0.93508933347E+03  0.93508933348E+03  0.50400001928E-02 0. -1.
    10030    2    1    2    0    0  0.00000000000E+00  0.00000000000E+00 -0.80394587493E+03  0.10662327921E+04  0.70037375535E+03 0.  0.
        1    1    3    3  502    0 -0.10164326966E+03  0.23142020568E+03 -0.32991424715E+02  0.25490213808E+03  0.50400001928E-02 0.  1.
       -1    1    3    3    0  502  0.10164326966E+03 -0.23142020568E+03 -0.77095445021E+03  0.81133065405E+03  0.50400001928E-02 0. -1.
</event>
<event>
 5   0  0.1223742E-02  0.6969462E+03  0.7818609E-02  0.9722469E-01
        1   -1    0    0  501    0  0.00000000000E+00  0.00000000000E+00  0.30712736353E+03  0.30712736357E+03  0.50400001928E-02 0. -1.
       -1   -1    0    0    0  501  0.00000000000E+00  0.00000000000E+00 -0.39538479837E+03  0.39538479840E+03  0.50400001928E-02 0.  1.
    10030    2    1    2    0    0  0.00000000000E+00  0.00000000000E+00 -0.88257434836E+02  0.70251216197E+03  0.69694616931E+03 0.  0.
        2    1    3    3  502    0  0.15079010898E+02  0.34651343960E+03 -0.10176628832E+02  0.34699063989E+03  0.25500000920E-02 0.  1.
       -2    1    3    3    0  502 -0.15079010898E+02 -0.34651343960E+03 -0.78080806003E+02  0.35552152208E+03  0.25500000920E-02 0. -1.
</event>
<event>
 5   0  0.1909053E-02  0.6981682E+03  0.7818609E-02  0.9720370E-01
       -2   -1    0    0    0  501  0.00000000000E+00  0.00000000000E+00  0.39992388412E+03  0.39992388413E+03  0.25500000920E-02 0. -1.
        2   -1    0    0  501    0  0.00000000000E+00  0.00000000000E+00 -0.30470729686E+03  0.30470729688E+03  0.25500000920E-02 0.  1.
    10030    2    1    2    0    0  0.00000000000E+00  0.00000000000E+00  0.95216587257E+02  0.70463118101E+03  0.69816824817E+03 0.  0.
        1    1    3    3  502    0  0.25558530745E+03  0.15401373711E+03  0.23043609496E+03  0.37702105312E+03  0.50400001928E-02 0. -1.
       -1    1    3    3    0  502 -0.25558530745E+03 -0.15401373711E+03 -0.13521950770E+03  0.32761012789E+03  0.50400001928E-02 0.  1.
</event>
<event>
 5   0  0.1197259E-02  0.6982282E+03  0.7818609E-02  0.9720267E-01
       -1   -1    0    0    0  501  0.00000000000E+00  0.00000000000E+00  0.96218126146E+03  0.96218126147E+03  0.50400001928E-02 0.  1.
        1   -1    0    0  501    0  0.00000000000E+00  0.00000000000E+00 -0.12667119951E+03  0.12667119961E+03  0.50400001928E-02 0. -1.
    10030    2    1    2    0    0  0.00000000000E+00  0.00000000000E+00  0.83551006195E+03  0.10888524611E+04  0.69822819935E+03 0.  0.
        3    1    3    3  502    0  0.21149503268E+02  0.86706341191E+02  0.94409067644E+03  0.94829979787E+03  0.10100000352E+00 0.  1.
       -3    1    3    3    0  502 -0.21149503268E+02 -0.86706341191E+02 -0.10858061449E+03  0.14055266321E+03  0.10100000352E+00 0. -1.
</event>
<event>
 5   0  0.1973067E-02  0.6977883E+03  0.7818609E-02  0.9721022E-01
       -2   -1    0    0    0  501  0.00000000000E+00  0.00000000000E+00  0.36842827923E+02  0.36842828011E+02  0.25500000920E-02 0. -1.
        2   -1    0    0  501    0  0.00000000000E+00  0.00000000000E+00 -0.33039576375E+04  0.33039576375E+04  0.25500000920E-02 0.  1.
    10030    2    1    2    0    0  0.00000000000E+00  0.00000000000E+00 -0.32671148096E+04  0.33408004656E+04  0.69778834285E+03 0.  0.
        5    1    3    3  502    0 -0.92544068081E+02  0.86595380741E+02 -0.31896839293E+04  0.31922043831E+04  0.46999998093E+01 0.  1.
       -5    1    3    3    0  502  0.92544068081E+02 -0.86595380741E+02 -0.77430880320E+02  0.14859608248E+03  0.46999998093E+01 0. -1.
</event>
<event>
 5   0  0.1197259E-02  0.7010637E+03  0.7818609E-02  0.9715415E-01
       -1   -1    0    0    0  501  0.00000000000E+00  0.00000000000E+00  0.99915140279E+03  0.99915140281E+03  0.50400001928E-02 0.  1.
        1   -1    0    0  501    0  0.00000000000E+00  0.00000000000E+00 -0.12297692129E+03  0.12297692139E+03  0.50400001928E-02 0. -1.
    10030    2    1    2    0    0  0.00000000000E+00  0.00000000000E+00  0.87617448151E+03  0.11221283242E+04  0.70106365897E+03 0.  0.
        3    1    3    3  502    0  0.70295040537E+02 -0.78898458526E+02  0.97305018041E+03  0.97877118025E+03  0.10100000352E+00 0.  1.
       -3    1    3    3    0  502 -0.70295040537E+02  0.78898458526E+02 -0.96875698907E+02  0.14335714395E+03  0.10100000352E+00 0. -1.
</event>
<event>
 5   0  0.2026361E-02  0.6374704E+03  0.7818609E-02  0.9830578E-01
       -2   -1    0    0    0  501  0.00000000000E+00  0.00000000000E+00  0.12688193750E+03  0.12688193753E+03  0.25500000920E-02 0.  1.
        2   -1    0    0  501    0  0.00000000000E+00  0.00000000000E+00 -0.80068228039E+03  0.80068228040E+03  0.25500000920E-02 0. -1.
    10030    2    1    2    0    0  0.00000000000E+00  0.00000000000E+00 -0.67380034289E+03  0.92756421792E+03  0.63747037287E+03 0.  0.
        2    1    3    3  502    0 -0.23014387883E+03  0.15604868924E+03 -0.11019516957E+03  0.29909927078E+03  0.25500000920E-02 0.  1.
       -2    1    3    3    0  502  0.23014387883E+03 -0.15604868924E+03 -0.56360517332E+03  0.62846494714E+03  0.25500000920E-02 0. -1.
</event>
<event>
 5   0  0.1226303E-02  0.7066190E+03  0.7818609E-02  0.9705979E-01
       -1   -1    0    0    0  501  0.00000000000E+00  0.00000000000E+00  0.10028209812E+03  0.10028209825E+03  0.50400001928E-02 0. -1.
        1   -1    0    0  501    0  0.00000000000E+00  0.00000000000E+00 -0.12447646002E+04  0.12447646002E+04  0.50400001928E-02 0.  1.
    10030    2    1    2    0    0  0.00000000000E+00  0.00000000000E+00 -0.11444825021E+04  0.13450466985E+04  0.70661900872E+03 0.  0.
        4    1    3    3  502    0 -0.28066790233E+03 -0.43164400043E+02 -0.97237572445E+03  0.10129924971E+04  0.12699999809E+01 0.  1.
       -4    1    3    3    0  502  0.28066790233E+03  0.43164400043E+02 -0.17210677767E+03  0.33205420137E+03  0.12699999809E+01 0. -1.
</event>
<event>
 5   0  0.1237686E-02  0.6940261E+03  0.7818609E-02  0.9727503E-01
        1   -1    0    0  501    0  0.00000000000E+00  0.00000000000E+00  0.18596053655E+03  0.18596053662E+03  0.50400001928E-02 0.  1.
       -1   -1    0    0    0  501  0.00000000000E+00  0.00000000000E+00 -0.64754638724E+03  0.64754638726E+03  0.50400001928E-02 0. -1.
    10030    2    1    2    0    0  0.00000000000E+00  0.00000000000E+00 -0.46158585068E+03  0.83350692388E+03  0.69402614836E+03 0.  0.
        5    1    3    3  502    0 -0.16829601571E+03  0.92754139915E+02 -0.57776638382E+03  0.60890308230E+03  0.46999998093E+01 0. -1.
       -5    1    3    3    0  502  0.16829601571E+03 -0.92754139915E+02  0.11618053313E+03  0.22460384158E+03  0.46999998093E+01 0.  1.
</event>
<event>
 5   0  0.1257442E-02  0.6951512E+03  0.7818609E-02  0.9725560E-01
        1   -1    0    0  501    0  0.00000000000E+00  0.00000000000E+00  0.53724714460E+03  0.53724714463E+03  0.50400001928E-02 0.  1.
       -1   -1    0    0    0  501  0.00000000000E+00  0.00000000000E+00 -0.22486631542E+03  0.22486631547E+03  0.50400001928E-02 0. -1.
    10030    2    1    2    0    0  0.00000000000E+00  0.00000000000E+00  0.31238082919E+03  0.76211346010E+03  0.69515116602E+03 0.  0.
        1    1    3    3  502    0  0.11781105866E+03  0.32606494139E+03  0.12909105883E+03  0.36994904115E+03  0.50400001928E-02 0.  1.
       -1    1    3    3    0  502 -0.11781105866E+03 -0.32606494139E+03  0.18328977036E+03  0.39216441895E+03  0.50400001928E-02 0. -1.
</event>
<event>
 5   0  0.1223742E-02  0.7312384E+03  0.7818609E-02  0.9665253E-01
        1   -1    0    0  501    0  0.00000000000E+00  0.00000000000E+00  0.40783774661E+03  0.40783774664E+03  0.50400001928E-02 0. -1.
       -1   -1    0    0    0  501  0.00000000000E+00  0.00000000000E+00 -0.32777100246E+03  0.32777100250E+03  0.50400001928E-02 0.  1.
    10030    2    1    2    0    0  0.00000000000E+00  0.00000000000E+00  0.80066744149E+02  0.73560874915E+03  0.73123836627E+03 0.  0.
        2    1    3    3  502    0 -0.60796569428E+02  0.95141418567E+02  0.38986062550E+03  0.40588104132E+03  0.25500000920E-02 0. -1.
       -2    1    3    3    0  502  0.60796569428E+02 -0.95141418567E+02 -0.30979388135E+03  0.32972770783E+03  0.25500000920E-02 0.  1.
</event>
<event>
 5   0  0.1948138E-02  0.6998248E+03  0.7818609E-02  0.9717532E-01
        2   -1    0    0  501    0  0.00000000000E+00  0.00000000000E+00  0.77801823630E+03  0.77801823630E+03  0.25500000920E-02 0. -1.
       -2   -1    0    0    0  501  0.00000000000E+00  0.00000000000E+00 -0.15737250513E+03  0.15737250516E+03  0.25500000920E-02 0.  1.
    10030    2    1    2    0    0  0.00000000000E+00  0.00000000000E+00  0.62064573116E+03  0.93539074145E+03  0.69982477492E+03 0.  0.
        3    1    3    3  502    0  0.19700927935E+03 -0.30860061771E+02  0.69463788725E+03  0.72269412905E+03  0.10100000352E+00 0. -1.
       -3    1    3    3    0  502 -0.19700927935E+03  0.30860061771E+02 -0.73992156091E+02  0.21269661240E+03  0.10100000352E+00 0.  1.
</event>
<event>
 5   0  0.1909053E-02  0.7083146E+03  0.7818609E-02  0.9703118E-01
        2   -1    0    0  501    0  0.00000000000E+00  0.00000000000E+00  0.93816775655E+03  0.93816775655E+03  0.25500000920E-02 0.  1.
       -2   -1    0    0    0  501  0.00000000000E+00  0.00000000000E+00 -0.13369400687E+03  0.13369400689E+03  0.25500000920E-02 0. -1.
    10030    2    1    2    0    0  0.00000000000E+00  0.00000000000E+00  0.80447374968E+03  0.10718617634E+04  0.70831463772E+03 0.  0.
        1    1    3    3  502    0 -0.18318090242E+03 -0.17541430959E+02  0.86014255936E+03  0.87960682538E+03  0.50400001928E-02 0.  1.
       -1    1    3    3    0  502  0.18318090242E+03  0.17541430959E+02 -0.55668809678E+02  0.19225493806E+03  0.50400001928E-02 0. -1.
</event>
<event>
 5   0  0.7947250E-03  0.6971469E+03  0.7818609E-02  0.9722124E-01
       -4   -1    0    0    0  501  0.00000000000E+00  0.00000000000E+00  0.28335436130E+03  0.28335720737E+03  0.12699999809E+01 0.  1.
        4   -1    0    0  501    0  0.00000000000E+00  0.00000000000E+00 -0.42879799128E+03  0.42879987200E+03  0.12699999809E+01 0. -1.
    10030    2    1    2    0    0  0.00000000000E+00  0.00000000000E+00 -0.14544362998E+03  0.71215707937E+03  0.69714694018E+03 0.  0.
        5    1    3    3  502    0  0.25195554489E+03  0.86229926913E+02  0.15698450402E+03  0.30916568600E+03  0.46999998093E+01 0.  1.
       -5    1    3    3    0  502 -0.25195554489E+03 -0.86229926913E+02 -0.30242813400E+03  0.40299139337E+03  0.46999998093E+01 0. -1.
</event>
<event>
 5   0  0.1223742E-02  0.7771462E+03  0.7818609E-02  0.9593699E-01
        1   -1    0    0  501    0  0.00000000000E+00  0.00000000000E+00  0.20186631807E+03  0.20186631813E+03  0.50400001928E-02 0. -1.
       -1   -1    0    0    0  501  0.00000000000E+00  0.00000000000E+00 -0.74796548972E+03  0.74796548974E+03  0.50400001928E-02 0.  1.
    10030    2    1    2    0    0  0.00000000000E+00  0.00000000000E+00 -0.54609917165E+03  0.94983180787E+03  0.77714616255E+03 0.  0.
        2    1    3    3  502    0 -0.19893445588E+03  0.32869783107E+03 -0.34402020838E+03  0.51571996827E+03  0.25500000920E-02 0.  1.
       -2    1    3    3    0  502  0.19893445588E+03 -0.32869783107E+03 -0.20207896327E+03  0.43411183961E+03  0.25500000920E-02 0. -1.
</event>
<event>
 5   0  0.1197259E-02  0.7010218E+03  0.7818609E-02  0.9715486E-01
       -1   -1    0    0    0  501  0.00000000000E+00  0.00000000000E+00  0.90915462514E+02  0.90915462654E+02  0.50400001928E-02 0.  1.
        1   -1    0    0  501    0  0.00000000000E+00  0.00000000000E+00 -0.13513419186E+04  0.13513419186E+04  0.50400001928E-02 0. -1.
    10030    2    1    2    0    0  0.00000000000E+00  0.00000000000E+00 -0.12604264561E+04  0.14422573813E+04  0.70102175616E+03 0.  0.
        3    1    3    3  502    0 -0.16865530167E+03 -0.30669420559E+03 -0.66880836517E+03  0.75485799065E+03  0.10100000352E+00 0.  1.
       -3    1    3    3    0  502  0.16865530167E+03  0.30669420559E+03 -0.59161809093E+03  0.68739939063E+03  0.10100000352E+00 0. -1.
</event>
<event>
 5   0  0.1226303E-02  0.7044555E+03  0.7818609E-02  0.9709643E-01
        1   -1    0    0  501    0  0.00000000000E+00  0.00000000000E+00  0.16817496844E+04  0.16817496844E+04  0.50400001928E-02 0. -1.
       -1   -1    0    0    0  501  0.00000000000E+00  0.00000000000E+00 -0.73771015373E+02  0.73771015545E+02  0.50400001928E-02 0.  1.
    10030    2    1    2    0    0  0.00000000000E+00  0.00000000000E+00  0.16079786690E+04  0.17555207000E+04  0.70445548328E+03 0.  0.
        4    1    3    3  502    0 -0.12684759449E+03 -0.13149138115E+03  0.53552609015E+02  0.19039377715E+03  0.12699999809E+01 0.  1.
       -4    1    3    3    0  502  0.12684759449E+03  0.13149138115E+03  0.15544260600E+04  0.15651269228E+04  0.12699999809E+01 0. -1.
</event>
<event>
 5   0  0.2026361E-02  0.7080072E+03  0.7818609E-02  0.9703636E-01
        2   -1    0    0  501    0  0.00000000000E+00  0.00000000000E+00  0.89686753709E+03  0.89686753710E+03  0.25500000920E-02 0.  1.
       -2   -1    0    0    0  501  0.00000000000E+00  0.00000000000E+00 -0.13972915676E+03  0.13972915678E+03  0.25500000920E-02 0. -1.
    10030    2    1    2    0    0  0.00000000000E+00  0.00000000000E+00  0.75713838033E+03  0.10365966939E+04  0.70800718837E+03 0.  0.
        2    1    3    3  502    0  0.12350063439E+03  0.33171697536E+03  0.38658658495E+03  0.52415431516E+03  0.25500000920E-02 0.  1.
       -2    1    3    3    0  502 -0.12350063439E+03 -0.33171697536E+03  0.37055179538E+03  0.51244237872E+03  0.25500000920E-02 0. -1.
</event>
<event>
 5   0  0.1909053E-02  0.7101125E+03  0.7818609E-02  0.9700093E-01
        2   -1    0    0  501    0  0.00000000000E+00  0.00000000000E+00  0.88187282347E+03  0.88187282347E+03  0.25500000920E-02 0.  1.
       -2   -1    0    0    0  501  0.00000000000E+00  0.00000000000E+00 -0.14295136864E+03  0.14295136867E+03  0.25500000920E-02 0. -1.
    10030    2    1    2    0    0  0.00000000000E+00  0.00000000000E+00  0.73892145482E+03  0.10248241921E+04  0.71011246179E+03 0.  0.
        1    1    3    3  502    0  0.10247158079E+03 -0.32718457534E+03  0.23629013405E+03  0.41639308194E+03  0.50400001928E-02 0. -1.
       -1    1    3    3    0  502 -0.10247158079E+03  0.32718457534E+03  0.50263132078E+03  0.60843111020E+03  0.50400001928E-02 0.  1.
</event>
<event>
 5   0  0.7947250E-03  0.7078346E+03  0.7818609E-02  0.9703927E-01
       -3   -1    0    0    0  501  0.00000000000E+00  0.00000000000E+00  0.24670593757E+03  0.24670595824E+03  0.10100000352E+00 0.  1.
        3   -1    0    0  501    0  0.00000000000E+00  0.00000000000E+00 -0.50771954491E+03  0.50771955496E+03  0.10100000352E+00 0. -1.
    10030    2    1    2    0    0  0.00000000000E+00  0.00000000000E+00 -0.26101360735E+03  0.75442551320E+03  0.70783455111E+03 0.  0.
        1    1    3    3  502    0 -0.24069073299E+03  0.19276589397E+02 -0.40629285461E+03  0.47262828902E+03  0.50400001928E-02 0. -1.
       -1    1    3    3    0  502  0.24069073299E+03 -0.19276589397E+02  0.14527924727E+03  0.28179722418E+03  0.50400001928E-02 0.  1.
</event>
<event>
 5   0  0.1257442E-02  0.7057962E+03  0.7818609E-02  0.9707371E-01
        1   -1    0    0  501    0  0.00000000000E+00  0.00000000000E+00  0.86028141177E+03  0.86028141179E+03  0.50400001928E-02 0.  1.
       -1   -1    0    0    0  501  0.00000000000E+00  0.00000000000E+00 -0.14476317870E+03  0.14476317879E+03  0.50400001928E-02 0. -1.
    10030    2    1    2    0    0  0.00000000000E+00  0.00000000000E+00  0.71551823307E+03  0.10050445906E+04  0.70579620797E+03 0.  0.
        1    1    3    3  502    0  0.26252232927E+03  0.20548376552E+03  0.19294826375E+03  0.38518902343E+03  0.50400001928E-02 0. -1.
       -1    1    3    3    0  502 -0.26252232927E+03 -0.20548376552E+03  0.52256996933E+03  0.61985556715E+03  0.50400001928E-02 0.  1.
</event>
<event>
 5   0  0.2026361E-02  0.6995316E+03  0.7818609E-02  0.9718034E-01
       -2   -1    0    0    0  501  0.00000000000E+00  0.00000000000E+00  0.71049184727E+02  0.71049184772E+02  0.25500000920E-02 0.  1.
        2   -1    0    0  501    0  0.00000000000E+00  0.00000000000E+00 -0.17218509086E+04  0.17218509086E+04  0.25500000920E-02 0. -1.
    10030    2    1    2    0    0  0.00000000000E+00  0.00000000000E+00 -0.16508017238E+04  0.17929000933E+04  0.69953156703E+03 0.  0.
        2    1    3    3  502    0 -0.15602571325E+03 -0.12977935217E+02 -0.23776861177E+02  0.15835968279E+03  0.25500000920E-02 0.  1.
       -2    1    3    3    0  502  0.15602571325E+03  0.12977935217E+02 -0.16270248627E+04  0.16345404106E+04  0.25500000920E-02 0. -1.
</event>
<event>
 5   0  0.1257442E-02  0.6997300E+03  0.7818609E-02  0.9717694E-01
        1   -1    0    0  501    0  0.00000000000E+00  0.00000000000E+00  0.23787973742E+03  0.23787973748E+03  0.50400001928E-02 0. -1.
       -1   -1    0    0    0  501  0.00000000000E+00  0.00000000000E+00 -0.51456894453E+03  0.51456894456E+03  0.50400001928E-02 0.  1.
    10030    2    1    2    0    0  0.00000000000E+00  0.00000000000E+00 -0.27668920711E+03  0.75244868203E+03  0.69973002062E+03 0.  0.
        1    1    3    3  502    0  0.14031009456E+03  0.69023038835E+02  0.19821222304E+03  0.25246621143E+03  0.50400001928E-02 0. -1.
       -1    1    3    3    0  502 -0.14031009456E+03 -0.69023038835E+02 -0.47490143015E+03  0.49998247060E+03  0.50400001928E-02 0.  1.
</event>
<event>
 5   0  0.1909053E-02  0.6244356E+03  0.7818609E-02  0.9855968E-01
       -2   -1    0    0    0  501  0.00000000000E+00  0.00000000000E+00  0.34809567776E+03  0.34809567777E+03  0.25500000920E-02 0. -1.
        2   -1    0    0  501    0  0.00000000000E+00  0.00000000000E+00 -0.28003778388E+03  0.28003778390E+03  0.25500000920E-02 0.  1.
    10030    2    1    2    0    0  0.00000000000E+00  0.00000000000E+00  0.68057893875E+02  0.62813346166E+03  0.62443556012E+03 0.  0.
        1    1    3    3  502    0 -0.64010657777E+02 -0.16887400013E+03  0.29022159807E+03  0.34182505502E+03  0.50400001928E-02 0. -1.
       -1    1    3    3    0  502  0.64010657777E+02  0.16887400013E+03 -0.22216370419E+03  0.28630840664E+03  0.50400001928E-02 0.  1.
</event>
<event>
 5   0  0.1197259E-02  0.7038068E+03  0.7818609E-02  0.9710744E-01
       -1   -1    0    0    0  501  0.00000000000E+00  0.00000000000E+00  0.59961779660E+03  0.59961779662E+03  0.50400001928E-02 0. -1.
        1   -1    0    0  501    0  0.00000000000E+00  0.00000000000E+00 -0.20652489610E+03  0.20652489617E+03  0.50400001928E-02 0.  1.
    10030    2    1    2    0    0  0.00000000000E+00  0.00000000000E+00  0.39309290049E+03  0.80614269279E+03  0.70380680070E+03 0.  0.
        3    1    3    3  502    0  0.24940760459E+03 -0.82409833471E+02  0.46477747182E+03  0.53386668972E+03  0.10100000352E+00 0. -1.
       -3    1    3    3    0  502 -0.24940760459E+03  0.82409833471E+02 -0.71684571324E+02  0.27227600307E+03  0.10100000352E+00 0.  1.
</event>
<event>
 5   0  0.1973067E-02  0.7317719E+03  0.7818609E-02  0.9664389E-01
       -2   -1    0    0    0  501  0.00000000000E+00  0.00000000000E+00  0.26604993658E+03  0.26604993660E+03  0.25500000920E-02 0. -1.
        2   -1    0    0  501    0  0.00000000000E+00  0.00000000000E+00 -0.50318568892E+03  0.50318568892E+03  0.25500000920E-02 0.  1.
    10030    2    1    2    0    0  0.00000000000E+00  0.00000000000E+00 -0.23713575233E+03  0.76923562552E+03  0.73177187875E+03 0.  0.
        5    1    3    3  502    0  0.78898086274E+02  0.97107582172E+02  0.24282900638E+03  0.27320835798E+03  0.46999998093E+01 0. -1.
       -5    1    3    3    0  502 -0.78898086274E+02 -0.97107582172E+02 -0.47996475872E+03  0.49602726754E+03  0.46999998093E+01 0.  1.
</event>
<event>
 5   0  0.1909053E-02  0.6901629E+03  0.7818609E-02  0.9734204E-01
        2   -1    0    0  501    0  0.00000000000E+00  0.00000000000E+00  0.68693684108E+03  0.68693684108E+03  0.25500000920E-02 0. -1.
       -2   -1    0    0    0  501  0.00000000000E+00  0.00000000000E+00 -0.17335104857E+03  0.17335104859E+03  0.25500000920E-02 0.  1.
    10030    2    1    2    0    0  0.00000000000E+00  0.00000000000E+00  0.51358579251E+03  0.86028788968E+03  0.69016294226E+03 0.  0.
        1    1    3    3  502    0  0.30612981548E+03  0.47533796304E+00  0.45531741823E+03  0.54866168195E+03  0.50400001928E-02 0. -1.
       -1    1    3    3    0  502 -0.30612981548E+03 -0.47533796304E+00  0.58268374275E+02  0.31162620772E+03  0.50400001928E-02 0.  1.
</event>
<event>
 5   0  0.1223742E-02  0.6966320E+03  0.7818609E-02  0.9723009E-01
       -1   -1    0    0    0  501  0.00000000000E+00  0.00000000000E+00  0.12588236900E+03  0.12588236910E+03  0.50400001928E-02 0.  1.
        1   -1    0    0  501    0  0.00000000000E+00  0.00000000000E+00 -0.96378892457E+03  0.96378892458E+03  0.50400001928E-02 0. -1.
    10030    2    1    2    0    0  0.00000000000E+00  0.00000000000E+00 -0.83790655557E+03  0.10896712937E+04  0.69663199209E+03 0.  0.
        2    1    3    3  502    0  0.29642583005E+03  0.14507607992E+03 -0.24471037923E+03  0.41085096007E+03  0.25500000920E-02 0. -1.
       -2    1    3    3    0  502 -0.29642583005E+03 -0.14507607992E+03 -0.59319617634E+03  0.67882033360E+03  0.25500000920E-02 0.  1.
</event>
<event>
 5   0  0.2026361E-02  0.7032428E+03  0.7818609E-02  0.9711703E-01
        2   -1    0    0  501    0  0.00000000000E+00  0.00000000000E+00  0.88461696810E+03  0.88461696810E+03  0.25500000920E-02 0. -1.
       -2   -1    0    0    0  501  0.00000000000E+00  0.00000000000E+00 -0.13976398786E+03  0.13976398789E+03  0.25500000920E-02 0.  1.
    10030    2    1    2    0    0  0.00000000000E+00  0.00000000000E+00  0.74485298023E+03  0.10243809560E+04  0.70324276095E+03 0.  0.
        2    1    3    3  502    0 -0.31548253904E+03 -0.37198749654E+02  0.59201241563E+03  0.67185688928E+03  0.25500000920E-02 0.  1.
       -2    1    3    3    0  502  0.31548253904E+03  0.37198749654E+02  0.15284056461E+03  0.35252406671E+03  0.25500000920E-02 0. -1.
</event>
<event>
 5   0  0.1909053E-02  0.6998954E+03  0.7818609E-02  0.9717411E-01
        2   -1    0    0  501    0  0.00000000000E+00  0.00000000000E+00  0.38557437184E+03  0.38557437185E+03  0.25500000920E-02 0. -1.
       -2   -1    0    0    0  501  0.00000000000E+00  0.00000000000E+00 -0.31761286918E+03  0.31761286919E+03  0.25500000920E-02 0.  1.
    10030    2    1    2    0    0  0.00000000000E+00  0.00000000000E+00  0.67961502664E+02  0.70318724104E+03  0.69989537083E+03 0.  0.
        1    1    3    3  502    0  0.86361151260E+02 -0.99422516435E+02  0.35972829626E+03  0.38307640540E+03  0.50400001928E-02 0. -1.
       -1    1    3    3    0  502 -0.86361151260E+02  0.99422516435E+02 -0.29176679360E+03  0.32011083564E+03  0.50400001928E-02 0.  1.
</event>
<event>
 5   0  0.1223742E-02  0.6877741E+03  0.7818609E-02  0.9738372E-01
       -1   -1    0    0    0  501  0.00000000000E+00  0.00000000000E+00  0.16456989543E+03  0.16456989551E+03  0.50400001928E-02 0. -1.
        1   -1    0    0  501    0  0.00000000000E+00  0.00000000000E+00 -0.71859004711E+03  0.71859004713E+03  0.50400001928E-02 0.  1.
    10030    2    1    2    0    0  0.00000000000E+00  0.00000000000E+00 -0.55402015168E+03  0.88315994263E+03  0.68777405869E+03 0.  0.
        2    1    3    3  502    0 -0.13254921367E+03 -0.28201714943E+03 -0.90241677350E+02  0.32441721125E+03  0.25500000920E-02 0. -1.
       -2    1    3    3    0  502  0.13254921367E+03  0.28201714943E+03 -0.46377847433E+03  0.55874273138E+03  0.25500000920E-02 0.  1.
</event>
<event>
 5   0  0.1226303E-02  0.6940918E+03  0.7818609E-02  0.9727390E-01
        1   -1    0    0  501    0  0.00000000000E+00  0.00000000000E+00  0.14067316208E+04  0.14067316208E+04  0.50400001928E-02 0.  1.
       -1   -1    0    0    0  501  0.00000000000E+00  0.00000000000E+00 -0.85617498297E+02  0.85617498445E+02  0.50400001928E-02 0. -1.
    10030    2    1    2    0    0  0.00000000000E+00  0.00000000000E+00  0.13211141225E+04  0.14923491193E+04  0.69409175839E+03 0.  0.
        4    1    3    3  502    0  0.18437191051E+03 -0.27093899332E+03  0.41505007101E+03  0.52883751175E+03  0.12699999809E+01 0. -1.
       -4    1    3    3    0  502 -0.18437191051E+03  0.27093899332E+03  0.90606405150E+03  0.96351160751E+03  0.12699999809E+01 0.  1.
</event>
<event>
 5   0  0.1973067E-02  0.6937925E+03  0.7818609E-02  0.9727907E-01
       -2   -1    0    0    0  501  0.00000000000E+00  0.00000000000E+00  0.51901603788E+03  0.51901603789E+03  0.25500000920E-02 0. -1.
        2   -1    0    0  501    0  0.00000000000E+00  0.00000000000E+00 -0.23185603022E+03  0.23185603023E+03  0.25500000920E-02 0.  1.
    10030    2    1    2    0    0  0.00000000000E+00  0.00000000000E+00  0.28716000767E+03  0.75087206812E+03  0.69379247090E+03 0.  0.
        5    1    3    3  502    0  0.25781097296E+03  0.90732881592E+01 -0.10737194762E+03  0.27946314152E+03  0.46999998093E+01 0.  1.
       -5    1    3    3    0  502 -0.25781097296E+03 -0.90732881592E+01  0.39453195529E+03  0.47140892660E+03  0.46999998093E+01 0. -1.
</event>
<event>
 5   0  0.1197259E-02  0.7024049E+03  0.7818609E-02  0.9713128E-01
       -1   -1    0    0    0  501  0.00000000000E+00  0.00000000000E+00  0.13875007390E+03  0.13875007399E+03  0.50400001928E-02 0. -1.
        1   -1    0    0  501    0  0.00000000000E+00  0.00000000000E+00 -0.88895933717E+03  0.88895933719E+03  0.50400001928E-02 0.  1.
    10030    2    1    2    0    0  0.00000000000E+00  0.00000000000E+00 -0.75020926327E+03  0.10277094112E+04  0.70240493672E+03 0.  0.
        3    1    3    3  502    0  0.24349089928E+03  0.23147605863E+03 -0.22536292061E+03  0.40454596764E+03  0.10100000352E+00 0.  1.
       -3    1    3    3    0  502 -0.24349089928E+03 -0.23147605863E+03 -0.52484634267E+03  0.62316344354E+03  0.10100000352E+00 0. -1.
</event>
<event>
 5   0  0.1257442E-02  0.6957124E+03  0.7818609E-02  0.9724593E-01
        1   -1    0    0  501    0  0.00000000000E+00  0.00000000000E+00  0.20165682212E+03  0.20165682218E+03  0.50400001928E-02 0.  1.
       -1   -1    0    0    0  501  0.00000000000E+00  0.00000000000E+00 -0.60004873135E+03  0.60004873137E+03  0.50400001928E-02 0. -1.
    10030    2    1    2    0    0  0.00000000000E+00  0.00000000000E+00 -0.39839190923E+03  0.80170555356E+03  0.69571235526E+03 0.  0.
        1    1    3    3  502    0 -0.17893262104E+03  0.34842971454E+02 -0.54059763853E+03  0.57050567249E+03  0.50400001928E-02 0. -1.
       -1    1    3    3    0  502  0.17893262104E+03 -0.34842971454E+02  0.14220572930E+03  0.23119988107E+03  0.50400001928E-02 0.  1.
</event>
<event>
 5   0  0.1948138E-02  0.6992693E+03  0.7818609E-02  0.9718483E-01
       -2   -1    0    0    0  501  0.00000000000E+00  0.00000000000E+00  0.17994688526E+03  0.17994688527E+03  0.25500000920E-02 0. -1.
        2   -1    0    0  501    0  0.00000000000E+00  0.00000000000E+00 -0.67933597754E+03  0.67933597754E+03  0.25500000920E-02 0.  1.
    10030    2    1    2    0    0  0.00000000000E+00  0.00000000000E+00 -0.49938909228E+03  0.85928286282E+03  0.69926931353E+03 0.  0.
        3    1    3    3  502    0 -0.27733771426E+03 -0.18380324906E+00  0.11928282305E+02  0.27759419240E+03  0.10100000352E+00 0. -1.
       -3    1    3    3    0  502  0.27733771426E+03  0.18380324906E+00 -0.51131737459E+03  0.58168867042E+03  0.10100000352E+00 0.  1.
</event>
<event>
 5   0  0.1973067E-02  0.6808826E+03  0.7818609E-02  0.9750496E-01
        2   -1    0    0  501    0  0.00000000000E+00  0.00000000000E+00  0.62861452574E+03  0.62861452574E+03  0.25500000920E-02 0. -1.
       -2   -1    0    0    0  501  0.00000000000E+00  0.00000000000E+00 -0.18437417056E+03  0.18437417058E+03  0.25500000920E-02 0.  1.
    10030    2    1    2    0    0  0.00000000000E+00  0.00000000000E+00  0.44424035517E+03  0.81298869632E+03  0.68088260896E+03 0.  0.
        5    1    3    3  502    0  0.98400133661E+01  0.27018692924E+03  0.46908473525E+03  0.54144286996E+03  0.46999998093E+01 0. -1.
       -5    1    3    3    0  502 -0.98400133661E+01 -0.27018692924E+03 -0.24844380075E+02  0.27154582636E+03  0.46999998093E+01 0.  1.
</event>
<event>
 5   0  0.1237686E-02  0.7023197E+03  0.7818609E-02  0.9713273E-01
       -1   -1    0    0    0  501  0.00000000000E+00  0.00000000000E+00  0.43794101299E+03  0.43794101302E+03  0.50400001928E-02 0.  1.
        1   -1    0    0  501    0  0.00000000000E+00  0.00000000000E+00 -0.28157502070E+03  0.28157502075E+03  0.50400001928E-02 0. -1.
    10030    2    1    2    0    0  0.00000000000E+00  0.00000000000E+00  0.15636599229E+03  0.71951603377E+03  0.70231972726E+03 0.  0.
        5    1    3    3  502    0 -0.24805266321E+03  0.18775849210E+03  0.24498156748E+03  0.39600686040E+03  0.46999998093E+01 0.  1.
       -5    1    3    3    0  502  0.24805266321E+03 -0.18775849210E+03 -0.88615575196E+02  0.32350917336E+03  0.46999998093E+01 0. -1.
</event>
<event>
 5   0  0.1223742E-02  0.6858407E+03  0.7818609E-02  0.9741758E-01
       -1   -1    0    0    0  501  0.00000000000E+00  0.00000000000E+00  0.83346212264E+03  0.83346212266E+03  0.50400001928E-02 0.  1.
        1   -1    0    0  501    0  0.00000000000E+00  0.00000000000E+00 -0.14109144009E+03  0.14109144018E+03  0.50400001928E-02 0. -1.
    10030    2    1    2    0    0  0.00000000000E+00  0.00000000000E+00  0.69237068255E+03  0.97455356283E+03  0.68584071385E+03 0.  0.
        2    1    3    3  502    0  0.49087357104E+01  0.12016481591E+03 -0.11014192340E+03  0.16307949585E+03  0.25500000920E-02 0. -1.
       -2    1    3    3    0  502 -0.49087357104E+01 -0.12016481591E+03  0.80251260595E+03  0.81147406699E+03  0.25500000920E-02 0.  1.
</event>
<event>
 5   0  0.2006362E-02  0.7008491E+03  0.7818609E-02  0.9715781E-01
        2   -1    0    0  501    0  0.00000000000E+00  0.00000000000E+00  0.14932628137E+04  0.14932628137E+04  0.25500000920E-02 0.  1.
       -2   -1    0    0    0  501  0.00000000000E+00  0.00000000000E+00 -0.82234251767E+02  0.82234251806E+02  0.25500000920E-02 0. -1.
    10030    2    1    2    0    0  0.00000000000E+00  0.00000000000E+00  0.14110285620E+04  0.15754970655E+04  0.70084905710E+03 0.  0.
        4    1    3    3  502    0  0.76618047050E+02  0.32284443173E+03  0.95881807778E+03  0.10146095660E+04  0.12699999809E+01 0.  1.
       -4    1    3    3    0  502 -0.76618047050E+02 -0.32284443173E+03  0.45221048419E+03  0.56088749954E+03  0.12699999809E+01 0. -1.
</event>
<event>
 5   0  0.1973067E-02  0.6986253E+03  0.7818609E-02  0.9719586E-01
       -2   -1    0    0    0  501  0.00000000000E+00  0.00000000000E+00  0.30717841308E+03  0.30717841309E+03  0.25500000920E-02 0.  1.
        2   -1    0    0  501    0  0.00000000000E+00  0.00000000000E+00 -0.39722623146E+03  0.39722623146E+03  0.25500000920E-02 0. -1.
    10030    2    1    2    0    0  0.00000000000E+00  0.00000000000E+00 -0.90047818379E+02  0.70440464455E+03  0.69862528846E+03 0.  0.
        5    1    3    3  502    0  0.11520139658E+03 -0.79061441077E+02  0.27774166848E+03  0.31094146981E+03  0.46999998093E+01 0.  1.
       -5    1    3    3    0  502 -0.11520139658E+03  0.79061441077E+02 -0.36778948686E+03  0.39346317474E+03  0.46999998093E+01 0. -1.
</event>
<event>
 5   0  0.1226303E-02  0.7013125E+03  0.7818609E-02  0.9714990E-01
       -1   -1    0    0    0  501  0.00000000000E+00  0.00000000000E+00  0.17482033931E+03  0.17482033939E+03  0.50400001928E-02 0.  1.
        1   -1    0    0  501    0  0.00000000000E+00  0.00000000000E+00 -0.70334953504E+03  0.70334953506E+03  0.50400001928E-02 0. -1.
    10030    2    1    2    0    0  0.00000000000E+00  0.00000000000E+00 -0.52852919573E+03  0.87816987445E+03  0.70131249643E+03 0.  0.
        4    1    3    3  502    0 -0.19538327069E+01  0.18808803175E+03 -0.63482810631E+03  0.66210970588E+03  0.12699999809E+01 0. -1.
       -4    1    3    3    0  502  0.19538327069E+01 -0.18808803175E+03  0.10629891058E+03  0.21606016857E+03  0.12699999809E+01 0.  1.
</event>
<event>
 5   0  0.2026361E-02  0.7021870E+03  0.7818609E-02  0.9713499E-01
       -2   -1    0    0    0  501  0.00000000000E+00  0.00000000000E+00  0.18609199058E+03  0.18609199060E+03  0.25500000920E-02 0.  1.
        2   -1    0    0  501    0  0.00000000000E+00  0.00000000000E+00 -0.66239622770E+03  0.66239622771E+03  0.25500000920E-02 0. -1.
    10030    2    1    2    0    0  0.00000000000E+00  0.00000000000E+00 -0.47630423712E+03  0.84848821830E+03  0.70218696250E+03 0.  0.
        2    1    3    3  502    0 -0.32852881697E+01  0.77020138898E+02 -0.65204313463E+03  0.65658445331E+03  0.25500000920E-02 0. -1.
       -2    1    3    3    0  502  0.32852881697E+01 -0.77020138898E+02  0.17573889751E+03  0.19190376499E+03  0.25500000920E-02 0.  1.
</event>
<event>
 5   0  0.7947250E-03  0.6178754E+03  0.7818609E-02  0.9868999E-01
        3   -1    0    0  501    0  0.00000000000E+00  0.00000000000E+00  0.99023798619E+02  0.99023850127E+02  0.10100000352E+00 0. -1.
       -3   -1    0    0    0  501  0.00000000000E+00  0.00000000000E+00 -0.96383372424E+03  0.96383372954E+03  0.10100000352E+00 0.  1.
    10030    2    1    2    0    0  0.00000000000E+00  0.00000000000E+00 -0.86480992562E+03  0.10628575797E+04  0.61787541397E+03 0.  0.
        5    1    3    3  502    0  0.11214339442E+03 -0.19635118174E+03 -0.70387601341E+02  0.23686796302E+03  0.46999998093E+01 0. -1.
       -5    1    3    3    0  502 -0.11214339442E+03  0.19635118174E+03 -0.79442232428E+03  0.82598961664E+03  0.46999998093E+01 0.  1.
</event>
<event>
 5   0  0.1223742E-02  0.6978833E+03  0.7818609E-02  0.9720859E-01
       -1   -1    0    0    0  501  0.00000000000E+00  0.00000000000E+00  0.44616357357E+03  0.44616357360E+03  0.50400001928E-02 0. -1.
        1   -1    0    0  501    0  0.00000000000E+00  0.00000000000E+00 -0.27290504949E+03  0.27290504954E+03  0.50400001928E-02 0.  1.
    10030    2    1    2    0    0  0.00000000000E+00  0.00000000000E+00  0.17325852408E+03  0.71906862314E+03  0.69788334886E+03 0.  0.
        2    1    3    3  502    0 -0.30484731538E+03 -0.81325720157E+02 -0.66940638432E+02  0.32253187057E+03  0.25500000920E-02 0.  1.
       -2    1    3    3    0  502  0.30484731538E+03  0.81325720157E+02  0.24019916251E+03  0.39653675256E+03  0.25500000920E-02 0. -1.
</event>
<event>
 5   0  0.1909053E-02  0.6928245E+03  0.7818609E-02  0.9729583E-01
        2   -1    0    0  501    0  0.00000000000E+00  0.00000000000E+00  0.13062592280E+04  0.13062592280E+04  0.25500000920E-02 0.  1.
       -2   -1    0    0    0  501  0.00000000000E+00  0.00000000000E+00 -0.91866476457E+02  0.91866476493E+02  0.25500000920E-02 0. -1.
    10030    2    1    2    0    0  0.00000000000E+00  0.00000000000E+00  0.12143927516E+04  0.13981257045E+04  0.69282445870E+03 0.  0.
        1    1    3    3  502    0  0.32673296384E+03 -0.11455877626E+03  0.58478923338E+03  0.67960031665E+03  0.50400001928E-02 0.  1.
       -1    1    3    3    0  502 -0.32673296384E+03  0.11455877626E+03  0.62960351817E+03  0.71852538786E+03  0.50400001928E-02 0. -1.
</event>
<event>
 5   0  0.1257442E-02  0.6997512E+03  0.7818609E-02  0.9717658E-01
        1   -1    0    0  501    0  0.00000000000E+00  0.00000000000E+00  0.83074187972E+03  0.83074187974E+03  0.50400001928E-02 0.  1.
       -1   -1    0    0    0  501  0.00000000000E+00  0.00000000000E+00 -0.14735375268E+03  0.14735375277E+03  0.50400001928E-02 0. -1.
    10030    2    1    2    0    0  0.00000000000E+00  0.00000000000E+00  0.68338812704E+03  0.97809563251E+03  0.69975119446E+03 0.  0.
        1    1    3    3  502    0 -0.30718936066E+03 -0.76604312201E+02  0.13352669057E+03  0.34360282460E+03  0.50400001928E-02 0. -1.
       -1    1    3    3    0  502  0.30718936066E+03  0.76604312201E+02  0.54986143647E+03  0.63449280791E+03  0.50400001928E-02 0.  1.
</event>
<event>
 5   0  0.1197259E-02  0.7018003E+03  0.7818609E-02  0.9714158E-01
        1   -1    0    0  501    0  0.00000000000E+00  0.00000000000E+00  0.58601039739E+03  0.58601039741E+03  0.50400001928E-02 0. -1.
       -1   -1    0    0    0  501  0.00000000000E+00  0.00000000000E+00 -0.21011726943E+03  0.21011726949E+03  0.50400001928E-02 0.  1.
    10030    2    1    2    0    0  0.00000000000E+00  0.00000000000E+00  0.37589312796E+03  0.79612766690E+03  0.70180026956E+03 0.  0.
        3    1    3    3  502    0 -0.13703386164E+02 -0.32956404903E+03  0.52145829696E+02  0.33394526941E+03  0.10100000352E+00 0.  1.
       -3    1    3    3    0  502  0.13703386164E+02  0.32956404903E+03  0.32374729827E+03  0.46218239748E+03  0.10100000352E+00 0. -1.
</event>
<event>
 5   0  0.2006362E-02  0.6967824E+03  0.7818609E-02  0.9722751E-01
       -2   -1    0    0    0  501  0.00000000000E+00  0.00000000000E+00  0.14198391496E+03  0.14198391498E+03  0.25500000920E-02 0. -1.
        2   -1    0    0  501    0  0.00000000000E+00  0.00000000000E+00 -0.85486044727E+03  0.85486044727E+03  0.25500000920E-02 0.  1.
    10030    2    1    2    0    0  0.00000000000E+00  0.00000000000E+00 -0.71287653231E+03  0.99684436225E+03  0.69678241384E+03 0.  0.
        4    1    3    3  502    0  0.37594914387E+02  0.27346211817E+03 -0.66052877744E+03  0.71588741181E+03  0.12699999809E+01 0.  1.
       -4    1    3    3    0  502 -0.37594914387E+02 -0.27346211817E+03 -0.52347754867E+02  0.28095695044E+03  0.12699999809E+01 0. -1.
</event>
<event>
 5   0  0.1909053E-02  0.6746139E+03  0.7818609E-02  0.9761659E-01
       -2   -1    0    0    0  501  0.00000000000E+00  0.00000000000E+00  0.34830456498E+03  0.34830456499E+03  0.25500000920E-02 0.  1.
        2   -1    0    0  501    0  0.00000000000E+00  0.00000000000E+00 -0.32665654087E+03  0.32665654088E+03  0.25500000920E-02 0. -1.
    10030    2    1    2    0    0  0.00000000000E+00  0.00000000000E+00  0.21648024107E+02  0.67496110587E+03  0.67461385806E+03 0.  0.
        1    1    3    3  502    0  0.10730694526E+03  0.30307989895E+03 -0.91227307519E+02  0.33420746148E+03  0.50400001928E-02 0.  1.
       -1    1    3    3    0  502 -0.10730694526E+03 -0.30307989895E+03  0.11287533163E+03  0.34075364439E+03  0.50400001928E-02 0. -1.
</event>
<event>
 5   0  0.1973067E-02  0.6969694E+03  0.7818609E-02  0.9722429E-01
       -2   -1    0    0    0  501  0.00000000000E+00  0.00000000000E+00  0.15649967838E+03  0.15649967840E+03  0.25500000920E-02 0.  1.
        2   -1    0    0  501    0  0.00000000000E+00  0.00000000000E+00 -0.77598623404E+03  0.77598623404E+03  0.25500000920E-02 0. -1.
    10030    2    1    2    0    0  0.00000000000E+00  0.00000000000E+00 -0.61948655566E+03  0.93248591245E+03  0.69696942851E+03 0.  0.
        5    1    3    3  502    0  0.97899590423E+02 -0.87297837297E+02  0.12216560213E+03  0.17930913681E+03  0.46999998093E+01 0.  1.
       -5    1    3    3    0  502 -0.97899590423E+02  0.87297837297E+02 -0.74165215779E+03  0.75317677563E+03  0.46999998093E+01 0. -1.
</event>
<event>
 5   0  0.1226303E-02  0.6990379E+03  0.7818609E-02  0.9718879E-01
       -1   -1    0    0    0  501  0.00000000000E+00  0.00000000000E+00  0.98402662472E+03  0.98402662473E+03  0.50400001928E-02 0. -1.
        1   -1    0    0  501    0  0.00000000000E+00  0.00000000000E+00 -0.12414653816E+03  0.12414653826E+03  0.50400001928E-02 0.  1.
    10030    2    1    2    0    0  0.00000000000E+00  0.00000000000E+00  0.85988008656E+03  0.11081731630E+04  0.69903790735E+03 0.  0.
        4    1    3    3  502    0 -0.29784259958E+03 -0.17925808123E+03  0.48749723230E+03  0.59874772501E+03  0.12699999809E+01 0. -1.
       -4    1    3    3    0  502  0.29784259958E+03  0.17925808123E+03  0.37238285426E+03  0.50942543798E+03  0.12699999809E+01 0.  1.
</event>
<event>
 5   0  0.1237686E-02  0.6804772E+03  0.7818609E-02  0.9751214E-01
       -1   -1    0    0    0  501  0.00000000000E+00  0.00000000000E+00  0.17489791075E+03  0.17489791083E+03  0.50400001928E-02 0. -1.
        1   -1    0    0  501    0  0.00000000000E+00  0.00000000000E+00 -0.66188508082E+03  0.66188508084E+03  0.50400001928E-02 0.  1.
    10030    2    1    2    0    0  0.00000000000E+00  0.00000000000E+00 -0.48698717007E+03  0.83678299166E+03  0.68047723792E+03 0.  0.
        5    1    3    3  502    0  0.25588290142E+03  0.21492547071E+03 -0.16503128625E+03  0.37272836307E+03  0.46999998093E+01 0.  1.
       -5    1    3    3    0  502 -0.25588290142E+03 -0.21492547071E+03 -0.32195588381E+03  0.46405462859E+03  0.46999998093E+01 0. -1.
</event>
<event>
 5   0  0.2026361E-02  0.7106863E+03  0.7818609E-02  0.9699130E-01
        2   -1    0    0  501    0  0.00000000000E+00  0.00000000000E+00  0.20866860351E+04  0.20866860351E+04  0.25500000920E-02 0.  1.
       -2   -1    0    0    0  501  0.00000000000E+00  0.00000000000E+00 -0.60511616411E+02  0.60511616464E+02  0.25500000920E-02 0. -1.
    10030    2    1    2    0    0  0.00000000000E+00  0.00000000000E+00  0.20261744187E+04  0.21471976516E+04  0.71068627393E+03 0.  0.
        2    1    3    3  502    0 -0.18972732298E+03  0.15201385635E+03  0.23008566972E+03  0.33472986874E+03  0.25500000920E-02 0. -1.
       -2    1    3    3    0  502  0.18972732298E+03 -0.15201385635E+03  0.17960887490E+04  0.18124677829E+04  0.25500000920E-02 0.  1.
</event>
<event>
 5   0  0.1226303E-02  0.7017884E+03  0.7818609E-02  0.9714179E-01
       -1   -1    0    0    0  501  0.00000000000E+00  0.00000000000E+00  0.12176881844E+03  0.12176881854E+03  0.50400001928E-02 0.  1.
        1   -1    0    0  501    0  0.00000000000E+00  0.00000000000E+00 -0.10111516871E+04  0.10111516871E+04  0.50400001928E-02 0. -1.
    10030    2    1    2    0    0  0.00000000000E+00  0.00000000000E+00 -0.88938286866E+03  0.11329205057E+04  0.70178841901E+03 0.  0.
        4    1    3    3  502    0  0.11842758941E+03 -0.16810684276E+03  0.14302280770E+02  0.20613387070E+03  0.12699999809E+01 0.  1.
       -4    1    3    3    0  502 -0.11842758941E+03  0.16810684276E+03 -0.90368514943E+03  0.92678663495E+03  0.12699999809E+01 0. -1.
</event>
<event>
 5   0  0.1973067E-02  0.6981692E+03  0.7818609E-02  0.9720368E-01
       -2   -1    0    0    0  501  0.00000000000E+00  0.00000000000E+00  0.20135658429E+03  0.20135658431E+03  0.25500000920E-02 0.  1.
        2   -1    0    0  501    0  0.00000000000E+00  0.00000000000E+00 -0.60519523698E+03  0.60519523699E+03  0.25500000920E-02 0. -1.
    10030    2    1    2    0    0  0.00000000000E+00  0.00000000000E+00 -0.40383865269E+03  0.80655182129E+03  0.69816916505E+03 0.  0.
        5    1    3    3  502    0  0.71155314129E+02  0.14226903939E+02 -0.59634903211E+03  0.60076596243E+03  0.46999998093E+01 0. -1.
       -5    1    3    3    0  502 -0.71155314129E+02 -0.14226903939E+02  0.19251037942E+03  0.20578585886E+03  0.46999998093E+01 0.  1.
</event>
<event>
 5   0  0.1237686E-02  0.7057962E+03  0.7818609E-02  0.9707371E-01
       -1   -1    0    0    0  501  0.00000000000E+00  0.00000000000E+00  0.55555685404E+03  0.55555685406E+03  0.50400001928E-02 0. -1.
        1   -1    0    0  501    0  0.00000000000E+00  0.00000000000E+00 -0.22416622391E+03  0.22416622397E+03  0.50400001928E-02 0.  1.
    10030    2    1    2    0    0  0.00000000000E+00  0.00000000000E+00  0.33139063013E+03  0.77972307803E+03  0.70579623736E+03 0.  0.
        5    1    3    3  502    0  0.20818206366E+03  0.27437808305E+03  0.25049383930E+03  0.42590181687E+03  0.46999998093E+01 0. -1.
       -5    1    3    3    0  502 -0.20818206366E+03 -0.27437808305E+03  0.80896790835E+02  0.35382126116E+03  0.46999998093E+01 0.  1.
</event>
<event>
 5   0  0.1226303E-02  0.6937025E+03  0.7818609E-02  0.9728063E-01
        1   -1    0    0  501    0  0.00000000000E+00  0.00000000000E+00  0.77536462404E+03  0.77536462406E+03  0.50400001928E-02 0.  1.
       -1   -1    0    0    0  501  0.00000000000E+00  0.00000000000E+00 -0.15516027725E+03  0.15516027733E+03  0.50400001928E-02 0. -1.
    10030    2    1    2    0    0  0.00000000000E+00  0.00000000000E+00  0.62020434680E+03  0.93052490139E+03  0.69370250131E+03 0.  0.
        4    1    3    3  502    0  0.16852793233E+03  0.22873230096E+03  0.57698144265E+03  0.64314020830E+03  0.12699999809E+01 0. -1.
       -4    1    3    3    0  502 -0.16852793233E+03 -0.22873230096E+03  0.43222904147E+02  0.28738469308E+03  0.12699999809E+01 0.  1.
</event>
<event>
 5   0  0.2026361E-02  0.7118467E+03  0.7818609E-02  0.9697185E-01
        2   -1    0    0  501    0  0.00000000000E+00  0.00000000000E+00  0.13453880183E+04  0.13453880183E+04  0.25500000920E-02 0.  1.
       -2   -1    0    0    0  501  0.00000000000E+00  0.00000000000E+00 -0.94159770430E+02  0.94159770464E+02  0.25500000920E-02 0. -1.
    10030    2    1    2    0    0  0.00000000000E+00  0.00000000000E+00  0.12512282479E+04  0.14395477888E+04  0.71184668846E+03 0.  0.
        2    1    3    3  502    0  0.32355367689E+02  0.80126976878E+02  0.13238524077E+04  0.13266696649E+04  0.25500000920E-02 0.  1.
       -2    1    3    3    0  502 -0.32355367689E+02 -0.80126976878E+02 -0.72624159885E+02  0.11287812387E+03  0.25500000920E-02 0. -1.
</event>
<event>
 5   0  0.1237686E-02  0.7070892E+03  0.7818609E-02  0.9705185E-01
        1   -1    0    0  501    0  0.00000000000E+00  0.00000000000E+00  0.17776201299E+04  0.17776201299E+04  0.50400001928E-02 0.  1.
       -1   -1    0    0    0  501  0.00000000000E+00  0.00000000000E+00 -0.70315236941E+02  0.70315237122E+02  0.50400001928E-02 0. -1.
    10030    2    1    2    0    0  0.00000000000E+00  0.00000000000E+00  0.17073048930E+04  0.18479353670E+04  0.70708919041E+03 0.  0.
        5    1    3    3  502    0  0.29731978397E+03  0.18803403318E+03  0.94478019810E+03  0.10081604854E+04  0.46999998093E+01 0.  1.
       -5    1    3    3    0  502 -0.29731978397E+03 -0.18803403318E+03  0.76252469486E+03  0.83977488164E+03  0.46999998093E+01 0. -1.
</event>
<event>
 5   0  0.1909053E-02  0.7005910E+03  0.7818609E-02  0.9716222E-01
        2   -1    0    0  501    0  0.00000000000E+00  0.00000000000E+00  0.83822389584E+03  0.83822389584E+03  0.25500000920E-02 0. -1.
       -2   -1    0    0    0  501  0.00000000000E+00  0.00000000000E+00 -0.14638921982E+03  0.14638921984E+03  0.25500000920E-02 0.  1.
    10030    2    1    2    0    0  0.00000000000E+00  0.00000000000E+00  0.69183467602E+03  0.98461311568E+03  0.70059101381E+03 0.  0.
        1    1    3    3  502    0  0.66355948510E+02  0.15533682835E+02  0.82881722741E+03  0.83161433590E+03  0.50400001928E-02 0. -1.
       -1    1    3    3    0  502 -0.66355948510E+02 -0.15533682835E+02 -0.13698255139E+03  0.15299877978E+03  0.50400001928E-02 0.  1.
</event>
<event>
 5   0  0.1257442E-02  0.6966947E+03  0.7818609E-02  0.9722901E-01
       -1   -1    0    0    0  501  0.00000000000E+00  0.00000000000E+00  0.34370826954E+03  0.34370826957E+03  0.50400001928E-02 0.  1.
        1   -1    0    0  501    0  0.00000000000E+00  0.00000000000E+00 -0.35304906998E+03  0.35304907001E+03  0.50400001928E-02 0. -1.
    10030    2    1    2    0    0  0.00000000000E+00  0.00000000000E+00 -0.93408004418E+01  0.69675733959E+03  0.69669472491E+03 0.  0.
        1    1    3    3  502    0 -0.81522420848E+02  0.30565520736E+03  0.14120179830E+03  0.34642309212E+03  0.50400001928E-02 0.  1.
       -1    1    3    3    0  502  0.81522420848E+02 -0.30565520736E+03 -0.15054259875E+03  0.35033424747E+03  0.50400001928E-02 0. -1.
</event>
<event>
 5   0  0.1223742E-02  0.6995542E+03  0.7818609E-02  0.9717995E-01
       -1   -1    0    0    0  501  0.00000000000E+00  0.00000000000E+00  0.18460741661E+03  0.18460741668E+03  0.50400001928E-02 0. -1.
        1   -1    0    0  501    0  0.00000000000E+00  0.00000000000E+00 -0.66272539538E+03  0.66272539540E+03  0.50400001928E-02 0.  1.
    10030    2    1    2    0    0  0.00000000000E+00  0.00000000000E+00 -0.47811797877E+03  0.84733281208E+03  0.69955421006E+03 0.  0.
        2    1    3    3  502    0  0.24705295741E+03 -0.69771898104E+02 -0.52681804911E+03  0.58603800082E+03  0.25500000920E-02 0.  1.
       -2    1    3    3    0  502 -0.24705295741E+03  0.69771898104E+02  0.48700070347E+02  0.26129481126E+03  0.25500000920E-02 0. -1.
</event>
<event>
 5   0  0.2006362E-02  0.7049514E+03  0.7818609E-02  0.9708802E-01
        2   -1    0    0  501    0  0.00000000000E+00  0.00000000000E+00  0.21197603854E+04  0.21197603854E+04  0.25500000920E-02 0.  1.
       -2   -1    0    0    0  501  0.00000000000E+00  0.00000000000E+00 -0.58609988369E+02  0.58609988425E+02  0.25500000920E-02 0. -1.
    10030    2    1    2    0    0  0.00000000000E+00  0.00000000000E+00  0.20611503970E+04  0.21783703738E+04  0.70495143548E+03 0.  0.
        4    1    3    3  502    0  0.34075109481E+03 -0.59337701540E+02  0.82087492396E+03  0.89076906386E+03  0.12699999809E+01 0. -1.
       -4    1    3    3    0  502 -0.34075109481E+03  0.59337701540E+02  0.12402754730E+04  0.12876013099E+04  0.12699999809E+01 0.  1.
</event>
<event>
 5   0  0.2026361E-02  0.7039872E+03  0.7818609E-02  0.9710438E-01
        2   -1    0    0  501    0  0.00000000000E+00  0.00000000000E+00  0.36073973524E+03  0.36073973524E+03  0.25500000920E-02 0.  1.
       -2   -1    0    0    0  501  0.00000000000E+00  0.00000000000E+00 -0.34345952358E+03  0.34345952359E+03  0.25500000920E-02 0. -1.
    10030    2    1    2    0    0  0.00000000000E+00  0.00000000000E+00  0.17280211654E+02  0.70419925884E+03  0.70398720900E+03 0.  0.
        2    1    3    3  502    0  0.15989644052E+03 -0.23403833634E+02  0.32144004738E+03  0.35977536768E+03  0.25500000920E-02 0.  1.
       -2    1    3    3    0  502 -0.15989644052E+03  0.23403833634E+02 -0.30415983573E+03  0.34442389116E+03  0.25500000920E-02 0. -1.
</event>
<event>
 5   0  0.2006362E-02  0.6978863E+03  0.7818609E-02  0.9720854E-01
        2   -1    0    0  501    0  0.00000000000E+00  0.00000000000E+00  0.49842826630E+03  0.49842826630E+03  0.25500000920E-02 0.  1.
       -2   -1    0    0    0  501  0.00000000000E+00  0.00000000000E+00 -0.24429054492E+03  0.24429054493E+03  0.25500000920E-02 0. -1.
    10030    2    1    2    0    0  0.00000000000E+00  0.00000000000E+00  0.25413772138E+03  0.74271881123E+03  0.69788627378E+03 0.  0.
        4    1    3    3  502    0  0.10925398878E+03 -0.29492834927E+03  0.28790842928E+03  0.42639423286E+03  0.12699999809E+01 0.  1.
       -4    1    3    3    0  502 -0.10925398878E+03  0.29492834927E+03 -0.33770707898E+02  0.31632457837E+03  0.12699999809E+01 0. -1.
</event>
<event>
 5   0  0.7947250E-03  0.7008637E+03  0.7818609E-02  0.9715756E-01
        4   -1    0    0  501    0  0.00000000000E+00  0.00000000000E+00  0.84603422048E+03  0.84603517369E+03  0.12699999809E+01 0. -1.
       -4   -1    0    0    0  501  0.00000000000E+00  0.00000000000E+00 -0.14514690363E+03  0.14515245962E+03  0.12699999809E+01 0.  1.
    10030    2    1    2    0    0  0.00000000000E+00  0.00000000000E+00  0.70088731685E+03  0.99118763331E+03  0.70086367683E+03 0.  0.
        3    1    3    3  502    0 -0.13321878880E+03  0.11227124714E+02 -0.10766704536E+03  0.17165516850E+03  0.10100000352E+00 0.  1.
       -3    1    3    3    0  502  0.13321878880E+03 -0.11227124714E+02  0.80855436221E+03  0.81953246480E+03  0.10100000352E+00 0. -1.
</event>
<event>
 5   0  0.1909053E-02  0.6984407E+03  0.7818609E-02  0.9719903E-01
        2   -1    0    0  501    0  0.00000000000E+00  0.00000000000E+00  0.23562436760E+03  0.23562436761E+03  0.25500000920E-02 0. -1.
       -2   -1    0    0    0  501  0.00000000000E+00  0.00000000000E+00 -0.51758166145E+03  0.51758166146E+03  0.25500000920E-02 0.  1.
    10030    2    1    2    0    0  0.00000000000E+00  0.00000000000E+00 -0.28195729386E+03  0.75320602907E+03  0.69844069660E+03 0.  0.
        1    1    3    3  502    0  0.16779801372E+03  0.66911580988E+02  0.18132283311E+03  0.25595175895E+03  0.50400001928E-02 0. -1.
       -1    1    3    3    0  502 -0.16779801372E+03 -0.66911580988E+02 -0.46328012697E+03  0.49725427011E+03  0.50400001928E-02 0.  1.
</event>
<event>
 5   0  0.1226303E-02  0.6994168E+03  0.7818609E-02  0.9718230E-01
       -1   -1    0    0    0  501  0.00000000000E+00  0.00000000000E+00  0.50253471648E+03  0.50253471651E+03  0.50400001928E-02 0. -1.
        1   -1    0    0  501    0  0.00000000000E+00  0.00000000000E+00 -0.24335821651E+03  0.24335821656E+03  0.50400001928E-02 0.  1.
    10030    2    1    2    0    0  0.00000000000E+00  0.00000000000E+00  0.25917649997E+03  0.74589293307E+03  0.69941676378E+03 0.  0.
        4    1    3    3  502    0 -0.33566342345E+02 -0.34806022853E+03  0.13455811704E+03  0.37467335345E+03  0.12699999809E+01 0. -1.
       -4    1    3    3    0  502  0.33566342345E+02  0.34806022853E+03  0.12461838294E+03  0.37121957962E+03  0.12699999809E+01 0.  1.
</event>
<event>
 5   0  0.1223742E-02  0.7001251E+03  0.7818609E-02  0.9717018E-01
        1   -1    0    0  501    0  0.00000000000E+00  0.00000000000E+00  0.15852012030E+04  0.15852012030E+04  0.50400001928E-02 0. -1.
       -1   -1    0    0    0  501  0.00000000000E+00  0.00000000000E+00 -0.77304872883E+02  0.77304873047E+02  0.50400001928E-02 0.  1.
    10030    2    1    2    0    0  0.00000000000E+00  0.00000000000E+00  0.15078963301E+04  0.16625060760E+04  0.70012506778E+03 0.  0.
        2    1    3    3  502    0 -0.14083674429E+03  0.31660384686E+03  0.87198180924E+03  0.93830978895E+03  0.25500000920E-02 0. -1.
       -2    1    3    3    0  502  0.14083674429E+03 -0.31660384686E+03  0.63591452086E+03  0.72419628709E+03  0.25500000920E-02 0.  1.
</event>
<event>
 5   0  0.1257442E-02  0.7011889E+03  0.7818609E-02  0.9715201E-01
       -1   -1    0    0    0  501  0.00000000000E+00  0.00000000000E+00  0.14631113340E+03  0.14631113348E+03  0.50400001928E-02 0.  1.
        1   -1    0    0  501    0  0.00000000000E+00  0.00000000000E+00 -0.84010325429E+03  0.84010325431E+03  0.50400001928E-02 0. -1.
    10030    2    1    2    0    0  0.00000000000E+00  0.00000000000E+00 -0.69379212089E+03  0.98641438779E+03  0.70118887428E+03 0.  0.
        1    1    3    3  502    0  0.18730058755E+03  0.16922584324E+03 -0.46201797149E+01  0.25246829941E+03  0.50400001928E-02 0.  1.
       -1    1    3    3    0  502 -0.18730058755E+03 -0.16922584324E+03 -0.68917194118E+03  0.73394608838E+03  0.50400001928E-02 0. -1.
</event>
<event>
 5   0  0.1909053E-02  0.7004358E+03  0.7818609E-02  0.9716487E-01
        2   -1    0    0  501    0  0.00000000000E+00  0.00000000000E+00  0.62873710758E+03  0.62873710759E+03  0.25500000920E-02 0. -1.
       -2   -1    0    0    0  501  0.00000000000E+00  0.00000000000E+00 -0.19507769090E+03  0.19507769091E+03  0.25500000920E-02 0.  1.
    10030    2    1    2    0    0  0.00000000000E+00  0.00000000000E+00  0.43365941668E+03  0.82381479850E+03  0.70043581615E+03 0.  0.
        1    1    3    3  502    0  0.31489244769E+03 -0.21178250476E+02  0.38276907967E+02  0.31791648843E+03  0.50400001928E-02 0.  1.
       -1    1    3    3    0  502 -0.31489244769E+03  0.21178250476E+02  0.39538250872E+03  0.50589831007E+03  0.50400001928E-02 0. -1.
</event>
<event>
 5   0  0.1257442E-02  0.7050518E+03  0.7818609E-02  0.9708632E-01
       -1   -1    0    0    0  501  0.00000000000E+00  0.00000000000E+00  0.18328162242E+03  0.18328162249E+03  0.50400001928E-02 0. -1.
        1   -1    0    0  501    0  0.00000000000E+00  0.00000000000E+00 -0.67805228846E+03  0.67805228847E+03  0.50400001928E-02 0.  1.
    10030    2    1    2    0    0  0.00000000000E+00  0.00000000000E+00 -0.49477066604E+03  0.86133391096E+03  0.70505183795E+03 0.  0.
        1    1    3    3  502    0  0.80421307744E+02 -0.16227425632E+03 -0.61687248205E+03  0.64290915388E+03  0.50400001928E-02 0.  1.
       -1    1    3    3    0  502 -0.80421307744E+02  0.16227425632E+03  0.12210181602E+03  0.21842475708E+03  0.50400001928E-02 0. -1.
</event>
<event>
 5   0  0.1237686E-02  0.6991625E+03  0.7818609E-02  0.9718665E-01
        1   -1    0    0  501    0  0.00000000000E+00  0.00000000000E+00  0.11901455372E+04  0.11901455372E+04  0.50400001928E-02 0. -1.
       -1   -1    0    0    0  501  0.00000000000E+00  0.00000000000E+00 -0.10268244568E+03  0.10268244580E+03  0.50400001928E-02 0.  1.
    10030    2    1    2    0    0  0.00000000000E+00  0.00000000000E+00  0.10874630915E+04  0.12928279830E+04  0.69916251204E+03 0.  0.
        5    1    3    3  502    0  0.26800879237E+02 -0.19427157265E+03  0.10787771413E+04  0.10964679392E+04  0.46999998093E+01 0. -1.
       -5    1    3    3    0  502 -0.26800879237E+02  0.19427157265E+03  0.86859501769E+01  0.19636004379E+03  0.46999998093E+01 0.  1.
</event>
<event>
 5   0  0.1197259E-02  0.7112219E+03  0.7818609E-02  0.9698231E-01
        1   -1    0    0  501    0  0.00000000000E+00  0.00000000000E+00  0.32843026874E+03  0.32843026878E+03  0.50400001928E-02 0. -1.
       -1   -1    0    0    0  501  0.00000000000E+00  0.00000000000E+00 -0.38504111031E+03  0.38504111034E+03  0.50400001928E-02 0.  1.
    10030    2    1    2    0    0  0.00000000000E+00  0.00000000000E+00 -0.56610841566E+02  0.71347137912E+03  0.71122192137E+03 0.  0.
        3    1    3    3  502    0  0.11602434793E+03  0.28316546636E+03 -0.21002695672E+03  0.37115450071E+03  0.10100000352E+00 0.  1.
       -3    1    3    3    0  502 -0.11602434793E+03 -0.28316546636E+03  0.15341611516E+03  0.34231687840E+03  0.10100000352E+00 0. -1.
</event>
<event>
 5   0  0.2026361E-02  0.6917321E+03  0.7818609E-02  0.9731477E-01
       -2   -1    0    0    0  501  0.00000000000E+00  0.00000000000E+00  0.70473669901E+02  0.70473669947E+02  0.25500000920E-02 0. -1.
        2   -1    0    0  501    0  0.00000000000E+00  0.00000000000E+00 -0.16974186812E+04  0.16974186812E+04  0.25500000920E-02 0.  1.
    10030    2    1    2    0    0  0.00000000000E+00  0.00000000000E+00 -0.16269450113E+04  0.17678923512E+04  0.69173209804E+03 0.  0.
        2    1    3    3  502    0  0.16306357686E+03  0.13354954005E+03 -0.15143165109E+04  0.15289145513E+04  0.25500000920E-02 0.  1.
       -2    1    3    3    0  502 -0.16306357686E+03 -0.13354954005E+03 -0.11262850039E+03  0.23897779992E+03  0.25500000920E-02 0. -1.
</event>
<event>
 5   0  0.2026361E-02  0.6996714E+03  0.7818609E-02  0.9717794E-01
        2   -1    0    0  501    0  0.00000000000E+00  0.00000000000E+00  0.52194432505E+03  0.52194432506E+03  0.25500000920E-02 0.  1.
       -2   -1    0    0    0  501  0.00000000000E+00  0.00000000000E+00 -0.23447903235E+03  0.23447903237E+03  0.25500000920E-02 0. -1.
    10030    2    1    2    0    0  0.00000000000E+00  0.00000000000E+00  0.28746529270E+03  0.75642335742E+03  0.69967135224E+03 0.  0.
        2    1    3    3  502    0 -0.15269812109E+03  0.15504860421E+03 -0.15239785648E+03  0.26567252873E+03  0.25500000920E-02 0. -1.
       -2    1    3    3    0  502  0.15269812109E+03 -0.15504860421E+03  0.43986314918E+03  0.49075082870E+03  0.25500000920E-02 0.  1.
</event>
<event>
 5   0  0.7947250E-03  0.6701139E+03  0.7818609E-02  0.9769752E-01
       -3   -1    0    0    0  501  0.00000000000E+00  0.00000000000E+00  0.76640634062E+03  0.76640634728E+03  0.10100000352E+00 0. -1.
        3   -1    0    0  501    0  0.00000000000E+00  0.00000000000E+00 -0.14647994064E+03  0.14647997546E+03  0.10100000352E+00 0.  1.
    10030    2    1    2    0    0  0.00000000000E+00  0.00000000000E+00  0.61992639998E+03  0.91288632274E+03  0.67011394318E+03 0.  0.
        5    1    3    3  502    0 -0.22453671432E+03  0.14428464429E+03  0.58582609077E+03  0.64377720780E+03  0.46999998093E+01 0. -1.
       -5    1    3    3    0  502  0.22453671432E+03 -0.14428464429E+03  0.34100309207E+02  0.26910911494E+03  0.46999998093E+01 0.  1.
</event>
<event>
 5   0  0.2006362E-02  0.6958117E+03  0.7818609E-02  0.9724422E-01
       -2   -1    0    0    0  501  0.00000000000E+00  0.00000000000E+00  0.17695463835E+03  0.17695463837E+03  0.25500000920E-02 0. -1.
        2   -1    0    0  501    0  0.00000000000E+00  0.00000000000E+00 -0.68400859602E+03  0.68400859603E+03  0.25500000920E-02 0.  1.
    10030    2    1    2    0    0  0.00000000000E+00  0.00000000000E+00 -0.50705395767E+03  0.86096323440E+03  0.69581173819E+03 0.  0.
        4    1    3    3  502    0  0.13276046894E+02  0.64415498045E+02 -0.67624353198E+03  0.67943545481E+03  0.12699999809E+01 0.  1.
       -4    1    3    3    0  502 -0.13276046894E+02 -0.64415498045E+02  0.16918957431E+03  0.18152777959E+03  0.12699999809E+01 0. -1.
</event>
<event>
 5   0  0.7947250E-03  0.7025560E+03  0.7818609E-02  0.9712871E-01
       -3   -1    0    0    0  501  0.00000000000E+00  0.00000000000E+00  0.28645693476E+03  0.28645695256E+03  0.10100000352E+00 0. -1.
        3   -1    0    0  501    0  0.00000000000E+00  0.00000000000E+00 -0.43076706826E+03  0.43076708010E+03  0.10100000352E+00 0.  1.
    10030    2    1    2    0    0  0.00000000000E+00  0.00000000000E+00 -0.14431013350E+03  0.71722403267E+03  0.70255597528E+03 0.  0.
        5    1    3    3  502    0  0.19680432128E+03  0.11758318928E+03  0.19951437191E+03  0.30395036087E+03  0.46999998093E+01 0. -1.
       -5    1    3    3    0  502 -0.19680432128E+03 -0.11758318928E+03 -0.34382450541E+03  0.41327367180E+03  0.46999998093E+01 0.  1.
</event>
<event>
 5   0  0.1237686E-02  0.6976854E+03  0.7818609E-02  0.9721199E-01
        1   -1    0    0  501    0  0.00000000000E+00  0.00000000000E+00  0.78835333215E+03  0.78835333217E+03  0.50400001928E-02 0.  1.
       -1   -1    0    0    0  501  0.00000000000E+00  0.00000000000E+00 -0.15436130007E+03  0.15436130015E+03  0.50400001928E-02 0. -1.
    10030    2    1    2    0    0  0.00000000000E+00  0.00000000000E+00  0.63399203209E+03  0.94271463232E+03  0.69768544577E+03 0.  0.
        5    1    3    3  502    0  0.41659813329E+02 -0.30921537425E+03  0.52771206585E+03  0.61306753475E+03  0.46999998093E+01 0.  1.
       -5    1    3    3    0  502 -0.41659813329E+02  0.30921537425E+03  0.10627996623E+03  0.32964709757E+03  0.46999998093E+01 0. -1.
</event>
<event>
 5   0  0.1257442E-02  0.7014974E+03  0.7818609E-02  0.9714675E-01
       -1   -1    0    0    0  501  0.00000000000E+00  0.00000000000E+00  0.30730916845E+03  0.30730916849E+03  0.50400001928E-02 0. -1.
        1   -1    0    0  501    0  0.00000000000E+00  0.00000000000E+00 -0.40032860874E+03  0.40032860877E+03  0.50400001928E-02 0.  1.
    10030    2    1    2    0    0  0.00000000000E+00  0.00000000000E+00 -0.93019440290E+02  0.70763777726E+03  0.70149740380E+03 0.  0.
        1    1    3    3  502    0 -0.17797569969E+03 -0.26799263111E+03 -0.18748005932E+03  0.37234953025E+03  0.50400001928E-02 0.  1.
       -1    1    3    3    0  502  0.17797569969E+03  0.26799263111E+03  0.94460619030E+02  0.33528824701E+03  0.50400001928E-02 0. -1.
</event>
<event>
 5   0  0.1223742E-02  0.6962073E+03  0.7818609E-02  0.9723740E-01
        1   -1    0    0  501    0  0.00000000000E+00  0.00000000000E+00  0.86016695772E+03  0.86016695774E+03  0.50400001928E-02 0.  1.
       -1   -1    0    0    0  501  0.00000000000E+00  0.00000000000E+00 -0.14087517093E+03  0.14087517102E+03  0.50400001928E-02 0. -1.
    10030    2    1    2    0    0  0.00000000000E+00  0.00000000000E+00  0.71929178679E+03  0.10010421288E+04  0.69620734627E+03 0.  0.
        2    1    3    3  502    0  0.62952861565E+02 -0.86730353926E+02  0.83585659713E+03  0.84269891897E+03  0.25500000920E-02 0.  1.
       -2    1    3    3    0  502 -0.62952861565E+02  0.86730353926E+02 -0.11656481033E+03  0.15834320979E+03  0.25500000920E-02 0. -1.
</event>
<event>
 5   0  0.1973067E-02  0.6996349E+03  0.7818609E-02  0.9717857E-01
        2   -1    0    0  501    0  0.00000000000E+00  0.00000000000E+00  0.13535528476E+04  0.13535528476E+04  0.25500000920E-02 0.  1.
       -2   -1    0    0    0  501  0.00000000000E+00  0.00000000000E+00 -0.90408186830E+02  0.90408186865E+02  0.25500000920E-02 0. -1.
    10030    2    1    2    0    0  0.00000000000E+00  0.00000000000E+00  0.12631446608E+04  0.14439610345E+04  0.69963492983E+03 0.  0.
        5    1    3    3  502    0 -0.15358005801E+03  0.18662826911E+03  0.11534242577E+04  0.11784848550E+04  0.46999998093E+01 0.  1.
       -5    1    3    3    0  502  0.15358005801E+03 -0.18662826911E+03  0.10972040305E+03  0.26547617952E+03  0.46999998093E+01 0. -1.
</event>
<event>
 5   0  0.1197259E-02  0.6946198E+03  0.7818609E-02  0.9726478E-01
       -1   -1    0    0    0  501  0.00000000000E+00  0.00000000000E+00  0.15053818196E+03  0.15053818205E+03  0.50400001928E-02 0. -1.
        1   -1    0    0  501    0  0.00000000000E+00  0.00000000000E+00 -0.80128609283E+03  0.80128609285E+03  0.50400001928E-02 0.  1.
    10030    2    1    2    0    0  0.00000000000E+00  0.00000000000E+00 -0.65074791086E+03  0.95182427489E+03  0.69461975698E+03 0.  0.
        3    1    3    3  502    0  0.12316102607E+03 -0.32418265254E+03 -0.29933461560E+03  0.45810943327E+03  0.10100000352E+00 0. -1.
       -3    1    3    3    0  502 -0.12316102607E+03  0.32418265254E+03 -0.35141329527E+03  0.49371484163E+03  0.10100000352E+00 0.  1.
</event>
<event>
 5   0  0.1223742E-02  0.6908045E+03  0.7818609E-02  0.9733088E-01
       -1   -1    0    0    0  501  0.00000000000E+00  0.00000000000E+00  0.11170102435E+03  0.11170102446E+03  0.50400001928E-02 0.  1.
        1   -1    0    0  501    0  0.00000000000E+00  0.00000000000E+00 -0.10680539232E+04  0.10680539232E+04  0.50400001928E-02 0. -1.
    10030    2    1    2    0    0  0.00000000000E+00  0.00000000000E+00 -0.95635289888E+03  0.11797549477E+04  0.69080450885E+03 0.  0.
        2    1    3    3  502    0 -0.28374019329E+03 -0.18361794368E+03 -0.59988236173E+03  0.68853677785E+03  0.25500000920E-02 0. -1.
       -2    1    3    3    0  502  0.28374019329E+03  0.18361794368E+03 -0.35647053715E+03  0.49121816986E+03  0.25500000920E-02 0.  1.
</event>
<event>
 5   0  0.1948138E-02  0.6946458E+03  0.7818609E-02  0.9726433E-01
       -2   -1    0    0    0  501  0.00000000000E+00  0.00000000000E+00  0.18588603295E+03  0.18588603297E+03  0.25500000920E-02 0.  1.
        2   -1    0    0  501    0  0.00000000000E+00  0.00000000000E+00 -0.64896324906E+03  0.64896324906E+03  0.25500000920E-02 0. -1.
    10030    2    1    2    0    0  0.00000000000E+00  0.00000000000E+00 -0.46307721611E+03  0.83484928203E+03  0.69464582028E+03 0.  0.
        3    1    3    3  502    0  0.19837673268E+03 -0.11048529209E+03 -0.54740134112E+03  0.59262852302E+03  0.10100000352E+00 0. -1.
       -3    1    3    3    0  502 -0.19837673268E+03  0.11048529209E+03  0.84324125011E+02  0.24222075901E+03  0.10100000352E+00 0.  1.
</event>
<event>
 5   0  0.1197259E-02  0.7037718E+03  0.7818609E-02  0.9710804E-01
        1   -1    0    0  501    0  0.00000000000E+00  0.00000000000E+00  0.66382997586E+03  0.66382997588E+03  0.50400001928E-02 0.  1.
       -1   -1    0    0    0  501  0.00000000000E+00  0.00000000000E+00 -0.18652922619E+03  0.18652922626E+03  0.50400001928E-02 0. -1.
    10030    2    1    2    0    0  0.00000000000E+00  0.00000000000E+00  0.47730074967E+03  0.85035920215E+03  0.70377181461E+03 0.  0.
        3    1    3    3  502    0  0.35049070037E+03  0.26241750354E+02  0.21802715444E+03  0.41360392984E+03  0.10100000352E+00 0.  1.
       -3    1    3    3    0  502 -0.35049070037E+03 -0.26241750354E+02  0.25927359523E+03  0.43675527231E+03  0.10100000352E+00 0. -1.
</event>
<event>
 5   0  0.1197259E-02  0.7063318E+03  0.7818609E-02  0.9706465E-01
       -1   -1    0    0    0  501  0.00000000000E+00  0.00000000000E+00  0.13424693460E+03  0.13424693470E+03  0.50400001928E-02 0. -1.
        1   -1    0    0  501    0  0.00000000000E+00  0.00000000000E+00 -0.92908020265E+03  0.92908020267E+03  0.50400001928E-02 0.  1.
    10030    2    1    2    0    0  0.00000000000E+00  0.00000000000E+00 -0.79483326805E+03  0.10633271374E+04  0.70633184627E+03 0.  0.
        3    1    3    3  502    0 -0.27451331471E+03 -0.20059456503E+03 -0.25356874993E+03  0.42413778494E+03  0.10100000352E+00 0. -1.
       -3    1    3    3    0  502  0.27451331471E+03  0.20059456503E+03 -0.54126451812E+03  0.63918935243E+03  0.10100000352E+00 0.  1.
</event>
<event>
 5   0  0.1257442E-02  0.7021810E+03  0.7818609E-02  0.9713510E-01
       -1   -1    0    0    0  501  0.00000000000E+00  0.00000000000E+00  0.36881338155E+03  0.36881338159E+03  0.50400001928E-02 0.  1.
        1   -1    0    0  501    0  0.00000000000E+00  0.00000000000E+00 -0.33421930323E+03  0.33421930327E+03  0.50400001928E-02 0. -1.
    10030    2    1    2    0    0  0.00000000000E+00  0.00000000000E+00  0.34594078323E+02  0.70303268486E+03  0.70218103486E+03 0.  0.
        1    1    3    3  502    0 -0.19587879696E+02  0.27562357216E+03 -0.19955862444E+03  0.34084554152E+03  0.50400001928E-02 0. -1.
       -1    1    3    3    0  502  0.19587879696E+02 -0.27562357216E+03  0.23415270276E+03  0.36218714333E+03  0.50400001928E-02 0.  1.
</event>
<event>
 5   0  0.1973067E-02  0.7058160E+03  0.7818609E-02  0.9707337E-01
       -2   -1    0    0    0  501  0.00000000000E+00  0.00000000000E+00  0.45790457904E+03  0.45790457905E+03  0.25500000920E-02 0. -1.
        2   -1    0    0  501    0  0.00000000000E+00  0.00000000000E+00 -0.27198690128E+03  0.27198690129E+03  0.25500000920E-02 0.  1.
    10030    2    1    2    0    0  0.00000000000E+00  0.00000000000E+00  0.18591767776E+03  0.72989148034E+03  0.70581597472E+03 0.  0.
        5    1    3    3  502    0  0.59170708112E+01 -0.32514572195E+03 -0.48707481404E+02  0.32886054943E+03  0.46999998093E+01 0.  1.
       -5    1    3    3    0  502 -0.59170708112E+01  0.32514572195E+03  0.23462515917E+03  0.40103093090E+03  0.46999998093E+01 0. -1.
</event>
<event>
 5   0  0.1226303E-02  0.7014216E+03  0.7818609E-02  0.9714804E-01
        1   -1    0    0  501    0  0.00000000000E+00  0.00000000000E+00  0.10194673205E+04  0.10194673205E+04  0.50400001928E-02 0.  1.
       -1   -1    0    0    0  501  0.00000000000E+00  0.00000000000E+00 -0.12064934799E+03  0.12064934809E+03  0.50400001928E-02 0. -1.
    10030    2    1    2    0    0  0.00000000000E+00  0.00000000000E+00  0.89881797247E+03  0.11401166686E+04  0.70142160667E+03 0.  0.
        4    1    3    3  502    0  0.34248801354E+03 -0.43647857641E+02  0.34929895585E+03  0.49113597746E+03  0.12699999809E+01 0.  1.
       -4    1    3    3    0  502 -0.34248801354E+03  0.43647857641E+02  0.54951901662E+03  0.64898069110E+03  0.12699999809E+01 0. -1.
</event>
<event>
 5   0  0.1223742E-02  0.6982725E+03  0.7818609E-02  0.9720191E-01
       -1   -1    0    0    0  501  0.00000000000E+00  0.00000000000E+00  0.81781286026E+02  0.81781286181E+02  0.50400001928E-02 0.  1.
        1   -1    0    0  501    0  0.00000000000E+00  0.00000000000E+00 -0.14905134270E+04  0.14905134270E+04  0.50400001928E-02 0. -1.
    10030    2    1    2    0    0  0.00000000000E+00  0.00000000000E+00 -0.14087321410E+04  0.15722947132E+04  0.69827245407E+03 0.  0.
        2    1    3    3  502    0  0.24560318639E+03  0.15819397490E+03 -0.27388721858E+03  0.40045033071E+03  0.25500000920E-02 0.  1.
       -2    1    3    3    0  502 -0.24560318639E+03 -0.15819397490E+03 -0.11348449224E+04  0.11718443825E+04  0.25500000920E-02 0. -1.
</event>
<event>
 5   0  0.1948138E-02  0.7290538E+03  0.7818609E-02  0.9668797E-01
        2   -1    0    0  501    0  0.00000000000E+00  0.00000000000E+00  0.13102394669E+04  0.13102394669E+04  0.25500000920E-02 0.  1.
       -2   -1    0    0    0  501  0.00000000000E+00  0.00000000000E+00 -0.10141645977E+03  0.10141645980E+03  0.25500000920E-02 0. -1.
    10030    2    1    2    0    0  0.00000000000E+00  0.00000000000E+00  0.12088230071E+04  0.14116559267E+04  0.72905376539E+03 0.  0.
        3    1    3    3  502    0  0.82938445571E+02 -0.16452275676E+03 -0.46211507139E+01  0.18430379400E+03  0.10100000352E+00 0. -1.
       -3    1    3    3    0  502 -0.82938445571E+02  0.16452275676E+03  0.12134441579E+04  0.12273521327E+04  0.10100000352E+00 0.  1.
</event>
<event>
 5   0  0.2006362E-02  0.7027789E+03  0.7818609E-02  0.9712492E-01
       -2   -1    0    0    0  501  0.00000000000E+00  0.00000000000E+00  0.20397432941E+03  0.20397432942E+03  0.25500000920E-02 0. -1.
        2   -1    0    0  501    0  0.00000000000E+00  0.00000000000E+00 -0.60534360865E+03  0.60534360866E+03  0.25500000920E-02 0.  1.
    10030    2    1    2    0    0  0.00000000000E+00  0.00000000000E+00 -0.40136927925E+03  0.80931793808E+03  0.70277893151E+03 0.  0.
        4    1    3    3  502    0  0.17385426390E+02 -0.33951871956E+03 -0.98343189193E+02  0.35390423810E+03  0.12699999809E+01 0.  1.
       -4    1    3    3    0  502 -0.17385426390E+02  0.33951871956E+03 -0.30302609005E+03  0.45541369999E+03  0.12699999809E+01 0. -1.
</event>
<event>
 5   0  0.2006362E-02  0.6982925E+03  0.7818609E-02  0.9720157E-01
       -2   -1    0    0    0  501  0.00000000000E+00  0.00000000000E+00  0.18245836821E+03  0.18245836823E+03  0.25500000920E-02 0.  1.
        2   -1    0    0  501    0  0.00000000000E+00  0.00000000000E+00 -0.66811454355E+03  0.66811454355E+03  0.25500000920E-02 0. -1.
    10030    2    1    2    0    0  0.00000000000E+00  0.00000000000E+00 -0.48565617533E+03  0.85057291178E+03  0.69829245851E+03 0.  0.
        4    1    3    3  502    0 -0.11395714300E+03  0.25376821890E+03  0.14174108194E+02  0.27854453434E+03  0.12699999809E+01 0. -1.
       -4    1    3    3    0  502  0.11395714300E+03 -0.25376821890E+03 -0.49983028353E+03  0.57202837744E+03  0.12699999809E+01 0.  1.
</event>
<event>
 5   0  0.1237686E-02  0.7000480E+03  0.7818609E-02  0.9717150E-01
        1   -1    0    0  501    0  0.00000000000E+00  0.00000000000E+00  0.13672925726E+04  0.13672925726E+04  0.50400001928E-02 0.  1.
       -1   -1    0    0    0  501  0.00000000000E+00  0.00000000000E+00 -0.89605405013E+02  0.89605405155E+02  0.50400001928E-02 0. -1.
    10030    2    1    2    0    0  0.00000000000E+00  0.00000000000E+00  0.12776871675E+04  0.14568979777E+04  0.70004801220E+03 0.  0.
        5    1    3    3  502    0  0.12804353759E+03  0.27682555506E+03  0.99609223453E+03  0.10417530250E+04  0.46999998093E+01 0.  1.
       -5    1    3    3    0  502 -0.12804353759E+03 -0.27682555506E+03  0.28159493302E+03  0.41514495270E+03  0.46999998093E+01 0. -1.
</event>
<event>
 5   0  0.1197259E-02  0.6974689E+03  0.7818609E-02  0.9721570E-01
        1   -1    0    0  501    0  0.00000000000E+00  0.00000000000E+00  0.10405712193E+04  0.10405712194E+04  0.50400001928E-02 0. -1.
       -1   -1    0    0    0  501  0.00000000000E+00  0.00000000000E+00 -0.11687400525E+03  0.11687400535E+03  0.50400001928E-02 0.  1.
    10030    2    1    2    0    0  0.00000000000E+00  0.00000000000E+00  0.92369721410E+03  0.11574452247E+04  0.69746892753E+03 0.  0.
        3    1    3    3  502    0  0.16033881772E+03 -0.28214064691E+03  0.24995372478E+03  0.40962025809E+03  0.10100000352E+00 0.  1.
       -3    1    3    3    0  502 -0.16033881772E+03  0.28214064691E+03  0.67374348931E+03  0.74782496662E+03  0.10100000352E+00 0. -1.
</event>
<event>
 5   0  0.2006362E-02  0.6957606E+03  0.7818609E-02  0.9724510E-01
        2   -1    0    0  501    0  0.00000000000E+00  0.00000000000E+00  0.19877382922E+04  0.19877382922E+04  0.25500000920E-02 0.  1.
       -2   -1    0    0    0  501  0.00000000000E+00  0.00000000000E+00 -0.60883612854E+02  0.60883612908E+02  0.25500000920E-02 0. -1.
    10030    2    1    2    0    0  0.00000000000E+00  0.00000000000E+00  0.19268546794E+04  0.20486219051E+04  0.69576055851E+03 0.  0.
        4    1    3    3  502    0  0.27761390666E+03 -0.18293557460E+03  0.66194002946E+03  0.74074362713E+03  0.12699999809E+01 0. -1.
       -4    1    3    3    0  502 -0.27761390666E+03  0.18293557460E+03  0.12649146499E+04  0.13078782780E+04  0.12699999809E+01 0.  1.
</event>
<event>
 5   0  0.7947250E-03  0.6995531E+03  0.7818609E-02  0.9717997E-01
       -3   -1    0    0    0  501  0.00000000000E+00  0.00000000000E+00  0.94663479567E+02  0.94663533447E+02  0.10100000352E+00 0. -1.
        3   -1    0    0  501    0  0.00000000000E+00  0.00000000000E+00 -0.12924053092E+04  0.12924053131E+04  0.10100000352E+00 0.  1.
    10030    2    1    2    0    0  0.00000000000E+00  0.00000000000E+00 -0.11977418296E+04  0.13870688466E+04  0.69955306785E+03 0.  0.
        5    1    3    3  502    0  0.32896776090E+03 -0.11455018610E+03 -0.53679965287E+03  0.63993553595E+03  0.46999998093E+01 0. -1.
       -5    1    3    3    0  502 -0.32896776090E+03  0.11455018610E+03 -0.66094217674E+03  0.74713331062E+03  0.46999998093E+01 0.  1.
</event>
<event>
 5   0  0.1973067E-02  0.7100001E+03  0.7818609E-02  0.9700282E-01
        2   -1    0    0  501    0  0.00000000000E+00  0.00000000000E+00  0.64344519559E+03  0.64344519559E+03  0.25500000920E-02 0. -1.
       -2   -1    0    0    0  501  0.00000000000E+00  0.00000000000E+00 -0.19585979981E+03  0.19585979982E+03  0.25500000920E-02 0.  1.
    10030    2    1    2    0    0  0.00000000000E+00  0.00000000000E+00  0.44758539578E+03  0.83930499542E+03  0.71000013297E+03 0.  0.
        5    1    3    3  502    0  0.26594829864E+03 -0.12198475184E+03 -0.13793263911E+02  0.29295242166E+03  0.46999998093E+01 0. -1.
       -5    1    3    3    0  502 -0.26594829864E+03  0.12198475184E+03  0.46137865969E+03  0.54635257375E+03  0.46999998093E+01 0.  1.
</event>
<event>
 5   0  0.1237686E-02  0.7002674E+03  0.7818609E-02  0.9716775E-01
       -1   -1    0    0    0  501  0.00000000000E+00  0.00000000000E+00  0.58809304724E+03  0.58809304726E+03  0.50400001928E-02 0. -1.
        1   -1    0    0  501    0  0.00000000000E+00  0.00000000000E+00 -0.20845955258E+03  0.20845955264E+03  0.50400001928E-02 0.  1.
    10030    2    1    2    0    0  0.00000000000E+00  0.00000000000E+00  0.37963349466E+03  0.79655259990E+03  0.70026741616E+03 0.  0.
        5    1    3    3  502    0  0.27912390530E+03 -0.85306932407E+02  0.40975156324E+03  0.50309627389E+03  0.46999998093E+01 0. -1.
       -5    1    3    3    0  502 -0.27912390530E+03  0.85306932407E+02 -0.30118068575E+02  0.29345632602E+03  0.46999998093E+01 0.  1.
</event>
<event>
 5   0  0.1197259E-02  0.6995554E+03  0.7818609E-02  0.9717993E-01
       -1   -1    0    0    0  501  0.00000000000E+00  0.00000000000E+00  0.41009831461E+03  0.41009831465E+03  0.50400001928E-02 0. -1.
        1   -1    0    0  501    0  0.00000000000E+00  0.00000000000E+00 -0.29832957170E+03  0.29832957174E+03  0.50400001928E-02 0.  1.
    10030    2    1    2    0    0  0.00000000000E+00  0.00000000000E+00  0.11176874292E+03  0.70842788638E+03  0.69955544334E+03 0.  0.
        3    1    3    3  502    0  0.19297080973E+03 -0.32128485532E+02  0.34951785726E+03  0.40054052945E+03  0.10100000352E+00 0. -1.
       -3    1    3    3    0  502 -0.19297080973E+03  0.32128485532E+02 -0.23774911434E+03  0.30788735693E+03  0.10100000352E+00 0.  1.
</event>
<event>
 5   0  0.2026361E-02  0.6985301E+03  0.7818609E-02  0.9719749E-01
       -2   -1    0    0    0  501  0.00000000000E+00  0.00000000000E+00  0.65441232363E+02  0.65441232412E+02  0.25500000920E-02 0.  1.
        2   -1    0    0  501    0  0.00000000000E+00  0.00000000000E+00 -0.18640552069E+04  0.18640552069E+04  0.25500000920E-02 0. -1.
    10030    2    1    2    0    0  0.00000000000E+00  0.00000000000E+00 -0.17986139745E+04  0.19294964393E+04  0.69853008519E+03 0.  0.
        2    1    3    3  502    0  0.28122189295E+03 -0.71983536516E+02 -0.36284722700E+03  0.46467783760E+03  0.25500000920E-02 0.  1.
       -2    1    3    3    0  502 -0.28122189295E+03  0.71983536516E+02 -0.14357667475E+04  0.14648186017E+04  0.25500000920E-02 0. -1.
</event>
<event>
 5   0  0.1973067E-02  0.7138172E+03  0.7818609E-02  0.9693890E-01
        2   -1    0    0  501    0  0.00000000000E+00  0.00000000000E+00  0.19732721162E+03  0.19732721164E+03  0.25500000920E-02 0. -1.
       -2   -1    0    0    0  501  0.00000000000E+00  0.00000000000E+00 -0.64554584225E+03  0.64554584225E+03  0.25500000920E-02 0.  1.
    10030    2    1    2    0    0  0.00000000000E+00  0.00000000000E+00 -0.44821863062E+03  0.84287305389E+03  0.71381723441E+03 0.  0.
        5    1    3    3  502    0 -0.28415910714E+03 -0.32976690061E+02  0.27840198357E+02  0.28745613039E+03  0.46999998093E+01 0. -1.
       -5    1    3    3    0  502  0.28415910714E+03  0.32976690061E+02 -0.47605882898E+03  0.55541692350E+03  0.46999998093E+01 0.  1.
</event>
<event>
 5   0  0.1909053E-02  0.7011199E+03  0.7818609E-02  0.9715319E-01
       -2   -1    0    0    0  501  0.00000000000E+00  0.00000000000E+00  0.85980336368E+02  0.85980336406E+02  0.25500000920E-02 0.  1.
        2   -1    0    0  501    0  0.00000000000E+00  0.00000000000E+00 -0.14293066241E+04  0.14293066241E+04  0.25500000920E-02 0. -1.
    10030    2    1    2    0    0  0.00000000000E+00  0.00000000000E+00 -0.13433262877E+04  0.15152869605E+04  0.70111985948E+03 0.  0.
        1    1    3    3  502    0  0.13924585079E+03 -0.31953233027E+03 -0.75258548821E+03  0.82938244143E+03  0.50400001928E-02 0. -1.
       -1    1    3    3    0  502 -0.13924585079E+03  0.31953233027E+03 -0.59074079949E+03  0.68590451905E+03  0.50400001928E-02 0.  1.
</event>
<event>
 5   0  0.2006362E-02  0.7027140E+03  0.7818609E-02  0.9712602E-01
        2   -1    0    0  501    0  0.00000000000E+00  0.00000000000E+00  0.12151817913E+04  0.12151817913E+04  0.25500000920E-02 0. -1.
       -2   -1    0    0    0  501  0.00000000000E+00  0.00000000000E+00 -0.10159115709E+03  0.10159115713E+03  0.25500000920E-02 0.  1.
    10030    2    1    2    0    0  0.00000000000E+00  0.00000000000E+00  0.11135906342E+04  0.13167729484E+04  0.70271395113E+03 0.  0.
        4    1    3    3  502    0  0.24393388985E+03 -0.10576422496E+03  0.98720886991E+03  0.10223858272E+04  0.12699999809E+01 0. -1.
       -4    1    3    3    0  502 -0.24393388985E+03  0.10576422496E+03  0.12638176427E+03  0.29438712122E+03  0.12699999809E+01 0.  1.
</event>
<event>
 5   0  0.1973067E-02  0.7018823E+03  0.7818609E-02  0.9714019E-01
        2   -1    0    0  501    0  0.00000000000E+00  0.00000000000E+00  0.49397552323E+03  0.49397552324E+03  0.25500000920E-02 0.  1.
       -2   -1    0    0    0  501  0.00000000000E+00  0.00000000000E+00 -0.24932345920E+03  0.24932345921E+03  0.25500000920E-02 0. -1.
    10030    2    1    2    0    0  0.00000000000E+00  0.00000000000E+00  0.24465206403E+03  0.74329898244E+03  0.70188228705E+03 0.  0.
        5    1    3    3  502    0  0.31023394104E+03 -0.14784440712E+02 -0.50632768415E+02  0.31472121805E+03  0.46999998093E+01 0. -1.
       -5    1    3    3    0  502 -0.31023394104E+03  0.14784440712E+02  0.29528483245E+03  0.42857776439E+03  0.46999998093E+01 0.  1.
</event>
<event>
 5   0  0.1948138E-02  0.6999747E+03  0.7818609E-02  0.9717275E-01
       -2   -1    0    0    0  501  0.00000000000E+00  0.00000000000E+00  0.16189864228E+03  0.16189864230E+03  0.25500000920E-02 0.  1.
        2   -1    0    0  501    0  0.00000000000E+00  0.00000000000E+00 -0.75659155708E+03  0.75659155708E+03  0.25500000920E-02 0. -1.
    10030    2    1    2    0    0  0.00000000000E+00  0.00000000000E+00 -0.59469291480E+03  0.91849019939E+03  0.69997470202E+03 0.  0.
        3    1    3    3  502    0  0.40420885571E+02 -0.20824663129E+03 -0.66261878592E+03  0.69574720488E+03  0.10100000352E+00 0. -1.
       -3    1    3    3    0  502 -0.40420885571E+02  0.20824663129E+03  0.67925871128E+02  0.22274299451E+03  0.10100000352E+00 0.  1.
</event>
<event>
 5   0  0.1223742E-02  0.6951254E+03  0.7818609E-02  0.9725605E-01
        1   -1    0    0  501    0  0.00000000000E+00  0.00000000000E+00  0.89335779291E+03  0.89335779293E+03  0.50400001928E-02 0. -1.
       -1   -1    0    0    0  501  0.00000000000E+00  0.00000000000E+00 -0.13521997257E+03  0.13521997267E+03  0.50400001928E-02 0.  1.
    10030    2    1    2    0    0  0.00000000000E+00  0.00000000000E+00  0.75813782034E+03  0.10285777656E+04  0.69512535937E+03 0.  0.
        2    1    3    3  502    0 -0.33994645487E+03 -0.19556255050E+00  0.48614229382E+03  0.59320987877E+03  0.25500000920E-02 0.  1.
       -2    1    3    3    0  502  0.33994645487E+03  0.19556255050E+00  0.27199552652E+03  0.43536788682E+03  0.25500000920E-02 0. -1.
</event>
<event>
 5   0  0.1973067E-02  0.7321679E+03  0.7818609E-02  0.9663749E-01
        2   -1    0    0  501    0  0.00000000000E+00  0.00000000000E+00  0.17334327841E+04  0.17334327841E+04  0.25500000920E-02 0.  1.
       -2   -1    0    0    0  501  0.00000000000E+00  0.00000000000E+00 -0.77313327408E+02  0.77313327450E+02  0.25500000920E-02 0. -1.
    10030    2    1    2    0    0  0.00000000000E+00  0.00000000000E+00  0.16561194567E+04  0.18107461116E+04  0.73216789446E+03 0.  0.
        5    1    3    3  502    0  0.31548669341E+03 -0.15079727917E+03  0.56027913210E+03  0.66045928640E+03  0.46999998093E+01 0. -1.
       -5    1    3    3    0  502 -0.31548669341E+03  0.15079727917E+03  0.10958403246E+04  0.11502868252E+04  0.46999998093E+01 0.  1.
</event>
<event>
 5   0  0.1237686E-02  0.6998714E+03  0.7818609E-02  0.9717452E-01
       -1   -1    0    0    0  501  0.00000000000E+00  0.00000000000E+00  0.14022707427E+03  0.14022707436E+03  0.50400001928E-02 0. -1.
        1   -1    0    0  501    0  0.00000000000E+00  0.00000000000E+00 -0.87326207530E+03  0.87326207532E+03  0.50400001928E-02 0.  1.
    10030    2    1    2    0    0  0.00000000000E+00  0.00000000000E+00 -0.73303500104E+03  0.10134891497E+04  0.69987137659E+03 0.  0.
        5    1    3    3  502    0 -0.27047458478E+03  0.39988477596E+01 -0.68792044916E+03  0.73920844568E+03  0.46999998093E+01 0.  1.
       -5    1    3    3    0  502  0.27047458478E+03 -0.39988477596E+01 -0.45114551880E+02  0.27428070400E+03  0.46999998093E+01 0. -1.
</event>
<event>
 5   0  0.1237686E-02  0.6977595E+03  0.7818609E-02  0.9721071E-01
        1   -1    0    0  501    0  0.00000000000E+00  0.00000000000E+00  0.52444478070E+03  0.52444478073E+03  0.50400001928E-02 0.  1.
       -1   -1    0    0    0  501  0.00000000000E+00  0.00000000000E+00 -0.23208751297E+03  0.23208751303E+03  0.50400001928E-02 0. -1.
    10030    2    1    2    0    0  0.00000000000E+00  0.00000000000E+00  0.29235726773E+03  0.75653229375E+03  0.69775951408E+03 0.  0.
        5    1    3    3  502    0 -0.24573622977E+02 -0.11514299194E+03  0.50221798267E+03  0.51585537087E+03  0.46999998093E+01 0.  1.
       -5    1    3    3    0  502  0.24573622977E+02  0.11514299194E+03 -0.20986071494E+03  0.24067692289E+03  0.46999998093E+01 0. -1.
</event>
<event>
 5   0  0.1237686E-02  0.6852127E+03  0.7818609E-02  0.9742860E-01
       -1   -1    0    0    0  501  0.00000000000E+00  0.00000000000E+00  0.84674597442E+02  0.84674597592E+02  0.50400001928E-02 0.  1.
        1   -1    0    0  501    0  0.00000000000E+00  0.00000000000E+00 -0.13862375594E+04  0.13862375594E+04  0.50400001928E-02 0. -1.
    10030    2    1    2    0    0  0.00000000000E+00  0.00000000000E+00 -0.13015629619E+04  0.14709121570E+04  0.68521268936E+03 0.  0.
        5    1    3    3  502    0 -0.22190675845E+01 -0.26405792170E+03 -0.11192507932E+04  0.11499895383E+04  0.46999998093E+01 0. -1.
       -5    1    3    3    0  502  0.22190675845E+01  0.26405792170E+03 -0.18231216876E+03  0.32092261864E+03  0.46999998093E+01 0.  1.
</event>
<event>
 5   0  0.1226303E-02  0.6989485E+03  0.7818609E-02  0.9719032E-01
        1   -1    0    0  501    0  0.00000000000E+00  0.00000000000E+00  0.79958180238E+03  0.79958180240E+03  0.50400001928E-02 0.  1.
       -1   -1    0    0    0  501  0.00000000000E+00  0.00000000000E+00 -0.15274517427E+03  0.15274517435E+03  0.50400001928E-02 0. -1.
    10030    2    1    2    0    0  0.00000000000E+00  0.00000000000E+00  0.64683662811E+03  0.95232697675E+03  0.69894852971E+03 0.  0.
        4    1    3    3  502    0 -0.26704522504E+01 -0.66968310210E+02 -0.14390356662E+03  0.15875054417E+03  0.12699999809E+01 0. -1.
       -4    1    3    3    0  502  0.26704522504E+01  0.66968310210E+02  0.79074019473E+03  0.79357643259E+03  0.12699999809E+01 0.  1.
</event>
<event>
 5   0  0.1948138E-02  0.6978486E+03  0.7818609E-02  0.9720918E-01
       -2   -1    0    0    0  501  0.00000000000E+00  0.00000000000E+00  0.60422370717E+03  0.60422370718E+03  0.25500000920E-02 0. -1.
        2   -1    0    0  501    0  0.00000000000E+00  0.00000000000E+00 -0.20149518022E+03  0.20149518024E+03  0.25500000920E-02 0.  1.
    10030    2    1    2    0    0  0.00000000000E+00  0.00000000000E+00  0.40272852695E+03  0.80571888742E+03  0.69784859327E+03 0.  0.
        3    1    3    3  502    0 -0.26062193132E+03 -0.72077123973E+02 -0.53243200048E+02  0.27559708169E+03  0.10100000352E+00 0.  1.
       -3    1    3    3    0  502  0.26062193132E+03  0.72077123973E+02  0.45597172700E+03  0.53012180573E+03  0.10100000352E+00 0. -1.
</event>
<event>
 5   0  0.1973067E-02  0.6997133E+03  0.7818609E-02  0.9717723E-01
        2   -1    0    0  501    0  0.00000000000E+00  0.00000000000E+00  0.18440660801E+03  0.18440660803E+03  0.25500000920E-02 0.  1.
       -2   -1    0    0    0  501  0.00000000000E+00  0.00000000000E+00 -0.66374883016E+03  0.66374883017E+03  0.25500000920E-02 0. -1.
    10030    2    1    2    0    0  0.00000000000E+00  0.00000000000E+00 -0.47934222215E+03  0.84815543819E+03  0.69971328514E+03 0.  0.
        5    1    3    3  502    0 -0.17530143482E+03 -0.30273226141E+03 -0.23917842963E+03  0.42379927601E+03  0.46999998093E+01 0. -1.
       -5    1    3    3    0  502  0.17530143482E+03  0.30273226141E+03 -0.24016379252E+03  0.42435616219E+03  0.46999998093E+01 0.  1.
</event>
<event>
 5   0  0.1226303E-02  0.7014232E+03  0.7818609E-02  0.9714801E-01
        1   -1    0    0  501    0  0.00000000000E+00  0.00000000000E+00  0.72163860646E+03  0.72163860647E+03  0.50400001928E-02 0. -1.
       -1   -1    0    0    0  501  0.00000000000E+00  0.00000000000E+00 -0.17044352122E+03  0.17044352130E+03  0.50400001928E-02 0.  1.
    10030    2    1    2    0    0  0.00000000000E+00  0.00000000000E+00  0.55119508523E+03  0.89208212777E+03  0.70142319658E+03 0.  0.
        4    1    3    3  502    0 -0.30994005248E+02 -0.28967781157E+03  0.27273311201E+02  0.29260777379E+03  0.12699999809E+01 0. -1.
       -4    1    3    3    0  502  0.30994005248E+02  0.28967781157E+03  0.52392177403E+03  0.59947435398E+03  0.12699999809E+01 0.  1.
</event>
<event>
 5   0  0.2006362E-02  0.6974334E+03  0.7818609E-02  0.9721632E-01
        2   -1    0    0  501    0  0.00000000000E+00  0.00000000000E+00  0.34643778606E+03  0.34643778607E+03  0.25500000920E-02 0. -1.
       -2   -1    0    0    0  501  0.00000000000E+00  0.00000000000E+00 -0.35101059708E+03  0.35101059709E+03  0.25500000920E-02 0.  1.
    10030    2    1    2    0    0  0.00000000000E+00  0.00000000000E+00 -0.45728110216E+01  0.69744838316E+03  0.69743339221E+03 0.  0.
        4    1    3    3  502    0  0.34199911255E+03  0.26032284095E+02  0.60648630082E+02  0.34831155886E+03  0.12699999809E+01 0. -1.
       -4    1    3    3    0  502 -0.34199911255E+03 -0.26032284095E+02 -0.65221441103E+02  0.34913682430E+03  0.12699999809E+01 0.  1.
</event>
<event>
 5   0  0.2026361E-02  0.7036843E+03  0.7818609E-02  0.9710952E-01
        2   -1    0    0  501    0  0.00000000000E+00  0.00000000000E+00  0.10017847383E+04  0.10017847383E+04  0.25500000920E-02 0. -1.
       -2   -1    0    0    0  501  0.00000000000E+00  0.00000000000E+00 -0.12357236094E+03  0.12357236096E+03  0.25500000920E-02 0.  1.
    10030    2    1    2    0    0  0.00000000000E+00  0.00000000000E+00  0.87821237736E+03  0.11253570993E+04  0.70368431922E+03 0.  0.
        2    1    3    3  502    0  0.13182228957E+03 -0.31474988505E+03  0.57619622593E+03  0.66966162870E+03  0.25500000920E-02 0. -1.
       -2    1    3    3    0  502 -0.13182228957E+03  0.31474988505E+03  0.30201615144E+03  0.45569547057E+03  0.25500000920E-02 0.  1.
</event>
<event>
 5   0  0.1226303E-02  0.7020353E+03  0.7818609E-02  0.9713758E-01
       -1   -1    0    0    0  501  0.00000000000E+00  0.00000000000E+00  0.16045528517E+03  0.16045528525E+03  0.50400001928E-02 0.  1.
        1   -1    0    0  501    0  0.00000000000E+00  0.00000000000E+00 -0.76789853946E+03  0.76789853948E+03  0.50400001928E-02 0. -1.
    10030    2    1    2    0    0  0.00000000000E+00  0.00000000000E+00 -0.60744325429E+03  0.92835382473E+03  0.70203526742E+03 0.  0.
        4    1    3    3  502    0 -0.31437305575E+03  0.21603992675E+02 -0.50821832677E+03  0.59798380517E+03  0.12699999809E+01 0.  1.
       -4    1    3    3    0  502  0.31437305575E+03 -0.21603992675E+02 -0.99224927520E+02  0.33037001956E+03  0.12699999809E+01 0. -1.
</event>
<event>
 5   0  0.1973067E-02  0.6989317E+03  0.7818609E-02  0.9719061E-01
       -2   -1    0    0    0  501  0.00000000000E+00  0.00000000000E+00  0.62211684567E+02  0.62211684620E+02  0.25500000920E-02 0. -1.
        2   -1    0    0  501    0  0.00000000000E+00  0.00000000000E+00 -0.19630780066E+04  0.19630780066E+04  0.25500000920E-02 0.  1.
    10030    2    1    2    0    0  0.00000000000E+00  0.00000000000E+00 -0.19008663220E+04  0.20252896912E+04  0.69893172709E+03 0.  0.
        5    1    3    3  502    0 -0.23514240053E+03 -0.23743467602E+03 -0.12464680228E+04  0.12904928500E+04  0.46999998093E+01 0. -1.
       -5    1    3    3    0  502  0.23514240053E+03  0.23743467602E+03 -0.65439829921E+03  0.73479684125E+03  0.46999998093E+01 0.  1.
</event>
<event>
 5   0  0.1197259E-02  0.7174305E+03  0.7818609E-02  0.9687879E-01
        1   -1    0    0  501    0  0.00000000000E+00  0.00000000000E+00  0.66574663183E+03  0.66574663185E+03  0.50400001928E-02 0. -1.
       -1   -1    0    0    0  501  0.00000000000E+00  0.00000000000E+00 -0.19328169615E+03  0.19328169621E+03  0.50400001928E-02 0.  1.
    10030    2    1    2    0    0  0.00000000000E+00  0.00000000000E+00  0.47246493568E+03  0.85902832806E+03  0.71743052135E+03 0.  0.
        3    1    3    3  502    0 -0.29823607948E+03 -0.47575638893E+02  0.46800414875E+03  0.55698841457E+03  0.10100000352E+00 0. -1.
       -3    1    3    3    0  502  0.29823607948E+03  0.47575638893E+02  0.44607869275E+01  0.30203991349E+03  0.10100000352E+00 0.  1.
</event>
<event>
 5   0  0.2006362E-02  0.6861406E+03  0.7818609E-02  0.9741232E-01
       -2   -1    0    0    0  501  0.00000000000E+00  0.00000000000E+00  0.41194431357E+03  0.41194431358E+03  0.25500000920E-02 0.  1.
        2   -1    0    0  501    0  0.00000000000E+00  0.00000000000E+00 -0.28571150751E+03  0.28571150752E+03  0.25500000920E-02 0. -1.
    10030    2    1    2    0    0  0.00000000000E+00  0.00000000000E+00  0.12623280606E+03  0.69765582109E+03  0.68614060030E+03 0.  0.
        4    1    3    3  502    0  0.26007940109E+03  0.96291969653E+02  0.26845156297E+03  0.38598094882E+03  0.12699999809E+01 0.  1.
       -4    1    3    3    0  502 -0.26007940109E+03 -0.96291969653E+02 -0.14221875690E+03  0.31167487227E+03  0.12699999809E+01 0. -1.
</event>
<event>
 5   0  0.7947250E-03  0.7043804E+03  0.7818609E-02  0.9709770E-01
       -3   -1    0    0    0  501  0.00000000000E+00  0.00000000000E+00  0.16824359172E+03  0.16824362204E+03  0.10100000352E+00 0.  1.
        3   -1    0    0  501    0  0.00000000000E+00  0.00000000000E+00 -0.73725187374E+03  0.73725188066E+03  0.10100000352E+00 0. -1.
    10030    2    1    2    0    0  0.00000000000E+00  0.00000000000E+00 -0.56900828202E+03  0.90549550270E+03  0.70438035209E+03 0.  0.
        4    1    3    3  502    0 -0.19226782828E+03 -0.24321580106E+01  0.94808276669E+02  0.21438996107E+03  0.12699999809E+01 0.  1.
       -4    1    3    3    0  502  0.19226782828E+03  0.24321580106E+01 -0.66381655869E+03  0.69110554163E+03  0.12699999809E+01 0. -1.
</event>
<event>
 5   0  0.1973067E-02  0.7067751E+03  0.7818609E-02  0.9705715E-01
       -2   -1    0    0    0  501  0.00000000000E+00  0.00000000000E+00  0.56072071967E+03  0.56072071967E+03  0.25500000920E-02 0.  1.
        2   -1    0    0  501    0  0.00000000000E+00  0.00000000000E+00 -0.22271830973E+03  0.22271830975E+03  0.25500000920E-02 0. -1.
    10030    2    1    2    0    0  0.00000000000E+00  0.00000000000E+00  0.33800240994E+03  0.78343902942E+03  0.70677512952E+03 0.  0.
        5    1    3    3  502    0  0.20831400882E+03 -0.17633155136E+03 -0.79783370320E+02  0.28438533446E+03  0.46999998093E+01 0. -1.
       -5    1    3    3    0  502 -0.20831400882E+03  0.17633155136E+03  0.41778578026E+03  0.49905369497E+03  0.46999998093E+01 0.  1.
</event>
<event>
 5   0  0.1257442E-02  0.6854722E+03  0.7818609E-02  0.9742404E-01
        1   -1    0    0  501    0  0.00000000000E+00  0.00000000000E+00  0.12105222489E+04  0.12105222489E+04  0.50400001928E-02 0.  1.
       -1   -1    0    0    0  501  0.00000000000E+00  0.00000000000E+00 -0.97039132821E+02  0.97039132952E+02  0.50400001928E-02 0. -1.
    10030    2    1    2    0    0  0.00000000000E+00  0.00000000000E+00  0.11134831161E+04  0.13075613818E+04  0.68547218582E+03 0.  0.
        1    1    3    3  502    0  0.27816823497E+03 -0.19064172384E+03  0.67349440233E+03  0.75320418467E+03  0.50400001928E-02 0.  1.
       -1    1    3    3    0  502 -0.27816823497E+03  0.19064172384E+03  0.43998871373E+03  0.55435719717E+03  0.50400001928E-02 0. -1.
</event>
<event>
 5   0  0.1257442E-02  0.6912509E+03  0.7818609E-02  0.9732312E-01
       -1   -1    0    0    0  501  0.00000000000E+00  0.00000000000E+00  0.10509627914E+03  0.10509627926E+03  0.50400001928E-02 0. -1.
        1   -1    0    0  501    0  0.00000000000E+00  0.00000000000E+00 -0.11366429500E+04  0.11366429500E+04  0.50400001928E-02 0.  1.
    10030    2    1    2    0    0  0.00000000000E+00  0.00000000000E+00 -0.10315466709E+04  0.12417392293E+04  0.69125088019E+03 0.  0.
        1    1    3    3  502    0 -0.39912582849E+02 -0.40248274528E+02  0.96689851982E+02  0.11207972776E+03  0.50400001928E-02 0. -1.
       -1    1    3    3    0  502  0.39912582849E+02  0.40248274528E+02 -0.11282365229E+04  0.11296595015E+04  0.50400001928E-02 0.  1.
</event>
<event>
 5   0  0.1197259E-02  0.7053057E+03  0.7818609E-02  0.9708201E-01
       -1   -1    0    0    0  501  0.00000000000E+00  0.00000000000E+00  0.27093234815E+03  0.27093234819E+03  0.50400001928E-02 0.  1.
        1   -1    0    0  501    0  0.00000000000E+00  0.00000000000E+00 -0.45902249459E+03  0.45902249462E+03  0.50400001928E-02 0. -1.
    10030    2    1    2    0    0  0.00000000000E+00  0.00000000000E+00 -0.18809014645E+03  0.72995484281E+03  0.70530572758E+03 0.  0.
        3    1    3    3  502    0 -0.27412861044E+03 -0.18434958373E+03 -0.22177951024E+03  0.39789122313E+03  0.10100000352E+00 0.  1.
       -3    1    3    3    0  502  0.27412861044E+03  0.18434958373E+03  0.33689363790E+02  0.33206361968E+03  0.10100000352E+00 0. -1.
</event>
<event>
 5   0  0.2006362E-02  0.6959297E+03  0.7818609E-02  0.9724218E-01
        2   -1    0    0  501    0  0.00000000000E+00  0.00000000000E+00  0.24387020930E+03  0.24387020931E+03  0.25500000920E-02 0. -1.
       -2   -1    0    0    0  501  0.00000000000E+00  0.00000000000E+00 -0.49649168478E+03  0.49649168478E+03  0.25500000920E-02 0.  1.
    10030    2    1    2    0    0  0.00000000000E+00  0.00000000000E+00 -0.25262147548E+03  0.74036189409E+03  0.69592968348E+03 0.  0.
        4    1    3    3  502    0  0.22183061421E+03 -0.56820901479E+01 -0.41144684634E+03  0.46747323753E+03  0.12699999809E+01 0.  1.
       -4    1    3    3    0  502 -0.22183061421E+03  0.56820901479E+01  0.15882537086E+03  0.27288865656E+03  0.12699999809E+01 0. -1.
</event>
<event>
 5   0  0.1909053E-02  0.7179051E+03  0.7818609E-02  0.9687093E-01
        2   -1    0    0  501    0  0.00000000000E+00  0.00000000000E+00  0.26142292149E+03  0.26142292150E+03  0.25500000920E-02 0.  1.
       -2   -1    0    0    0  501  0.00000000000E+00  0.00000000000E+00 -0.49286777529E+03  0.49286777530E+03  0.25500000920E-02 0. -1.
    10030    2    1    2    0    0  0.00000000000E+00  0.00000000000E+00 -0.23144485381E+03  0.75429069680E+03  0.71790510161E+03 0.  0.
        1    1    3    3  502    0  0.86830108559E+02 -0.25095201296E+03  0.13803558268E+03  0.29928281386E+03  0.50400001928E-02 0.  1.
       -1    1    3    3    0  502 -0.86830108559E+02  0.25095201296E+03 -0.36948043649E+03  0.45500788294E+03  0.50400001928E-02 0. -1.
</event>
<event>
 5   0  0.1973067E-02  0.7253223E+03  0.7818609E-02  0.9674881E-01
       -2   -1    0    0    0  501  0.00000000000E+00  0.00000000000E+00  0.89451461883E+02  0.89451461919E+02  0.25500000920E-02 0. -1.
        2   -1    0    0  501    0  0.00000000000E+00  0.00000000000E+00 -0.14703294196E+04  0.14703294196E+04  0.25500000920E-02 0.  1.
    10030    2    1    2    0    0  0.00000000000E+00  0.00000000000E+00 -0.13808779577E+04  0.15597808815E+04  0.72532231748E+03 0.  0.
        5    1    3    3  502    0 -0.46025190829E+02 -0.34011975233E+02 -0.14604916278E+04  0.14616199976E+04  0.46999998093E+01 0.  1.
       -5    1    3    3    0  502  0.46025190829E+02  0.34011975233E+02  0.79613670113E+02  0.98160883845E+02  0.46999998093E+01 0. -1.
</event>
<event>
 5   0  0.7947250E-03  0.6956035E+03  0.7818609E-02  0.9724780E-01
       -4   -1    0    0    0  501  0.00000000000E+00  0.00000000000E+00  0.15527114904E+03  0.15527634277E+03  0.12699999809E+01 0. -1.
        4   -1    0    0  501    0  0.00000000000E+00  0.00000000000E+00 -0.77904460195E+03  0.77904563713E+03  0.12699999809E+01 0.  1.
    10030    2    1    2    0    0  0.00000000000E+00  0.00000000000E+00 -0.62377345291E+03  0.93432197990E+03  0.69560350888E+03 0.  0.
        5    1    3    3  502    0 -0.20961373590E+03  0.27597194319E+03 -0.27282948709E+03  0.44108553675E+03  0.46999998093E+01 0. -1.
       -5    1    3    3    0  502  0.20961373590E+03 -0.27597194319E+03 -0.35094396582E+03  0.49323644315E+03  0.46999998093E+01 0.  1.
</event>
<event>
 5   0  0.7947250E-03  0.6918383E+03  0.7818609E-02  0.9731293E-01
       -3   -1    0    0    0  501  0.00000000000E+00  0.00000000000E+00  0.26836074237E+03  0.26836076137E+03  0.10100000352E+00 0. -1.
        3   -1    0    0  501    0  0.00000000000E+00  0.00000000000E+00 -0.44589248290E+03  0.44589249434E+03  0.10100000352E+00 0.  1.
    10030    2    1    2    0    0  0.00000000000E+00  0.00000000000E+00 -0.17753174053E+03  0.71425325571E+03  0.69183827185E+03 0.  0.
        5    1    3    3  502    0  0.17110743399E+03 -0.25777714037E+03  0.70876395281E+02  0.31744662775E+03  0.46999998093E+01 0. -1.
       -5    1    3    3    0  502 -0.17110743399E+03  0.25777714037E+03 -0.24840813581E+03  0.39680662797E+03  0.46999998093E+01 0.  1.
</event>
<event>
 5   0  0.1237686E-02  0.6963790E+03  0.7818609E-02  0.9723445E-01
       -1   -1    0    0    0  501  0.00000000000E+00  0.00000000000E+00  0.18369063614E+03  0.18369063621E+03  0.50400001928E-02 0. -1.
        1   -1    0    0  501    0  0.00000000000E+00  0.00000000000E+00 -0.66000053118E+03  0.66000053120E+03  0.50400001928E-02 0.  1.
    10030    2    1    2    0    0  0.00000000000E+00  0.00000000000E+00 -0.47630989504E+03  0.84369116741E+03  0.69637896999E+03 0.  0.
        5    1    3    3  502    0 -0.28324539866E+02  0.16079225338E+03  0.13439595024E+03  0.21152018756E+03  0.46999998093E+01 0. -1.
       -5    1    3    3    0  502  0.28324539866E+02 -0.16079225338E+03 -0.61070584528E+03  0.63217097985E+03  0.46999998093E+01 0.  1.
</event>
<event>
 5   0  0.2006362E-02  0.7006946E+03  0.7818609E-02  0.9716045E-01
       -2   -1    0    0    0  501  0.00000000000E+00  0.00000000000E+00  0.10137842401E+03  0.10137842404E+03  0.25500000920E-02 0. -1.
        2   -1    0    0  501    0  0.00000000000E+00  0.00000000000E+00 -0.12107430658E+04  0.12107430658E+04  0.25500000920E-02 0.  1.
    10030    2    1    2    0    0  0.00000000000E+00  0.00000000000E+00 -0.11093646418E+04  0.13121214899E+04  0.70069458087E+03 0.  0.
        4    1    3    3  502    0 -0.12471168883E+03 -0.22201197804E+03 -0.10052726835E+04  0.10370231940E+04  0.12699999809E+01 0. -1.
       -4    1    3    3    0  502  0.12471168883E+03  0.22201197804E+03 -0.10409195833E+03  0.27509829592E+03  0.12699999809E+01 0.  1.
</event>
<event>
 5   0  0.1197259E-02  0.7070142E+03  0.7818609E-02  0.9705312E-01
       -1   -1    0    0    0  501  0.00000000000E+00  0.00000000000E+00  0.17629731689E+03  0.17629731696E+03  0.50400001928E-02 0.  1.
        1   -1    0    0  501    0  0.00000000000E+00  0.00000000000E+00 -0.70884379344E+03  0.70884379346E+03  0.50400001928E-02 0. -1.
    10030    2    1    2    0    0  0.00000000000E+00  0.00000000000E+00 -0.53254647655E+03  0.88514111042E+03  0.70701416935E+03 0.  0.
        3    1    3    3  502    0  0.99881016255E+02 -0.33041714201E+03 -0.36174601452E+03  0.50001189422E+03  0.10100000352E+00 0. -1.
       -3    1    3    3    0  502 -0.99881016255E+02  0.33041714201E+03 -0.17080046203E+03  0.38512921620E+03  0.10100000352E+00 0.  1.
</event>
<event>
 5   0  0.2006362E-02  0.7006726E+03  0.7818609E-02  0.9716083E-01
        2   -1    0    0  501    0  0.00000000000E+00  0.00000000000E+00  0.59719464508E+03  0.59719464509E+03  0.25500000920E-02 0.  1.
       -2   -1    0    0    0  501  0.00000000000E+00  0.00000000000E+00 -0.20552013192E+03  0.20552013194E+03  0.25500000920E-02 0. -1.
    10030    2    1    2    0    0  0.00000000000E+00  0.00000000000E+00  0.39167451316E+03  0.80271477703E+03  0.70067259758E+03 0.  0.
        4    1    3    3  502    0  0.39038278411E+02 -0.21757704500E+03 -0.11553550617E+03  0.24942699088E+03  0.12699999809E+01 0. -1.
       -4    1    3    3    0  502 -0.39038278411E+02  0.21757704500E+03  0.50721001933E+03  0.55328778615E+03  0.12699999809E+01 0.  1.
</event>
<event>
 5   0  0.1257442E-02  0.7078913E+03  0.7818609E-02  0.9703831E-01
       -1   -1    0    0    0  501  0.00000000000E+00  0.00000000000E+00  0.93081230242E+03  0.93081230243E+03  0.50400001928E-02 0.  1.
        1   -1    0    0  501    0  0.00000000000E+00  0.00000000000E+00 -0.13458946589E+03  0.13458946598E+03  0.50400001928E-02 0. -1.
    10030    2    1    2    0    0  0.00000000000E+00  0.00000000000E+00  0.79622283653E+03  0.10654017684E+04  0.70789132127E+03 0.  0.
        1    1    3    3  502    0 -0.31412447855E+03  0.16294291434E+03  0.40906300184E+03  0.54088549700E+03  0.50400001928E-02 0.  1.
       -1    1    3    3    0  502  0.31412447855E+03 -0.16294291434E+03  0.38715983469E+03  0.52451627142E+03  0.50400001928E-02 0. -1.
</event>
<event>
 5   0  0.1257442E-02  0.7097353E+03  0.7818609E-02  0.9700727E-01
        1   -1    0    0  501    0  0.00000000000E+00  0.00000000000E+00  0.73978763593E+03  0.73978763595E+03  0.50400001928E-02 0.  1.
       -1   -1    0    0    0  501  0.00000000000E+00  0.00000000000E+00 -0.17022594733E+03  0.17022594740E+03  0.50400001928E-02 0. -1.
    10030    2    1    2    0    0  0.00000000000E+00  0.00000000000E+00  0.56956168861E+03  0.91001358335E+03  0.70973530612E+03 0.  0.
        1    1    3    3  502    0  0.19128623029E+03 -0.25535603797E+03  0.48396987929E+03  0.57967574738E+03  0.50400001928E-02 0.  1.
       -1    1    3    3    0  502 -0.19128623029E+03  0.25535603797E+03  0.85591809319E+02  0.33033783597E+03  0.50400001928E-02 0. -1.
</event>
<event>
 5   0  0.2006362E-02  0.6986395E+03  0.7818609E-02  0.9719562E-01
       -2   -1    0    0    0  501  0.00000000000E+00  0.00000000000E+00  0.21229175766E+03  0.21229175767E+03  0.25500000920E-02 0.  1.
        2   -1    0    0  501    0  0.00000000000E+00  0.00000000000E+00 -0.57479521687E+03  0.57479521688E+03  0.25500000920E-02 0. -1.
    10030    2    1    2    0    0  0.00000000000E+00  0.00000000000E+00 -0.36250345922E+03  0.78708697455E+03  0.69863949757E+03 0.  0.
        4    1    3    3  502    0  0.26566641432E+02  0.21587070632E+03  0.12669706348E+03  0.25171354171E+03  0.12699999809E+01 0.  1.
       -4    1    3    3    0  502 -0.26566641432E+02 -0.21587070632E+03 -0.48920052270E+03  0.53537343284E+03  0.12699999809E+01 0. -1.
</event>
<event>
 5   0  0.1909053E-02  0.7244239E+03  0.7818609E-02  0.9676352E-01
        2   -1    0    0  501    0  0.00000000000E+00  0.00000000000E+00  0.65367472219E+03  0.65367472219E+03  0.25500000920E-02 0.  1.
       -2   -1    0    0    0  501  0.00000000000E+00  0.00000000000E+00 -0.20070761421E+03  0.20070761423E+03  0.25500000920E-02 0. -1.
    10030    2    1    2    0    0  0.00000000000E+00  0.00000000000E+00  0.45296710798E+03  0.85438233642E+03  0.72442389240E+03 0.  0.
        1    1    3    3  502    0 -0.14065943475E+03 -0.32003947072E+03  0.33829096743E+03  0.48646800313E+03  0.50400001928E-02 0.  1.
       -1    1    3    3    0  502  0.14065943475E+03  0.32003947072E+03  0.11467614054E+03  0.36791433329E+03  0.50400001928E-02 0. -1.
</event>
<event>
 5   0  0.2006362E-02  0.6995875E+03  0.7818609E-02  0.9717938E-01
        2   -1    0    0  501    0  0.00000000000E+00  0.00000000000E+00  0.92909099909E+03  0.92909099909E+03  0.25500000920E-02 0. -1.
       -2   -1    0    0    0  501  0.00000000000E+00  0.00000000000E+00 -0.13169396243E+03  0.13169396245E+03  0.25500000920E-02 0.  1.
    10030    2    1    2    0    0  0.00000000000E+00  0.00000000000E+00  0.79739703666E+03  0.10607849615E+04  0.69958752173E+03 0.  0.
        4    1    3    3  502    0 -0.30192152329E+03 -0.46857375457E+02  0.65692340390E+03  0.72450133979E+03  0.12699999809E+01 0. -1.
       -4    1    3    3    0  502  0.30192152329E+03  0.46857375457E+02  0.14047363276E+03  0.33628362176E+03  0.12699999809E+01 0.  1.
</event>
<event>
 5   0  0.2006362E-02  0.6891209E+03  0.7818609E-02  0.9736020E-01
       -2   -1    0    0    0  501  0.00000000000E+00  0.00000000000E+00  0.20736637292E+03  0.20736637294E+03  0.25500000920E-02 0.  1.
        2   -1    0    0  501    0  0.00000000000E+00  0.00000000000E+00 -0.57252239094E+03  0.57252239094E+03  0.25500000920E-02 0. -1.
    10030    2    1    2    0    0  0.00000000000E+00  0.00000000000E+00 -0.36515601802E+03  0.77988876388E+03  0.68912086496E+03 0.  0.
        4    1    3    3  502    0 -0.32049414447E+02  0.65131514571E+02 -0.56376794595E+03  0.56842342399E+03  0.12699999809E+01 0. -1.
       -4    1    3    3    0  502  0.32049414447E+02 -0.65131514571E+02  0.19861192794E+03  0.21146533989E+03  0.12699999809E+01 0.  1.
</event>
<event>
 5   0  0.1257442E-02  0.6996759E+03  0.7818609E-02  0.9717787E-01
       -1   -1    0    0    0  501  0.00000000000E+00  0.00000000000E+00  0.84145220951E+03  0.84145220952E+03  0.50400001928E-02 0. -1.
        1   -1    0    0  501    0  0.00000000000E+00  0.00000000000E+00 -0.14544685573E+03  0.14544685582E+03  0.50400001928E-02 0.  1.
    10030    2    1    2    0    0  0.00000000000E+00  0.00000000000E+00  0.69600535378E+03  0.98689906534E+03  0.69967586259E+03 0.  0.
        1    1    3    3  502    0  0.90510078231E+02  0.13942852501E+03  0.78218791942E+03  0.79965638193E+03  0.50400001928E-02 0. -1.
       -1    1    3    3    0  502 -0.90510078231E+02 -0.13942852501E+03 -0.86182565639E+02  0.18724268342E+03  0.50400001928E-02 0.  1.
</event>
<event>
 5   0  0.1197259E-02  0.6960075E+03  0.7818609E-02  0.9724084E-01
        1   -1    0    0  501    0  0.00000000000E+00  0.00000000000E+00  0.58729639018E+03  0.58729639020E+03  0.50400001928E-02 0. -1.
       -1   -1    0    0    0  501  0.00000000000E+00  0.00000000000E+00 -0.20621040479E+03  0.20621040485E+03  0.50400001928E-02 0.  1.
    10030    2    1    2    0    0  0.00000000000E+00  0.00000000000E+00  0.38108598539E+03  0.79350679505E+03  0.69600754703E+03 0.  0.
        3    1    3    3  502    0 -0.52998223105E+02  0.23033750113E+03  0.48174998516E+03  0.53660715097E+03  0.10100000352E+00 0. -1.
       -3    1    3    3    0  502  0.52998223105E+02 -0.23033750113E+03 -0.10066399976E+03  0.25689964408E+03  0.10100000352E+00 0.  1.
</event>
<event>
 5   0  0.2026361E-02  0.7008655E+03  0.7818609E-02  0.9715753E-01
        2   -1    0    0  501    0  0.00000000000E+00  0.00000000000E+00  0.60160414542E+03  0.60160414542E+03  0.25500000920E-02 0.  1.
       -2   -1    0    0    0  501  0.00000000000E+00  0.00000000000E+00 -0.20412609506E+03  0.20412609508E+03  0.25500000920E-02 0. -1.
    10030    2    1    2    0    0  0.00000000000E+00  0.00000000000E+00  0.39747805036E+03  0.80573024050E+03  0.70086547920E+03 0.  0.
        2    1    3    3  502    0  0.50785511094E+02  0.98633339866E+02 -0.18340501924E+03  0.21434809297E+03  0.25500000920E-02 0. -1.
       -2    1    3    3    0  502 -0.50785511094E+02 -0.98633339866E+02  0.58088306960E+03  0.59138214753E+03  0.25500000920E-02 0.  1.
</event>
<event>
 5   0  0.7947250E-03  0.7001605E+03  0.7818609E-02  0.9716958E-01
        3   -1    0    0  501    0  0.00000000000E+00  0.00000000000E+00  0.39308950431E+03  0.39308951728E+03  0.10100000352E+00 0. -1.
       -3   -1    0    0    0  501  0.00000000000E+00  0.00000000000E+00 -0.31177676380E+03  0.31177678016E+03  0.10100000352E+00 0.  1.
    10030    2    1    2    0    0  0.00000000000E+00  0.00000000000E+00  0.81312740506E+02  0.70486629744E+03  0.70016050695E+03 0.  0.
        3    1    3    3  502    0  0.31023512144E+03 -0.84454951902E+02  0.18007070896E+03  0.36851586113E+03  0.10100000352E+00 0. -1.
       -3    1    3    3    0  502 -0.31023512144E+03  0.84454951902E+02 -0.98757968457E+02  0.33635043631E+03  0.10100000352E+00 0.  1.
</event>
<event>
 5   0  0.1223742E-02  0.6944107E+03  0.7818609E-02  0.9726839E-01
       -1   -1    0    0    0  501  0.00000000000E+00  0.00000000000E+00  0.10000924528E+03  0.10000924540E+03  0.50400001928E-02 0. -1.
        1   -1    0    0  501    0  0.00000000000E+00  0.00000000000E+00 -0.12054041181E+04  0.12054041181E+04  0.50400001928E-02 0.  1.
    10030    2    1    2    0    0  0.00000000000E+00  0.00000000000E+00 -0.11053948728E+04  0.13054133635E+04  0.69441070323E+03 0.  0.
        2    1    3    3  502    0 -0.20002326914E+03  0.52786674644E+02 -0.28496144569E+02  0.20882473867E+03  0.25500000920E-02 0. -1.
       -2    1    3    3    0  502  0.20002326914E+03 -0.52786674644E+02 -0.10768987282E+04  0.10965886248E+04  0.25500000920E-02 0.  1.
</event>
<event>
 5   0  0.1223742E-02  0.7004391E+03  0.7818609E-02  0.9716482E-01
       -1   -1    0    0    0  501  0.00000000000E+00  0.00000000000E+00  0.29416447031E+03  0.29416447035E+03  0.50400001928E-02 0.  1.
        1   -1    0    0  501    0  0.00000000000E+00  0.00000000000E+00 -0.41695630463E+03  0.41695630466E+03  0.50400001928E-02 0. -1.
    10030    2    1    2    0    0  0.00000000000E+00  0.00000000000E+00 -0.12279183433E+03  0.71112077502E+03  0.70043909234E+03 0.  0.
        2    1    3    3  502    0 -0.26810972508E+03  0.56607114098E+02 -0.28281944862E+03  0.39379440140E+03  0.25500000920E-02 0. -1.
       -2    1    3    3    0  502  0.26810972508E+03 -0.56607114098E+02  0.16002761430E+03  0.31732637362E+03  0.25500000920E-02 0.  1.
</event>
<event>
 5   0  0.1226303E-02  0.7015137E+03  0.7818609E-02  0.9714647E-01
        1   -1    0    0  501    0  0.00000000000E+00  0.00000000000E+00  0.29353523013E+03  0.29353523017E+03  0.50400001928E-02 0.  1.
       -1   -1    0    0    0  501  0.00000000000E+00  0.00000000000E+00 -0.41913321256E+03  0.41913321259E+03  0.50400001928E-02 0. -1.
    10030    2    1    2    0    0  0.00000000000E+00  0.00000000000E+00 -0.12559798244E+03  0.71266844276E+03  0.70151368919E+03 0.  0.
        4    1    3    3  502    0  0.25678864207E+03 -0.15619772784E+03  0.12088145206E+03  0.32396307696E+03  0.12699999809E+01 0. -1.
       -4    1    3    3    0  502 -0.25678864207E+03  0.15619772784E+03 -0.24647943450E+03  0.38870536581E+03  0.12699999809E+01 0.  1.
</event>
<event>
 5   0  0.2026361E-02  0.7011538E+03  0.7818609E-02  0.9715261E-01
       -2   -1    0    0    0  501  0.00000000000E+00  0.00000000000E+00  0.10123543203E+03  0.10123543206E+03  0.25500000920E-02 0. -1.
        2   -1    0    0  501    0  0.00000000000E+00  0.00000000000E+00 -0.12140431066E+04  0.12140431066E+04  0.25500000920E-02 0.  1.
    10030    2    1    2    0    0  0.00000000000E+00  0.00000000000E+00 -0.11128076745E+04  0.13152785386E+04  0.70115384452E+03 0.  0.
        2    1    3    3  502    0  0.17613659581E+03 -0.14094466977E+03 -0.53001849624E+02  0.23172979176E+03  0.25500000920E-02 0. -1.
       -2    1    3    3    0  502 -0.17613659581E+03  0.14094466977E+03 -0.10598058249E+04  0.10835487469E+04  0.25500000920E-02 0.  1.
</event>
<event>
 5   0  0.1257442E-02  0.7007196E+03  0.7818609E-02  0.9716002E-01
       -1   -1    0    0    0  501  0.00000000000E+00  0.00000000000E+00  0.89657136820E+02  0.89657136962E+02  0.50400001928E-02 0. -1.
        1   -1    0    0  501    0  0.00000000000E+00  0.00000000000E+00 -0.13691266807E+04  0.13691266807E+04  0.50400001928E-02 0.  1.
    10030    2    1    2    0    0  0.00000000000E+00  0.00000000000E+00 -0.12794695438E+04  0.14587838176E+04  0.70071956799E+03 0.  0.
        1    1    3    3  502    0 -0.83235400424E+02  0.33322120030E+03 -0.49568914197E+03  0.60305242368E+03  0.50400001928E-02 0. -1.
       -1    1    3    3    0  502  0.83235400424E+02 -0.33322120030E+03 -0.78378040187E+03  0.85573139395E+03  0.50400001928E-02 0.  1.
</event>
<event>
 5   0  0.2026361E-02  0.6983963E+03  0.7818609E-02  0.9719979E-01
        2   -1    0    0  501    0  0.00000000000E+00  0.00000000000E+00  0.17069789272E+03  0.17069789274E+03  0.25500000920E-02 0. -1.
       -2   -1    0    0    0  501  0.00000000000E+00  0.00000000000E+00 -0.71435774888E+03  0.71435774889E+03  0.25500000920E-02 0.  1.
    10030    2    1    2    0    0  0.00000000000E+00  0.00000000000E+00 -0.54365985616E+03  0.88505564163E+03  0.69839634132E+03 0.  0.
        2    1    3    3  502    0  0.20444295083E+03 -0.22771258119E+02 -0.62942405292E+03  0.66218584154E+03  0.25500000920E-02 0.  1.
       -2    1    3    3    0  502 -0.20444295083E+03  0.22771258119E+02  0.85764196754E+02  0.22286980009E+03  0.25500000920E-02 0. -1.
</event>
<event>
 5   0  0.2026361E-02  0.6909892E+03  0.7818609E-02  0.9732767E-01
        2   -1    0    0  501    0  0.00000000000E+00  0.00000000000E+00  0.13566988860E+04  0.13566988860E+04  0.25500000920E-02 0. -1.
       -2   -1    0    0    0  501  0.00000000000E+00  0.00000000000E+00 -0.87983048282E+02  0.87983048319E+02  0.25500000920E-02 0.  1.
    10030    2    1    2    0    0  0.00000000000E+00  0.00000000000E+00  0.12687158377E+04  0.14446819343E+04  0.69098915655E+03 0.  0.
        2    1    3    3  502    0 -0.30217899023E+03 -0.89804335384E+02  0.92995656494E+03  0.98193491306E+03  0.25500000920E-02 0. -1.
       -2    1    3    3    0  502  0.30217899023E+03  0.89804335384E+02  0.33875927277E+03  0.46274702126E+03  0.25500000920E-02 0.  1.
</event>
<event>
 5   0  0.2026361E-02  0.7007368E+03  0.7818609E-02  0.9715973E-01
       -2   -1    0    0    0  501  0.00000000000E+00  0.00000000000E+00  0.39430633219E+03  0.39430633220E+03  0.25500000920E-02 0.  1.
        2   -1    0    0  501    0  0.00000000000E+00  0.00000000000E+00 -0.31132647980E+03  0.31132647981E+03  0.25500000920E-02 0. -1.
    10030    2    1    2    0    0  0.00000000000E+00  0.00000000000E+00  0.82979852390E+02  0.70563281201E+03  0.70073676190E+03 0.  0.
        2    1    3    3  502    0  0.62422286044E+02  0.14896376716E+03  0.35458234187E+03  0.38963493541E+03  0.25500000920E-02 0.  1.
       -2    1    3    3    0  502 -0.62422286044E+02 -0.14896376716E+03 -0.27160248948E+03  0.31599787660E+03  0.25500000920E-02 0. -1.
</event>
<event>
 5   0  0.1909053E-02  0.7034081E+03  0.7818609E-02  0.9711422E-01
       -2   -1    0    0    0  501  0.00000000000E+00  0.00000000000E+00  0.43713176977E+03  0.43713176978E+03  0.25500000920E-02 0. -1.
        2   -1    0    0  501    0  0.00000000000E+00  0.00000000000E+00 -0.28297129455E+03  0.28297129456E+03  0.25500000920E-02 0.  1.
    10030    2    1    2    0    0  0.00000000000E+00  0.00000000000E+00  0.15416047523E+03  0.72010306434E+03  0.70340811137E+03 0.  0.
        1    1    3    3  502    0 -0.12901413142E+03 -0.30899561175E+03  0.18721049942E+03  0.38362834268E+03  0.50400001928E-02 0. -1.
       -1    1    3    3    0  502  0.12901413142E+03  0.30899561175E+03 -0.33050024195E+02  0.33647472166E+03  0.50400001928E-02 0.  1.
</event>
<event>
 5   0  0.1223742E-02  0.6902047E+03  0.7818609E-02  0.9734132E-01
       -1   -1    0    0    0  501  0.00000000000E+00  0.00000000000E+00  0.25518590151E+03  0.25518590156E+03  0.50400001928E-02 0. -1.
        1   -1    0    0  501    0  0.00000000000E+00  0.00000000000E+00 -0.46670141460E+03  0.46670141463E+03  0.50400001928E-02 0.  1.
    10030    2    1    2    0    0  0.00000000000E+00  0.00000000000E+00 -0.21151551309E+03  0.72188731619E+03  0.69020466892E+03 0.  0.
        2    1    3    3  502    0 -0.15847147000E+02  0.21547179197E+03 -0.38721340714E+03  0.44341114992E+03  0.25500000920E-02 0.  1.
       -2    1    3    3    0  502  0.15847147000E+02 -0.21547179197E+03  0.17569789404E+03  0.27847616627E+03  0.25500000920E-02 0. -1.
</event>
<event>
 5   0  0.2006362E-02  0.7083854E+03  0.7818609E-02  0.9702999E-01
       -2   -1    0    0    0  501  0.00000000000E+00  0.00000000000E+00  0.14161237458E+03  0.14161237460E+03  0.25500000920E-02 0.  1.
        2   -1    0    0  501    0  0.00000000000E+00  0.00000000000E+00 -0.88588636579E+03  0.88588636579E+03  0.25500000920E-02 0. -1.
    10030    2    1    2    0    0  0.00000000000E+00  0.00000000000E+00 -0.74427399121E+03  0.10274987404E+04  0.70838540888E+03 0.  0.
        4    1    3    3  502    0 -0.30282054047E+03 -0.84014161462E+02 -0.60911272873E+03  0.68540395991E+03  0.12699999809E+01 0. -1.
       -4    1    3    3    0  502  0.30282054047E+03  0.84014161462E+02 -0.13516126247E+03  0.34209478048E+03  0.12699999809E+01 0.  1.
</event>
<event>
 5   0  0.1973067E-02  0.6978759E+03  0.7818609E-02  0.9720872E-01
        2   -1    0    0  501    0  0.00000000000E+00  0.00000000000E+00  0.24917705951E+03  0.24917705952E+03  0.25500000920E-02 0.  1.
       -2   -1    0    0    0  501  0.00000000000E+00  0.00000000000E+00 -0.48863929182E+03  0.48863929182E+03  0.25500000920E-02 0. -1.
    10030    2    1    2    0    0  0.00000000000E+00  0.00000000000E+00 -0.23946223231E+03  0.73781635134E+03  0.69787592566E+03 0.  0.
        5    1    3    3  502    0 -0.40080180097E+02 -0.74448754917E+02  0.23814846973E+03  0.25275644716E+03  0.46999998093E+01 0.  1.
       -5    1    3    3    0  502  0.40080180097E+02  0.74448754917E+02 -0.47761070204E+03  0.48505990419E+03  0.46999998093E+01 0. -1.
</event>
<event>
 5   0  0.1197259E-02  0.7010923E+03  0.7818609E-02  0.9715366E-01
        1   -1    0    0  501    0  0.00000000000E+00  0.00000000000E+00  0.77191955800E+03  0.77191955802E+03  0.50400001928E-02 0.  1.
       -1   -1    0    0    0  501  0.00000000000E+00  0.00000000000E+00 -0.15919092989E+03  0.15919092997E+03  0.50400001928E-02 0. -1.
    10030    2    1    2    0    0  0.00000000000E+00  0.00000000000E+00  0.61272862811E+03  0.93111048799E+03  0.70109226864E+03 0.  0.
        3    1    3    3  502    0 -0.91042731608E+02  0.70363946926E+01 -0.14311816472E+03  0.16976780939E+03  0.10100000352E+00 0. -1.
       -3    1    3    3    0  502  0.91042731608E+02 -0.70363946926E+01  0.75584679283E+03  0.76134267860E+03  0.10100000352E+00 0.  1.
</event>
<event>
 5   0  0.1973067E-02  0.7054491E+03  0.7818609E-02  0.9707959E-01
        2   -1    0    0  501    0  0.00000000000E+00  0.00000000000E+00  0.38679837665E+03  0.38679837666E+03  0.25500000920E-02 0. -1.
       -2   -1    0    0    0  501  0.00000000000E+00  0.00000000000E+00 -0.32165238736E+03  0.32165238737E+03  0.25500000920E-02 0.  1.
    10030    2    1    2    0    0  0.00000000000E+00  0.00000000000E+00  0.65145989284E+02  0.70845076403E+03  0.70544913717E+03 0.  0.
        5    1    3    3  502    0 -0.33976456282E+03  0.90388368204E+02  0.44804818078E+01  0.35164211916E+03  0.46999998093E+01 0. -1.
       -5    1    3    3    0  502  0.33976456282E+03 -0.90388368204E+02  0.60665507477E+02  0.35680864487E+03  0.46999998093E+01 0.  1.
</event>
<event>
 5   0  0.1197259E-02  0.6911015E+03  0.7818609E-02  0.9732572E-01
        1   -1    0    0  501    0  0.00000000000E+00  0.00000000000E+00  0.10693697612E+04  0.10693697612E+04  0.50400001928E-02 0. -1.
       -1   -1    0    0    0  501  0.00000000000E+00  0.00000000000E+00 -0.11165952694E+03  0.11165952706E+03  0.50400001928E-02 0.  1.
    10030    2    1    2    0    0  0.00000000000E+00  0.00000000000E+00  0.95771023425E+03  0.11810292883E+04  0.69110150263E+03 0.  0.
        3    1    3    3  502    0 -0.13624737165E+01  0.92723552722E+02  0.10477081441E+04  0.10518041067E+04  0.10100000352E+00 0. -1.
       -3    1    3    3    0  502  0.13624737165E+01 -0.92723552722E+02 -0.89997909835E+02  0.12922518152E+03  0.10100000352E+00 0.  1.
</event>
<event>
 5   0  0.1973067E-02  0.6945738E+03  0.7818609E-02  0.9726557E-01
       -2   -1    0    0    0  501  0.00000000000E+00  0.00000000000E+00  0.23904558405E+03  0.23904558406E+03  0.25500000920E-02 0.  1.
        2   -1    0    0  501    0  0.00000000000E+00  0.00000000000E+00 -0.50454052707E+03  0.50454052708E+03  0.25500000920E-02 0. -1.
    10030    2    1    2    0    0  0.00000000000E+00  0.00000000000E+00 -0.26549494302E+03  0.74358611114E+03  0.69457378291E+03 0.  0.
        5    1    3    3  502    0  0.12981091716E+02 -0.34687606333E+03 -0.14315911428E+03  0.37551049792E+03  0.46999998093E+01 0. -1.
       -5    1    3    3    0  502 -0.12981091716E+02  0.34687606333E+03 -0.12233582874E+03  0.36807561322E+03  0.46999998093E+01 0.  1.
</event>
<event>
 5   0  0.2026361E-02  0.6992943E+03  0.7818609E-02  0.9718440E-01
       -2   -1    0    0    0  501  0.00000000000E+00  0.00000000000E+00  0.15313222384E+03  0.15313222386E+03  0.25500000920E-02 0. -1.
        2   -1    0    0  501    0  0.00000000000E+00  0.00000000000E+00 -0.79835017904E+03  0.79835017905E+03  0.25500000920E-02 0.  1.
    10030    2    1    2    0    0  0.00000000000E+00  0.00000000000E+00 -0.64521795521E+03  0.95148240291E+03  0.69929432525E+03 0.  0.
        2    1    3    3  502    0 -0.98048184910E+02  0.24283388260E+03 -0.63782784729E+03  0.68949699339E+03  0.25500000920E-02 0.  1.
       -2    1    3    3    0  502  0.98048184910E+02 -0.24283388260E+03 -0.73901079120E+01  0.26198540952E+03  0.25500000920E-02 0. -1.
</event>
<event>
 5   0  0.1257442E-02  0.6987504E+03  0.7818609E-02  0.9719372E-01
        1   -1    0    0  501    0  0.00000000000E+00  0.00000000000E+00  0.90579284749E+02  0.90579284889E+02  0.50400001928E-02 0. -1.
       -1   -1    0    0    0  501  0.00000000000E+00  0.00000000000E+00 -0.13475823219E+04  0.13475823219E+04  0.50400001928E-02 0.  1.
    10030    2    1    2    0    0  0.00000000000E+00  0.00000000000E+00 -0.12570030371E+04  0.14381616068E+04  0.69875043603E+03 0.  0.
        1    1    3    3  502    0 -0.23701561418E+02 -0.22110639613E+03 -0.73884096350E+02  0.23432597411E+03  0.50400001928E-02 0. -1.
       -1    1    3    3    0  502  0.23701561418E+02  0.22110639613E+03 -0.11831189408E+04  0.12038356327E+04  0.50400001928E-02 0.  1.
</event>
<event>
 5   0  0.1257442E-02  0.7017692E+03  0.7818609E-02  0.9714211E-01
       -1   -1    0    0    0  501  0.00000000000E+00  0.00000000000E+00  0.73717874271E+02  0.73717874443E+02  0.50400001928E-02 0.  1.
        1   -1    0    0  501    0  0.00000000000E+00  0.00000000000E+00 -0.16701514960E+04  0.16701514960E+04  0.50400001928E-02 0. -1.
    10030    2    1    2    0    0  0.00000000000E+00  0.00000000000E+00 -0.15964336218E+04  0.17438693705E+04  0.70176924457E+03 0.  0.
        1    1    3    3  502    0  0.17401144367E+03 -0.80227288881E+02 -0.15286585504E+04  0.15406210968E+04  0.50400001928E-02 0. -1.
       -1    1    3    3    0  502 -0.17401144367E+03  0.80227288881E+02 -0.67775071391E+02  0.20324827364E+03  0.50400001928E-02 0.  1.
</event>
<event>
 5   0  0.2006362E-02  0.6929484E+03  0.7818609E-02  0.9729368E-01
        2   -1    0    0  501    0  0.00000000000E+00  0.00000000000E+00  0.11128543145E+04  0.11128543145E+04  0.25500000920E-02 0. -1.
       -2   -1    0    0    0  501  0.00000000000E+00  0.00000000000E+00 -0.10787069721E+03  0.10787069724E+03  0.25500000920E-02 0.  1.
    10030    2    1    2    0    0  0.00000000000E+00  0.00000000000E+00  0.10049836173E+04  0.12207250118E+04  0.69294839871E+03 0.  0.
        4    1    3    3  502    0  0.41060812989E+02 -0.14640596210E+03 -0.45947114769E+02  0.15885038986E+03  0.12699999809E+01 0.  1.
       -4    1    3    3    0  502 -0.41060812989E+02  0.14640596210E+03  0.10509307321E+04  0.10618746219E+04  0.12699999809E+01 0. -1.
</event>
<event>
 5   0  0.2006362E-02  0.7050107E+03  0.7818609E-02  0.9708701E-01
       -2   -1    0    0    0  501  0.00000000000E+00  0.00000000000E+00  0.14881230148E+03  0.14881230150E+03  0.25500000920E-02 0. -1.
        2   -1    0    0  501    0  0.00000000000E+00  0.00000000000E+00 -0.83501186859E+03  0.83501186859E+03  0.25500000920E-02 0.  1.
    10030    2    1    2    0    0  0.00000000000E+00  0.00000000000E+00 -0.68619956712E+03  0.98382417009E+03  0.70501074584E+03 0.  0.
        4    1    3    3  502    0 -0.16474564024E+02  0.10054577689E+03  0.12781337816E+03  0.16345867076E+03  0.12699999809E+01 0. -1.
       -4    1    3    3    0  502  0.16474564024E+02 -0.10054577689E+03 -0.81401294528E+03  0.82036549933E+03  0.12699999809E+01 0.  1.
</event>
<event>
 5   0  0.1909053E-02  0.7678041E+03  0.7818609E-02  0.9607825E-01
        2   -1    0    0  501    0  0.00000000000E+00  0.00000000000E+00  0.23866993481E+04  0.23866993481E+04  0.25500000920E-02 0. -1.
       -2   -1    0    0    0  501  0.00000000000E+00  0.00000000000E+00 -0.61750874420E+02  0.61750874473E+02  0.25500000920E-02 0.  1.
    10030    2    1    2    0    0  0.00000000000E+00  0.00000000000E+00  0.23249484737E+04  0.24484502226E+04  0.76780406821E+03 0.  0.
        1    1    3    3  502    0  0.29095876709E+03  0.17044707656E+03  0.17476313655E+04  0.17798664556E+04  0.50400001928E-02 0. -1.
       -1    1    3    3    0  502 -0.29095876709E+03 -0.17044707656E+03  0.57731710824E+03  0.66858376703E+03  0.50400001928E-02 0.  1.
</event>
<event>
 5   0  0.1973067E-02  0.6837965E+03  0.7818609E-02  0.9745351E-01
       -2   -1    0    0    0  501  0.00000000000E+00  0.00000000000E+00  0.43524537526E+03  0.43524537527E+03  0.25500000920E-02 0.  1.
        2   -1    0    0  501    0  0.00000000000E+00  0.00000000000E+00 -0.26857131899E+03  0.26857131900E+03  0.25500000920E-02 0. -1.
    10030    2    1    2    0    0  0.00000000000E+00  0.00000000000E+00  0.16667405627E+03  0.70381669427E+03  0.68379653268E+03 0.  0.
        5    1    3    3  502    0 -0.76565431192E+02 -0.65438704666E+02  0.41959418785E+03  0.43153894586E+03  0.46999998093E+01 0.  1.
       -5    1    3    3    0  502  0.76565431192E+02  0.65438704666E+02 -0.25292013158E+03  0.27227774841E+03  0.46999998093E+01 0. -1.
</event>
<event>
 5   0  0.1197259E-02  0.6991043E+03  0.7818609E-02  0.9718765E-01
       -1   -1    0    0    0  501  0.00000000000E+00  0.00000000000E+00  0.79457840189E+02  0.79457840349E+02  0.50400001928E-02 0. -1.
        1   -1    0    0  501    0  0.00000000000E+00  0.00000000000E+00 -0.15377553363E+04  0.15377553363E+04  0.50400001928E-02 0.  1.
    10030    2    1    2    0    0  0.00000000000E+00  0.00000000000E+00 -0.14582974961E+04  0.16172131767E+04  0.69910433528E+03 0.  0.
        3    1    3    3  502    0  0.21471772012E+03  0.14150532557E+02 -0.91917790713E+02  0.23399322075E+03  0.10100000352E+00 0. -1.
       -3    1    3    3    0  502 -0.21471772012E+03 -0.14150532557E+02 -0.13663797054E+04  0.13832199559E+04  0.10100000352E+00 0.  1.
</event>
<event>
 5   0  0.1257442E-02  0.7020071E+03  0.7818609E-02  0.9713806E-01
       -1   -1    0    0    0  501  0.00000000000E+00  0.00000000000E+00  0.24731618972E+03  0.24731618977E+03  0.50400001928E-02 0.  1.
        1   -1    0    0  501    0  0.00000000000E+00  0.00000000000E+00 -0.49816183902E+03  0.49816183905E+03  0.50400001928E-02 0. -1.
    10030    2    1    2    0    0  0.00000000000E+00  0.00000000000E+00 -0.25084564930E+03  0.74547802882E+03  0.70200708806E+03 0.  0.
        1    1    3    3  502    0  0.31981734256E+03 -0.81506855174E+02  0.14625732921E+01  0.33004338985E+03  0.50400001928E-02 0.  1.
       -1    1    3    3    0  502 -0.31981734256E+03  0.81506855174E+02 -0.25230822260E+03  0.41543463897E+03  0.50400001928E-02 0. -1.
</event>
<event>
 5   0  0.2026361E-02  0.6992338E+03  0.7818609E-02  0.9718543E-01
        2   -1    0    0  501    0  0.00000000000E+00  0.00000000000E+00  0.55865399885E+03  0.55865399886E+03  0.25500000920E-02 0. -1.
       -2   -1    0    0    0  501  0.00000000000E+00  0.00000000000E+00 -0.21879725364E+03  0.21879725365E+03  0.25500000920E-02 0.  1.
    10030    2    1    2    0    0  0.00000000000E+00  0.00000000000E+00  0.33985674522E+03  0.77745125251E+03  0.69923375402E+03 0.  0.
        2    1    3    3  502    0 -0.28569110293E+03 -0.92385153647E+01 -0.53904622088E+02  0.29087878016E+03  0.25500000920E-02 0.  1.
       -2    1    3    3    0  502  0.28569110293E+03  0.92385153647E+01  0.39376136730E+03  0.48657247235E+03  0.25500000920E-02 0. -1.
</event>
<event>
 5   0  0.1237686E-02  0.6988861E+03  0.7818609E-02  0.9719139E-01
        1   -1    0    0  501    0  0.00000000000E+00  0.00000000000E+00  0.21592617029E+04  0.21592617029E+04  0.50400001928E-02 0.  1.
       -1   -1    0    0    0  501  0.00000000000E+00  0.00000000000E+00 -0.56551938394E+02  0.56551938618E+02  0.50400001928E-02 0. -1.
    10030    2    1    2    0    0  0.00000000000E+00  0.00000000000E+00  0.21027097645E+04  0.22158136415E+04  0.69888607099E+03 0.  0.
        5    1    3    3  502    0  0.26466254450E+03  0.48928233949E+02  0.17577996442E+04  0.17782918528E+04  0.46999998093E+01 0.  1.
       -5    1    3    3    0  502 -0.26466254450E+03 -0.48928233949E+02  0.34491012032E+03  0.43752178876E+03  0.46999998093E+01 0. -1.
</event>
<event>
 5   0  0.1257442E-02  0.6926729E+03  0.7818609E-02  0.9729845E-01
       -1   -1    0    0    0  501  0.00000000000E+00  0.00000000000E+00  0.24461305219E+03  0.24461305224E+03  0.50400001928E-02 0.  1.
        1   -1    0    0  501    0  0.00000000000E+00  0.00000000000E+00 -0.49036201242E+03  0.49036201245E+03  0.50400001928E-02 0. -1.
    10030    2    1    2    0    0  0.00000000000E+00  0.00000000000E+00 -0.24574896023E+03  0.73497506468E+03  0.69267293454E+03 0.  0.
        1    1    3    3  502    0 -0.13015157010E+03 -0.31393600945E+02  0.21604417405E+03  0.25416544719E+03  0.50400001928E-02 0.  1.
       -1    1    3    3    0  502  0.13015157010E+03  0.31393600945E+02 -0.46179313428E+03  0.48080961749E+03  0.50400001928E-02 0. -1.
</event>
<event>
 5   0  0.1223742E-02  0.6989934E+03  0.7818609E-02  0.9718955E-01
        1   -1    0    0  501    0  0.00000000000E+00  0.00000000000E+00  0.53351144119E+03  0.53351144122E+03  0.50400001928E-02 0.  1.
       -1   -1    0    0    0  501  0.00000000000E+00  0.00000000000E+00 -0.22895093159E+03  0.22895093164E+03  0.50400001928E-02 0. -1.
    10030    2    1    2    0    0  0.00000000000E+00  0.00000000000E+00  0.30456050960E+03  0.76246237286E+03  0.69899339483E+03 0.  0.
        2    1    3    3  502    0 -0.24886115555E+03  0.21281170788E+03  0.19009408173E+02  0.32799703559E+03  0.25500000920E-02 0. -1.
       -2    1    3    3    0  502  0.24886115555E+03 -0.21281170788E+03  0.28555110143E+03  0.43446533727E+03  0.25500000920E-02 0.  1.
</event>
<event>
 5   0  0.2026361E-02  0.7010539E+03  0.7818609E-02  0.9715432E-01
       -2   -1    0    0    0  501  0.00000000000E+00  0.00000000000E+00  0.19283692532E+03  0.19283692533E+03  0.25500000920E-02 0.  1.
        2   -1    0    0  501    0  0.00000000000E+00  0.00000000000E+00 -0.63716606122E+03  0.63716606122E+03  0.25500000920E-02 0. -1.
    10030    2    1    2    0    0  0.00000000000E+00  0.00000000000E+00 -0.44432913590E+03  0.83000298656E+03  0.70105390426E+03 0.  0.
        2    1    3    3  502    0  0.12784268937E+03 -0.10454267014E+03  0.14389233854E+03  0.21903864545E+03  0.25500000920E-02 0.  1.
       -2    1    3    3    0  502 -0.12784268937E+03  0.10454267014E+03 -0.58822147443E+03  0.61096434110E+03  0.25500000920E-02 0. -1.
</event>
<event>
 5   0  0.1948138E-02  0.6915489E+03  0.7818609E-02  0.9731795E-01
       -2   -1    0    0    0  501  0.00000000000E+00  0.00000000000E+00  0.10729727566E+03  0.10729727569E+03  0.25500000920E-02 0. -1.
        2   -1    0    0  501    0  0.00000000000E+00  0.00000000000E+00 -0.11142872220E+04  0.11142872220E+04  0.25500000920E-02 0.  1.
    10030    2    1    2    0    0  0.00000000000E+00  0.00000000000E+00 -0.10069899463E+04  0.12215844977E+04  0.69154893750E+03 0.  0.
        3    1    3    3  502    0 -0.12887269442E+03 -0.27705892828E+03 -0.78936564562E+03  0.84644430046E+03  0.10100000352E+00 0.  1.
       -3    1    3    3    0  502  0.12887269442E+03  0.27705892828E+03 -0.21762430072E+03  0.37514019722E+03  0.10100000352E+00 0. -1.
</event>
<event>
 5   0  0.1237686E-02  0.6998734E+03  0.7818609E-02  0.9717449E-01
        1   -1    0    0  501    0  0.00000000000E+00  0.00000000000E+00  0.55704273056E+03  0.55704273058E+03  0.50400001928E-02 0.  1.
       -1   -1    0    0    0  501  0.00000000000E+00  0.00000000000E+00 -0.21983178882E+03  0.21983178888E+03  0.50400001928E-02 0. -1.
    10030    2    1    2    0    0  0.00000000000E+00  0.00000000000E+00  0.33721094174E+03  0.77687451946E+03  0.69987341695E+03 0.  0.
        5    1    3    3  502    0  0.30919147603E+03  0.81110008628E+01  0.35021683218E+03  0.46726767139E+03  0.46999998093E+01 0.  1.
       -5    1    3    3    0  502 -0.30919147603E+03 -0.81110008628E+01 -0.13005890437E+02  0.30960684807E+03  0.46999998093E+01 0. -1.
</event>
<event>
 5   0  0.1257442E-02  0.6645267E+03  0.7818609E-02  0.9779896E-01
       -1   -1    0    0    0  501  0.00000000000E+00  0.00000000000E+00  0.14329774610E+03  0.14329774619E+03  0.50400001928E-02 0.  1.
        1   -1    0    0  501    0  0.00000000000E+00  0.00000000000E+00 -0.77041643942E+03  0.77041643944E+03  0.50400001928E-02 0. -1.
    10030    2    1    2    0    0  0.00000000000E+00  0.00000000000E+00 -0.62711869332E+03  0.91371418563E+03  0.66452671692E+03 0.  0.
        1    1    3    3  502    0  0.64869855558E+02  0.26958478913E+03 -0.61839897391E+02  0.28409193868E+03  0.50400001928E-02 0.  1.
       -1    1    3    3    0  502 -0.64869855558E+02 -0.26958478913E+03 -0.56527879593E+03  0.62962224694E+03  0.50400001928E-02 0. -1.
</event>
<event>
 5   0  0.1197259E-02  0.6797773E+03  0.7818609E-02  0.9752455E-01
        1   -1    0    0  501    0  0.00000000000E+00  0.00000000000E+00  0.59925877276E+03  0.59925877278E+03  0.50400001928E-02 0. -1.
       -1   -1    0    0    0  501  0.00000000000E+00  0.00000000000E+00 -0.19277863039E+03  0.19277863046E+03  0.50400001928E-02 0.  1.
    10030    2    1    2    0    0  0.00000000000E+00  0.00000000000E+00  0.40648014237E+03  0.79203740324E+03  0.67977727381E+03 0.  0.
        3    1    3    3  502    0 -0.25469012745E+03  0.18317551492E+03  0.35561979980E+03  0.47422123793E+03  0.10100000352E+00 0. -1.
       -3    1    3    3    0  502  0.25469012745E+03 -0.18317551492E+03  0.50860342569E+02  0.31781616531E+03  0.10100000352E+00 0.  1.
</event>
<event>
 5   0  0.1973067E-02  0.7093220E+03  0.7818609E-02  0.9701422E-01
        2   -1    0    0  501    0  0.00000000000E+00  0.00000000000E+00  0.25329416123E+03  0.25329416124E+03  0.25500000920E-02 0. -1.
       -2   -1    0    0    0  501  0.00000000000E+00  0.00000000000E+00 -0.49659419799E+03  0.49659419799E+03  0.25500000920E-02 0.  1.
    10030    2    1    2    0    0  0.00000000000E+00  0.00000000000E+00 -0.24330003676E+03  0.74988835923E+03  0.70932196034E+03 0.  0.
        5    1    3    3  502    0  0.15292108861E+03  0.59199282379E+02  0.21077358802E+03  0.26708989083E+03  0.46999998093E+01 0. -1.
       -5    1    3    3    0  502 -0.15292108861E+03 -0.59199282379E+02 -0.45407362478E+03  0.48279846841E+03  0.46999998093E+01 0.  1.
</event>
<event>
 5   0  0.1237686E-02  0.6720294E+03  0.7818609E-02  0.9766299E-01
       -1   -1    0    0    0  501  0.00000000000E+00  0.00000000000E+00  0.78889327379E+03  0.78889327380E+03  0.50400001928E-02 0.  1.
        1   -1    0    0  501    0  0.00000000000E+00  0.00000000000E+00 -0.14311932470E+03  0.14311932479E+03  0.50400001928E-02 0. -1.
    10030    2    1    2    0    0  0.00000000000E+00  0.00000000000E+00  0.64577394908E+03  0.93201259859E+03  0.67202938226E+03 0.  0.
        5    1    3    3  502    0  0.15349601649E+03  0.15493627534E+03  0.67733153758E+03  0.71159425117E+03  0.46999998093E+01 0.  1.
       -5    1    3    3    0  502 -0.15349601649E+03 -0.15493627534E+03 -0.31557588499E+02  0.22041834743E+03  0.46999998093E+01 0. -1.
</event>
<event>
 5   0  0.2026361E-02  0.7005655E+03  0.7818609E-02  0.9716266E-01
        2   -1    0    0  501    0  0.00000000000E+00  0.00000000000E+00  0.69774720749E+03  0.69774720750E+03  0.25500000920E-02 0. -1.
       -2   -1    0    0    0  501  0.00000000000E+00  0.00000000000E+00 -0.17584880815E+03  0.17584880817E+03  0.25500000920E-02 0.  1.
    10030    2    1    2    0    0  0.00000000000E+00  0.00000000000E+00  0.52189839934E+03  0.87359601567E+03  0.70056552824E+03 0.  0.
        2    1    3    3  502    0 -0.10310553169E+03 -0.24393626306E+03 -0.24941037173E+02  0.26600320758E+03  0.25500000920E-02 0.  1.
       -2    1    3    3    0  502  0.10310553169E+03  0.24393626306E+03  0.54683943651E+03  0.60759280808E+03  0.25500000920E-02 0. -1.
</event>
<event>
 5   0  0.2026361E-02  0.6969824E+03  0.7818609E-02  0.9722407E-01
       -2   -1    0    0    0  501  0.00000000000E+00  0.00000000000E+00  0.61999355804E+03  0.61999355804E+03  0.25500000920E-02 0. -1.
        2   -1    0    0  501    0  0.00000000000E+00  0.00000000000E+00 -0.19588286194E+03  0.19588286196E+03  0.25500000920E-02 0.  1.
    10030    2    1    2    0    0  0.00000000000E+00  0.00000000000E+00  0.42411069610E+03  0.81587642000E+03  0.69698238871E+03 0.  0.
        2    1    3    3  502    0 -0.15557081548E+03  0.17830469818E+03  0.51153106347E+03  0.56361234277E+03  0.25500000920E-02 0. -1.
       -2    1    3    3    0  502  0.15557081548E+03 -0.17830469818E+03 -0.87420367376E+02  0.25226407723E+03  0.25500000920E-02 0.  1.
</event>
<event>
 5   0  0.1973067E-02  0.7030885E+03  0.7818609E-02  0.9711965E-01
        2   -1    0    0  501    0  0.00000000000E+00  0.00000000000E+00  0.15374403813E+03  0.15374403815E+03  0.25500000920E-02 0. -1.
       -2   -1    0    0    0  501  0.00000000000E+00  0.00000000000E+00 -0.80382530142E+03  0.80382530142E+03  0.25500000920E-02 0.  1.
    10030    2    1    2    0    0  0.00000000000E+00  0.00000000000E+00 -0.65008126328E+03  0.95756933957E+03  0.70308846614E+03 0.  0.
        5    1    3    3  502    0  0.14423334126E+02 -0.18462979426E+03 -0.73195312063E+03  0.75503222070E+03  0.46999998093E+01 0.  1.
       -5    1    3    3    0  502 -0.14423334126E+02  0.18462979426E+03  0.81871857350E+02  0.20253711887E+03  0.46999998093E+01 0. -1.
</event>
<event>
 5   0  0.1909053E-02  0.6990629E+03  0.7818609E-02  0.9718836E-01
       -2   -1    0    0    0  501  0.00000000000E+00  0.00000000000E+00  0.22056165855E+03  0.22056165857E+03  0.25500000920E-02 0. -1.
        2   -1    0    0  501    0  0.00000000000E+00  0.00000000000E+00 -0.55391426413E+03  0.55391426414E+03  0.25500000920E-02 0.  1.
    10030    2    1    2    0    0  0.00000000000E+00  0.00000000000E+00 -0.33335260558E+03  0.77447592270E+03  0.69906294080E+03 0.  0.
        1    1    3    3  502    0  0.32304611109E+03  0.93062292672E+02 -0.60684994194E+02  0.34161681568E+03  0.50400001928E-02 0. -1.
       -1    1    3    3    0  502 -0.32304611109E+03 -0.93062292672E+02 -0.27266761139E+03  0.43285910702E+03  0.50400001928E-02 0.  1.
</event>
<event>
 5   0  0.2026361E-02  0.7033056E+03  0.7818609E-02  0.9711596E-01
       -2   -1    0    0    0  501  0.00000000000E+00  0.00000000000E+00  0.33582526528E+03  0.33582526529E+03  0.25500000920E-02 0.  1.
        2   -1    0    0  501    0  0.00000000000E+00  0.00000000000E+00 -0.36822632518E+03  0.36822632519E+03  0.25500000920E-02 0. -1.
    10030    2    1    2    0    0  0.00000000000E+00  0.00000000000E+00 -0.32401059907E+02  0.70405159048E+03  0.70330563298E+03 0.  0.
        2    1    3    3  502    0  0.15952155991E+03 -0.46524134591E+02  0.29404442814E+03  0.33774805536E+03  0.25500000920E-02 0.  1.
       -2    1    3    3    0  502 -0.15952155991E+03  0.46524134591E+02 -0.32644548804E+03  0.36630353512E+03  0.25500000920E-02 0. -1.
</event>
<event>
 5   0  0.1909053E-02  0.6973508E+03  0.7818609E-02  0.9721773E-01
        2   -1    0    0  501    0  0.00000000000E+00  0.00000000000E+00  0.83895433768E+03  0.83895433769E+03  0.25500000920E-02 0.  1.
       -2   -1    0    0    0  501  0.00000000000E+00  0.00000000000E+00 -0.14491197488E+03  0.14491197491E+03  0.25500000920E-02 0. -1.
    10030    2    1    2    0    0  0.00000000000E+00  0.00000000000E+00  0.69404236280E+03  0.98386631259E+03  0.69735078669E+03 0.  0.
        1    1    3    3  502    0  0.14493359910E+03  0.24789047706E+03  0.67973007604E+02  0.29508603246E+03  0.50400001928E-02 0. -1.
       -1    1    3    3    0  502 -0.14493359910E+03 -0.24789047706E+03  0.62606935519E+03  0.68878028013E+03  0.50400001928E-02 0.  1.
</event>
<event>
 5   0  0.1223742E-02  0.6995764E+03  0.7818609E-02  0.9717957E-01
       -1   -1    0    0    0  501  0.00000000000E+00  0.00000000000E+00  0.22216407251E+03  0.22216407256E+03  0.50400001928E-02 0.  1.
        1   -1    0    0  501    0  0.00000000000E+00  0.00000000000E+00 -0.55072708113E+03  0.55072708115E+03  0.50400001928E-02 0. -1.
    10030    2    1    2    0    0  0.00000000000E+00  0.00000000000E+00 -0.32856300862E+03  0.77289115372E+03  0.69957636099E+03 0.  0.
        2    1    3    3  502    0  0.20123198595E+03 -0.59561114544E+02 -0.47344743931E+03  0.51787480758E+03  0.25500000920E-02 0. -1.
       -2    1    3    3    0  502 -0.20123198595E+03  0.59561114544E+02  0.14488443068E+03  0.25501634614E+03  0.25500000920E-02 0.  1.
</event>
<event>
 5   0  0.1226303E-02  0.7019774E+03  0.7818609E-02  0.9713856E-01
       -1   -1    0    0    0  501  0.00000000000E+00  0.00000000000E+00  0.19932313568E+03  0.19932313574E+03  0.50400001928E-02 0.  1.
        1   -1    0    0  501    0  0.00000000000E+00  0.00000000000E+00 -0.61805710994E+03  0.61805710996E+03  0.50400001928E-02 0. -1.
    10030    2    1    2    0    0  0.00000000000E+00  0.00000000000E+00 -0.41873397426E+03  0.81738024570E+03  0.70197743900E+03 0.  0.
        4    1    3    3  502    0 -0.28192432975E+03 -0.10186585741E+02  0.33783963103E+02  0.28412684368E+03  0.12699999809E+01 0.  1.
       -4    1    3    3    0  502  0.28192432975E+03  0.10186585741E+02 -0.45251793737E+03  0.53325340203E+03  0.12699999809E+01 0. -1.
</event>
<event>
 5   0  0.1226303E-02  0.7012472E+03  0.7818609E-02  0.9715102E-01
       -1   -1    0    0    0  501  0.00000000000E+00  0.00000000000E+00  0.19503713655E+03  0.19503713661E+03  0.50400001928E-02 0.  1.
        1   -1    0    0  501    0  0.00000000000E+00  0.00000000000E+00 -0.63032555718E+03  0.63032555720E+03  0.50400001928E-02 0. -1.
    10030    2    1    2    0    0  0.00000000000E+00  0.00000000000E+00 -0.43528842063E+03  0.82536269381E+03  0.70124715129E+03 0.  0.
        4    1    3    3  502    0 -0.20607129498E+03 -0.23938513002E+03 -0.38506636355E+02  0.31820589723E+03  0.12699999809E+01 0.  1.
       -4    1    3    3    0  502  0.20607129498E+03  0.23938513002E+03 -0.39678178428E+03  0.50715679658E+03  0.12699999809E+01 0. -1.
</event>
<event>
 5   0  0.2006362E-02  0.7139234E+03  0.7818609E-02  0.9693713E-01
       -2   -1    0    0    0  501  0.00000000000E+00  0.00000000000E+00  0.12879066995E+03  0.12879066998E+03  0.25500000920E-02 0.  1.
        2   -1    0    0  501    0  0.00000000000E+00  0.00000000000E+00 -0.98937024711E+03  0.98937024711E+03  0.25500000920E-02 0. -1.
    10030    2    1    2    0    0  0.00000000000E+00  0.00000000000E+00 -0.86057957716E+03  0.11181609171E+04  0.71392340478E+03 0.  0.
        4    1    3    3  502    0 -0.24790981593E+03  0.24860495887E+03 -0.32931607962E+03  0.48136721492E+03  0.12699999809E+01 0.  1.
       -4    1    3    3    0  502  0.24790981593E+03 -0.24860495887E+03 -0.53126349754E+03  0.63679370217E+03  0.12699999809E+01 0. -1.
</event>
<event>
 5   0  0.1237686E-02  0.7056417E+03  0.7818609E-02  0.9707633E-01
       -1   -1    0    0    0  501  0.00000000000E+00  0.00000000000E+00  0.28049097423E+03  0.28049097428E+03  0.50400001928E-02 0. -1.
        1   -1    0    0  501    0  0.00000000000E+00  0.00000000000E+00 -0.44380231703E+03  0.44380231705E+03  0.50400001928E-02 0.  1.
    10030    2    1    2    0    0  0.00000000000E+00  0.00000000000E+00 -0.16331134280E+03  0.72429329133E+03  0.70564167761E+03 0.  0.
        5    1    3    3  502    0 -0.14439541866E+03  0.17640679569E+03 -0.35801394014E+03  0.42445902727E+03  0.46999998093E+01 0.  1.
       -5    1    3    3    0  502  0.14439541866E+03 -0.17640679569E+03  0.19470259734E+03  0.29983426406E+03  0.46999998093E+01 0. -1.
</event>
<event>
 5   0  0.1223742E-02  0.7203689E+03  0.7818609E-02  0.9683019E-01
        1   -1    0    0  501    0  0.00000000000E+00  0.00000000000E+00  0.10769103086E+03  0.10769103097E+03  0.50400001928E-02 0.  1.
       -1   -1    0    0    0  501  0.00000000000E+00  0.00000000000E+00 -0.12046765021E+04  0.12046765021E+04  0.50400001928E-02 0. -1.
    10030    2    1    2    0    0  0.00000000000E+00  0.00000000000E+00 -0.10969854712E+04  0.13123675330E+04  0.72036894558E+03 0.  0.
        2    1    3    3  502    0  0.18300621155E+03  0.27241022589E+03 -0.81891947360E+03  0.88222883022E+03  0.25500000920E-02 0.  1.
       -2    1    3    3    0  502 -0.18300621155E+03 -0.27241022589E+03 -0.27806599761E+03  0.43013870283E+03  0.25500000920E-02 0. -1.
</event>
<event>
 5   0  0.1226303E-02  0.6973858E+03  0.7818609E-02  0.9721713E-01
        1   -1    0    0  501    0  0.00000000000E+00  0.00000000000E+00  0.39397257678E+03  0.39397257681E+03  0.50400001928E-02 0. -1.
       -1   -1    0    0    0  501  0.00000000000E+00  0.00000000000E+00 -0.30861726538E+03  0.30861726542E+03  0.50400001928E-02 0.  1.
    10030    2    1    2    0    0  0.00000000000E+00  0.00000000000E+00  0.85355311401E+02  0.70258984223E+03  0.69738580228E+03 0.  0.
        4    1    3    3  502    0  0.15546084940E+02  0.14236669461E+03 -0.27761796824E+03  0.31238326729E+03  0.12699999809E+01 0.  1.
       -4    1    3    3    0  502 -0.15546084940E+02 -0.14236669461E+03  0.36297327964E+03  0.39020657494E+03  0.12699999809E+01 0. -1.
</event>
<event>
 5   0  0.1226303E-02  0.7095787E+03  0.7818609E-02  0.9700990E-01
        1   -1    0    0  501    0  0.00000000000E+00  0.00000000000E+00  0.99147093927E+03  0.99147093928E+03  0.50400001928E-02 0. -1.
       -1   -1    0    0    0  501  0.00000000000E+00  0.00000000000E+00 -0.12695832487E+03  0.12695832497E+03  0.50400001928E-02 0.  1.
    10030    2    1    2    0    0  0.00000000000E+00  0.00000000000E+00  0.86451261441E+03  0.11184292643E+04  0.70957871915E+03 0.  0.
        4    1    3    3  502    0 -0.16797175030E+03 -0.15267381608E+03  0.86203872204E+03  0.89142367829E+03  0.12699999809E+01 0. -1.
       -4    1    3    3    0  502  0.16797175030E+03  0.15267381608E+03  0.24738923649E+01  0.22700558596E+03  0.12699999809E+01 0.  1.
</event>
<event>
 5   0  0.1948138E-02  0.6958166E+03  0.7818609E-02  0.9724413E-01
        2   -1    0    0  501    0  0.00000000000E+00  0.00000000000E+00  0.13273125207E+04  0.13273125207E+04  0.25500000920E-02 0. -1.
       -2   -1    0    0    0  501  0.00000000000E+00  0.00000000000E+00 -0.91191922132E+02  0.91191922168E+02  0.25500000920E-02 0.  1.
    10030    2    1    2    0    0  0.00000000000E+00  0.00000000000E+00  0.12361205985E+04  0.14185044428E+04  0.69581658519E+03 0.  0.
        3    1    3    3  502    0 -0.69993605195E+02  0.15606490108E+03  0.44032221056E+00  0.17104257424E+03  0.10100000352E+00 0.  1.
       -3    1    3    3    0  502  0.69993605195E+02 -0.15606490108E+03  0.12356802763E+04  0.12474618686E+04  0.10100000352E+00 0. -1.
</event>
<event>
 5   0  0.1223742E-02  0.7061867E+03  0.7818609E-02  0.9706710E-01
        1   -1    0    0  501    0  0.00000000000E+00  0.00000000000E+00  0.27415697359E+04  0.27415697359E+04  0.50400001928E-02 0.  1.
       -1   -1    0    0    0  501  0.00000000000E+00  0.00000000000E+00 -0.45475739872E+02  0.45475740151E+02  0.50400001928E-02 0. -1.
    10030    2    1    2    0    0  0.00000000000E+00  0.00000000000E+00  0.26960939960E+04  0.27870454760E+04  0.70618669640E+03 0.  0.
        2    1    3    3  502    0 -0.30419701361E+02 -0.31820948322E+03  0.19399373423E+04  0.19660975372E+04  0.25500000920E-02 0.  1.
       -2    1    3    3    0  502  0.30419701361E+02  0.31820948322E+03  0.75615665368E+03  0.82094793888E+03  0.25500000920E-02 0. -1.
</event>
<event>
 5   0  0.1948138E-02  0.6931495E+03  0.7818609E-02  0.9729020E-01
       -2   -1    0    0    0  501  0.00000000000E+00  0.00000000000E+00  0.10210450940E+03  0.10210450944E+03  0.25500000920E-02 0.  1.
        2   -1    0    0  501    0  0.00000000000E+00  0.00000000000E+00 -0.11763834542E+04  0.11763834542E+04  0.25500000920E-02 0. -1.
    10030    2    1    2    0    0  0.00000000000E+00  0.00000000000E+00 -0.10742789448E+04  0.12784879637E+04  0.69314949466E+03 0.  0.
        3    1    3    3  502    0  0.11402085063E+03 -0.11421687426E+03  0.28565789488E+02  0.16389711185E+03  0.10100000352E+00 0.  1.
       -3    1    3    3    0  502 -0.11402085063E+03  0.11421687426E+03 -0.11028447343E+04  0.11145908518E+04  0.10100000352E+00 0. -1.
</event>
<event>
 5   0  0.1237686E-02  0.7028629E+03  0.7818609E-02  0.9712349E-01
        1   -1    0    0  501    0  0.00000000000E+00  0.00000000000E+00  0.68649543590E+03  0.68649543592E+03  0.50400001928E-02 0. -1.
       -1   -1    0    0    0  501  0.00000000000E+00  0.00000000000E+00 -0.17990517170E+03  0.17990517177E+03  0.50400001928E-02 0.  1.
    10030    2    1    2    0    0  0.00000000000E+00  0.00000000000E+00  0.50659026421E+03  0.86640060769E+03  0.70286294341E+03 0.  0.
        5    1    3    3  502    0 -0.31279780269E+03 -0.12076376249E+02  0.56477315491E+02  0.31811960234E+03  0.46999998093E+01 0.  1.
       -5    1    3    3    0  502  0.31279780269E+03  0.12076376249E+02  0.45011294872E+03  0.54828100535E+03  0.46999998093E+01 0. -1.
</event>
<event>
 5   0  0.1948138E-02  0.6996847E+03  0.7818609E-02  0.9717772E-01
       -2   -1    0    0    0  501  0.00000000000E+00  0.00000000000E+00  0.12703967133E+03  0.12703967135E+03  0.25500000920E-02 0. -1.
        2   -1    0    0  501    0  0.00000000000E+00  0.00000000000E+00 -0.96339728316E+03  0.96339728317E+03  0.25500000920E-02 0.  1.
    10030    2    1    2    0    0  0.00000000000E+00  0.00000000000E+00 -0.83635761184E+03  0.10904369545E+04  0.69968471250E+03 0.  0.
        3    1    3    3  502    0 -0.56603753905E+02  0.26268049607E+03 -0.76730590959E+03  0.81299655415E+03  0.10100000352E+00 0.  1.
       -3    1    3    3    0  502  0.56603753905E+02 -0.26268049607E+03 -0.69051702246E+02  0.27744040037E+03  0.10100000352E+00 0. -1.
</event>
<event>
 5   0  0.1257442E-02  0.7135615E+03  0.7818609E-02  0.9694317E-01
       -1   -1    0    0    0  501  0.00000000000E+00  0.00000000000E+00  0.10370260573E+03  0.10370260586E+03  0.50400001928E-02 0.  1.
        1   -1    0    0  501    0  0.00000000000E+00  0.00000000000E+00 -0.12274763042E+04  0.12274763042E+04  0.50400001928E-02 0. -1.
    10030    2    1    2    0    0  0.00000000000E+00  0.00000000000E+00 -0.11237736984E+04  0.13311789100E+04  0.71356146563E+03 0.  0.
        1    1    3    3  502    0  0.22838531843E+03  0.25859999922E+03 -0.39235148377E+03  0.52246865945E+03  0.50400001928E-02 0.  1.
       -1    1    3    3    0  502 -0.22838531843E+03 -0.25859999922E+03 -0.73142221467E+03  0.80871025059E+03  0.50400001928E-02 0. -1.
</event>
<event>
 5   0  0.1237686E-02  0.7019325E+03  0.7818609E-02  0.9713933E-01
       -1   -1    0    0    0  501  0.00000000000E+00  0.00000000000E+00  0.30897660978E+03  0.30897660982E+03  0.50400001928E-02 0. -1.
        1   -1    0    0  501    0  0.00000000000E+00  0.00000000000E+00 -0.39866220442E+03  0.39866220445E+03  0.50400001928E-02 0.  1.
    10030    2    1    2    0    0  0.00000000000E+00  0.00000000000E+00 -0.89685594640E+02  0.70763881427E+03  0.70193246511E+03 0.  0.
        5    1    3    3  502    0 -0.19798260174E+03 -0.17947209188E+03  0.18448807915E+03  0.32475418967E+03  0.46999998093E+01 0. -1.
       -5    1    3    3    0  502  0.19798260174E+03  0.17947209188E+03 -0.27417367379E+03  0.38288462460E+03  0.46999998093E+01 0.  1.
</event>
<event>
 5   0  0.1948138E-02  0.6990807E+03  0.7818609E-02  0.9718806E-01
        2   -1    0    0  501    0  0.00000000000E+00  0.00000000000E+00  0.54760784469E+03  0.54760784469E+03  0.25500000920E-02 0. -1.
       -2   -1    0    0    0  501  0.00000000000E+00  0.00000000000E+00 -0.22311306688E+03  0.22311306690E+03  0.25500000920E-02 0.  1.
    10030    2    1    2    0    0  0.00000000000E+00  0.00000000000E+00  0.32449477781E+03  0.77072091159E+03  0.69908072691E+03 0.  0.
        3    1    3    3  502    0 -0.94746730427E+01  0.19365544396E+03 -0.15839409693E+03  0.25036153967E+03  0.10100000352E+00 0.  1.
       -3    1    3    3    0  502  0.94746730427E+01 -0.19365544396E+03  0.48288887473E+03  0.52035937192E+03  0.10100000352E+00 0. -1.
</event>
<event>
 5   0  0.1257442E-02  0.6975014E+03  0.7818609E-02  0.9721515E-01
        1   -1    0    0  501    0  0.00000000000E+00  0.00000000000E+00  0.12533533314E+04  0.12533533314E+04  0.50400001928E-02 0.  1.
       -1   -1    0    0    0  501  0.00000000000E+00  0.00000000000E+00 -0.97041311377E+02  0.97041311508E+02  0.50400001928E-02 0. -1.
    10030    2    1    2    0    0  0.00000000000E+00  0.00000000000E+00  0.11563120200E+04  0.13503946429E+04  0.69750140070E+03 0.  0.
        1    1    3    3  502    0  0.94836363660E+02  0.16433839618E+03  0.11446802117E+04  0.11602990267E+04  0.50400001928E-02 0.  1.
       -1    1    3    3    0  502 -0.94836363660E+02 -0.16433839618E+03  0.11631808393E+02  0.19009561627E+03  0.50400001928E-02 0. -1.
</event>
<event>
 5   0  0.1223742E-02  0.7038152E+03  0.7818609E-02  0.9710730E-01
        1   -1    0    0  501    0  0.00000000000E+00  0.00000000000E+00  0.21573190063E+03  0.21573190069E+03  0.50400001928E-02 0.  1.
       -1   -1    0    0    0  501  0.00000000000E+00  0.00000000000E+00 -0.57404094695E+03  0.57404094697E+03  0.50400001928E-02 0. -1.
    10030    2    1    2    0    0  0.00000000000E+00  0.00000000000E+00 -0.35830904632E+03  0.78977284766E+03  0.70381515914E+03 0.  0.
        2    1    3    3  502    0 -0.19784344312E+03  0.20820757428E+03  0.49017859069E+02  0.29136776158E+03  0.25500000920E-02 0.  1.
       -2    1    3    3    0  502  0.19784344312E+03 -0.20820757428E+03 -0.40732690539E+03  0.49840508608E+03  0.25500000920E-02 0. -1.
</event>
<event>
 5   0  0.2026361E-02  0.6999566E+03  0.7818609E-02  0.9717306E-01
       -2   -1    0    0    0  501  0.00000000000E+00  0.00000000000E+00  0.13423687135E+03  0.13423687138E+03  0.25500000920E-02 0.  1.
        2   -1    0    0  501    0  0.00000000000E+00  0.00000000000E+00 -0.91245291448E+03  0.91245291449E+03  0.25500000920E-02 0. -1.
    10030    2    1    2    0    0  0.00000000000E+00  0.00000000000E+00 -0.77821604313E+03  0.10466897859E+04  0.69995664012E+03 0.  0.
        2    1    3    3  502    0  0.25896277423E+03 -0.88342935588E+01 -0.74090028542E+03  0.78490317627E+03  0.25500000920E-02 0. -1.
       -2    1    3    3    0  502 -0.25896277423E+03  0.88342935588E+01 -0.37315757712E+02  0.26178660959E+03  0.25500000920E-02 0.  1.
</event>
<event>
 5   0  0.2026361E-02  0.7040257E+03  0.7818609E-02  0.9710372E-01
       -2   -1    0    0    0  501  0.00000000000E+00  0.00000000000E+00  0.30665266823E+03  0.30665266824E+03  0.25500000920E-02 0. -1.
        2   -1    0    0  501    0  0.00000000000E+00  0.00000000000E+00 -0.40408272243E+03  0.40408272244E+03  0.25500000920E-02 0.  1.
    10030    2    1    2    0    0  0.00000000000E+00  0.00000000000E+00 -0.97430054198E+02  0.71073539068E+03  0.70402569562E+03 0.  0.
        2    1    3    3  502    0 -0.13133452352E+03 -0.32659424714E+03 -0.49418582470E+02  0.35546414113E+03  0.25500000920E-02 0. -1.
       -2    1    3    3    0  502  0.13133452352E+03  0.32659424714E+03 -0.48011471729E+02  0.35527124955E+03  0.25500000920E-02 0.  1.
</event>
<event>
 5   0  0.2006362E-02  0.7001827E+03  0.7818609E-02  0.9716920E-01
       -2   -1    0    0    0  501  0.00000000000E+00  0.00000000000E+00  0.11149010694E+03  0.11149010697E+03  0.25500000920E-02 0.  1.
        2   -1    0    0  501    0  0.00000000000E+00  0.00000000000E+00 -0.10993257767E+04  0.10993257767E+04  0.25500000920E-02 0. -1.
    10030    2    1    2    0    0  0.00000000000E+00  0.00000000000E+00 -0.98783566977E+03  0.12108158837E+04  0.70018268594E+03 0.  0.
        4    1    3    3  502    0 -0.14685008526E+02  0.22962832985E+03 -0.37643538227E+02  0.23315974827E+03  0.12699999809E+01 0.  1.
       -4    1    3    3    0  502  0.14685008526E+02 -0.22962832985E+03 -0.95019213155E+03  0.97765613541E+03  0.12699999809E+01 0. -1.
</event>
<event>
 5   0  0.1909053E-02  0.6952702E+03  0.7818609E-02  0.9725355E-01
       -2   -1    0    0    0  501  0.00000000000E+00  0.00000000000E+00  0.10742571485E+03  0.10742571488E+03  0.25500000920E-02 0. -1.
        2   -1    0    0  501    0  0.00000000000E+00  0.00000000000E+00 -0.11249648019E+04  0.11249648019E+04  0.25500000920E-02 0.  1.
    10030    2    1    2    0    0  0.00000000000E+00  0.00000000000E+00 -0.10175390871E+04  0.12323905168E+04  0.69527015770E+03 0.  0.
        1    1    3    3  502    0  0.15550002654E+03 -0.48280412731E+02  0.35658068200E+02  0.16668159575E+03  0.50400001928E-02 0. -1.
       -1    1    3    3    0  502 -0.15550002654E+03  0.48280412731E+02 -0.10531971553E+04  0.10657089211E+04  0.50400001928E-02 0.  1.
</event>
<event>
 5   0  0.1973067E-02  0.7007017E+03  0.7818609E-02  0.9716033E-01
        2   -1    0    0  501    0  0.00000000000E+00  0.00000000000E+00  0.64132684316E+03  0.64132684317E+03  0.25500000920E-02 0. -1.
       -2   -1    0    0    0  501  0.00000000000E+00  0.00000000000E+00 -0.19139337825E+03  0.19139337827E+03  0.25500000920E-02 0.  1.
    10030    2    1    2    0    0  0.00000000000E+00  0.00000000000E+00  0.44993346491E+03  0.83272022144E+03  0.70070168000E+03 0.  0.
        5    1    3    3  502    0 -0.13137888831E+03 -0.33193699841E+02 -0.15894896838E+03  0.20892366680E+03  0.46999998093E+01 0.  1.
       -5    1    3    3    0  502  0.13137888831E+03  0.33193699841E+02  0.60888243329E+03  0.62379655464E+03  0.46999998093E+01 0. -1.
</event>
<event>
 5   0  0.2006362E-02  0.7206233E+03  0.7818609E-02  0.9682599E-01
        2   -1    0    0  501    0  0.00000000000E+00  0.00000000000E+00  0.12083815439E+04  0.12083815439E+04  0.25500000920E-02 0.  1.
       -2   -1    0    0    0  501  0.00000000000E+00  0.00000000000E+00 -0.10743667050E+03  0.10743667053E+03  0.25500000920E-02 0. -1.
    10030    2    1    2    0    0  0.00000000000E+00  0.00000000000E+00  0.11009448734E+04  0.13158182144E+04  0.72062331295E+03 0.  0.
        4    1    3    3  502    0 -0.41223298195E+02 -0.15686973019E+03 -0.37003493219E+02  0.16636809783E+03  0.12699999809E+01 0. -1.
       -4    1    3    3    0  502  0.41223298195E+02  0.15686973019E+03  0.11379483666E+04  0.11494501166E+04  0.12699999809E+01 0.  1.
</event>
<event>
 5   0  0.1909053E-02  0.6932135E+03  0.7818609E-02  0.9728909E-01
       -2   -1    0    0    0  501  0.00000000000E+00  0.00000000000E+00  0.29977359613E+03  0.29977359614E+03  0.25500000920E-02 0.  1.
        2   -1    0    0  501    0  0.00000000000E+00  0.00000000000E+00 -0.40075658386E+03  0.40075658387E+03  0.25500000920E-02 0. -1.
    10030    2    1    2    0    0  0.00000000000E+00  0.00000000000E+00 -0.10098298773E+03  0.70053018001E+03  0.69321350917E+03 0.  0.
        1    1    3    3  502    0  0.26085599020E+03  0.15800036448E+01  0.18014511809E+03  0.31701830804E+03  0.50400001928E-02 0.  1.
       -1    1    3    3    0  502 -0.26085599020E+03 -0.15800036448E+01 -0.28112810582E+03  0.38351187197E+03  0.50400001928E-02 0. -1.
</event>
<event>
 5   0  0.7947250E-03  0.6976580E+03  0.7818609E-02  0.9721246E-01
        3   -1    0    0  501    0  0.00000000000E+00  0.00000000000E+00  0.89018118933E+03  0.89018119506E+03  0.10100000352E+00 0.  1.
       -3   -1    0    0    0  501  0.00000000000E+00  0.00000000000E+00 -0.13669313441E+03  0.13669317173E+03  0.10100000352E+00 0. -1.
    10030    2    1    2    0    0  0.00000000000E+00  0.00000000000E+00  0.75348805492E+03  0.10268743668E+04  0.69765802243E+03 0.  0.
        2    1    3    3  502    0 -0.27629717232E+02 -0.13705287779E+03 -0.93649744511E+02  0.16827705500E+03  0.25500000920E-02 0. -1.
       -2    1    3    3    0  502  0.27629717232E+02  0.13705287779E+03  0.84713779943E+03  0.85859731179E+03  0.25500000920E-02 0.  1.
</event>
<event>
 5   0  0.7947250E-03  0.7013528E+03  0.7818609E-02  0.9714922E-01
       -3   -1    0    0    0  501  0.00000000000E+00  0.00000000000E+00  0.50532796805E+03  0.50532797814E+03  0.10100000352E+00 0. -1.
        3   -1    0    0  501    0  0.00000000000E+00  0.00000000000E+00 -0.24335466867E+03  0.24335468963E+03  0.10100000352E+00 0.  1.
    10030    2    1    2    0    0  0.00000000000E+00  0.00000000000E+00  0.26197329938E+03  0.74868266777E+03  0.70135278386E+03 0.  0.
        2    1    3    3  502    0  0.98265724501E+02  0.14576378681E+03  0.45489487091E+03  0.48768081543E+03  0.25500000920E-02 0. -1.
       -2    1    3    3    0  502 -0.98265724501E+02 -0.14576378681E+03 -0.19292157152E+03  0.26100185234E+03  0.25500000920E-02 0.  1.
</event>
<event>
 5   0  0.1197259E-02  0.6923540E+03  0.7818609E-02  0.9730398E-01
       -1   -1    0    0    0  501  0.00000000000E+00  0.00000000000E+00  0.86831969049E+02  0.86831969195E+02  0.50400001928E-02 0.  1.
        1   -1    0    0  501    0  0.00000000000E+00  0.00000000000E+00 -0.13801196167E+04  0.13801196167E+04  0.50400001928E-02 0. -1.
    10030    2    1    2    0    0  0.00000000000E+00  0.00000000000E+00 -0.12932876477E+04  0.14669515859E+04  0.69235396715E+03 0.  0.
        3    1    3    3  502    0 -0.22158475159E+03 -0.21936885163E+03 -0.96528029214E+03  0.10143907274E+04  0.10100000352E+00 0. -1.
       -3    1    3    3    0  502  0.22158475159E+03  0.21936885163E+03 -0.32800735554E+03  0.45256085855E+03  0.10100000352E+00 0.  1.
</event>
<event>
 5   0  0.1973067E-02  0.6954560E+03  0.7818609E-02  0.9725035E-01
       -2   -1    0    0    0  501  0.00000000000E+00  0.00000000000E+00  0.22433181832E+03  0.22433181833E+03  0.25500000920E-02 0.  1.
        2   -1    0    0  501    0  0.00000000000E+00  0.00000000000E+00 -0.53899955544E+03  0.53899955545E+03  0.25500000920E-02 0. -1.
    10030    2    1    2    0    0  0.00000000000E+00  0.00000000000E+00 -0.31466773712E+03  0.76333137378E+03  0.69545596655E+03 0.  0.
        5    1    3    3  502    0 -0.16839808922E+03 -0.16088862772E+03 -0.44069627193E+03  0.49847603861E+03  0.46999998093E+01 0. -1.
       -5    1    3    3    0  502  0.16839808922E+03  0.16088862772E+03  0.12602853481E+03  0.26485533516E+03  0.46999998093E+01 0.  1.
</event>
<event>
 5   0  0.1226303E-02  0.7035710E+03  0.7818609E-02  0.9711145E-01
        1   -1    0    0  501    0  0.00000000000E+00  0.00000000000E+00  0.86335914873E+03  0.86335914874E+03  0.50400001928E-02 0.  1.
       -1   -1    0    0    0  501  0.00000000000E+00  0.00000000000E+00 -0.14333901604E+03  0.14333901612E+03  0.50400001928E-02 0. -1.
    10030    2    1    2    0    0  0.00000000000E+00  0.00000000000E+00  0.72002013269E+03  0.10066981649E+04  0.70357103669E+03 0.  0.
        4    1    3    3  502    0 -0.15254298835E+03 -0.11045795351E+03 -0.65123336972E+02  0.19928116997E+03  0.12699999809E+01 0. -1.
       -4    1    3    3    0  502  0.15254298835E+03  0.11045795351E+03  0.78514346967E+03  0.80741699490E+03  0.12699999809E+01 0.  1.
</event>
<event>
 5   0  0.1909053E-02  0.7007145E+03  0.7818609E-02  0.9716011E-01
       -2   -1    0    0    0  501  0.00000000000E+00  0.00000000000E+00  0.62894722099E+03  0.62894722100E+03  0.25500000920E-02 0. -1.
        2   -1    0    0  501    0  0.00000000000E+00  0.00000000000E+00 -0.19516773769E+03  0.19516773771E+03  0.25500000920E-02 0.  1.
    10030    2    1    2    0    0  0.00000000000E+00  0.00000000000E+00  0.43377948330E+03  0.82411495871E+03  0.70071451036E+03 0.  0.
        1    1    3    3  502    0 -0.16869681468E+03  0.28895534655E+03  0.33909394446E+03  0.47638063645E+03  0.50400001928E-02 0.  1.
       -1    1    3    3    0  502  0.16869681468E+03 -0.28895534655E+03  0.94685538838E+02  0.34773432226E+03  0.50400001928E-02 0. -1.
</event>
<event>
 5   0  0.7947250E-03  0.6991916E+03  0.7818609E-02  0.9718616E-01
        3   -1    0    0  501    0  0.00000000000E+00  0.00000000000E+00  0.16108792700E+03  0.16108795866E+03  0.10100000352E+00 0.  1.
       -3   -1    0    0    0  501  0.00000000000E+00  0.00000000000E+00 -0.75869873892E+03  0.75869874565E+03  0.10100000352E+00 0. -1.
    10030    2    1    2    0    0  0.00000000000E+00  0.00000000000E+00 -0.59761081192E+03  0.91978670431E+03  0.69919160385E+03 0.  0.
        4    1    3    3  502    0  0.16226682511E+03 -0.17330878631E+03  0.38766287535E+02  0.24056370444E+03  0.12699999809E+01 0.  1.
       -4    1    3    3    0  502 -0.16226682511E+03  0.17330878631E+03 -0.63637709946E+03  0.67922299987E+03  0.12699999809E+01 0. -1.
</event>
<event>
 5   0  0.2026361E-02  0.6998649E+03  0.7818609E-02  0.9717463E-01
        2   -1    0    0  501    0  0.00000000000E+00  0.00000000000E+00  0.51447620273E+03  0.51447620273E+03  0.25500000920E-02 0.  1.
       -2   -1    0    0    0  501  0.00000000000E+00  0.00000000000E+00 -0.23801436388E+03  0.23801436390E+03  0.25500000920E-02 0. -1.
    10030    2    1    2    0    0  0.00000000000E+00  0.00000000000E+00  0.27646183884E+03  0.75249056663E+03  0.69986491877E+03 0.  0.
        2    1    3    3  502    0 -0.12637666223E+03 -0.88660631982E+02 -0.19942272608E+03  0.25219276775E+03  0.25500000920E-02 0. -1.
       -2    1    3    3    0  502  0.12637666223E+03  0.88660631982E+02  0.47588456493E+03  0.50029779888E+03  0.25500000920E-02 0.  1.
</event>
<event>
 5   0  0.1237686E-02  0.7020399E+03  0.7818609E-02  0.9713750E-01
       -1   -1    0    0    0  501  0.00000000000E+00  0.00000000000E+00  0.12127060394E+03  0.12127060404E+03  0.50400001928E-02 0. -1.
        1   -1    0    0  501    0  0.00000000000E+00  0.00000000000E+00 -0.10160334781E+04  0.10160334781E+04  0.50400001928E-02 0.  1.
    10030    2    1    2    0    0  0.00000000000E+00  0.00000000000E+00 -0.89476287419E+03  0.11373040822E+04  0.70203986662E+03 0.  0.
        5    1    3    3  502    0  0.30418549638E+03  0.16059111311E+03 -0.33427599467E+03  0.47966743941E+03  0.46999998093E+01 0.  1.
       -5    1    3    3    0  502 -0.30418549638E+03 -0.16059111311E+03 -0.56048687952E+03  0.65763664278E+03  0.46999998093E+01 0. -1.
</event>
<event>
 5   0  0.2006362E-02  0.7056329E+03  0.7818609E-02  0.9707647E-01
        2   -1    0    0  501    0  0.00000000000E+00  0.00000000000E+00  0.64588848866E+03  0.64588848867E+03  0.25500000920E-02 0. -1.
       -2   -1    0    0    0  501  0.00000000000E+00  0.00000000000E+00 -0.19272591122E+03  0.19272591124E+03  0.25500000920E-02 0.  1.
    10030    2    1    2    0    0  0.00000000000E+00  0.00000000000E+00  0.45316257744E+03  0.83861439991E+03  0.70563290041E+03 0.  0.
        4    1    3    3  502    0  0.25989258034E+02 -0.14490909390E+03 -0.15447397667E+03  0.21339613257E+03  0.12699999809E+01 0.  1.
       -4    1    3    3    0  502 -0.25989258034E+02  0.14490909390E+03  0.60763655410E+03  0.62521826734E+03  0.12699999809E+01 0. -1.
</event>
<event>
 5   0  0.1973067E-02  0.6868850E+03  0.7818609E-02  0.9739927E-01
        2   -1    0    0  501    0  0.00000000000E+00  0.00000000000E+00  0.14105739277E+04  0.14105739277E+04  0.25500000920E-02 0. -1.
       -2   -1    0    0    0  501  0.00000000000E+00  0.00000000000E+00 -0.83620397975E+02  0.83620398014E+02  0.25500000920E-02 0.  1.
    10030    2    1    2    0    0  0.00000000000E+00  0.00000000000E+00  0.13269535297E+04  0.14941943257E+04  0.68688500708E+03 0.  0.
        5    1    3    3  502    0 -0.18070195886E+03  0.60553148078E+02  0.12849133456E+04  0.12989781667E+04  0.46999998093E+01 0. -1.
       -5    1    3    3    0  502  0.18070195886E+03 -0.60553148078E+02  0.42040184088E+02  0.19521615905E+03  0.46999998093E+01 0.  1.
</event>
<event>
 5   0  0.1226303E-02  0.6930979E+03  0.7818609E-02  0.9729109E-01
        1   -1    0    0  501    0  0.00000000000E+00  0.00000000000E+00  0.19841066386E+03  0.19841066392E+03  0.50400001928E-02 0. -1.
       -1   -1    0    0    0  501  0.00000000000E+00  0.00000000000E+00 -0.60529092236E+03  0.60529092238E+03  0.50400001928E-02 0.  1.
    10030    2    1    2    0    0  0.00000000000E+00  0.00000000000E+00 -0.40688025850E+03  0.80370158631E+03  0.69309789718E+03 0.  0.
        4    1    3    3  502    0  0.15754022515E+03 -0.73561836771E+02  0.14417112512E+03  0.22586985764E+03  0.12699999809E+01 0. -1.
       -4    1    3    3    0  502 -0.15754022515E+03  0.73561836771E+02 -0.55105138362E+03  0.57783172867E+03  0.12699999809E+01 0.  1.
</event>
<event>
 5   0  0.1909053E-02  0.7063484E+03  0.7818609E-02  0.9706437E-01
       -2   -1    0    0    0  501  0.00000000000E+00  0.00000000000E+00  0.31178282348E+03  0.31178282349E+03  0.25500000920E-02 0. -1.
        2   -1    0    0  501    0  0.00000000000E+00  0.00000000000E+00 -0.40006057686E+03  0.40006057687E+03  0.25500000920E-02 0.  1.
    10030    2    1    2    0    0  0.00000000000E+00  0.00000000000E+00 -0.88277753383E+02  0.71184340036E+03  0.70634840192E+03 0.  0.
        1    1    3    3  502    0 -0.16222806733E+03 -0.27355230544E+03 -0.19890179964E+03  0.37511429667E+03  0.50400001928E-02 0.  1.
       -1    1    3    3    0  502  0.16222806733E+03  0.27355230544E+03  0.11062404626E+03  0.33672910369E+03  0.50400001928E-02 0. -1.
</event>
<event>
 5   0  0.1237686E-02  0.7018294E+03  0.7818609E-02  0.9714109E-01
       -1   -1    0    0    0  501  0.00000000000E+00  0.00000000000E+00  0.28419066321E+03  0.28419066325E+03  0.50400001928E-02 0. -1.
        1   -1    0    0  501    0  0.00000000000E+00  0.00000000000E+00 -0.43330460257E+03  0.43330460260E+03  0.50400001928E-02 0.  1.
    10030    2    1    2    0    0  0.00000000000E+00  0.00000000000E+00 -0.14911393936E+03  0.71749526585E+03  0.70182938782E+03 0.  0.
        5    1    3    3  502    0  0.28441711387E+03  0.16921964938E+02 -0.28391978703E+03  0.40225860218E+03  0.46999998093E+01 0.  1.
       -5    1    3    3    0  502 -0.28441711387E+03 -0.16921964938E+02  0.13480584767E+03  0.31523666367E+03  0.46999998093E+01 0. -1.
</event>
<event>
 5   0  0.1257442E-02  0.6941669E+03  0.7818609E-02  0.9727260E-01
        1   -1    0    0  501    0  0.00000000000E+00  0.00000000000E+00  0.20034026695E+04  0.20034026695E+04  0.50400001928E-02 0.  1.
       -1   -1    0    0    0  501  0.00000000000E+00  0.00000000000E+00 -0.60131161050E+02  0.60131161261E+02  0.50400001928E-02 0. -1.
    10030    2    1    2    0    0  0.00000000000E+00  0.00000000000E+00  0.19432715085E+04  0.20635338308E+04  0.69416692169E+03 0.  0.
        1    1    3    3  502    0  0.10383280240E+03 -0.18624636584E+02 -0.11321951631E+02  0.10609578011E+03  0.50400001928E-02 0. -1.
       -1    1    3    3    0  502 -0.10383280240E+03  0.18624636584E+02  0.19545934601E+04  0.19574380507E+04  0.50400001928E-02 0.  1.
</event>
<event>
 5   0  0.1197259E-02  0.7500026E+03  0.7818609E-02  0.9635346E-01
        1   -1    0    0  501    0  0.00000000000E+00  0.00000000000E+00  0.42347071365E+03  0.42347071368E+03  0.50400001928E-02 0.  1.
       -1   -1    0    0    0  501  0.00000000000E+00  0.00000000000E+00 -0.33207953219E+03  0.33207953223E+03  0.50400001928E-02 0. -1.
    10030    2    1    2    0    0  0.00000000000E+00  0.00000000000E+00  0.91391181460E+02  0.75555024591E+03  0.75000255070E+03 0.  0.
        3    1    3    3  502    0  0.87025217627E+02 -0.83389411301E+02  0.40342613685E+03  0.42104612635E+03  0.10100000352E+00 0.  1.
       -3    1    3    3    0  502 -0.87025217627E+02  0.83389411301E+02 -0.31203495539E+03  0.33450411956E+03  0.10100000352E+00 0. -1.
</event>
<event>
 5   0  0.1226303E-02  0.6987810E+03  0.7818609E-02  0.9719319E-01
       -1   -1    0    0    0  501  0.00000000000E+00  0.00000000000E+00  0.12592071279E+03  0.12592071289E+03  0.50400001928E-02 0.  1.
        1   -1    0    0  501    0  0.00000000000E+00  0.00000000000E+00 -0.96944917505E+03  0.96944917506E+03  0.50400001928E-02 0. -1.
    10030    2    1    2    0    0  0.00000000000E+00  0.00000000000E+00 -0.84352846225E+03  0.10953698880E+04  0.69878102780E+03 0.  0.
        4    1    3    3  502    0 -0.32522484603E+03 -0.12443806652E+03 -0.37698387911E+03  0.51320024444E+03  0.12699999809E+01 0.  1.
       -4    1    3    3    0  502  0.32522484603E+03  0.12443806652E+03 -0.46654458314E+03  0.58216964352E+03  0.12699999809E+01 0. -1.
</event>
<event>
 5   0  0.1948138E-02  0.7070728E+03  0.7818609E-02  0.9705213E-01
        2   -1    0    0  501    0  0.00000000000E+00  0.00000000000E+00  0.66650439933E+03  0.66650439934E+03  0.25500000920E-02 0.  1.
       -2   -1    0    0    0  501  0.00000000000E+00  0.00000000000E+00 -0.18752760762E+03  0.18752760764E+03  0.25500000920E-02 0. -1.
    10030    2    1    2    0    0  0.00000000000E+00  0.00000000000E+00  0.47897679171E+03  0.85403200698E+03  0.70707276991E+03 0.  0.
        3    1    3    3  502    0  0.59930443333E+02  0.27923702064E+03  0.49118068742E+03  0.56817554473E+03  0.10100000352E+00 0.  1.
       -3    1    3    3    0  502 -0.59930443333E+02 -0.27923702064E+03 -0.12203895714E+02  0.28585646224E+03  0.10100000352E+00 0. -1.
</event>
<event>
 5   0  0.1237686E-02  0.7127232E+03  0.7818609E-02  0.9695718E-01
        1   -1    0    0  501    0  0.00000000000E+00  0.00000000000E+00  0.55591933408E+03  0.55591933411E+03  0.50400001928E-02 0.  1.
       -1   -1    0    0    0  501  0.00000000000E+00  0.00000000000E+00 -0.22843886946E+03  0.22843886951E+03  0.50400001928E-02 0. -1.
    10030    2    1    2    0    0  0.00000000000E+00  0.00000000000E+00  0.32748046463E+03  0.78435820362E+03  0.71272318390E+03 0.  0.
        5    1    3    3  502    0 -0.32612230815E+03  0.13193326770E+03  0.10139519196E+03  0.36614917991E+03  0.46999998093E+01 0. -1.
       -5    1    3    3    0  502  0.32612230815E+03 -0.13193326770E+03  0.22608527267E+03  0.41820902371E+03  0.46999998093E+01 0.  1.
</event>
<event>
 5   0  0.1948138E-02  0.7045745E+03  0.7818609E-02  0.9709441E-01
        2   -1    0    0  501    0  0.00000000000E+00  0.00000000000E+00  0.12386959343E+04  0.12386959344E+04  0.25500000920E-02 0.  1.
       -2   -1    0    0    0  501  0.00000000000E+00  0.00000000000E+00 -0.10019109854E+03  0.10019109857E+03  0.25500000920E-02 0. -1.
    10030    2    1    2    0    0  0.00000000000E+00  0.00000000000E+00  0.11385048358E+04  0.13388870329E+04  0.70457449981E+03 0.  0.
        3    1    3    3  502    0 -0.19290922564E+03 -0.14749973359E+03  0.84267676137E+02  0.25704317184E+03  0.10100000352E+00 0. -1.
       -3    1    3    3    0  502  0.19290922564E+03  0.14749973359E+03  0.10542371597E+04  0.10818438611E+04  0.10100000352E+00 0.  1.
</event>
<event>
 5   0  0.1973067E-02  0.7014234E+03  0.7818609E-02  0.9714801E-01
        2   -1    0    0  501    0  0.00000000000E+00  0.00000000000E+00  0.11675113662E+04  0.11675113662E+04  0.25500000920E-02 0. -1.
       -2   -1    0    0    0  501  0.00000000000E+00  0.00000000000E+00 -0.10535117688E+03  0.10535117691E+03  0.25500000920E-02 0.  1.
    10030    2    1    2    0    0  0.00000000000E+00  0.00000000000E+00  0.10621601893E+04  0.12728625431E+04  0.70142339986E+03 0.  0.
        5    1    3    3  502    0 -0.19144016874E+03  0.20541294837E+00 -0.21015003427E+01  0.19150949508E+03  0.46999998093E+01 0.  1.
       -5    1    3    3    0  502  0.19144016874E+03 -0.20541294837E+00  0.10642616897E+04  0.10813530480E+04  0.46999998093E+01 0. -1.
</event>
<event>
 5   0  0.1223742E-02  0.7012154E+03  0.7818609E-02  0.9715156E-01
       -1   -1    0    0    0  501  0.00000000000E+00  0.00000000000E+00  0.19743698081E+03  0.19743698088E+03  0.50400001928E-02 0.  1.
        1   -1    0    0  501    0  0.00000000000E+00  0.00000000000E+00 -0.62260764864E+03  0.62260764866E+03  0.50400001928E-02 0. -1.
    10030    2    1    2    0    0  0.00000000000E+00  0.00000000000E+00 -0.42517066783E+03  0.82004462954E+03  0.70121544311E+03 0.  0.
        2    1    3    3  502    0 -0.25148776864E+02  0.20084469048E+03  0.12220507819E+03  0.23644266073E+03  0.25500000920E-02 0.  1.
       -2    1    3    3    0  502  0.25148776864E+02 -0.20084469048E+03 -0.54737574602E+03  0.58360196881E+03  0.25500000920E-02 0. -1.
</event>
<event>
 5   0  0.1226303E-02  0.6997581E+03  0.7818609E-02  0.9717646E-01
        1   -1    0    0  501    0  0.00000000000E+00  0.00000000000E+00  0.15709715014E+04  0.15709715014E+04  0.50400001928E-02 0. -1.
       -1   -1    0    0    0  501  0.00000000000E+00  0.00000000000E+00 -0.77923337850E+02  0.77923338013E+02  0.50400001928E-02 0.  1.
    10030    2    1    2    0    0  0.00000000000E+00  0.00000000000E+00  0.14930481636E+04  0.16488948394E+04  0.69975808162E+03 0.  0.
        4    1    3    3  502    0 -0.13724320204E+03 -0.13580822714E+03  0.14340624856E+04  0.14470025558E+04  0.12699999809E+01 0. -1.
       -4    1    3    3    0  502  0.13724320204E+03  0.13580822714E+03  0.58985677932E+02  0.20189228358E+03  0.12699999809E+01 0.  1.
</event>
<event>
 5   0  0.2026361E-02  0.7047787E+03  0.7818609E-02  0.9709095E-01
       -2   -1    0    0    0  501  0.00000000000E+00  0.00000000000E+00  0.88417036295E+02  0.88417036331E+02  0.25500000920E-02 0.  1.
        2   -1    0    0  501    0  0.00000000000E+00  0.00000000000E+00 -0.14044609081E+04  0.14044609081E+04  0.25500000920E-02 0. -1.
    10030    2    1    2    0    0  0.00000000000E+00  0.00000000000E+00 -0.13160438718E+04  0.14928779444E+04  0.70477874858E+03 0.  0.
        2    1    3    3  502    0 -0.19480250097E+03  0.21232581974E+03 -0.22834120008E+03  0.36765469094E+03  0.25500000920E-02 0.  1.
       -2    1    3    3    0  502  0.19480250097E+03 -0.21232581974E+03 -0.10877026717E+04  0.11252232535E+04  0.25500000920E-02 0. -1.
</event>
<event>
 5   0  0.1948138E-02  0.6989351E+03  0.7818609E-02  0.9719055E-01
       -2   -1    0    0    0  501  0.00000000000E+00  0.00000000000E+00  0.10149458760E+03  0.10149458763E+03  0.25500000920E-02 0.  1.
        2   -1    0    0  501    0  0.00000000000E+00  0.00000000000E+00 -0.12032916054E+04  0.12032916054E+04  0.25500000920E-02 0. -1.
    10030    2    1    2    0    0  0.00000000000E+00  0.00000000000E+00 -0.11017970178E+04  0.13047861930E+04  0.69893514799E+03 0.  0.
        3    1    3    3  502    0  0.15591550099E+03  0.28032307674E+03 -0.29197584678E+03  0.43375174479E+03  0.10100000352E+00 0.  1.
       -3    1    3    3    0  502 -0.15591550099E+03 -0.28032307674E+03 -0.80982117102E+03  0.87103444825E+03  0.10100000352E+00 0. -1.
</event>
<event>
 5   0  0.1257442E-02  0.6978168E+03  0.7818609E-02  0.9720973E-01
       -1   -1    0    0    0  501  0.00000000000E+00  0.00000000000E+00  0.63683579888E+03  0.63683579890E+03  0.50400001928E-02 0.  1.
        1   -1    0    0  501    0  0.00000000000E+00  0.00000000000E+00 -0.19115926271E+03  0.19115926278E+03  0.50400001928E-02 0. -1.
    10030    2    1    2    0    0  0.00000000000E+00  0.00000000000E+00  0.44567653617E+03  0.82799506168E+03  0.69781677199E+03 0.  0.
        1    1    3    3  502    0  0.77392266946E+02  0.32067751466E+03  0.88001865769E+02  0.34142050289E+03  0.50400001928E-02 0. -1.
       -1    1    3    3    0  502 -0.77392266946E+02 -0.32067751466E+03  0.35767467040E+03  0.48657455879E+03  0.50400001928E-02 0.  1.
</event>
<event>
 5   0  0.1973067E-02  0.6997480E+03  0.7818609E-02  0.9717663E-01
       -2   -1    0    0    0  501  0.00000000000E+00  0.00000000000E+00  0.21193456573E+03  0.21193456574E+03  0.25500000920E-02 0.  1.
        2   -1    0    0  501    0  0.00000000000E+00  0.00000000000E+00 -0.57759249337E+03  0.57759249338E+03  0.25500000920E-02 0. -1.
    10030    2    1    2    0    0  0.00000000000E+00  0.00000000000E+00 -0.36565792765E+03  0.78952705912E+03  0.69974799538E+03 0.  0.
        5    1    3    3  502    0 -0.14644910149E+03 -0.30558747771E+03 -0.28092428418E+03  0.44019494466E+03  0.46999998093E+01 0. -1.
       -5    1    3    3    0  502  0.14644910149E+03  0.30558747771E+03 -0.84733643468E+02  0.34933211446E+03  0.46999998093E+01 0.  1.
</event>
<event>
 5   0  0.1226303E-02  0.7048076E+03  0.7818609E-02  0.9709046E-01
       -1   -1    0    0    0  501  0.00000000000E+00  0.00000000000E+00  0.23990047388E+03  0.23990047393E+03  0.50400001928E-02 0. -1.
        1   -1    0    0  501    0  0.00000000000E+00  0.00000000000E+00 -0.51766647126E+03  0.51766647128E+03  0.50400001928E-02 0.  1.
    10030    2    1    2    0    0  0.00000000000E+00  0.00000000000E+00 -0.27776599738E+03  0.75756694522E+03  0.70480758168E+03 0.  0.
        4    1    3    3  502    0 -0.16259110924E+03 -0.30495391501E+03 -0.64771982094E+02  0.35161026954E+03  0.12699999809E+01 0. -1.
       -4    1    3    3    0  502  0.16259110924E+03  0.30495391501E+03 -0.21299401528E+03  0.40595667568E+03  0.12699999809E+01 0.  1.
</event>
<event>
 5   0  0.1237686E-02  0.6954400E+03  0.7818609E-02  0.9725062E-01
       -1   -1    0    0    0  501  0.00000000000E+00  0.00000000000E+00  0.17203355052E+03  0.17203355060E+03  0.50400001928E-02 0.  1.
        1   -1    0    0  501    0  0.00000000000E+00  0.00000000000E+00 -0.70282338124E+03  0.70282338125E+03  0.50400001928E-02 0. -1.
    10030    2    1    2    0    0  0.00000000000E+00  0.00000000000E+00 -0.53078983071E+03  0.87485693185E+03  0.69544000950E+03 0.  0.
        5    1    3    3  502    0 -0.84565931885E+02 -0.25061812207E+03  0.18493915556E+02  0.26518852701E+03  0.46999998093E+01 0.  1.
       -5    1    3    3    0  502  0.84565931885E+02  0.25061812207E+03 -0.54928374627E+03  0.60966840484E+03  0.46999998093E+01 0. -1.
</event>
<event>
 5   0  0.2026361E-02  0.6969727E+03  0.7818609E-02  0.9722423E-01
        2   -1    0    0  501    0  0.00000000000E+00  0.00000000000E+00  0.42763735011E+03  0.42763735011E+03  0.25500000920E-02 0. -1.
       -2   -1    0    0    0  501  0.00000000000E+00  0.00000000000E+00 -0.28398529600E+03  0.28398529601E+03  0.25500000920E-02 0.  1.
    10030    2    1    2    0    0  0.00000000000E+00  0.00000000000E+00  0.14365205411E+03  0.71162264612E+03  0.69697265214E+03 0.  0.
        2    1    3    3  502    0  0.89941974287E+01  0.10391554191E+03  0.41132595314E+03  0.42434464197E+03  0.25500000920E-02 0. -1.
       -2    1    3    3    0  502 -0.89941974287E+01 -0.10391554191E+03 -0.26767389903E+03  0.28727800415E+03  0.25500000920E-02 0.  1.
</event>
<event>
 5   0  0.1257442E-02  0.6970114E+03  0.7818609E-02  0.9722357E-01
       -1   -1    0    0    0  501  0.00000000000E+00  0.00000000000E+00  0.27513995276E+03  0.27513995281E+03  0.50400001928E-02 0. -1.
        1   -1    0    0  501    0  0.00000000000E+00  0.00000000000E+00 -0.44143432021E+03  0.44143432024E+03  0.50400001928E-02 0.  1.
    10030    2    1    2    0    0  0.00000000000E+00  0.00000000000E+00 -0.16629436745E+03  0.71657427304E+03  0.69701138595E+03 0.  0.
        1    1    3    3  502    0  0.27371139665E+03  0.17702871922E+03  0.43597744181E+02  0.32887362224E+03  0.50400001928E-02 0. -1.
       -1    1    3    3    0  502 -0.27371139665E+03 -0.17702871922E+03 -0.20989211163E+03  0.38770065080E+03  0.50400001928E-02 0.  1.
</event>
<event>
 5   0  0.1223742E-02  0.7017445E+03  0.7818609E-02  0.9714254E-01
        1   -1    0    0  501    0  0.00000000000E+00  0.00000000000E+00  0.27160696600E+03  0.27160696605E+03  0.50400001928E-02 0.  1.
       -1   -1    0    0    0  501  0.00000000000E+00  0.00000000000E+00 -0.45327013027E+03  0.45327013029E+03  0.50400001928E-02 0. -1.
    10030    2    1    2    0    0  0.00000000000E+00  0.00000000000E+00 -0.18166316427E+03  0.72487709634E+03  0.70174446884E+03 0.  0.
        2    1    3    3  502    0 -0.20000013090E+03 -0.25112588207E+03 -0.23708659710E+03  0.39909186353E+03  0.25500000920E-02 0. -1.
       -2    1    3    3    0  502  0.20000013090E+03  0.25112588207E+03  0.55423432834E+02  0.32578523281E+03  0.25500000920E-02 0.  1.
</event>
<event>
 5   0  0.1973067E-02  0.6981711E+03  0.7818609E-02  0.9720365E-01
        2   -1    0    0  501    0  0.00000000000E+00  0.00000000000E+00  0.10142271811E+03  0.10142271815E+03  0.25500000920E-02 0.  1.
       -2   -1    0    0    0  501  0.00000000000E+00  0.00000000000E+00 -0.12015131307E+04  0.12015131307E+04  0.25500000920E-02 0. -1.
    10030    2    1    2    0    0  0.00000000000E+00  0.00000000000E+00 -0.11000904126E+04  0.13029358489E+04  0.69817111825E+03 0.  0.
        5    1    3    3  502    0  0.19941730440E+03 -0.16903299677E+03 -0.98169833067E+03  0.10159198382E+04  0.46999998093E+01 0. -1.
       -5    1    3    3    0  502 -0.19941730440E+03  0.16903299677E+03 -0.11839208192E+03  0.28701601062E+03  0.46999998093E+01 0.  1.
</event>
<event>
 5   0  0.2006362E-02  0.6972960E+03  0.7818609E-02  0.9721868E-01
        2   -1    0    0  501    0  0.00000000000E+00  0.00000000000E+00  0.34775736763E+03  0.34775736763E+03  0.25500000920E-02 0. -1.
       -2   -1    0    0    0  501  0.00000000000E+00  0.00000000000E+00 -0.34954093791E+03  0.34954093792E+03  0.25500000920E-02 0.  1.
    10030    2    1    2    0    0  0.00000000000E+00  0.00000000000E+00 -0.17835702868E+01  0.69729830556E+03  0.69729602452E+03 0.  0.
        4    1    3    3  502    0  0.28363769719E+03  0.13697759241E+03  0.14857649117E+03  0.34826683839E+03  0.12699999809E+01 0.  1.
       -4    1    3    3    0  502 -0.28363769719E+03 -0.13697759241E+03 -0.15036006146E+03  0.34903146717E+03  0.12699999809E+01 0. -1.
</event>
<event>
 5   0  0.1223742E-02  0.6987012E+03  0.7818609E-02  0.9719456E-01
        1   -1    0    0  501    0  0.00000000000E+00  0.00000000000E+00  0.45538081581E+03  0.45538081584E+03  0.50400001928E-02 0.  1.
       -1   -1    0    0    0  501  0.00000000000E+00  0.00000000000E+00 -0.26800828553E+03  0.26800828558E+03  0.50400001928E-02 0. -1.
    10030    2    1    2    0    0  0.00000000000E+00  0.00000000000E+00  0.18737253029E+03  0.72338910142E+03  0.69870117142E+03 0.  0.
        2    1    3    3  502    0  0.27742184036E+03  0.42538913525E+02  0.30905912493E+03  0.41748051377E+03  0.25500000920E-02 0.  1.
       -2    1    3    3    0  502 -0.27742184036E+03 -0.42538913525E+02 -0.12168659464E+03  0.30590858764E+03  0.25500000920E-02 0. -1.
</event>
<event>
 5   0  0.1197259E-02  0.7090584E+03  0.7818609E-02  0.9701865E-01
       -1   -1    0    0    0  501  0.00000000000E+00  0.00000000000E+00  0.21928590072E+03  0.21928590078E+03  0.50400001928E-02 0.  1.
        1   -1    0    0  501    0  0.00000000000E+00  0.00000000000E+00 -0.57318300643E+03  0.57318300646E+03  0.50400001928E-02 0. -1.
    10030    2    1    2    0    0  0.00000000000E+00  0.00000000000E+00 -0.35389710571E+03  0.79246890724E+03  0.70905839499E+03 0.  0.
        3    1    3    3  502    0  0.26953888697E+03  0.12872020877E+03  0.36490113726E+02  0.30091799936E+03  0.10100000352E+00 0.  1.
       -3    1    3    3    0  502 -0.26953888697E+03 -0.12872020877E+03 -0.39038721944E+03  0.49155090788E+03  0.10100000352E+00 0. -1.
</event>
<event>
 5   0  0.1223742E-02  0.7140776E+03  0.7818609E-02  0.9693456E-01
        1   -1    0    0  501    0  0.00000000000E+00  0.00000000000E+00  0.25990439341E+04  0.25990439341E+04  0.50400001928E-02 0. -1.
       -1   -1    0    0    0  501  0.00000000000E+00  0.00000000000E+00 -0.49047540785E+02  0.49047541044E+02  0.50400001928E-02 0.  1.
    10030    2    1    2    0    0  0.00000000000E+00  0.00000000000E+00  0.25499963933E+04  0.26480914751E+04  0.71407762522E+03 0.  0.
        2    1    3    3  502    0  0.21313237725E+03 -0.21525969101E+03  0.19758242914E+04  0.19989106472E+04  0.25500000920E-02 0. -1.
       -2    1    3    3    0  502 -0.21313237725E+03  0.21525969101E+03  0.57417210186E+03  0.64918082795E+03  0.25500000920E-02 0.  1.
</event>
<event>
 5   0  0.1948138E-02  0.7001347E+03  0.7818609E-02  0.9717002E-01
       -2   -1    0    0    0  501  0.00000000000E+00  0.00000000000E+00  0.11874961729E+03  0.11874961732E+03  0.25500000920E-02 0.  1.
        2   -1    0    0  501    0  0.00000000000E+00  0.00000000000E+00 -0.10319794051E+04  0.10319794051E+04  0.25500000920E-02 0. -1.
    10030    2    1    2    0    0  0.00000000000E+00  0.00000000000E+00 -0.91322978781E+03  0.11507290224E+04  0.70013472824E+03 0.  0.
        3    1    3    3  502    0 -0.27381901155E+03  0.17933393730E+03 -0.66064189752E+03  0.73728233338E+03  0.10100000352E+00 0. -1.
       -3    1    3    3    0  502  0.27381901155E+03 -0.17933393730E+03 -0.25258789029E+03  0.41344668903E+03  0.10100000352E+00 0.  1.
</event>
<event>
 5   0  0.1237686E-02  0.7059138E+03  0.7818609E-02  0.9707172E-01
       -1   -1    0    0    0  501  0.00000000000E+00  0.00000000000E+00  0.10164347274E+03  0.10164347286E+03  0.50400001928E-02 0.  1.
        1   -1    0    0  501    0  0.00000000000E+00  0.00000000000E+00 -0.12256424842E+04  0.12256424842E+04  0.50400001928E-02 0. -1.
    10030    2    1    2    0    0  0.00000000000E+00  0.00000000000E+00 -0.11239990114E+04  0.13272859571E+04  0.70591375824E+03 0.  0.
        5    1    3    3  502    0  0.32631751417E+03 -0.10912745079E+03 -0.41437329558E+03  0.53862717965E+03  0.46999998093E+01 0.  1.
       -5    1    3    3    0  502 -0.32631751417E+03  0.10912745079E+03 -0.70962571586E+03  0.78865877740E+03  0.46999998093E+01 0. -1.
</event>
<event>
 5   0  0.1226303E-02  0.6987855E+03  0.7818609E-02  0.9719311E-01
        1   -1    0    0  501    0  0.00000000000E+00  0.00000000000E+00  0.17926629118E+04  0.17926629118E+04  0.50400001928E-02 0.  1.
       -1   -1    0    0    0  501  0.00000000000E+00  0.00000000000E+00 -0.68097179502E+02  0.68097179689E+02  0.50400001928E-02 0. -1.
    10030    2    1    2    0    0  0.00000000000E+00  0.00000000000E+00  0.17245657323E+04  0.18607600915E+04  0.69878548431E+03 0.  0.
        4    1    3    3  502    0 -0.49110347184E+02  0.14077871373E+03  0.17036891678E+04  0.17102014109E+04  0.12699999809E+01 0.  1.
       -4    1    3    3    0  502  0.49110347184E+02 -0.14077871373E+03  0.20876564426E+02  0.15055868053E+03  0.12699999809E+01 0. -1.
</event>
<event>
 5   0  0.1257442E-02  0.7056018E+03  0.7818609E-02  0.9707700E-01
        1   -1    0    0  501    0  0.00000000000E+00  0.00000000000E+00  0.10095807542E+04  0.10095807542E+04  0.50400001928E-02 0.  1.
       -1   -1    0    0    0  501  0.00000000000E+00  0.00000000000E+00 -0.12328728622E+03  0.12328728633E+03  0.50400001928E-02 0. -1.
    10030    2    1    2    0    0  0.00000000000E+00  0.00000000000E+00  0.88629346795E+03  0.11328680405E+04  0.70560178988E+03 0.  0.
        1    1    3    3  502    0 -0.39498949861E+02 -0.28787861794E+03  0.76439090756E+03  0.81775774242E+03  0.50400001928E-02 0.  1.
       -1    1    3    3    0  502  0.39498949861E+02  0.28787861794E+03  0.12190256038E+03  0.31511029809E+03  0.50400001928E-02 0. -1.
</event>
<event>
 5   0  0.1909053E-02  0.6999762E+03  0.7818609E-02  0.9717273E-01
        2   -1    0    0  501    0  0.00000000000E+00  0.00000000000E+00  0.71889750605E+03  0.71889750605E+03  0.25500000920E-02 0. -1.
       -2   -1    0    0    0  501  0.00000000000E+00  0.00000000000E+00 -0.17038822374E+03  0.17038822375E+03  0.25500000920E-02 0.  1.
    10030    2    1    2    0    0  0.00000000000E+00  0.00000000000E+00  0.54850928231E+03  0.88928572981E+03  0.69997619706E+03 0.  0.
        1    1    3    3  502    0  0.31355859116E+03 -0.15421258321E+03  0.24912801029E+03  0.42914481990E+03  0.50400001928E-02 0. -1.
       -1    1    3    3    0  502 -0.31355859116E+03  0.15421258321E+03  0.29938127202E+03  0.46014090991E+03  0.50400001928E-02 0.  1.
</event>
<event>
 5   0  0.1257442E-02  0.7003744E+03  0.7818609E-02  0.9716592E-01
       -1   -1    0    0    0  501  0.00000000000E+00  0.00000000000E+00  0.96718965818E+02  0.96718965949E+02  0.50400001928E-02 0.  1.
        1   -1    0    0  501    0  0.00000000000E+00  0.00000000000E+00 -0.12679112122E+04  0.12679112122E+04  0.50400001928E-02 0. -1.
    10030    2    1    2    0    0  0.00000000000E+00  0.00000000000E+00 -0.11711922464E+04  0.13646301782E+04  0.70037436072E+03 0.  0.
        1    1    3    3  502    0 -0.63391045354E+02  0.53024112197E+02  0.77445873744E+02  0.11326007457E+03  0.50400001928E-02 0.  1.
       -1    1    3    3    0  502  0.63391045354E+02 -0.53024112197E+02 -0.12486381201E+04  0.12513701036E+04  0.50400001928E-02 0. -1.
</event>
<event>
 5   0  0.1948138E-02  0.6954908E+03  0.7818609E-02  0.9724975E-01
        2   -1    0    0  501    0  0.00000000000E+00  0.00000000000E+00  0.10876031784E+04  0.10876031784E+04  0.25500000920E-02 0. -1.
       -2   -1    0    0    0  501  0.00000000000E+00  0.00000000000E+00 -0.11118657254E+03  0.11118657257E+03  0.25500000920E-02 0.  1.
    10030    2    1    2    0    0  0.00000000000E+00  0.00000000000E+00  0.97641660589E+03  0.11987897510E+04  0.69549081867E+03 0.  0.
        3    1    3    3  502    0 -0.13425396571E+03  0.18771684196E+03  0.39840884079E+02  0.23419873251E+03  0.10100000352E+00 0.  1.
       -3    1    3    3    0  502  0.13425396571E+03 -0.18771684196E+03  0.93657572181E+03  0.96459101849E+03  0.10100000352E+00 0. -1.
</event>
<event>
 5   0  0.1948138E-02  0.7033182E+03  0.7818609E-02  0.9711574E-01
        2   -1    0    0  501    0  0.00000000000E+00  0.00000000000E+00  0.49515042005E+03  0.49515042005E+03  0.25500000920E-02 0. -1.
       -2   -1    0    0    0  501  0.00000000000E+00  0.00000000000E+00 -0.24975063097E+03  0.24975063098E+03  0.25500000920E-02 0.  1.
    10030    2    1    2    0    0  0.00000000000E+00  0.00000000000E+00  0.24539978908E+03  0.74490105103E+03  0.70331822055E+03 0.  0.
        3    1    3    3  502    0 -0.95775770233E+02 -0.28926129206E+03  0.30863276574E+03  0.43370414747E+03  0.10100000352E+00 0. -1.
       -3    1    3    3    0  502  0.95775770233E+02  0.28926129206E+03 -0.63232976663E+02  0.31119690356E+03  0.10100000352E+00 0.  1.
</event>
<event>
 5   0  0.2006362E-02  0.7032177E+03  0.7818609E-02  0.9711745E-01
        2   -1    0    0  501    0  0.00000000000E+00  0.00000000000E+00  0.38464313917E+03  0.38464313917E+03  0.25500000920E-02 0.  1.
       -2   -1    0    0    0  501  0.00000000000E+00  0.00000000000E+00 -0.32141166816E+03  0.32141166817E+03  0.25500000920E-02 0. -1.
    10030    2    1    2    0    0  0.00000000000E+00  0.00000000000E+00  0.63231471006E+02  0.70605480735E+03  0.70321772734E+03 0.  0.
        4    1    3    3  502    0 -0.63625233745E+02  0.24880359649E+03  0.27274245787E+03  0.37462175753E+03  0.12699999809E+01 0.  1.
       -4    1    3    3    0  502  0.63625233745E+02 -0.24880359649E+03 -0.20951098686E+03  0.33143304981E+03  0.12699999809E+01 0. -1.
</event>
<event>
 5   0  0.1197259E-02  0.7012906E+03  0.7818609E-02  0.9715028E-01
       -1   -1    0    0    0  501  0.00000000000E+00  0.00000000000E+00  0.17320907911E+03  0.17320907918E+03  0.50400001928E-02 0. -1.
        1   -1    0    0  501    0  0.00000000000E+00  0.00000000000E+00 -0.70984800657E+03  0.70984800659E+03  0.50400001928E-02 0.  1.
    10030    2    1    2    0    0  0.00000000000E+00  0.00000000000E+00 -0.53663892746E+03  0.88305708577E+03  0.70129058047E+03 0.  0.
        3    1    3    3  502    0 -0.32193594651E+03 -0.78793536196E+01 -0.44301240630E+03  0.54769046021E+03  0.10100000352E+00 0.  1.
       -3    1    3    3    0  502  0.32193594651E+03  0.78793536196E+01 -0.93626521164E+02  0.33536662556E+03  0.10100000352E+00 0. -1.
</event>
<event>
 5   0  0.2006362E-02  0.6997158E+03  0.7818609E-02  0.9717718E-01
        2   -1    0    0  501    0  0.00000000000E+00  0.00000000000E+00  0.80558689655E+03  0.80558689656E+03  0.25500000920E-02 0.  1.
       -2   -1    0    0    0  501  0.00000000000E+00  0.00000000000E+00 -0.15193960111E+03  0.15193960113E+03  0.25500000920E-02 0. -1.
    10030    2    1    2    0    0  0.00000000000E+00  0.00000000000E+00  0.65364729545E+03  0.95752649769E+03  0.69971580440E+03 0.  0.
        4    1    3    3  502    0  0.30175078044E+03 -0.64461255913E+02  0.55247343787E+03  0.63280115318E+03  0.12699999809E+01 0.  1.
       -4    1    3    3    0  502 -0.30175078044E+03  0.64461255913E+02  0.10117385757E+03  0.32472534451E+03  0.12699999809E+01 0. -1.
</event>
<event>
 5   0  0.1237686E-02  0.6912566E+03  0.7818609E-02  0.9732302E-01
       -1   -1    0    0    0  501  0.00000000000E+00  0.00000000000E+00  0.71811698040E+02  0.71811698217E+02  0.50400001928E-02 0. -1.
        1   -1    0    0  501    0  0.00000000000E+00  0.00000000000E+00 -0.16635023580E+04  0.16635023580E+04  0.50400001928E-02 0.  1.
    10030    2    1    2    0    0  0.00000000000E+00  0.00000000000E+00 -0.15916906599E+04  0.17353140562E+04  0.69125662147E+03 0.  0.
        5    1    3    3  502    0 -0.26420276180E+03  0.75253879787E+02 -0.13222502547E+04  0.13504940103E+04  0.46999998093E+01 0.  1.
       -5    1    3    3    0  502  0.26420276180E+03 -0.75253879787E+02 -0.26944040524E+03  0.38482004592E+03  0.46999998093E+01 0. -1.
</event>
<event>
 5   0  0.1909053E-02  0.6930204E+03  0.7818609E-02  0.9729243E-01
        2   -1    0    0  501    0  0.00000000000E+00  0.00000000000E+00  0.20772754424E+03  0.20772754426E+03  0.25500000920E-02 0. -1.
       -2   -1    0    0    0  501  0.00000000000E+00  0.00000000000E+00 -0.57801345261E+03  0.57801345262E+03  0.25500000920E-02 0.  1.
    10030    2    1    2    0    0  0.00000000000E+00  0.00000000000E+00 -0.37028590837E+03  0.78574099687E+03  0.69302038948E+03 0.  0.
        1    1    3    3  502    0  0.28342226446E+03 -0.73507825703E+02  0.24953741014E+02  0.29386096993E+03  0.50400001928E-02 0. -1.
       -1    1    3    3    0  502 -0.28342226446E+03  0.73507825703E+02 -0.39523964938E+03  0.49188002694E+03  0.50400001928E-02 0.  1.
</event>
<event>
 5   0  0.1223742E-02  0.7054641E+03  0.7818609E-02  0.9707933E-01
       -1   -1    0    0    0  501  0.00000000000E+00  0.00000000000E+00  0.20420195735E+03  0.20420195741E+03  0.50400001928E-02 0. -1.
        1   -1    0    0  501    0  0.00000000000E+00  0.00000000000E+00 -0.60929823950E+03  0.60929823952E+03  0.50400001928E-02 0.  1.
    10030    2    1    2    0    0  0.00000000000E+00  0.00000000000E+00 -0.40509628215E+03  0.81350019692E+03  0.70546408313E+03 0.  0.
        2    1    3    3  502    0 -0.85854600767E+02 -0.24068647428E+03  0.77831150167E+02  0.26713045374E+03  0.25500000920E-02 0.  1.
       -2    1    3    3    0  502  0.85854600767E+02  0.24068647428E+03 -0.48292743232E+03  0.54636974318E+03  0.25500000920E-02 0. -1.
</event>
<event>
 5   0  0.1973067E-02  0.6975724E+03  0.7818609E-02  0.9721393E-01
        2   -1    0    0  501    0  0.00000000000E+00  0.00000000000E+00  0.18522751138E+04  0.18522751138E+04  0.25500000920E-02 0. -1.
       -2   -1    0    0    0  501  0.00000000000E+00  0.00000000000E+00 -0.65676958995E+02  0.65676959044E+02  0.25500000920E-02 0.  1.
    10030    2    1    2    0    0  0.00000000000E+00  0.00000000000E+00  0.17865981549E+04  0.19179520729E+04  0.69757235251E+03 0.  0.
        5    1    3    3  502    0 -0.31147778311E+03  0.75741262605E+02  0.12710337858E+04  0.13108409983E+04  0.46999998093E+01 0. -1.
       -5    1    3    3    0  502  0.31147778311E+03 -0.75741262605E+02  0.51556436906E+03  0.60711107458E+03  0.46999998093E+01 0.  1.
</event>
<event>
 5   0  0.1197259E-02  0.6988330E+03  0.7818609E-02  0.9719230E-01
       -1   -1    0    0    0  501  0.00000000000E+00  0.00000000000E+00  0.43505284563E+03  0.43505284565E+03  0.50400001928E-02 0.  1.
        1   -1    0    0  501    0  0.00000000000E+00  0.00000000000E+00 -0.28063695495E+03  0.28063695500E+03  0.50400001928E-02 0. -1.
    10030    2    1    2    0    0  0.00000000000E+00  0.00000000000E+00  0.15441589067E+03  0.71568980065E+03  0.69883304405E+03 0.  0.
        3    1    3    3  502    0 -0.11476877411E+03  0.18558803289E+03 -0.20227981453E+03  0.29754314482E+03  0.10100000352E+00 0. -1.
       -3    1    3    3    0  502  0.11476877411E+03 -0.18558803289E+03  0.35669570521E+03  0.41814665583E+03  0.10100000352E+00 0.  1.
</event>
<event>
 5   0  0.1257442E-02  0.7036536E+03  0.7818609E-02  0.9711004E-01
       -1   -1    0    0    0  501  0.00000000000E+00  0.00000000000E+00  0.32584018595E+03  0.32584018599E+03  0.50400001928E-02 0. -1.
        1   -1    0    0  501    0  0.00000000000E+00  0.00000000000E+00 -0.37988594681E+03  0.37988594685E+03  0.50400001928E-02 0.  1.
    10030    2    1    2    0    0  0.00000000000E+00  0.00000000000E+00 -0.54045760864E+02  0.70572613283E+03  0.70365362949E+03 0.  0.
        1    1    3    3  502    0 -0.21478840727E+03 -0.13723889822E+03  0.21620642511E+03  0.33423613414E+03  0.50400001928E-02 0. -1.
       -1    1    3    3    0  502  0.21478840727E+03  0.13723889822E+03 -0.27025218597E+03  0.37148999869E+03  0.50400001928E-02 0.  1.
</event>
<event>
 5   0  0.1237686E-02  0.6979859E+03  0.7818609E-02  0.9720683E-01
       -1   -1    0    0    0  501  0.00000000000E+00  0.00000000000E+00  0.14324399257E+03  0.14324399266E+03  0.50400001928E-02 0.  1.
        1   -1    0    0  501    0  0.00000000000E+00  0.00000000000E+00 -0.85027015598E+03  0.85027015599E+03  0.50400001928E-02 0. -1.
    10030    2    1    2    0    0  0.00000000000E+00  0.00000000000E+00 -0.70702616341E+03  0.99351414865E+03  0.69798593669E+03 0.  0.
        5    1    3    3  502    0 -0.24603932208E+02 -0.11625358620E+03  0.11351389749E+03  0.16440117003E+03  0.46999998093E+01 0.  1.
       -5    1    3    3    0  502  0.24603932208E+02  0.11625358620E+03 -0.82054006090E+03  0.82911297862E+03  0.46999998093E+01 0. -1.
</event>
<event>
 5   0  0.1257442E-02  0.7026209E+03  0.7818609E-02  0.9712761E-01
        1   -1    0    0  501    0  0.00000000000E+00  0.00000000000E+00  0.66486444272E+03  0.66486444274E+03  0.50400001928E-02 0. -1.
       -1   -1    0    0    0  501  0.00000000000E+00  0.00000000000E+00 -0.18563039182E+03  0.18563039189E+03  0.50400001928E-02 0.  1.
    10030    2    1    2    0    0  0.00000000000E+00  0.00000000000E+00  0.47923405090E+03  0.85049483463E+03  0.70262094204E+03 0.  0.
        1    1    3    3  502    0 -0.32381918171E+03 -0.12879578815E+03  0.18586618321E+03  0.39496006833E+03  0.50400001928E-02 0.  1.
       -1    1    3    3    0  502  0.32381918171E+03  0.12879578815E+03  0.29336786769E+03  0.45553476630E+03  0.50400001928E-02 0. -1.
</event>
<event>
 5   0  0.1223742E-02  0.6986089E+03  0.7818609E-02  0.9719614E-01
        1   -1    0    0  501    0  0.00000000000E+00  0.00000000000E+00  0.37566544668E+03  0.37566544672E+03  0.50400001928E-02 0.  1.
       -1   -1    0    0    0  501  0.00000000000E+00  0.00000000000E+00 -0.32479322435E+03  0.32479322439E+03  0.50400001928E-02 0. -1.
    10030    2    1    2    0    0  0.00000000000E+00  0.00000000000E+00  0.50872222332E+02  0.70045867110E+03  0.69860887979E+03 0.  0.
        2    1    3    3  502    0 -0.23957210084E+03  0.25147430814E+03  0.62675706149E+02  0.35293393617E+03  0.25500000920E-02 0.  1.
       -2    1    3    3    0  502  0.23957210084E+03 -0.25147430814E+03 -0.11803483816E+02  0.34752473493E+03  0.25500000920E-02 0. -1.
</event>
<event>
 5   0  0.1197259E-02  0.6985010E+03  0.7818609E-02  0.9719799E-01
        1   -1    0    0  501    0  0.00000000000E+00  0.00000000000E+00  0.26185590658E+03  0.26185590663E+03  0.50400001928E-02 0.  1.
       -1   -1    0    0    0  501  0.00000000000E+00  0.00000000000E+00 -0.46581310921E+03  0.46581310923E+03  0.50400001928E-02 0. -1.
    10030    2    1    2    0    0  0.00000000000E+00  0.00000000000E+00 -0.20395720263E+03  0.72766901586E+03  0.69850100654E+03 0.  0.
        3    1    3    3  502    0  0.21944212635E+03 -0.26446829687E+01 -0.38501116253E+03  0.44316525883E+03  0.10100000352E+00 0. -1.
       -3    1    3    3    0  502 -0.21944212635E+03  0.26446829687E+01  0.18105395990E+03  0.28450375703E+03  0.10100000352E+00 0.  1.
</event>
<event>
 5   0  0.1973067E-02  0.6982314E+03  0.7818609E-02  0.9720262E-01
       -2   -1    0    0    0  501  0.00000000000E+00  0.00000000000E+00  0.21358931768E+03  0.21358931769E+03  0.25500000920E-02 0. -1.
        2   -1    0    0  501    0  0.00000000000E+00  0.00000000000E+00 -0.57063608738E+03  0.57063608738E+03  0.25500000920E-02 0.  1.
    10030    2    1    2    0    0  0.00000000000E+00  0.00000000000E+00 -0.35704676970E+03  0.78422540507E+03  0.69823140162E+03 0.  0.
        5    1    3    3  502    0  0.21794161118E+03  0.26750615564E+01  0.12773898797E+03  0.25267576236E+03  0.46999998093E+01 0. -1.
       -5    1    3    3    0  502 -0.21794161118E+03 -0.26750615564E+01 -0.48478575767E+03  0.53154964272E+03  0.46999998093E+01 0.  1.
</event>
<event>
 5   0  0.1237686E-02  0.7791588E+03  0.7818609E-02  0.9590684E-01
        1   -1    0    0  501    0  0.00000000000E+00  0.00000000000E+00  0.11163317270E+04  0.11163317270E+04  0.50400001928E-02 0. -1.
       -1   -1    0    0    0  501  0.00000000000E+00  0.00000000000E+00 -0.13595609792E+03  0.13595609801E+03  0.50400001928E-02 0.  1.
    10030    2    1    2    0    0  0.00000000000E+00  0.00000000000E+00  0.98037562909E+03  0.12522878250E+04  0.77915879165E+03 0.  0.
        5    1    3    3  502    0  0.14990869228E+03 -0.31431250550E+03  0.77080975811E+03  0.84583375455E+03  0.46999998093E+01 0. -1.
       -5    1    3    3    0  502 -0.14990869228E+03  0.31431250550E+03  0.20956587098E+03  0.40645407049E+03  0.46999998093E+01 0.  1.
</event>
<event>
 5   0  0.1909053E-02  0.7053528E+03  0.7818609E-02  0.9708122E-01
       -2   -1    0    0    0  501  0.00000000000E+00  0.00000000000E+00  0.13965016364E+03  0.13965016366E+03  0.25500000920E-02 0.  1.
        2   -1    0    0  501    0  0.00000000000E+00  0.00000000000E+00 -0.89065866152E+03  0.89065866153E+03  0.25500000920E-02 0. -1.
    10030    2    1    2    0    0  0.00000000000E+00  0.00000000000E+00 -0.75100849788E+03  0.10303088252E+04  0.70535275669E+03 0.  0.
        1    1    3    3  502    0 -0.29824417849E+03  0.16901070975E+03 -0.49654348236E+03  0.60338183592E+03  0.50400001928E-02 0. -1.
       -1    1    3    3    0  502  0.29824417849E+03 -0.16901070975E+03 -0.25446501552E+03  0.42692698927E+03  0.50400001928E-02 0.  1.
</event>
<event>
 5   0  0.1257442E-02  0.6972937E+03  0.7818609E-02  0.9721871E-01
        1   -1    0    0  501    0  0.00000000000E+00  0.00000000000E+00  0.11767001705E+04  0.11767001705E+04  0.50400001928E-02 0.  1.
       -1   -1    0    0    0  501  0.00000000000E+00  0.00000000000E+00 -0.10330128661E+03  0.10330128673E+03  0.50400001928E-02 0. -1.
    10030    2    1    2    0    0  0.00000000000E+00  0.00000000000E+00  0.10733988839E+04  0.12800014572E+04  0.69729374484E+03 0.  0.
        1    1    3    3  502    0 -0.20100539940E+03 -0.23525675983E+03  0.24181439399E+03  0.39271250910E+03  0.50400001928E-02 0. -1.
       -1    1    3    3    0  502  0.20100539940E+03  0.23525675983E+03  0.83158448986E+03  0.88728894811E+03  0.50400001928E-02 0.  1.
</event>
<event>
 5   0  0.2006362E-02  0.6990671E+03  0.7818609E-02  0.9718829E-01
       -2   -1    0    0    0  501  0.00000000000E+00  0.00000000000E+00  0.11809812629E+03  0.11809812632E+03  0.25500000920E-02 0. -1.
        2   -1    0    0  501    0  0.00000000000E+00  0.00000000000E+00 -0.10345101461E+04  0.10345101461E+04  0.25500000920E-02 0.  1.
    10030    2    1    2    0    0  0.00000000000E+00  0.00000000000E+00 -0.91641201985E+03  0.11526082725E+04  0.69906712097E+03 0.  0.
        4    1    3    3  502    0  0.28533662242E+03 -0.18680478204E+03 -0.58441132793E+03  0.67664704817E+03  0.12699999809E+01 0.  1.
       -4    1    3    3    0  502 -0.28533662242E+03  0.18680478204E+03 -0.33200069192E+03  0.47596122429E+03  0.12699999809E+01 0. -1.
</event>
<event>
 5   0  0.1948138E-02  0.6751462E+03  0.7818609E-02  0.9760706E-01
       -2   -1    0    0    0  501  0.00000000000E+00  0.00000000000E+00  0.22688519823E+03  0.22688519824E+03  0.25500000920E-02 0.  1.
        2   -1    0    0  501    0  0.00000000000E+00  0.00000000000E+00 -0.50226109970E+03  0.50226109970E+03  0.25500000920E-02 0. -1.
    10030    2    1    2    0    0  0.00000000000E+00  0.00000000000E+00 -0.27537590147E+03  0.72914629795E+03  0.67514623357E+03 0.  0.
        3    1    3    3  502    0  0.13376755430E+03  0.43022948220E+02  0.19379967771E+03  0.23938057134E+03  0.10100000352E+00 0.  1.
       -3    1    3    3    0  502 -0.13376755430E+03 -0.43022948220E+02 -0.46917557918E+03  0.48976572660E+03  0.10100000352E+00 0. -1.
</event>
<event>
 5   0  0.1197259E-02  0.6981197E+03  0.7818609E-02  0.9720453E-01
       -1   -1    0    0    0  501  0.00000000000E+00  0.00000000000E+00  0.85118049890E+02  0.85118050039E+02  0.50400001928E-02 0.  1.
        1   -1    0    0  501    0  0.00000000000E+00  0.00000000000E+00 -0.14314563200E+04  0.14314563200E+04  0.50400001928E-02 0. -1.
    10030    2    1    2    0    0  0.00000000000E+00  0.00000000000E+00 -0.13463382701E+04  0.15165743700E+04  0.69811967621E+03 0.  0.
        3    1    3    3  502    0 -0.32026191714E+03 -0.24011707461E+02 -0.97022439675E+03  0.10219978708E+04  0.10100000352E+00 0. -1.
       -3    1    3    3    0  502  0.32026191714E+03  0.24011707461E+02 -0.37611387333E+03  0.49457649922E+03  0.10100000352E+00 0.  1.
</event>
<event>
 5   0  0.1237686E-02  0.6916249E+03  0.7818609E-02  0.9731663E-01
       -1   -1    0    0    0  501  0.00000000000E+00  0.00000000000E+00  0.13374649441E+03  0.13374649450E+03  0.50400001928E-02 0.  1.
        1   -1    0    0  501    0  0.00000000000E+00  0.00000000000E+00 -0.89412612710E+03  0.89412612712E+03  0.50400001928E-02 0. -1.
    10030    2    1    2    0    0  0.00000000000E+00  0.00000000000E+00 -0.76037963269E+03  0.10278726216E+04  0.69162485529E+03 0.  0.
        5    1    3    3  502    0  0.52773152571E+02  0.32479320523E+03 -0.53809161639E+03  0.63074583583E+03  0.46999998093E+01 0. -1.
       -5    1    3    3    0  502 -0.52773152571E+02 -0.32479320523E+03 -0.22228801631E+03  0.39712678579E+03  0.46999998093E+01 0.  1.
</event>
<event>
 5   0  0.7947250E-03  0.6991126E+03  0.7818609E-02  0.9718751E-01
        3   -1    0    0  501    0  0.00000000000E+00  0.00000000000E+00  0.16400896023E+03  0.16400899133E+03  0.10100000352E+00 0.  1.
       -3   -1    0    0    0  501  0.00000000000E+00  0.00000000000E+00 -0.74501785027E+03  0.74501785711E+03  0.10100000352E+00 0. -1.
    10030    2    1    2    0    0  0.00000000000E+00  0.00000000000E+00 -0.58100889004E+03  0.90902684844E+03  0.69911263819E+03 0.  0.
        2    1    3    3  502    0  0.25180983084E+03 -0.95905491067E+02 -0.58003768913E+03  0.63956999222E+03  0.25500000920E-02 0. -1.
       -2    1    3    3    0  502 -0.25180983084E+03  0.95905491067E+02 -0.97120090659E+00  0.26945685622E+03  0.25500000920E-02 0.  1.
</event>
<event>
 5   0  0.1223742E-02  0.6742465E+03  0.7818609E-02  0.9762317E-01
       -1   -1    0    0    0  501  0.00000000000E+00  0.00000000000E+00  0.61632277892E+03  0.61632277894E+03  0.50400001928E-02 0.  1.
        1   -1    0    0  501    0  0.00000000000E+00  0.00000000000E+00 -0.18440351805E+03  0.18440351812E+03  0.50400001928E-02 0. -1.
    10030    2    1    2    0    0  0.00000000000E+00  0.00000000000E+00  0.43191926087E+03  0.80072629707E+03  0.67424650900E+03 0.  0.
        2    1    3    3  502    0  0.15093214077E+03  0.81467279754E+02  0.56063543543E+03  0.58628450453E+03  0.25500000920E-02 0.  1.
       -2    1    3    3    0  502 -0.15093214077E+03 -0.81467279754E+02 -0.12871617456E+03  0.21444179254E+03  0.25500000920E-02 0. -1.
</event>
<event>
 5   0  0.1948138E-02  0.6999868E+03  0.7818609E-02  0.9717255E-01
       -2   -1    0    0    0  501  0.00000000000E+00  0.00000000000E+00  0.18480901601E+03  0.18480901603E+03  0.25500000920E-02 0. -1.
        2   -1    0    0  501    0  0.00000000000E+00  0.00000000000E+00 -0.66282144917E+03  0.66282144917E+03  0.25500000920E-02 0.  1.
    10030    2    1    2    0    0  0.00000000000E+00  0.00000000000E+00 -0.47801243315E+03  0.84763046520E+03  0.69998679937E+03 0.  0.
        3    1    3    3  502    0  0.16453193316E+03  0.68338416106E+02  0.12579033839E+03  0.21809198880E+03  0.10100000352E+00 0. -1.
       -3    1    3    3    0  502 -0.16453193316E+03 -0.68338416106E+02 -0.60380277155E+03  0.62953847640E+03  0.10100000352E+00 0.  1.
</event>
<event>
 5   0  0.2026361E-02  0.7072812E+03  0.7818609E-02  0.9704861E-01
        2   -1    0    0  501    0  0.00000000000E+00  0.00000000000E+00  0.14384837693E+04  0.14384837693E+04  0.25500000920E-02 0.  1.
       -2   -1    0    0    0  501  0.00000000000E+00  0.00000000000E+00 -0.86939917495E+02  0.86939917533E+02  0.25500000920E-02 0. -1.
    10030    2    1    2    0    0  0.00000000000E+00  0.00000000000E+00  0.13515438518E+04  0.15254236868E+04  0.70728116120E+03 0.  0.
        2    1    3    3  502    0 -0.13305659665E+03  0.11760301441E+03  0.16192338270E+02  0.17831634456E+03  0.25500000920E-02 0. -1.
       -2    1    3    3    0  502  0.13305659665E+03 -0.11760301441E+03  0.13353515135E+04  0.13471073422E+04  0.25500000920E-02 0.  1.
</event>
<event>
 5   0  0.1948138E-02  0.7031284E+03  0.7818609E-02  0.9711897E-01
       -2   -1    0    0    0  501  0.00000000000E+00  0.00000000000E+00  0.92029928846E+02  0.92029928881E+02  0.25500000920E-02 0. -1.
        2   -1    0    0  501    0  0.00000000000E+00  0.00000000000E+00 -0.13430130786E+04  0.13430130786E+04  0.25500000920E-02 0.  1.
    10030    2    1    2    0    0  0.00000000000E+00  0.00000000000E+00 -0.12509831497E+04  0.14350430075E+04  0.70312843233E+03 0.  0.
        3    1    3    3  502    0 -0.27213367486E+01  0.14688782801E+03 -0.12773601346E+04  0.12857808380E+04  0.10100000352E+00 0.  1.
       -3    1    3    3    0  502  0.27213367486E+01 -0.14688782801E+03  0.26376984900E+02  0.14926216943E+03  0.10100000352E+00 0. -1.
</event>
<event>
 5   0  0.2026361E-02  0.7021847E+03  0.7818609E-02  0.9713503E-01
        2   -1    0    0  501    0  0.00000000000E+00  0.00000000000E+00  0.51570781220E+03  0.51570781221E+03  0.25500000920E-02 0.  1.
       -2   -1    0    0    0  501  0.00000000000E+00  0.00000000000E+00 -0.23902262934E+03  0.23902262935E+03  0.25500000920E-02 0. -1.
    10030    2    1    2    0    0  0.00000000000E+00  0.00000000000E+00  0.27668518286E+03  0.75473044156E+03  0.70218469721E+03 0.  0.
        2    1    3    3  502    0  0.24793937524E+03  0.16805238159E+03  0.33521674949E+03  0.44953954876E+03  0.25500000920E-02 0.  1.
       -2    1    3    3    0  502 -0.24793937524E+03 -0.16805238159E+03 -0.58531566631E+02  0.30519089280E+03  0.25500000920E-02 0. -1.
</event>
<event>
 5   0  0.1948138E-02  0.7035130E+03  0.7818609E-02  0.9711243E-01
        2   -1    0    0  501    0  0.00000000000E+00  0.00000000000E+00  0.10030566098E+04  0.10030566098E+04  0.25500000920E-02 0.  1.
       -2   -1    0    0    0  501  0.00000000000E+00  0.00000000000E+00 -0.12335557476E+03  0.12335557479E+03  0.25500000920E-02 0. -1.
    10030    2    1    2    0    0  0.00000000000E+00  0.00000000000E+00  0.87970103508E+03  0.11264121846E+04  0.70351296972E+03 0.  0.
        3    1    3    3  502    0  0.32237232072E+03 -0.13903785410E+03  0.40487495474E+03  0.53589101244E+03  0.10100000352E+00 0.  1.
       -3    1    3    3    0  502 -0.32237232072E+03  0.13903785410E+03  0.47482608033E+03  0.59052117219E+03  0.10100000352E+00 0. -1.
</event>
<event>
 5   0  0.1973067E-02  0.7019164E+03  0.7818609E-02  0.9713960E-01
        2   -1    0    0  501    0  0.00000000000E+00  0.00000000000E+00  0.60611672077E+03  0.60611672077E+03  0.25500000920E-02 0. -1.
       -2   -1    0    0    0  501  0.00000000000E+00  0.00000000000E+00 -0.20321442584E+03  0.20321442586E+03  0.25500000920E-02 0.  1.
    10030    2    1    2    0    0  0.00000000000E+00  0.00000000000E+00  0.40290229493E+03  0.80933114663E+03  0.70191640930E+03 0.  0.
        5    1    3    3  502    0  0.21025609899E+03 -0.17468560547E+03  0.45518833359E+03  0.53098135274E+03  0.46999998093E+01 0. -1.
       -5    1    3    3    0  502 -0.21025609899E+03  0.17468560547E+03 -0.52286038664E+02  0.27834979389E+03  0.46999998093E+01 0.  1.
</event>
<event>
 5   0  0.2006362E-02  0.7022501E+03  0.7818609E-02  0.9713392E-01
        2   -1    0    0  501    0  0.00000000000E+00  0.00000000000E+00  0.12406350513E+04  0.12406350513E+04  0.25500000920E-02 0.  1.
       -2   -1    0    0    0  501  0.00000000000E+00  0.00000000000E+00 -0.99375571834E+02  0.99375571867E+02  0.25500000920E-02 0. -1.
    10030    2    1    2    0    0  0.00000000000E+00  0.00000000000E+00  0.11412594794E+04  0.13400106232E+04  0.70225014826E+03 0.  0.
        4    1    3    3  502    0 -0.14746501164E+03  0.23007402620E+03  0.99132418965E+03  0.10283021196E+04  0.12699999809E+01 0.  1.
       -4    1    3    3    0  502  0.14746501164E+03 -0.23007402620E+03  0.14993528980E+03  0.31170850360E+03  0.12699999809E+01 0. -1.
</event>
<event>
 5   0  0.2006362E-02  0.7018206E+03  0.7818609E-02  0.9714124E-01
       -2   -1    0    0    0  501  0.00000000000E+00  0.00000000000E+00  0.94989261205E+02  0.94989261239E+02  0.25500000920E-02 0.  1.
        2   -1    0    0  501    0  0.00000000000E+00  0.00000000000E+00 -0.12963365813E+04  0.12963365813E+04  0.25500000920E-02 0. -1.
    10030    2    1    2    0    0  0.00000000000E+00  0.00000000000E+00 -0.12013473201E+04  0.13913258426E+04  0.70182064421E+03 0.  0.
        4    1    3    3  502    0 -0.18963866204E+02  0.25957173375E+03 -0.10672846481E+04  0.10985605336E+04  0.12699999809E+01 0. -1.
       -4    1    3    3    0  502  0.18963866204E+02 -0.25957173375E+03 -0.13406267209E+03  0.29276530896E+03  0.12699999809E+01 0.  1.
</event>
<event>
 5   0  0.1257442E-02  0.7036583E+03  0.7818609E-02  0.9710996E-01
       -1   -1    0    0    0  501  0.00000000000E+00  0.00000000000E+00  0.92861714347E+02  0.92861714483E+02  0.50400001928E-02 0. -1.
        1   -1    0    0  501    0  0.00000000000E+00  0.00000000000E+00 -0.13329901118E+04  0.13329901118E+04  0.50400001928E-02 0.  1.
    10030    2    1    2    0    0  0.00000000000E+00  0.00000000000E+00 -0.12401283974E+04  0.14258518263E+04  0.70365828949E+03 0.  0.
        1    1    3    3  502    0 -0.21196293783E+03 -0.53637614211E+01 -0.51146776532E+02  0.21811247036E+03  0.50400001928E-02 0. -1.
       -1    1    3    3    0  502  0.21196293783E+03  0.53637614211E+01 -0.11889816209E+04  0.12077393559E+04  0.50400001928E-02 0.  1.
</event>
<event>
 5   0  0.2026361E-02  0.6625009E+03  0.7818609E-02  0.9783601E-01
        2   -1    0    0  501    0  0.00000000000E+00  0.00000000000E+00  0.27449091981E+03  0.27449091982E+03  0.25500000920E-02 0.  1.
       -2   -1    0    0    0  501  0.00000000000E+00  0.00000000000E+00 -0.39974681927E+03  0.39974681928E+03  0.25500000920E-02 0. -1.
    10030    2    1    2    0    0  0.00000000000E+00  0.00000000000E+00 -0.12525589946E+03  0.67423773910E+03  0.66250093470E+03 0.  0.
        2    1    3    3  502    0 -0.29859267202E+03  0.10387847902E+03 -0.16326636538E+03  0.35581487920E+03  0.25500000920E-02 0. -1.
       -2    1    3    3    0  502  0.29859267202E+03 -0.10387847902E+03  0.38010465921E+02  0.31842285991E+03  0.25500000920E-02 0.  1.
</event>
<event>
 5   0  0.1237686E-02  0.7164850E+03  0.7818609E-02  0.9689449E-01
       -1   -1    0    0    0  501  0.00000000000E+00  0.00000000000E+00  0.20556170732E+03  0.20556170738E+03  0.50400001928E-02 0.  1.
        1   -1    0    0  501    0  0.00000000000E+00  0.00000000000E+00 -0.62432677716E+03  0.62432677718E+03  0.50400001928E-02 0. -1.
    10030    2    1    2    0    0  0.00000000000E+00  0.00000000000E+00 -0.41876506985E+03  0.82988848456E+03  0.71648497059E+03 0.  0.
        5    1    3    3  502    0 -0.11415766130E+03  0.33769337039E+03 -0.25028145001E+03  0.43558199946E+03  0.46999998093E+01 0.  1.
       -5    1    3    3    0  502  0.11415766130E+03 -0.33769337039E+03 -0.16848361983E+03  0.39430648510E+03  0.46999998093E+01 0. -1.
</event>
<event>
 5   0  0.1226303E-02  0.7037097E+03  0.7818609E-02  0.9710909E-01
       -1   -1    0    0    0  501  0.00000000000E+00  0.00000000000E+00  0.89111740468E+02  0.89111740611E+02  0.50400001928E-02 0.  1.
        1   -1    0    0  501    0  0.00000000000E+00  0.00000000000E+00 -0.13892877017E+04  0.13892877017E+04  0.50400001928E-02 0. -1.
    10030    2    1    2    0    0  0.00000000000E+00  0.00000000000E+00 -0.13001759613E+04  0.14783994423E+04  0.70370972773E+03 0.  0.
        4    1    3    3  502    0  0.64273066837E+02  0.24414266802E+03 -0.13521063842E+03  0.28639168826E+03  0.12699999809E+01 0.  1.
       -4    1    3    3    0  502 -0.64273066837E+02 -0.24414266802E+03 -0.11649653228E+04  0.11920077541E+04  0.12699999809E+01 0. -1.
</event>
<event>
 5   0  0.1237686E-02  0.6984063E+03  0.7818609E-02  0.9719961E-01
       -1   -1    0    0    0  501  0.00000000000E+00  0.00000000000E+00  0.66411190886E+03  0.66411190888E+03  0.50400001928E-02 0. -1.
        1   -1    0    0  501    0  0.00000000000E+00  0.00000000000E+00 -0.18361793244E+03  0.18361793250E+03  0.50400001928E-02 0.  1.
    10030    2    1    2    0    0  0.00000000000E+00  0.00000000000E+00  0.48049397642E+03  0.84772984138E+03  0.69840634490E+03 0.  0.
        5    1    3    3  502    0 -0.31886575996E+03 -0.13428876113E+03  0.18316039306E+03  0.39150819127E+03  0.46999998093E+01 0. -1.
       -5    1    3    3    0  502  0.31886575996E+03  0.13428876113E+03  0.29733358336E+03  0.45622165012E+03  0.46999998093E+01 0.  1.
</event>
<event>
 5   0  0.1909053E-02  0.7007178E+03  0.7818609E-02  0.9716006E-01
        2   -1    0    0  501    0  0.00000000000E+00  0.00000000000E+00  0.75162604826E+03  0.75162604826E+03  0.25500000920E-02 0. -1.
       -2   -1    0    0    0  501  0.00000000000E+00  0.00000000000E+00 -0.16331438582E+03  0.16331438584E+03  0.25500000920E-02 0.  1.
    10030    2    1    2    0    0  0.00000000000E+00  0.00000000000E+00  0.58831166243E+03  0.91494043410E+03  0.70071776473E+03 0.  0.
        1    1    3    3  502    0 -0.15809521385E+03  0.20105130276E+03 -0.18496709683E+02  0.25643293720E+03  0.50400001928E-02 0.  1.
       -1    1    3    3    0  502  0.15809521385E+03 -0.20105130276E+03  0.60680837212E+03  0.65850749691E+03  0.50400001928E-02 0. -1.
</event>
<event>
 5   0  0.1948138E-02  0.6840085E+03  0.7818609E-02  0.9744977E-01
       -2   -1    0    0    0  501  0.00000000000E+00  0.00000000000E+00  0.22987758535E+03  0.22987758537E+03  0.25500000920E-02 0. -1.
        2   -1    0    0  501    0  0.00000000000E+00  0.00000000000E+00 -0.50882255988E+03  0.50882255988E+03  0.25500000920E-02 0.  1.
    10030    2    1    2    0    0  0.00000000000E+00  0.00000000000E+00 -0.27894497453E+03  0.73870014525E+03  0.68400848370E+03 0.  0.
        3    1    3    3  502    0 -0.10825657113E+03 -0.28455900819E+03 -0.30772965921E+03  0.43288666842E+03  0.10100000352E+00 0.  1.
       -3    1    3    3    0  502  0.10825657113E+03  0.28455900819E+03  0.28784684687E+02  0.30581347683E+03  0.10100000352E+00 0. -1.
</event>
<event>
 5   0  0.1973067E-02  0.7312200E+03  0.7818609E-02  0.9665283E-01
       -2   -1    0    0    0  501  0.00000000000E+00  0.00000000000E+00  0.14273244071E+03  0.14273244073E+03  0.25500000920E-02 0. -1.
        2   -1    0    0  501    0  0.00000000000E+00  0.00000000000E+00 -0.93651214399E+03  0.93651214399E+03  0.25500000920E-02 0.  1.
    10030    2    1    2    0    0  0.00000000000E+00  0.00000000000E+00 -0.79377970328E+03  0.10792445847E+04  0.73121997805E+03 0.  0.
        5    1    3    3  502    0 -0.27021024548E+03  0.11306473892E+03 -0.74026328067E+02  0.30215757345E+03  0.46999998093E+01 0. -1.
       -5    1    3    3    0  502  0.27021024548E+03 -0.11306473892E+03 -0.71975337521E+03  0.77708701127E+03  0.46999998093E+01 0.  1.
</event>
<event>
 5   0  0.1237686E-02  0.7107664E+03  0.7818609E-02  0.9698995E-01
        1   -1    0    0  501    0  0.00000000000E+00  0.00000000000E+00  0.95463059340E+03  0.95463059341E+03  0.50400001928E-02 0. -1.
       -1   -1    0    0    0  501  0.00000000000E+00  0.00000000000E+00 -0.13229955841E+03  0.13229955850E+03  0.50400001928E-02 0.  1.
    10030    2    1    2    0    0  0.00000000000E+00  0.00000000000E+00  0.82233103499E+03  0.10869301519E+04  0.71076636388E+03 0.  0.
        5    1    3    3  502    0  0.33082245154E+03  0.88943144807E+02  0.55560142519E+03  0.65273992610E+03  0.46999998093E+01 0.  1.
       -5    1    3    3    0  502 -0.33082245154E+03 -0.88943144807E+02  0.26672960980E+03  0.43419022581E+03  0.46999998093E+01 0. -1.
</event>
<event>
 5   0  0.1948138E-02  0.7016355E+03  0.7818609E-02  0.9714439E-01
        2   -1    0    0  501    0  0.00000000000E+00  0.00000000000E+00  0.11010724513E+04  0.11010724513E+04  0.25500000920E-02 0. -1.
       -2   -1    0    0    0  501  0.00000000000E+00  0.00000000000E+00 -0.11177564162E+03  0.11177564165E+03  0.25500000920E-02 0.  1.
    10030    2    1    2    0    0  0.00000000000E+00  0.00000000000E+00  0.98929680966E+03  0.12128480929E+04  0.70163546015E+03 0.  0.
        3    1    3    3  502    0  0.94075768151E+02 -0.16619076640E+02 -0.88857982293E+02  0.13046913459E+03  0.10100000352E+00 0.  1.
       -3    1    3    3    0  502 -0.94075768151E+02  0.16619076640E+02  0.10781547920E+04  0.10823789584E+04  0.10100000352E+00 0. -1.
</event>
<event>
 5   0  0.2006362E-02  0.6937077E+03  0.7818609E-02  0.9728054E-01
        2   -1    0    0  501    0  0.00000000000E+00  0.00000000000E+00  0.70093211782E+03  0.70093211782E+03  0.25500000920E-02 0. -1.
       -2   -1    0    0    0  501  0.00000000000E+00  0.00000000000E+00 -0.17163942526E+03  0.17163942527E+03  0.25500000920E-02 0.  1.
    10030    2    1    2    0    0  0.00000000000E+00  0.00000000000E+00  0.52929269256E+03  0.87257154310E+03  0.69370767865E+03 0.  0.
        4    1    3    3  502    0  0.27603752080E+02  0.33524097069E+03  0.37106190829E+03  0.50083632880E+03  0.12699999809E+01 0. -1.
       -4    1    3    3    0  502 -0.27603752080E+02 -0.33524097069E+03  0.15823078427E+03  0.37173521430E+03  0.12699999809E+01 0.  1.
</event>
<event>
 5   0  0.1973067E-02  0.7002432E+03  0.7818609E-02  0.9716816E-01
       -2   -1    0    0    0  501  0.00000000000E+00  0.00000000000E+00  0.13936293161E+03  0.13936293163E+03  0.25500000920E-02 0.  1.
        2   -1    0    0  501    0  0.00000000000E+00  0.00000000000E+00 -0.87961086674E+03  0.87961086675E+03  0.25500000920E-02 0. -1.
    10030    2    1    2    0    0  0.00000000000E+00  0.00000000000E+00 -0.74024793514E+03  0.10189737984E+04  0.70024324081E+03 0.  0.
        5    1    3    3  502    0 -0.17151553447E+03  0.22851797236E+03 -0.66450411922E+03  0.72334352607E+03  0.46999998093E+01 0. -1.
       -5    1    3    3    0  502  0.17151553447E+03 -0.22851797236E+03 -0.75743815922E+02  0.29563027231E+03  0.46999998093E+01 0.  1.
</event>
<event>
 5   0  0.1237686E-02  0.6933205E+03  0.7818609E-02  0.9728724E-01
       -1   -1    0    0    0  501  0.00000000000E+00  0.00000000000E+00  0.61205127372E+03  0.61205127374E+03  0.50400001928E-02 0.  1.
        1   -1    0    0  501    0  0.00000000000E+00  0.00000000000E+00 -0.19634517492E+03  0.19634517499E+03  0.50400001928E-02 0. -1.
    10030    2    1    2    0    0  0.00000000000E+00  0.00000000000E+00  0.41570609880E+03  0.80839644873E+03  0.69332045819E+03 0.  0.
        5    1    3    3  502    0 -0.26379922646E+03 -0.21370427978E+03  0.28940213701E+03  0.44613365484E+03  0.46999998093E+01 0.  1.
       -5    1    3    3    0  502  0.26379922646E+03  0.21370427978E+03  0.12630396179E+03  0.36226279389E+03  0.46999998093E+01 0. -1.
</event>
<event>
 5   0  0.1948138E-02  0.7022022E+03  0.7818609E-02  0.9713474E-01
        2   -1    0    0  501    0  0.00000000000E+00  0.00000000000E+00  0.13242321657E+04  0.13242321657E+04  0.25500000920E-02 0. -1.
       -2   -1    0    0    0  501  0.00000000000E+00  0.00000000000E+00 -0.93089408433E+02  0.93089408468E+02  0.25500000920E-02 0.  1.
    10030    2    1    2    0    0  0.00000000000E+00  0.00000000000E+00  0.12311427572E+04  0.14173215741E+04  0.70220221861E+03 0.  0.
        3    1    3    3  502    0  0.72262693214E+02  0.33347009731E+03  0.44854657208E+03  0.56357629488E+03  0.10100000352E+00 0.  1.
       -3    1    3    3    0  502 -0.72262693214E+02 -0.33347009731E+03  0.78259618516E+03  0.85374527926E+03  0.10100000352E+00 0. -1.
</event>
<event>
 5   0  0.1909053E-02  0.6819186E+03  0.7818609E-02  0.9748663E-01
        2   -1    0    0  501    0  0.00000000000E+00  0.00000000000E+00  0.89241190425E+03  0.89241190426E+03  0.25500000920E-02 0.  1.
       -2   -1    0    0    0  501  0.00000000000E+00  0.00000000000E+00 -0.13026860834E+03  0.13026860837E+03  0.25500000920E-02 0. -1.
    10030    2    1    2    0    0  0.00000000000E+00  0.00000000000E+00  0.76214329591E+03  0.10226805126E+04  0.68191863693E+03 0.  0.
        1    1    3    3  502    0 -0.96566432285E+02  0.16375991033E+02 -0.10871644874E+03  0.14633015813E+03  0.50400001928E-02 0. -1.
       -1    1    3    3    0  502  0.96566432285E+02 -0.16375991033E+02  0.87085974465E+03  0.87635035449E+03  0.50400001928E-02 0.  1.
</event>
<event>
 5   0  0.2006362E-02  0.6997502E+03  0.7818609E-02  0.9717659E-01
        2   -1    0    0  501    0  0.00000000000E+00  0.00000000000E+00  0.22001330373E+03  0.22001330375E+03  0.25500000920E-02 0.  1.
       -2   -1    0    0    0  501  0.00000000000E+00  0.00000000000E+00 -0.55638717967E+03  0.55638717967E+03  0.25500000920E-02 0. -1.
    10030    2    1    2    0    0  0.00000000000E+00  0.00000000000E+00 -0.33637387593E+03  0.77640048342E+03  0.69975018846E+03 0.  0.
        4    1    3    3  502    0  0.57952480536E+01  0.46199831466E+02  0.21655772232E+03  0.22151042712E+03  0.12699999809E+01 0.  1.
       -4    1    3    3    0  502 -0.57952480536E+01 -0.46199831466E+02 -0.55293159826E+03  0.55489005630E+03  0.12699999809E+01 0. -1.
</event>
<event>
 5   0  0.1909053E-02  0.6923360E+03  0.7818609E-02  0.9730429E-01
        2   -1    0    0  501    0  0.00000000000E+00  0.00000000000E+00  0.14555581554E+04  0.14555581554E+04  0.25500000920E-02 0. -1.
       -2   -1    0    0    0  501  0.00000000000E+00  0.00000000000E+00 -0.82327380352E+02  0.82327380391E+02  0.25500000920E-02 0.  1.
    10030    2    1    2    0    0  0.00000000000E+00  0.00000000000E+00  0.13732307751E+04  0.15378855358E+04  0.69233601645E+03 0.  0.
        1    1    3    3  502    0  0.12288856337E+02  0.34485730886E+03  0.62559186653E+03  0.71445277168E+03  0.50400001928E-02 0. -1.
       -1    1    3    3    0  502 -0.12288856337E+02 -0.34485730886E+03  0.74763890855E+03  0.82343276415E+03  0.50400001928E-02 0.  1.
</event>
<event>
 5   0  0.1948138E-02  0.6953724E+03  0.7818609E-02  0.9725179E-01
        2   -1    0    0  501    0  0.00000000000E+00  0.00000000000E+00  0.60740106921E+03  0.60740106922E+03  0.25500000920E-02 0.  1.
       -2   -1    0    0    0  501  0.00000000000E+00  0.00000000000E+00 -0.19902117846E+03  0.19902117848E+03  0.25500000920E-02 0. -1.
    10030    2    1    2    0    0  0.00000000000E+00  0.00000000000E+00  0.40837989075E+03  0.80642224769E+03  0.69537235091E+03 0.  0.
        3    1    3    3  502    0 -0.18411060201E+03 -0.38284134939E+02 -0.13495648514E+03  0.23146414807E+03  0.10100000352E+00 0. -1.
       -3    1    3    3    0  502  0.18411060201E+03  0.38284134939E+02  0.54333637589E+03  0.57495809962E+03  0.10100000352E+00 0.  1.
</event>
<event>
 5   0  0.2026361E-02  0.6982800E+03  0.7818609E-02  0.9720178E-01
       -2   -1    0    0    0  501  0.00000000000E+00  0.00000000000E+00  0.38975465289E+03  0.38975465290E+03  0.25500000920E-02 0.  1.
        2   -1    0    0  501    0  0.00000000000E+00  0.00000000000E+00 -0.31275765907E+03  0.31275765908E+03  0.25500000920E-02 0. -1.
    10030    2    1    2    0    0  0.00000000000E+00  0.00000000000E+00  0.76996993823E+02  0.70251231198E+03  0.69828003797E+03 0.  0.
        2    1    3    3  502    0 -0.33718234090E+03  0.40888154325E+02  0.11982769063E+03  0.36017002599E+03  0.25500000920E-02 0.  1.
       -2    1    3    3    0  502  0.33718234090E+03 -0.40888154325E+02 -0.42830696802E+02  0.34234228598E+03  0.25500000920E-02 0. -1.
</event>
<event>
 5   0  0.1909053E-02  0.6991546E+03  0.7818609E-02  0.9718679E-01
       -2   -1    0    0    0  501  0.00000000000E+00  0.00000000000E+00  0.27193827482E+03  0.27193827483E+03  0.25500000920E-02 0. -1.
        2   -1    0    0  501    0  0.00000000000E+00  0.00000000000E+00 -0.44938240224E+03  0.44938240224E+03  0.25500000920E-02 0.  1.
    10030    2    1    2    0    0  0.00000000000E+00  0.00000000000E+00 -0.17744412742E+03  0.72132067708E+03  0.69915456147E+03 0.  0.
        1    1    3    3  502    0  0.11225962934E+03  0.28599989679E+03  0.83316299982E+02  0.31833908213E+03  0.50400001928E-02 0.  1.
       -1    1    3    3    0  502 -0.11225962934E+03 -0.28599989679E+03 -0.26076042740E+03  0.40298159495E+03  0.50400001928E-02 0. -1.
</event>
<event>
 5   0  0.2026361E-02  0.6974415E+03  0.7818609E-02  0.9721618E-01
        2   -1    0    0  501    0  0.00000000000E+00  0.00000000000E+00  0.29340498466E+03  0.29340498467E+03  0.25500000920E-02 0. -1.
       -2   -1    0    0    0  501  0.00000000000E+00  0.00000000000E+00 -0.41446524547E+03  0.41446524548E+03  0.25500000920E-02 0.  1.
    10030    2    1    2    0    0  0.00000000000E+00  0.00000000000E+00 -0.12106026082E+03  0.70787023015E+03  0.69744152155E+03 0.  0.
        2    1    3    3  502    0  0.69202498808E+02 -0.12558778501E+03 -0.38315885391E+03  0.40911121339E+03  0.25500000920E-02 0.  1.
       -2    1    3    3    0  502 -0.69202498808E+02  0.12558778501E+03  0.26209859310E+03  0.29875901676E+03  0.25500000920E-02 0. -1.
</event>
<event>
 5   0  0.1257442E-02  0.6986408E+03  0.7818609E-02  0.9719559E-01
        1   -1    0    0  501    0  0.00000000000E+00  0.00000000000E+00  0.21896982480E+04  0.21896982480E+04  0.50400001928E-02 0.  1.
       -1   -1    0    0    0  501  0.00000000000E+00  0.00000000000E+00 -0.55726742002E+02  0.55726742230E+02  0.50400001928E-02 0. -1.
    10030    2    1    2    0    0  0.00000000000E+00  0.00000000000E+00  0.21339715060E+04  0.22454249902E+04  0.69864082214E+03 0.  0.
        1    1    3    3  502    0 -0.19580223551E+03  0.14952219213E+03  0.18629228891E+04  0.18791426481E+04  0.50400001928E-02 0.  1.
       -1    1    3    3    0  502  0.19580223551E+03 -0.14952219213E+03  0.27104861692E+03  0.36628234209E+03  0.50400001928E-02 0. -1.
</event>
<event>
 5   0  0.1223742E-02  0.7004468E+03  0.7818609E-02  0.9716468E-01
        1   -1    0    0  501    0  0.00000000000E+00  0.00000000000E+00  0.11400573616E+04  0.11400573616E+04  0.50400001928E-02 0.  1.
       -1   -1    0    0    0  501  0.00000000000E+00  0.00000000000E+00 -0.10758794575E+03  0.10758794587E+03  0.50400001928E-02 0. -1.
    10030    2    1    2    0    0  0.00000000000E+00  0.00000000000E+00  0.10324694158E+04  0.12476453075E+04  0.70044679926E+03 0.  0.
        2    1    3    3  502    0 -0.14275318352E+03 -0.10956577396E+02 -0.53079451882E+02  0.15269559985E+03  0.25500000920E-02 0. -1.
       -2    1    3    3    0  502  0.14275318352E+03  0.10956577396E+02  0.10855488677E+04  0.10949497076E+04  0.25500000920E-02 0.  1.
</event>
<event>
 5   0  0.1226303E-02  0.6973988E+03  0.7818609E-02  0.9721691E-01
       -1   -1    0    0    0  501  0.00000000000E+00  0.00000000000E+00  0.17506990443E+03  0.17506990450E+03  0.50400001928E-02 0.  1.
        1   -1    0    0  501    0  0.00000000000E+00  0.00000000000E+00 -0.69452979159E+03  0.69452979161E+03  0.50400001928E-02 0. -1.
    10030    2    1    2    0    0  0.00000000000E+00  0.00000000000E+00 -0.51945988717E+03  0.86959969611E+03  0.69739877911E+03 0.  0.
        4    1    3    3  502    0 -0.21956223198E+03  0.69032010777E+02  0.66897732593E+02  0.23968711219E+03  0.12699999809E+01 0.  1.
       -4    1    3    3    0  502  0.21956223198E+03 -0.69032010777E+02 -0.58635761976E+03  0.62991258392E+03  0.12699999809E+01 0. -1.
</event>
<event>
 5   0  0.1237686E-02  0.7031926E+03  0.7818609E-02  0.9711788E-01
        1   -1    0    0  501    0  0.00000000000E+00  0.00000000000E+00  0.22208562832E+03  0.22208562838E+03  0.50400001928E-02 0.  1.
       -1   -1    0    0    0  501  0.00000000000E+00  0.00000000000E+00 -0.55663191144E+03  0.55663191146E+03  0.50400001928E-02 0. -1.
    10030    2    1    2    0    0  0.00000000000E+00  0.00000000000E+00 -0.33454628312E+03  0.77871753984E+03  0.70319257057E+03 0.  0.
        5    1    3    3  502    0  0.24930378188E+03 -0.21954446313E+03 -0.39822120577E+02  0.33460430098E+03  0.46999998093E+01 0.  1.
       -5    1    3    3    0  502 -0.24930378188E+03  0.21954446313E+03 -0.29472416254E+03  0.44411323886E+03  0.46999998093E+01 0. -1.
</event>
<event>
 5   0  0.1948138E-02  0.6983538E+03  0.7818609E-02  0.9720052E-01
       -2   -1    0    0    0  501  0.00000000000E+00  0.00000000000E+00  0.80105618471E+03  0.80105618471E+03  0.25500000920E-02 0. -1.
        2   -1    0    0  501    0  0.00000000000E+00  0.00000000000E+00 -0.15220469489E+03  0.15220469491E+03  0.25500000920E-02 0.  1.
    10030    2    1    2    0    0  0.00000000000E+00  0.00000000000E+00  0.64885148982E+03  0.95326087962E+03  0.69835381346E+03 0.  0.
        3    1    3    3  502    0  0.44342717040E+02  0.20424034098E+03 -0.57397254621E+02  0.21673681846E+03  0.10100000352E+00 0.  1.
       -3    1    3    3    0  502 -0.44342717040E+02 -0.20424034098E+03  0.70624874444E+03  0.73652406116E+03  0.10100000352E+00 0. -1.
</event>
<event>
 5   0  0.7947250E-03  0.6947178E+03  0.7818609E-02  0.9726308E-01
       -3   -1    0    0    0  501  0.00000000000E+00  0.00000000000E+00  0.10119662900E+04  0.10119662951E+04  0.10100000352E+00 0.  1.
        3   -1    0    0  501    0  0.00000000000E+00  0.00000000000E+00 -0.11923142412E+03  0.11923146690E+03  0.10100000352E+00 0. -1.
    10030    2    1    2    0    0  0.00000000000E+00  0.00000000000E+00  0.89273486590E+03  0.11311977620E+04  0.69471781026E+03 0.  0.
        4    1    3    3  502    0  0.26407182958E+03  0.18014745103E+03  0.22507916568E+03  0.39095943398E+03  0.12699999809E+01 0. -1.
       -4    1    3    3    0  502 -0.26407182958E+03 -0.18014745103E+03  0.66765570022E+03  0.74023832799E+03  0.12699999809E+01 0.  1.
</event>
<event>
 5   0  0.1948138E-02  0.7028915E+03  0.7818609E-02  0.9712300E-01
        2   -1    0    0  501    0  0.00000000000E+00  0.00000000000E+00  0.17932787537E+04  0.17932787537E+04  0.25500000920E-02 0.  1.
       -2   -1    0    0    0  501  0.00000000000E+00  0.00000000000E+00 -0.68876132631E+02  0.68876132678E+02  0.25500000920E-02 0. -1.
    10030    2    1    2    0    0  0.00000000000E+00  0.00000000000E+00  0.17244026211E+04  0.18621548864E+04  0.70289147194E+03 0.  0.
        3    1    3    3  502    0  0.30240302316E+03 -0.16367703147E+03  0.10546406034E+04  0.11092811057E+04  0.10100000352E+00 0.  1.
       -3    1    3    3    0  502 -0.30240302316E+03  0.16367703147E+03  0.66976201771E+03  0.75287378066E+03  0.10100000352E+00 0. -1.
</event>
<event>
 5   0  0.1197259E-02  0.7033948E+03  0.7818609E-02  0.9711444E-01
       -1   -1    0    0    0  501  0.00000000000E+00  0.00000000000E+00  0.56169348484E+02  0.56169348710E+02  0.50400001928E-02 0.  1.
        1   -1    0    0  501    0  0.00000000000E+00  0.00000000000E+00 -0.22021095700E+04  0.22021095701E+04  0.50400001928E-02 0. -1.
    10030    2    1    2    0    0  0.00000000000E+00  0.00000000000E+00 -0.21459402216E+04  0.22582789188E+04  0.70339479697E+03 0.  0.
        3    1    3    3  502    0 -0.99922145749E+02 -0.29439829239E+03 -0.54507001959E+03  0.62749990138E+03  0.10100000352E+00 0.  1.
       -3    1    3    3    0  502  0.99922145749E+02  0.29439829239E+03 -0.16008702020E+04  0.16307790174E+04  0.10100000352E+00 0. -1.
</event>
<event>
 5   0  0.1223742E-02  0.6864252E+03  0.7818609E-02  0.9740733E-01
       -1   -1    0    0    0  501  0.00000000000E+00  0.00000000000E+00  0.32695433449E+03  0.32695433452E+03  0.50400001928E-02 0. -1.
        1   -1    0    0  501    0  0.00000000000E+00  0.00000000000E+00 -0.36027935444E+03  0.36027935447E+03  0.50400001928E-02 0.  1.
    10030    2    1    2    0    0  0.00000000000E+00  0.00000000000E+00 -0.33325019951E+02  0.68723368900E+03  0.68642522268E+03 0.  0.
        2    1    3    3  502    0 -0.27430542617E+03  0.17246171175E+03  0.96644933468E+02  0.33812239207E+03  0.25500000920E-02 0. -1.
       -2    1    3    3    0  502  0.27430542617E+03 -0.17246171175E+03 -0.12996995342E+03  0.34911129693E+03  0.25500000920E-02 0.  1.
</event>
<event>
 5   0  0.1237686E-02  0.7001031E+03  0.7818609E-02  0.9717056E-01
        1   -1    0    0  501    0  0.00000000000E+00  0.00000000000E+00  0.13060151406E+03  0.13060151416E+03  0.50400001928E-02 0.  1.
       -1   -1    0    0    0  501  0.00000000000E+00  0.00000000000E+00 -0.93824398793E+03  0.93824398794E+03  0.50400001928E-02 0. -1.
    10030    2    1    2    0    0  0.00000000000E+00  0.00000000000E+00 -0.80764247387E+03  0.10688455021E+04  0.70010309367E+03 0.  0.
        5    1    3    3  502    0  0.17288237658E+03 -0.16285911394E+03 -0.11300893836E+02  0.23782600220E+03  0.46999998093E+01 0.  1.
       -5    1    3    3    0  502 -0.17288237658E+03  0.16285911394E+03 -0.79634158003E+03  0.83101949990E+03  0.46999998093E+01 0. -1.
</event>
<event>
 5   0  0.2006362E-02  0.6981196E+03  0.7818609E-02  0.9720453E-01
       -2   -1    0    0    0  501  0.00000000000E+00  0.00000000000E+00  0.13872815929E+03  0.13872815932E+03  0.25500000920E-02 0.  1.
        2   -1    0    0  501    0  0.00000000000E+00  0.00000000000E+00 -0.87828416357E+03  0.87828416357E+03  0.25500000920E-02 0. -1.
    10030    2    1    2    0    0  0.00000000000E+00  0.00000000000E+00 -0.73955600427E+03  0.10170123229E+04  0.69811960397E+03 0.  0.
        4    1    3    3  502    0  0.11983406420E+03  0.17629014811E+02  0.10712855692E+03  0.16170691301E+03  0.12699999809E+01 0.  1.
       -4    1    3    3    0  502 -0.11983406420E+03 -0.17629014811E+02 -0.84668456119E+03  0.85530540988E+03  0.12699999809E+01 0. -1.
</event>
<event>
 5   0  0.2006362E-02  0.6826944E+03  0.7818609E-02  0.9747293E-01
        2   -1    0    0  501    0  0.00000000000E+00  0.00000000000E+00  0.84088053854E+03  0.84088053855E+03  0.25500000920E-02 0. -1.
       -2   -1    0    0    0  501  0.00000000000E+00  0.00000000000E+00 -0.13856654488E+03  0.13856654491E+03  0.25500000920E-02 0.  1.
    10030    2    1    2    0    0  0.00000000000E+00  0.00000000000E+00  0.70231399366E+03  0.97944708345E+03  0.68269439986E+03 0.  0.
        4    1    3    3  502    0  0.17426992712E+03 -0.23915172934E+03  0.59527481435E+03  0.66476858729E+03  0.12699999809E+01 0.  1.
       -4    1    3    3    0  502 -0.17426992712E+03  0.23915172934E+03  0.10703917931E+03  0.31467849617E+03  0.12699999809E+01 0. -1.
</event>
<event>
 5   0  0.1948138E-02  0.6813289E+03  0.7818609E-02  0.9749706E-01
       -2   -1    0    0    0  501  0.00000000000E+00  0.00000000000E+00  0.12237669534E+03  0.12237669536E+03  0.25500000920E-02 0. -1.
        2   -1    0    0  501    0  0.00000000000E+00  0.00000000000E+00 -0.94831987905E+03  0.94831987906E+03  0.25500000920E-02 0.  1.
    10030    2    1    2    0    0  0.00000000000E+00  0.00000000000E+00 -0.82594318372E+03  0.10706965744E+04  0.68132885727E+03 0.  0.
        3    1    3    3  502    0 -0.90365588390E+02  0.29494582519E+03 -0.64012160642E+03  0.71057347303E+03  0.10100000352E+00 0.  1.
       -3    1    3    3    0  502  0.90365588390E+02 -0.29494582519E+03 -0.18582157730E+03  0.36012310139E+03  0.10100000352E+00 0. -1.
</event>
<event>
 5   0  0.1226303E-02  0.6942988E+03  0.7818609E-02  0.9727032E-01
        1   -1    0    0  501    0  0.00000000000E+00  0.00000000000E+00  0.42800014228E+03  0.42800014231E+03  0.50400001928E-02 0. -1.
       -1   -1    0    0    0  501  0.00000000000E+00  0.00000000000E+00 -0.28157167120E+03  0.28157167124E+03  0.50400001928E-02 0.  1.
    10030    2    1    2    0    0  0.00000000000E+00  0.00000000000E+00  0.14642847109E+03  0.70957181356E+03  0.69429882720E+03 0.  0.
        4    1    3    3  502    0 -0.18401587996E+03  0.18012115459E+03  0.31115678707E+03  0.40388814472E+03  0.12699999809E+01 0. -1.
       -4    1    3    3    0  502  0.18401587996E+03 -0.18012115459E+03 -0.16472831598E+03  0.30568366884E+03  0.12699999809E+01 0.  1.
</event>
<event>
 5   0  0.2006362E-02  0.6905615E+03  0.7818609E-02  0.9733511E-01
       -2   -1    0    0    0  501  0.00000000000E+00  0.00000000000E+00  0.10959084742E+03  0.10959084745E+03  0.25500000920E-02 0. -1.
        2   -1    0    0  501    0  0.00000000000E+00  0.00000000000E+00 -0.10878536181E+04  0.10878536181E+04  0.25500000920E-02 0.  1.
    10030    2    1    2    0    0  0.00000000000E+00  0.00000000000E+00 -0.97826277071E+03  0.11974444656E+04  0.69056151037E+03 0.  0.
        4    1    3    3  502    0 -0.73572674696E+02 -0.33444230929E+03 -0.56575428364E+03  0.66131998236E+03  0.12699999809E+01 0.  1.
       -4    1    3    3    0  502  0.73572674696E+02  0.33444230929E+03 -0.41250848707E+03  0.53612448322E+03  0.12699999809E+01 0. -1.
</event>
<event>
 5   0  0.1226303E-02  0.7099120E+03  0.7818609E-02  0.9700430E-01
       -1   -1    0    0    0  501  0.00000000000E+00  0.00000000000E+00  0.11060174288E+03  0.11060174300E+03  0.50400001928E-02 0.  1.
        1   -1    0    0  501    0  0.00000000000E+00  0.00000000000E+00 -0.11391662714E+04  0.11391662714E+04  0.50400001928E-02 0. -1.
    10030    2    1    2    0    0  0.00000000000E+00  0.00000000000E+00 -0.10285645285E+04  0.12497680144E+04  0.70991203718E+03 0.  0.
        4    1    3    3  502    0 -0.90962052147E+02 -0.14607897770E+03 -0.10608148645E+04  0.10746827217E+04  0.12699999809E+01 0. -1.
       -4    1    3    3    0  502  0.90962052147E+02  0.14607897770E+03  0.32250335981E+02  0.17508529272E+03  0.12699999809E+01 0.  1.
</event>
<event>
 5   0  0.1909053E-02  0.7016768E+03  0.7818609E-02  0.9714369E-01
        2   -1    0    0  501    0  0.00000000000E+00  0.00000000000E+00  0.61016994216E+03  0.61016994216E+03  0.25500000920E-02 0. -1.
       -2   -1    0    0    0  501  0.00000000000E+00  0.00000000000E+00 -0.20172675002E+03  0.20172675003E+03  0.25500000920E-02 0.  1.
    10030    2    1    2    0    0  0.00000000000E+00  0.00000000000E+00  0.40844319214E+03  0.81189669220E+03  0.70167684698E+03 0.  0.
        1    1    3    3  502    0  0.24823608852E+03  0.23096306615E+03  0.99939766816E+02  0.35348698786E+03  0.50400001928E-02 0. -1.
       -1    1    3    3    0  502 -0.24823608852E+03 -0.23096306615E+03  0.30850342532E+03  0.45840970434E+03  0.50400001928E-02 0.  1.
</event>
<event>
 5   0  0.1973067E-02  0.6982902E+03  0.7818609E-02  0.9720161E-01
       -2   -1    0    0    0  501  0.00000000000E+00  0.00000000000E+00  0.86434621226E+02  0.86434621264E+02  0.25500000920E-02 0.  1.
        2   -1    0    0  501    0  0.00000000000E+00  0.00000000000E+00 -0.14103411707E+04  0.14103411707E+04  0.25500000920E-02 0. -1.
    10030    2    1    2    0    0  0.00000000000E+00  0.00000000000E+00 -0.13239065495E+04  0.14967757920E+04  0.69829021165E+03 0.  0.
        5    1    3    3  502    0 -0.16559169477E+03  0.11482052143E+03 -0.50868356478E+02  0.20787987206E+03  0.46999998093E+01 0.  1.
       -5    1    3    3    0  502  0.16559169477E+03 -0.11482052143E+03 -0.12730381930E+04  0.12888959199E+04  0.46999998093E+01 0. -1.
</event>
<event>
 5   0  0.1226303E-02  0.6972954E+03  0.7818609E-02  0.9721869E-01
        1   -1    0    0  501    0  0.00000000000E+00  0.00000000000E+00  0.40494590998E+03  0.40494591001E+03  0.50400001928E-02 0.  1.
       -1   -1    0    0    0  501  0.00000000000E+00  0.00000000000E+00 -0.30017642917E+03  0.30017642921E+03  0.50400001928E-02 0. -1.
    10030    2    1    2    0    0  0.00000000000E+00  0.00000000000E+00  0.10476948081E+03  0.70512233922E+03  0.69729539591E+03 0.  0.
        4    1    3    3  502    0 -0.20251105707E+03 -0.10089017891E+03 -0.21585497782E+03  0.31270519789E+03  0.12699999809E+01 0. -1.
       -4    1    3    3    0  502  0.20251105707E+03  0.10089017891E+03  0.32062445863E+03  0.39241714133E+03  0.12699999809E+01 0.  1.
</event>
<event>
 5   0  0.1257442E-02  0.6936401E+03  0.7818609E-02  0.9728171E-01
       -1   -1    0    0    0  501  0.00000000000E+00  0.00000000000E+00  0.20538536201E+03  0.20538536207E+03  0.50400001928E-02 0. -1.
        1   -1    0    0  501    0  0.00000000000E+00  0.00000000000E+00 -0.58565100292E+03  0.58565100294E+03  0.50400001928E-02 0.  1.
    10030    2    1    2    0    0  0.00000000000E+00  0.00000000000E+00 -0.38026564090E+03  0.79103636501E+03  0.69364008904E+03 0.  0.
        1    1    3    3  502    0  0.75220813933E+02  0.33037780487E+03 -0.10573855150E+03  0.35494831468E+03  0.50400001928E-02 0. -1.
       -1    1    3    3    0  502 -0.75220813933E+02 -0.33037780487E+03 -0.27452708940E+03  0.43608805033E+03  0.50400001928E-02 0.  1.
</event>
<event>
 5   0  0.1226303E-02  0.6983689E+03  0.7818609E-02  0.9720026E-01
        1   -1    0    0  501    0  0.00000000000E+00  0.00000000000E+00  0.45769133790E+03  0.45769133793E+03  0.50400001928E-02 0.  1.
       -1   -1    0    0    0  501  0.00000000000E+00  0.00000000000E+00 -0.26640178531E+03  0.26640178536E+03  0.50400001928E-02 0. -1.
    10030    2    1    2    0    0  0.00000000000E+00  0.00000000000E+00  0.19128955259E+03  0.72409312328E+03  0.69836892704E+03 0.  0.
        4    1    3    3  502    0 -0.84611783511E+02  0.24094806379E+03 -0.15127224542E+03  0.29681648958E+03  0.12699999809E+01 0. -1.
       -4    1    3    3    0  502  0.84611783511E+02 -0.24094806379E+03  0.34256179801E+03  0.42727663370E+03  0.12699999809E+01 0.  1.
</event>
<event>
 5   0  0.2006362E-02  0.7032875E+03  0.7818609E-02  0.9711627E-01
       -2   -1    0    0    0  501  0.00000000000E+00  0.00000000000E+00  0.72929988913E+02  0.72929988958E+02  0.25500000920E-02 0.  1.
        2   -1    0    0  501    0  0.00000000000E+00  0.00000000000E+00 -0.16955073618E+04  0.16955073618E+04  0.25500000920E-02 0. -1.
    10030    2    1    2    0    0  0.00000000000E+00  0.00000000000E+00 -0.16225773729E+04  0.17684373508E+04  0.70328751771E+03 0.  0.
        4    1    3    3  502    0  0.27966730161E+03  0.14309453881E+03 -0.12085674583E+04  0.12487300592E+04  0.12699999809E+01 0. -1.
       -4    1    3    3    0  502 -0.27966730161E+03 -0.14309453881E+03 -0.41400991467E+03  0.51970729163E+03  0.12699999809E+01 0.  1.
</event>
<event>
 5   0  0.1257442E-02  0.7055083E+03  0.7818609E-02  0.9707858E-01
       -1   -1    0    0    0  501  0.00000000000E+00  0.00000000000E+00  0.44968803942E+03  0.44968803945E+03  0.50400001928E-02 0.  1.
        1   -1    0    0  501    0  0.00000000000E+00  0.00000000000E+00 -0.27671516983E+03  0.27671516987E+03  0.50400001928E-02 0. -1.
    10030    2    1    2    0    0  0.00000000000E+00  0.00000000000E+00  0.17297286960E+03  0.72640320932E+03  0.70550833368E+03 0.  0.
        1    1    3    3  502    0 -0.11306470206E+03 -0.33055433892E+03  0.13677669923E+03  0.37517684271E+03  0.50400001928E-02 0.  1.
       -1    1    3    3    0  502  0.11306470206E+03  0.33055433892E+03  0.36196170366E+02  0.35122636661E+03  0.50400001928E-02 0. -1.
</event>
<event>
 5   0  0.1909053E-02  0.7032790E+03  0.7818609E-02  0.9711641E-01
        2   -1    0    0  501    0  0.00000000000E+00  0.00000000000E+00  0.50834230515E+03  0.50834230516E+03  0.25500000920E-02 0. -1.
       -2   -1    0    0    0  501  0.00000000000E+00  0.00000000000E+00 -0.24324226954E+03  0.24324226956E+03  0.25500000920E-02 0.  1.
    10030    2    1    2    0    0  0.00000000000E+00  0.00000000000E+00  0.26510003561E+03  0.75158457471E+03  0.70327899447E+03 0.  0.
        1    1    3    3  502    0  0.80992444413E+02  0.65528747124E+02 -0.22637035265E+03  0.24919335732E+03  0.50400001928E-02 0.  1.
       -1    1    3    3    0  502 -0.80992444413E+02 -0.65528747124E+02  0.49147038826E+03  0.50239121739E+03  0.50400001928E-02 0. -1.
</event>
<event>
 5   0  0.7947250E-03  0.6912378E+03  0.7818609E-02  0.9732335E-01
        3   -1    0    0  501    0  0.00000000000E+00  0.00000000000E+00  0.46253942532E+03  0.46253943634E+03  0.10100000352E+00 0. -1.
       -3   -1    0    0    0  501  0.00000000000E+00  0.00000000000E+00 -0.25825349217E+03  0.25825351192E+03  0.10100000352E+00 0.  1.
    10030    2    1    2    0    0  0.00000000000E+00  0.00000000000E+00  0.20428593315E+03  0.72079294826E+03  0.69123782577E+03 0.  0.
        2    1    3    3  502    0 -0.19835895362E+03  0.17577288664E+03  0.33346123904E+03  0.42595631244E+03  0.25500000920E-02 0. -1.
       -2    1    3    3    0  502  0.19835895362E+03 -0.17577288664E+03 -0.12917530589E+03  0.29483663582E+03  0.25500000920E-02 0.  1.
</event>
<event>
 5   0  0.1237686E-02  0.7043139E+03  0.7818609E-02  0.9709883E-01
        1   -1    0    0  501    0  0.00000000000E+00  0.00000000000E+00  0.11452338858E+04  0.11452338858E+04  0.50400001928E-02 0. -1.
       -1   -1    0    0    0  501  0.00000000000E+00  0.00000000000E+00 -0.10828751149E+03  0.10828751161E+03  0.50400001928E-02 0.  1.
    10030    2    1    2    0    0  0.00000000000E+00  0.00000000000E+00  0.10369463743E+04  0.12535213974E+04  0.70431392900E+03 0.  0.
        5    1    3    3  502    0  0.27464091558E+03  0.10632864512E+03  0.86201627402E+03  0.91094871423E+03  0.46999998093E+01 0. -1.
       -5    1    3    3    0  502 -0.27464091558E+03 -0.10632864512E+03  0.17493010030E+03  0.34257268320E+03  0.46999998093E+01 0.  1.
</event>
<event>
 5   0  0.1948138E-02  0.7026206E+03  0.7818609E-02  0.9712761E-01
        2   -1    0    0  501    0  0.00000000000E+00  0.00000000000E+00  0.71421324390E+03  0.71421324390E+03  0.25500000920E-02 0.  1.
       -2   -1    0    0    0  501  0.00000000000E+00  0.00000000000E+00 -0.17280402657E+03  0.17280402659E+03  0.25500000920E-02 0. -1.
    10030    2    1    2    0    0  0.00000000000E+00  0.00000000000E+00  0.54140921733E+03  0.88701727049E+03  0.70262059288E+03 0.  0.
        3    1    3    3  502    0 -0.19561664554E+03  0.29098706616E+03  0.24305831114E+03  0.42663414948E+03  0.10100000352E+00 0. -1.
       -3    1    3    3    0  502  0.19561664554E+03 -0.29098706616E+03  0.29835090620E+03  0.46038312101E+03  0.10100000352E+00 0.  1.
</event>
<event>
 5   0  0.1257442E-02  0.6900185E+03  0.7818609E-02  0.9734456E-01
       -1   -1    0    0    0  501  0.00000000000E+00  0.00000000000E+00  0.85102160090E+02  0.85102160240E+02  0.50400001928E-02 0. -1.
        1   -1    0    0  501    0  0.00000000000E+00  0.00000000000E+00 -0.13986881055E+04  0.13986881055E+04  0.50400001928E-02 0.  1.
    10030    2    1    2    0    0  0.00000000000E+00  0.00000000000E+00 -0.13135859454E+04  0.14837902657E+04  0.69001849014E+03 0.  0.
        1    1    3    3  502    0 -0.33419250085E+03 -0.76431755017E+02 -0.74021315704E+03  0.81574625876E+03  0.50400001928E-02 0. -1.
       -1    1    3    3    0  502  0.33419250085E+03  0.76431755017E+02 -0.57337278833E+03  0.66804400695E+03  0.50400001928E-02 0.  1.
</event>
<event>
 5   0  0.1237686E-02  0.6915178E+03  0.7818609E-02  0.9731849E-01
       -1   -1    0    0    0  501  0.00000000000E+00  0.00000000000E+00  0.17748462811E+04  0.17748462811E+04  0.50400001928E-02 0.  1.
        1   -1    0    0  501    0  0.00000000000E+00  0.00000000000E+00 -0.67357506208E+02  0.67357506396E+02  0.50400001928E-02 0. -1.
    10030    2    1    2    0    0  0.00000000000E+00  0.00000000000E+00  0.17074887749E+04  0.18422037875E+04  0.69151780767E+03 0.  0.
        5    1    3    3  502    0 -0.18090770103E+03 -0.29019584507E+03  0.98921358817E+03  0.10466646253E+04  0.46999998093E+01 0.  1.
       -5    1    3    3    0  502  0.18090770103E+03  0.29019584507E+03  0.71827518676E+03  0.79553916227E+03  0.46999998093E+01 0. -1.
</event>
<event>
 5   0  0.7947250E-03  0.7007653E+03  0.7818609E-02  0.9715924E-01
        3   -1    0    0  501    0  0.00000000000E+00  0.00000000000E+00  0.72734403033E+02  0.72734473158E+02  0.10100000352E+00 0.  1.
       -3   -1    0    0    0  501  0.00000000000E+00  0.00000000000E+00 -0.16878935413E+04  0.16878935443E+04  0.10100000352E+00 0. -1.
    10030    2    1    2    0    0  0.00000000000E+00  0.00000000000E+00 -0.16151591382E+04  0.17606280174E+04  0.70076527739E+03 0.  0.
        4    1    3    3  502    0 -0.85244716129E+02 -0.13042494397E+03 -0.19102595702E+02  0.15698359692E+03  0.12699999809E+01 0.  1.
       -4    1    3    3    0  502  0.85244716129E+02  0.13042494397E+03 -0.15960565425E+04  0.16036444205E+04  0.12699999809E+01 0. -1.
</event>
<event>
 5   0  0.1973067E-02  0.7000024E+03  0.7818609E-02  0.9717228E-01
        2   -1    0    0  501    0  0.00000000000E+00  0.00000000000E+00  0.35316506507E+03  0.35316506507E+03  0.25500000920E-02 0.  1.
       -2   -1    0    0    0  501  0.00000000000E+00  0.00000000000E+00 -0.34686566382E+03  0.34686566383E+03  0.25500000920E-02 0. -1.
    10030    2    1    2    0    0  0.00000000000E+00  0.00000000000E+00  0.62994012477E+01  0.70003072890E+03  0.70000238496E+03 0.  0.
        5    1    3    3  502    0  0.34499461268E+03  0.48319398108E+02 -0.30358337990E+02  0.34971383400E+03  0.46999998093E+01 0. -1.
       -5    1    3    3    0  502 -0.34499461268E+03 -0.48319398108E+02  0.36657739238E+02  0.35031689490E+03  0.46999998093E+01 0.  1.
</event>
<event>
 5   0  0.1257442E-02  0.7070033E+03  0.7818609E-02  0.9705330E-01
       -1   -1    0    0    0  501  0.00000000000E+00  0.00000000000E+00  0.54904917411E+02  0.54904917643E+02  0.50400001928E-02 0. -1.
        1   -1    0    0  501    0  0.00000000000E+00  0.00000000000E+00 -0.22759967215E+04  0.22759967215E+04  0.50400001928E-02 0.  1.
    10030    2    1    2    0    0  0.00000000000E+00  0.00000000000E+00 -0.22210918041E+04  0.23309016392E+04  0.70700328797E+03 0.  0.
        1    1    3    3  502    0 -0.19411448274E+03 -0.27397430225E+03 -0.14750118679E+04  0.15127466283E+04  0.50400001928E-02 0.  1.
       -1    1    3    3    0  502  0.19411448274E+03  0.27397430225E+03 -0.74607993615E+03  0.81815501090E+03  0.50400001928E-02 0. -1.
</event>
<event>
 5   0  0.1237686E-02  0.7020671E+03  0.7818609E-02  0.9713704E-01
        1   -1    0    0  501    0  0.00000000000E+00  0.00000000000E+00  0.54850332200E+03  0.54850332202E+03  0.50400001928E-02 0.  1.
       -1   -1    0    0    0  501  0.00000000000E+00  0.00000000000E+00 -0.22465597811E+03  0.22465597817E+03  0.50400001928E-02 0. -1.
    10030    2    1    2    0    0  0.00000000000E+00  0.00000000000E+00  0.32384734389E+03  0.77315930019E+03  0.70206709175E+03 0.  0.
        5    1    3    3  502    0  0.13710848245E+03 -0.29709377428E+03  0.22020080886E+02  0.32797929910E+03  0.46999998093E+01 0.  1.
       -5    1    3    3    0  502 -0.13710848245E+03  0.29709377428E+03  0.30182726300E+03  0.44518000109E+03  0.46999998093E+01 0. -1.
</event>
<event>
 5   0  0.1197259E-02  0.7097668E+03  0.7818609E-02  0.9700674E-01
       -1   -1    0    0    0  501  0.00000000000E+00  0.00000000000E+00  0.58586809426E+03  0.58586809428E+03  0.50400001928E-02 0.  1.
        1   -1    0    0  501    0  0.00000000000E+00  0.00000000000E+00 -0.21496684493E+03  0.21496684499E+03  0.50400001928E-02 0. -1.
    10030    2    1    2    0    0  0.00000000000E+00  0.00000000000E+00  0.37090124933E+03  0.80083493927E+03  0.70976676676E+03 0.  0.
        3    1    3    3  502    0 -0.26595900978E+03 -0.50263462633E+02  0.44442500926E+03  0.52035969253E+03  0.10100000352E+00 0.  1.
       -3    1    3    3    0  502  0.26595900978E+03  0.50263462633E+02 -0.73523759929E+02  0.28047524674E+03  0.10100000352E+00 0. -1.
</event>
<event>
 5   0  0.2006362E-02  0.6992152E+03  0.7818609E-02  0.9718575E-01
       -2   -1    0    0    0  501  0.00000000000E+00  0.00000000000E+00  0.53168386361E+02  0.53168386422E+02  0.25500000920E-02 0.  1.
        2   -1    0    0  501    0  0.00000000000E+00  0.00000000000E+00 -0.22988370819E+04  0.22988370819E+04  0.25500000920E-02 0. -1.
    10030    2    1    2    0    0  0.00000000000E+00  0.00000000000E+00 -0.22456686956E+04  0.23520054684E+04  0.69921515495E+03 0.  0.
        4    1    3    3  502    0  0.23674750867E+03 -0.14340748679E+03 -0.18412099993E+04  0.18618998267E+04  0.12699999809E+01 0. -1.
       -4    1    3    3    0  502 -0.23674750867E+03  0.14340748679E+03 -0.40445869628E+03  0.49010564170E+03  0.12699999809E+01 0.  1.
</event>
<event>
 5   0  0.7947250E-03  0.7245921E+03  0.7818609E-02  0.9676077E-01
        4   -1    0    0  501    0  0.00000000000E+00  0.00000000000E+00  0.23863174769E+03  0.23863512714E+03  0.12699999809E+01 0.  1.
       -4   -1    0    0    0  501  0.00000000000E+00  0.00000000000E+00 -0.55003796832E+03  0.55003943449E+03  0.12699999809E+01 0. -1.
    10030    2    1    2    0    0  0.00000000000E+00  0.00000000000E+00 -0.31140622063E+03  0.78867456162E+03  0.72459211278E+03 0.  0.
        5    1    3    3  502    0 -0.40397578275E+02 -0.35998352338E+03 -0.15131668050E+03  0.39260530973E+03  0.46999998093E+01 0. -1.
       -5    1    3    3    0  502  0.40397578275E+02  0.35998352338E+03 -0.16008954013E+03  0.39606925189E+03  0.46999998093E+01 0.  1.
</event>
<event>
 5   0  0.1237686E-02  0.6950695E+03  0.7818609E-02  0.9725701E-01
       -1   -1    0    0    0  501  0.00000000000E+00  0.00000000000E+00  0.10328326161E+03  0.10328326173E+03  0.50400001928E-02 0. -1.
        1   -1    0    0  501    0  0.00000000000E+00  0.00000000000E+00 -0.11694091764E+04  0.11694091764E+04  0.50400001928E-02 0.  1.
    10030    2    1    2    0    0  0.00000000000E+00  0.00000000000E+00 -0.10661259148E+04  0.12726924381E+04  0.69506947560E+03 0.  0.
        5    1    3    3  502    0  0.29885751854E+03 -0.58445559514E+02 -0.83959825226E+03  0.89312877851E+03  0.46999998093E+01 0.  1.
       -5    1    3    3    0  502 -0.29885751854E+03  0.58445559514E+02 -0.22652766250E+03  0.37956365960E+03  0.46999998093E+01 0. -1.
</event>
<event>
 5   0  0.1909053E-02  0.6990757E+03  0.7818609E-02  0.9718814E-01
       -2   -1    0    0    0  501  0.00000000000E+00  0.00000000000E+00  0.15182153281E+03  0.15182153283E+03  0.25500000920E-02 0. -1.
        2   -1    0    0  501    0  0.00000000000E+00  0.00000000000E+00 -0.80473899882E+03  0.80473899882E+03  0.25500000920E-02 0.  1.
    10030    2    1    2    0    0  0.00000000000E+00  0.00000000000E+00 -0.65291746601E+03  0.95656053165E+03  0.69907569925E+03 0.  0.
        1    1    3    3  502    0  0.33359494539E+03  0.22802585042E+02 -0.46580713033E+03  0.57339500186E+03  0.50400001928E-02 0.  1.
       -1    1    3    3    0  502 -0.33359494539E+03 -0.22802585042E+02 -0.18711033569E+03  0.38316552979E+03  0.50400001928E-02 0. -1.
</event>
<event>
 5   0  0.2006362E-02  0.6964443E+03  0.7818609E-02  0.9723332E-01
        2   -1    0    0  501    0  0.00000000000E+00  0.00000000000E+00  0.68057880162E+03  0.68057880162E+03  0.25500000920E-02 0.  1.
       -2   -1    0    0    0  501  0.00000000000E+00  0.00000000000E+00 -0.17816990394E+03  0.17816990396E+03  0.25500000920E-02 0. -1.
    10030    2    1    2    0    0  0.00000000000E+00  0.00000000000E+00  0.50240889767E+03  0.85874870559E+03  0.69644428269E+03 0.  0.
        4    1    3    3  502    0 -0.28130034522E+03 -0.63970966851E+02  0.10729006781E+02  0.28868476459E+03  0.12699999809E+01 0. -1.
       -4    1    3    3    0  502  0.28130034522E+03  0.63970966851E+02  0.49167989089E+03  0.57006394100E+03  0.12699999809E+01 0.  1.
</event>
<event>
 5   0  0.2006362E-02  0.7012057E+03  0.7818609E-02  0.9715172E-01
        2   -1    0    0  501    0  0.00000000000E+00  0.00000000000E+00  0.11791092746E+04  0.11791092746E+04  0.25500000920E-02 0.  1.
       -2   -1    0    0    0  501  0.00000000000E+00  0.00000000000E+00 -0.10425019831E+03  0.10425019834E+03  0.25500000920E-02 0. -1.
    10030    2    1    2    0    0  0.00000000000E+00  0.00000000000E+00  0.10748590763E+04  0.12833594730E+04  0.70120574937E+03 0.  0.
        4    1    3    3  502    0  0.34006270022E+03 -0.84619994462E+02  0.51758375363E+03  0.62505818807E+03  0.12699999809E+01 0. -1.
       -4    1    3    3    0  502 -0.34006270022E+03  0.84619994462E+02  0.55727532269E+03  0.65830128492E+03  0.12699999809E+01 0.  1.
</event>
<event>
 5   0  0.2026361E-02  0.6954479E+03  0.7818609E-02  0.9725049E-01
        2   -1    0    0  501    0  0.00000000000E+00  0.00000000000E+00  0.27202920229E+03  0.27202920230E+03  0.25500000920E-02 0.  1.
       -2   -1    0    0    0  501  0.00000000000E+00  0.00000000000E+00 -0.44448154012E+03  0.44448154013E+03  0.25500000920E-02 0. -1.
    10030    2    1    2    0    0  0.00000000000E+00  0.00000000000E+00 -0.17245233784E+03  0.71651074243E+03  0.69544793852E+03 0.  0.
        2    1    3    3  502    0  0.25870146568E+03  0.20690854383E+03 -0.19513660758E+03  0.38446832051E+03  0.25500000920E-02 0. -1.
       -2    1    3    3    0  502 -0.25870146568E+03 -0.20690854383E+03  0.22684269746E+02  0.33204242192E+03  0.25500000920E-02 0.  1.
</event>
<event>
 5   0  0.1948138E-02  0.6957576E+03  0.7818609E-02  0.9724515E-01
       -2   -1    0    0    0  501  0.00000000000E+00  0.00000000000E+00  0.15336458464E+03  0.15336458466E+03  0.25500000920E-02 0.  1.
        2   -1    0    0  501    0  0.00000000000E+00  0.00000000000E+00 -0.78909782772E+03  0.78909782773E+03  0.25500000920E-02 0. -1.
    10030    2    1    2    0    0  0.00000000000E+00  0.00000000000E+00 -0.63573324308E+03  0.94246241239E+03  0.69575760319E+03 0.  0.
        3    1    3    3  502    0  0.57993370459E+02 -0.65519493349E+02 -0.77394861006E+03  0.77887899974E+03  0.10100000352E+00 0. -1.
       -3    1    3    3    0  502 -0.57993370459E+02  0.65519493349E+02  0.13821536697E+03  0.16358341265E+03  0.10100000352E+00 0.  1.
</event>
<event>
 5   0  0.1197259E-02  0.6871937E+03  0.7818609E-02  0.9739387E-01
        1   -1    0    0  501    0  0.00000000000E+00  0.00000000000E+00  0.17720042364E+03  0.17720042372E+03  0.50400001928E-02 0. -1.
       -1   -1    0    0    0  501  0.00000000000E+00  0.00000000000E+00 -0.66624448507E+03  0.66624448509E+03  0.50400001928E-02 0.  1.
    10030    2    1    2    0    0  0.00000000000E+00  0.00000000000E+00 -0.48904406143E+03  0.84344490881E+03  0.68719372827E+03 0.  0.
        3    1    3    3  502    0 -0.78490801642E+02 -0.12231643210E+03  0.13761718074E+03  0.20015147798E+03  0.10100000352E+00 0. -1.
       -3    1    3    3    0  502  0.78490801642E+02  0.12231643210E+03 -0.62666124217E+03  0.64329343082E+03  0.10100000352E+00 0.  1.
</event>
<event>
 5   0  0.1226303E-02  0.6974127E+03  0.7818609E-02  0.9721667E-01
       -1   -1    0    0    0  501  0.00000000000E+00  0.00000000000E+00  0.92384396812E+02  0.92384396950E+02  0.50400001928E-02 0. -1.
        1   -1    0    0  501    0  0.00000000000E+00  0.00000000000E+00 -0.13161975561E+04  0.13161975561E+04  0.50400001928E-02 0.  1.
    10030    2    1    2    0    0  0.00000000000E+00  0.00000000000E+00 -0.12238131593E+04  0.14085819531E+04  0.69741269679E+03 0.  0.
        4    1    3    3  502    0  0.94837891095E+02  0.24444928482E+03 -0.14761211435E+03  0.30089969697E+03  0.12699999809E+01 0. -1.
       -4    1    3    3    0  502 -0.94837891095E+02 -0.24444928482E+03 -0.10762010449E+04  0.11076822561E+04  0.12699999809E+01 0.  1.
</event>
<event>
 5   0  0.1948138E-02  0.6945162E+03  0.7818609E-02  0.9726656E-01
        2   -1    0    0  501    0  0.00000000000E+00  0.00000000000E+00  0.10903414677E+04  0.10903414677E+04  0.25500000920E-02 0. -1.
       -2   -1    0    0    0  501  0.00000000000E+00  0.00000000000E+00 -0.11059672776E+03  0.11059672779E+03  0.25500000920E-02 0.  1.
    10030    2    1    2    0    0  0.00000000000E+00  0.00000000000E+00  0.97974473994E+03  0.12009381955E+04  0.69451623016E+03 0.  0.
        3    1    3    3  502    0  0.90253003967E+01 -0.14984266916E+03 -0.51593029049E+02  0.15873289639E+03  0.10100000352E+00 0.  1.
       -3    1    3    3    0  502 -0.90253003967E+01  0.14984266916E+03  0.10313377690E+04  0.10422052991E+04  0.10100000352E+00 0. -1.
</event>
<event>
 5   0  0.2026361E-02  0.7038392E+03  0.7818609E-02  0.9710689E-01
        2   -1    0    0  501    0  0.00000000000E+00  0.00000000000E+00  0.23469556940E+03  0.23469556942E+03  0.25500000920E-02 0. -1.
       -2   -1    0    0    0  501  0.00000000000E+00  0.00000000000E+00 -0.52769379657E+03  0.52769379658E+03  0.25500000920E-02 0.  1.
    10030    2    1    2    0    0  0.00000000000E+00  0.00000000000E+00 -0.29299822716E+03  0.76238936599E+03  0.70383917500E+03 0.  0.
        2    1    3    3  502    0  0.23321104125E+03  0.18090467423E+03 -0.35410257005E+03  0.46097995731E+03  0.25500000920E-02 0.  1.
       -2    1    3    3    0  502 -0.23321104125E+03 -0.18090467423E+03  0.61104342884E+02  0.30140940869E+03  0.25500000920E-02 0. -1.
</event>
<event>
 5   0  0.1257442E-02  0.7028711E+03  0.7818609E-02  0.9712335E-01
       -1   -1    0    0    0  501  0.00000000000E+00  0.00000000000E+00  0.58152245053E+02  0.58152245272E+02  0.50400001928E-02 0. -1.
        1   -1    0    0  501    0  0.00000000000E+00  0.00000000000E+00 -0.21238550003E+04  0.21238550003E+04  0.50400001928E-02 0.  1.
    10030    2    1    2    0    0  0.00000000000E+00  0.00000000000E+00 -0.20657027552E+04  0.21820072456E+04  0.70287107403E+03 0.  0.
        1    1    3    3  502    0  0.12984103675E+02 -0.28258138099E+03 -0.16802262103E+04  0.17038723372E+04  0.50400001928E-02 0.  1.
       -1    1    3    3    0  502 -0.12984103675E+02  0.28258138099E+03 -0.38547654493E+03  0.47813490832E+03  0.50400001928E-02 0. -1.
</event>
<event>
 5   0  0.1909053E-02  0.7142901E+03  0.7818609E-02  0.9693102E-01
       -2   -1    0    0    0  501  0.00000000000E+00  0.00000000000E+00  0.26881627201E+03  0.26881627202E+03  0.25500000920E-02 0.  1.
        2   -1    0    0  501    0  0.00000000000E+00  0.00000000000E+00 -0.47449729479E+03  0.47449729480E+03  0.25500000920E-02 0. -1.
    10030    2    1    2    0    0  0.00000000000E+00  0.00000000000E+00 -0.20568102278E+03  0.74331356682E+03  0.71429011997E+03 0.  0.
        1    1    3    3  502    0  0.18966951134E+03  0.89277060963E+02 -0.40373933803E+03  0.45491798188E+03  0.50400001928E-02 0. -1.
       -1    1    3    3    0  502 -0.18966951134E+03 -0.89277060963E+02  0.19805831524E+03  0.28839558493E+03  0.50400001928E-02 0.  1.
</event>
<event>
 5   0  0.1223742E-02  0.7052220E+03  0.7818609E-02  0.9708343E-01
        1   -1    0    0  501    0  0.00000000000E+00  0.00000000000E+00  0.56319917853E+03  0.56319917855E+03  0.50400001928E-02 0.  1.
       -1   -1    0    0    0  501  0.00000000000E+00  0.00000000000E+00 -0.22076473442E+03  0.22076473448E+03  0.50400001928E-02 0. -1.
    10030    2    1    2    0    0  0.00000000000E+00  0.00000000000E+00  0.34243444410E+03  0.78396391303E+03  0.70522199939E+03 0.  0.
        2    1    3    3  502    0 -0.22446342092E+03 -0.27189725843E+03  0.16593590770E+03  0.38967508510E+03  0.25500000920E-02 0.  1.
       -2    1    3    3    0  502  0.22446342092E+03  0.27189725843E+03  0.17649853640E+03  0.39428882793E+03  0.25500000920E-02 0. -1.
</event>
<event>
 5   0  0.1973067E-02  0.7012790E+03  0.7818609E-02  0.9715047E-01
       -2   -1    0    0    0  501  0.00000000000E+00  0.00000000000E+00  0.11426477894E+03  0.11426477897E+03  0.25500000920E-02 0.  1.
        2   -1    0    0  501    0  0.00000000000E+00  0.00000000000E+00 -0.10759925695E+04  0.10759925695E+04  0.25500000920E-02 0. -1.
    10030    2    1    2    0    0  0.00000000000E+00  0.00000000000E+00 -0.96172779053E+03  0.11902573484E+04  0.70127898332E+03 0.  0.
        5    1    3    3  502    0 -0.14162844263E+03  0.22027626008E+03 -0.85194273719E+02  0.27542766888E+03  0.46999998093E+01 0.  1.
       -5    1    3    3    0  502  0.14162844263E+03 -0.22027626008E+03 -0.87653351681E+03  0.91482967956E+03  0.46999998093E+01 0. -1.
</event>
<event>
 5   0  0.7947250E-03  0.6970981E+03  0.7818609E-02  0.9722208E-01
       -4   -1    0    0    0  501  0.00000000000E+00  0.00000000000E+00  0.23314858515E+03  0.23315204408E+03  0.12699999809E+01 0. -1.
        4   -1    0    0  501    0  0.00000000000E+00  0.00000000000E+00 -0.52106071532E+03  0.52106226302E+03  0.12699999809E+01 0.  1.
    10030    2    1    2    0    0  0.00000000000E+00  0.00000000000E+00 -0.28791213016E+03  0.75421430710E+03  0.69709814685E+03 0.  0.
        3    1    3    3  502    0  0.11986517747E+03  0.13740939356E+03  0.17743018946E+03  0.25442186334E+03  0.10100000352E+00 0. -1.
       -3    1    3    3    0  502 -0.11986517747E+03 -0.13740939356E+03 -0.46534231963E+03  0.49979244377E+03  0.10100000352E+00 0.  1.
</event>
<event>
 5   0  0.1257442E-02  0.7004821E+03  0.7818609E-02  0.9716408E-01
        1   -1    0    0  501    0  0.00000000000E+00  0.00000000000E+00  0.26971141655E+03  0.26971141660E+03  0.50400001928E-02 0. -1.
       -1   -1    0    0    0  501  0.00000000000E+00  0.00000000000E+00 -0.45481496004E+03  0.45481496007E+03  0.50400001928E-02 0.  1.
    10030    2    1    2    0    0  0.00000000000E+00  0.00000000000E+00 -0.18510354349E+03  0.72452637667E+03  0.70048208305E+03 0.  0.
        1    1    3    3  502    0  0.11239494305E+03  0.32743699176E+03 -0.37613803431E+02  0.34822751906E+03  0.50400001928E-02 0.  1.
       -1    1    3    3    0  502 -0.11239494305E+03 -0.32743699176E+03 -0.14748974006E+03  0.37629885762E+03  0.50400001928E-02 0. -1.
</event>
<event>
 5   0  0.1237686E-02  0.6998735E+03  0.7818609E-02  0.9717449E-01
        1   -1    0    0  501    0  0.00000000000E+00  0.00000000000E+00  0.15240413786E+04  0.15240413786E+04  0.50400001928E-02 0. -1.
       -1   -1    0    0    0  501  0.00000000000E+00  0.00000000000E+00 -0.80349351785E+02  0.80349351943E+02  0.50400001928E-02 0.  1.
    10030    2    1    2    0    0  0.00000000000E+00  0.00000000000E+00  0.14436920268E+04  0.16043907305E+04  0.69987352284E+03 0.  0.
        5    1    3    3  502    0  0.84358707583E+02 -0.26130231691E+03  0.12190294378E+04  0.12495799905E+04  0.46999998093E+01 0. -1.
       -5    1    3    3    0  502 -0.84358707583E+02  0.26130231691E+03  0.22466258899E+03  0.35481074005E+03  0.46999998093E+01 0.  1.
</event>
<event>
 5   0  0.1909053E-02  0.6990851E+03  0.7818609E-02  0.9718798E-01
       -2   -1    0    0    0  501  0.00000000000E+00  0.00000000000E+00  0.65768307274E+02  0.65768307324E+02  0.25500000920E-02 0.  1.
        2   -1    0    0  501    0  0.00000000000E+00  0.00000000000E+00 -0.18577335419E+04  0.18577335419E+04  0.25500000920E-02 0. -1.
    10030    2    1    2    0    0  0.00000000000E+00  0.00000000000E+00 -0.17919652346E+04  0.19235018492E+04  0.69908508915E+03 0.  0.
        1    1    3    3  502    0  0.28459956144E+03 -0.19609897285E+03 -0.10396990653E+04  0.10956394772E+04  0.50400001928E-02 0.  1.
       -1    1    3    3    0  502 -0.28459956144E+03  0.19609897285E+03 -0.75226616928E+03  0.82786237201E+03  0.50400001928E-02 0. -1.
</event>
<event>
 5   0  0.1197259E-02  0.7002890E+03  0.7818609E-02  0.9716738E-01
       -1   -1    0    0    0  501  0.00000000000E+00  0.00000000000E+00  0.19270942722E+03  0.19270942729E+03  0.50400001928E-02 0. -1.
        1   -1    0    0  501    0  0.00000000000E+00  0.00000000000E+00 -0.63619710137E+03  0.63619710139E+03  0.50400001928E-02 0.  1.
    10030    2    1    2    0    0  0.00000000000E+00  0.00000000000E+00 -0.44348767415E+03  0.82890652868E+03  0.70028902330E+03 0.  0.
        3    1    3    3  502    0  0.11996416745E+03 -0.60235123621E+02 -0.60452950502E+03  0.61925407082E+03  0.10100000352E+00 0.  1.
       -3    1    3    3    0  502 -0.11996416745E+03  0.60235123621E+02  0.16104183087E+03  0.20965245785E+03  0.10100000352E+00 0. -1.
</event>
<event>
 5   0  0.2026361E-02  0.6970744E+03  0.7818609E-02  0.9722248E-01
        2   -1    0    0  501    0  0.00000000000E+00  0.00000000000E+00  0.12683177826E+04  0.12683177826E+04  0.25500000920E-02 0.  1.
       -2   -1    0    0    0  501  0.00000000000E+00  0.00000000000E+00 -0.95778979693E+02  0.95778979727E+02  0.25500000920E-02 0. -1.
    10030    2    1    2    0    0  0.00000000000E+00  0.00000000000E+00  0.11725388029E+04  0.13640967623E+04  0.69707440970E+03 0.  0.
        2    1    3    3  502    0  0.25346066987E+03  0.21135356160E+03  0.36690978107E+03  0.49349308671E+03  0.25500000920E-02 0. -1.
       -2    1    3    3    0  502 -0.25346066987E+03 -0.21135356160E+03  0.80562902181E+03  0.87060367559E+03  0.25500000920E-02 0.  1.
</event>
<event>
 5   0  0.1226303E-02  0.6981593E+03  0.7818609E-02  0.9720385E-01
        1   -1    0    0  501    0  0.00000000000E+00  0.00000000000E+00  0.58635155154E+03  0.58635155156E+03  0.50400001928E-02 0.  1.
       -1   -1    0    0    0  501  0.00000000000E+00  0.00000000000E+00 -0.20782174333E+03  0.20782174339E+03  0.50400001928E-02 0. -1.
    10030    2    1    2    0    0  0.00000000000E+00  0.00000000000E+00  0.37852980821E+03  0.79417329495E+03  0.69815929895E+03 0.  0.
        4    1    3    3  502    0  0.27393249409E+03 -0.21601669659E+03  0.20332446062E+03  0.40378790684E+03  0.12699999809E+01 0.  1.
       -4    1    3    3    0  502 -0.27393249409E+03  0.21601669659E+03  0.17520534759E+03  0.39038538811E+03  0.12699999809E+01 0. -1.
</event>
<event>
 5   0  0.1237686E-02  0.6920127E+03  0.7818609E-02  0.9730990E-01
       -1   -1    0    0    0  501  0.00000000000E+00  0.00000000000E+00  0.29888468170E+03  0.29888468174E+03  0.50400001928E-02 0. -1.
        1   -1    0    0  501    0  0.00000000000E+00  0.00000000000E+00 -0.40055709692E+03  0.40055709696E+03  0.50400001928E-02 0.  1.
    10030    2    1    2    0    0  0.00000000000E+00  0.00000000000E+00 -0.10167241523E+03  0.69944177869E+03  0.69201266012E+03 0.  0.
        5    1    3    3  502    0  0.29385305675E+02  0.28041284952E+03  0.15182427526E+03  0.32026171005E+03  0.46999998093E+01 0. -1.
       -5    1    3    3    0  502 -0.29385305675E+02 -0.28041284952E+03 -0.25349669049E+03  0.37918006864E+03  0.46999998093E+01 0.  1.
</event>
<event>
 5   0  0.1973067E-02  0.7020912E+03  0.7818609E-02  0.9713663E-01
        2   -1    0    0  501    0  0.00000000000E+00  0.00000000000E+00  0.24635275682E+03  0.24635275684E+03  0.25500000920E-02 0. -1.
       -2   -1    0    0    0  501  0.00000000000E+00  0.00000000000E+00 -0.50022993814E+03  0.50022993815E+03  0.25500000920E-02 0.  1.
    10030    2    1    2    0    0  0.00000000000E+00  0.00000000000E+00 -0.25387718132E+03  0.74658269499E+03  0.70209123144E+03 0.  0.
        5    1    3    3  502    0  0.18375779548E+03 -0.29419641919E+03 -0.69748723085E+02  0.35384380005E+03  0.46999998093E+01 0. -1.
       -5    1    3    3    0  502 -0.18375779548E+03  0.29419641919E+03 -0.18412845823E+03  0.39273889493E+03  0.46999998093E+01 0.  1.
</event>
<event>
 5   0  0.1237686E-02  0.6848139E+03  0.7818609E-02  0.9743561E-01
       -1   -1    0    0    0  501  0.00000000000E+00  0.00000000000E+00  0.34996650487E+03  0.34996650491E+03  0.50400001928E-02 0. -1.
        1   -1    0    0  501    0  0.00000000000E+00  0.00000000000E+00 -0.33501066166E+03  0.33501066170E+03  0.50400001928E-02 0.  1.
    10030    2    1    2    0    0  0.00000000000E+00  0.00000000000E+00  0.14955843210E+02  0.68497716661E+03  0.68481387364E+03 0.  0.
        5    1    3    3  502    0 -0.65575923679E+02  0.73215516104E+02  0.33551908957E+03  0.34965105895E+03  0.46999998093E+01 0. -1.
       -5    1    3    3    0  502  0.65575923679E+02 -0.73215516104E+02 -0.32056324636E+03  0.33532610766E+03  0.46999998093E+01 0.  1.
</event>
<event>
 5   0  0.7947250E-03  0.6846364E+03  0.7818609E-02  0.9743873E-01
       -4   -1    0    0    0  501  0.00000000000E+00  0.00000000000E+00  0.69225268440E+03  0.69225384936E+03  0.12699999809E+01 0.  1.
        4   -1    0    0  501    0  0.00000000000E+00  0.00000000000E+00 -0.16927228007E+03  0.16927704422E+03  0.12699999809E+01 0. -1.
    10030    2    1    2    0    0  0.00000000000E+00  0.00000000000E+00  0.52298040432E+03  0.86153089358E+03  0.68463638327E+03 0.  0.
        1    1    3    3  502    0 -0.22609137968E+03 -0.66690012001E+02  0.57385401366E+03  0.62038157507E+03  0.50400001928E-02 0. -1.
       -1    1    3    3    0  502  0.22609137968E+03  0.66690012001E+02 -0.50873609337E+02  0.24114931851E+03  0.50400001928E-02 0.  1.
</event>
<event>
 5   0  0.1909053E-02  0.6995087E+03  0.7818609E-02  0.9718073E-01
       -2   -1    0    0    0  501  0.00000000000E+00  0.00000000000E+00  0.24021261899E+03  0.24021261901E+03  0.25500000920E-02 0. -1.
        2   -1    0    0  501    0  0.00000000000E+00  0.00000000000E+00 -0.50924928039E+03  0.50924928040E+03  0.25500000920E-02 0.  1.
    10030    2    1    2    0    0  0.00000000000E+00  0.00000000000E+00 -0.26903666140E+03  0.74946189941E+03  0.69950869436E+03 0.  0.
        1    1    3    3  502    0  0.42645551104E+01  0.33307271955E+03 -0.24877565283E+03  0.41574625483E+03  0.50400001928E-02 0. -1.
       -1    1    3    3    0  502 -0.42645551104E+01 -0.33307271955E+03 -0.20261008570E+02  0.33371564457E+03  0.50400001928E-02 0.  1.
</event>
<event>
 5   0  0.1226303E-02  0.6943732E+03  0.7818609E-02  0.9726903E-01
        1   -1    0    0  501    0  0.00000000000E+00  0.00000000000E+00  0.70131395416E+03  0.70131395417E+03  0.50400001928E-02 0. -1.
       -1   -1    0    0    0  501  0.00000000000E+00  0.00000000000E+00 -0.17187530682E+03  0.17187530689E+03  0.50400001928E-02 0.  1.
    10030    2    1    2    0    0  0.00000000000E+00  0.00000000000E+00  0.52943864734E+03  0.87318926107E+03  0.69437324570E+03 0.  0.
        4    1    3    3  502    0  0.13845922423E+03 -0.15628660237E+03 -0.84093827517E+02  0.22509963034E+03  0.12699999809E+01 0.  1.
       -4    1    3    3    0  502 -0.13845922423E+03  0.15628660237E+03  0.61353247485E+03  0.64808963073E+03  0.12699999809E+01 0. -1.
</event>
<event>
 5   0  0.1909053E-02  0.7108211E+03  0.7818609E-02  0.9698904E-01
       -2   -1    0    0    0  501  0.00000000000E+00  0.00000000000E+00  0.32662375902E+03  0.32662375903E+03  0.25500000920E-02 0.  1.
        2   -1    0    0  501    0  0.00000000000E+00  0.00000000000E+00 -0.38673445747E+03  0.38673445748E+03  0.25500000920E-02 0. -1.
    10030    2    1    2    0    0  0.00000000000E+00  0.00000000000E+00 -0.60110698455E+02  0.71335821651E+03  0.71082110899E+03 0.  0.
        1    1    3    3  502    0 -0.50033368311E+02 -0.72610757323E+02  0.31547137970E+03  0.32756350752E+03  0.50400001928E-02 0.  1.
       -1    1    3    3    0  502  0.50033368311E+02  0.72610757323E+02 -0.37558207816E+03  0.38579470899E+03  0.50400001928E-02 0. -1.
</event>
<event>
 5   0  0.1909053E-02  0.6857216E+03  0.7818609E-02  0.9741967E-01
       -2   -1    0    0    0  501  0.00000000000E+00  0.00000000000E+00  0.26227422015E+03  0.26227422016E+03  0.25500000920E-02 0. -1.
        2   -1    0    0  501    0  0.00000000000E+00  0.00000000000E+00 -0.44820845415E+03  0.44820845416E+03  0.25500000920E-02 0.  1.
    10030    2    1    2    0    0  0.00000000000E+00  0.00000000000E+00 -0.18593423400E+03  0.71048267432E+03  0.68572158427E+03 0.  0.
        1    1    3    3  502    0 -0.33792969772E+03  0.40867540848E+01 -0.33084461918E+02  0.33956996894E+03  0.50400001928E-02 0.  1.
       -1    1    3    3    0  502  0.33792969772E+03 -0.40867540848E+01 -0.15284977208E+03  0.37091270538E+03  0.50400001928E-02 0. -1.
</event>
<event>
 5   0  0.1226303E-02  0.7059635E+03  0.7818609E-02  0.9707088E-01
       -1   -1    0    0    0  501  0.00000000000E+00  0.00000000000E+00  0.49578991909E+03  0.49578991912E+03  0.50400001928E-02 0.  1.
        1   -1    0    0  501    0  0.00000000000E+00  0.00000000000E+00 -0.25130830695E+03  0.25130830700E+03  0.50400001928E-02 0. -1.
    10030    2    1    2    0    0  0.00000000000E+00  0.00000000000E+00  0.24448161214E+03  0.74709822611E+03  0.70596352652E+03 0.  0.
        4    1    3    3  502    0 -0.18790359715E+02 -0.18627639638E+03  0.43891315488E+03  0.47717747630E+03  0.12699999809E+01 0.  1.
       -4    1    3    3    0  502  0.18790359715E+02  0.18627639638E+03 -0.19443154273E+03  0.26992074981E+03  0.12699999809E+01 0. -1.
</event>
<event>
 5   0  0.1197259E-02  0.6977303E+03  0.7818609E-02  0.9721122E-01
        1   -1    0    0  501    0  0.00000000000E+00  0.00000000000E+00  0.19734326046E+04  0.19734326046E+04  0.50400001928E-02 0. -1.
       -1   -1    0    0    0  501  0.00000000000E+00  0.00000000000E+00 -0.61672686602E+02  0.61672686808E+02  0.50400001928E-02 0.  1.
    10030    2    1    2    0    0  0.00000000000E+00  0.00000000000E+00  0.19117599180E+04  0.20351052914E+04  0.69773029394E+03 0.  0.
        3    1    3    3  502    0 -0.18122221250E+03 -0.14196665071E+03  0.17204407059E+04  0.17357742517E+04  0.10100000352E+00 0. -1.
       -3    1    3    3    0  502  0.18122221250E+03  0.14196665071E+03  0.19131921214E+03  0.29933103974E+03  0.10100000352E+00 0.  1.
</event>
<event>
 5   0  0.7947250E-03  0.6942747E+03  0.7818609E-02  0.9727074E-01
        3   -1    0    0  501    0  0.00000000000E+00  0.00000000000E+00  0.97125774867E+03  0.97125775392E+03  0.10100000352E+00 0.  1.
       -3   -1    0    0    0  501  0.00000000000E+00  0.00000000000E+00 -0.12407036285E+03  0.12407040396E+03  0.10100000352E+00 0. -1.
    10030    2    1    2    0    0  0.00000000000E+00  0.00000000000E+00  0.84718738582E+03  0.10953281579E+04  0.69427466232E+03 0.  0.
        3    1    3    3  502    0 -0.24793002227E+03 -0.15094575982E+03  0.12321485913E+03  0.31533447331E+03  0.10100000352E+00 0. -1.
       -3    1    3    3    0  502  0.24793002227E+03  0.15094575982E+03  0.72397252669E+03  0.77999368456E+03  0.10100000352E+00 0.  1.
</event>
<event>
 5   0  0.2006362E-02  0.6899979E+03  0.7818609E-02  0.9734492E-01
       -2   -1    0    0    0  501  0.00000000000E+00  0.00000000000E+00  0.67944413241E+03  0.67944413242E+03  0.25500000920E-02 0.  1.
        2   -1    0    0  501    0  0.00000000000E+00  0.00000000000E+00 -0.17517890585E+03  0.17517890587E+03  0.25500000920E-02 0. -1.
    10030    2    1    2    0    0  0.00000000000E+00  0.00000000000E+00  0.50426522656E+03  0.85462303829E+03  0.68999791221E+03 0.  0.
        4    1    3    3  502    0 -0.28304833511E+03  0.15715064226E+03  0.39977926071E+03  0.51442954286E+03  0.12699999809E+01 0.  1.
       -4    1    3    3    0  502  0.28304833511E+03 -0.15715064226E+03  0.10448596585E+03  0.34019349543E+03  0.12699999809E+01 0. -1.
</event>
<event>
 5   0  0.1226303E-02  0.6609500E+03  0.7818609E-02  0.9786446E-01
       -1   -1    0    0    0  501  0.00000000000E+00  0.00000000000E+00  0.13398826794E+03  0.13398826804E+03  0.50400001928E-02 0. -1.
        1   -1    0    0  501    0  0.00000000000E+00  0.00000000000E+00 -0.81509919697E+03  0.81509919698E+03  0.50400001928E-02 0.  1.
    10030    2    1    2    0    0  0.00000000000E+00  0.00000000000E+00 -0.68111092902E+03  0.94908746502E+03  0.66095001220E+03 0.  0.
        4    1    3    3  502    0  0.14072678075E+02 -0.21735853788E+03  0.16326098149E+02  0.21842831465E+03  0.12699999809E+01 0. -1.
       -4    1    3    3    0  502 -0.14072678075E+02  0.21735853788E+03 -0.69743702717E+03  0.73065915038E+03  0.12699999809E+01 0.  1.
</event>
<event>
 5   0  0.1257442E-02  0.6985941E+03  0.7818609E-02  0.9719639E-01
        1   -1    0    0  501    0  0.00000000000E+00  0.00000000000E+00  0.17427498726E+03  0.17427498733E+03  0.50400001928E-02 0. -1.
       -1   -1    0    0    0  501  0.00000000000E+00  0.00000000000E+00 -0.70009144969E+03  0.70009144971E+03  0.50400001928E-02 0.  1.
    10030    2    1    2    0    0  0.00000000000E+00  0.00000000000E+00 -0.52581646243E+03  0.87436643704E+03  0.69859409821E+03 0.  0.
        1    1    3    3  502    0 -0.10572347748E+03 -0.27232785795E+03 -0.50257907957E+03  0.58131372524E+03  0.50400001928E-02 0. -1.
       -1    1    3    3    0  502  0.10572347748E+03  0.27232785795E+03 -0.23237382857E+02  0.29305271180E+03  0.50400001928E-02 0.  1.
</event>
<event>
 5   0  0.1237686E-02  0.7002508E+03  0.7818609E-02  0.9716803E-01
       -1   -1    0    0    0  501  0.00000000000E+00  0.00000000000E+00  0.94738673345E+02  0.94738673479E+02  0.50400001928E-02 0. -1.
        1   -1    0    0  501    0  0.00000000000E+00  0.00000000000E+00 -0.12939571433E+04  0.12939571433E+04  0.50400001928E-02 0.  1.
    10030    2    1    2    0    0  0.00000000000E+00  0.00000000000E+00 -0.11992184700E+04  0.13886958168E+04  0.70025076430E+03 0.  0.
        5    1    3    3  502    0  0.13224972783E+03  0.32385860371E+03 -0.57217962980E+03  0.67066087143E+03  0.46999998093E+01 0.  1.
       -5    1    3    3    0  502 -0.13224972783E+03 -0.32385860371E+03 -0.62703884018E+03  0.71803494539E+03  0.46999998093E+01 0. -1.
</event>
<event>
 5   0  0.2006362E-02  0.6978736E+03  0.7818609E-02  0.9720876E-01
       -2   -1    0    0    0  501  0.00000000000E+00  0.00000000000E+00  0.41536198581E+03  0.41536198582E+03  0.25500000920E-02 0.  1.
        2   -1    0    0  501    0  0.00000000000E+00  0.00000000000E+00 -0.29313442201E+03  0.29313442202E+03  0.25500000920E-02 0. -1.
    10030    2    1    2    0    0  0.00000000000E+00  0.00000000000E+00  0.12222756380E+03  0.70849640784E+03  0.69787361504E+03 0.  0.
        4    1    3    3  502    0  0.10339459789E+03  0.31763728628E+03 -0.41274703226E+02  0.33658446567E+03  0.12699999809E+01 0. -1.
       -4    1    3    3    0  502 -0.10339459789E+03 -0.31763728628E+03  0.16350226703E+03  0.37191194217E+03  0.12699999809E+01 0.  1.
</event>
<event>
 5   0  0.2026361E-02  0.6967557E+03  0.7818609E-02  0.9722796E-01
        2   -1    0    0  501    0  0.00000000000E+00  0.00000000000E+00  0.13486737812E+04  0.13486737812E+04  0.25500000920E-02 0.  1.
       -2   -1    0    0    0  501  0.00000000000E+00  0.00000000000E+00 -0.89989982007E+02  0.89989982043E+02  0.25500000920E-02 0. -1.
    10030    2    1    2    0    0  0.00000000000E+00  0.00000000000E+00  0.12586837992E+04  0.14386637633E+04  0.69675570851E+03 0.  0.
        2    1    3    3  502    0  0.29810444965E+03 -0.11869741030E+03  0.90951522835E+03  0.96445491793E+03  0.25500000920E-02 0.  1.
       -2    1    3    3    0  502 -0.29810444965E+03  0.11869741030E+03  0.34916857087E+03  0.47420884535E+03  0.25500000920E-02 0. -1.
</event>
<event>
 5   0  0.1237686E-02  0.7125216E+03  0.7818609E-02  0.9696055E-01
       -1   -1    0    0    0  501  0.00000000000E+00  0.00000000000E+00  0.64783575139E+03  0.64783575141E+03  0.50400001928E-02 0.  1.
        1   -1    0    0  501    0  0.00000000000E+00  0.00000000000E+00 -0.19591655913E+03  0.19591655920E+03  0.50400001928E-02 0. -1.
    10030    2    1    2    0    0  0.00000000000E+00  0.00000000000E+00  0.45191919226E+03  0.84375231061E+03  0.71252158236E+03 0.  0.
        5    1    3    3  502    0 -0.22842452484E+03 -0.18215909382E+03  0.46731109517E+03  0.55114557848E+03  0.46999998093E+01 0.  1.
       -5    1    3    3    0  502  0.22842452484E+03  0.18215909382E+03 -0.15391902919E+02  0.29260673212E+03  0.46999998093E+01 0. -1.
</event>
<event>
 5   0  0.1257442E-02  0.7042623E+03  0.7818609E-02  0.9709971E-01
        1   -1    0    0  501    0  0.00000000000E+00  0.00000000000E+00  0.11918293157E+04  0.11918293157E+04  0.50400001928E-02 0. -1.
       -1   -1    0    0    0  501  0.00000000000E+00  0.00000000000E+00 -0.10403867809E+03  0.10403867822E+03  0.50400001928E-02 0.  1.
    10030    2    1    2    0    0  0.00000000000E+00  0.00000000000E+00  0.10877906376E+04  0.12958679939E+04  0.70426229944E+03 0.  0.
        1    1    3    3  502    0 -0.23141430421E+03 -0.11393792197E+03  0.10281632431E+03  0.27767899961E+03  0.50400001928E-02 0.  1.
       -1    1    3    3    0  502  0.23141430421E+03  0.11393792197E+03  0.98497431326E+03  0.10181889943E+04  0.50400001928E-02 0. -1.
</event>
<event>
 5   0  0.1948138E-02  0.7006892E+03  0.7818609E-02  0.9716054E-01
       -2   -1    0    0    0  501  0.00000000000E+00  0.00000000000E+00  0.22236123718E+03  0.22236123719E+03  0.25500000920E-02 0. -1.
        2   -1    0    0  501    0  0.00000000000E+00  0.00000000000E+00 -0.55199073981E+03  0.55199073981E+03  0.25500000920E-02 0.  1.
    10030    2    1    2    0    0  0.00000000000E+00  0.00000000000E+00 -0.32962950263E+03  0.77435197700E+03  0.70068921448E+03 0.  0.
        3    1    3    3  502    0  0.18128525270E+03  0.29668396316E+03 -0.21242025059E+03  0.40744090357E+03  0.10100000352E+00 0.  1.
       -3    1    3    3    0  502 -0.18128525270E+03 -0.29668396316E+03 -0.11720925204E+03  0.36691107343E+03  0.10100000352E+00 0. -1.
</event>
<event>
 5   0  0.2006362E-02  0.7047747E+03  0.7818609E-02  0.9709101E-01
       -2   -1    0    0    0  501  0.00000000000E+00  0.00000000000E+00  0.15266641211E+03  0.15266641213E+03  0.25500000920E-02 0. -1.
        2   -1    0    0  501    0  0.00000000000E+00  0.00000000000E+00 -0.81338685034E+03  0.81338685035E+03  0.25500000920E-02 0.  1.
    10030    2    1    2    0    0  0.00000000000E+00  0.00000000000E+00 -0.66072043823E+03  0.96605326248E+03  0.70477472178E+03 0.  0.
        4    1    3    3  502    0  0.57353983959E+02  0.23014127349E+03 -0.68759357372E+03  0.72735206108E+03  0.12699999809E+01 0.  1.
       -4    1    3    3    0  502 -0.57353983959E+02 -0.23014127349E+03  0.26873135487E+02  0.23870120140E+03  0.12699999809E+01 0. -1.
</event>
<event>
 5   0  0.2006362E-02  0.6955582E+03  0.7818609E-02  0.9724859E-01
       -2   -1    0    0    0  501  0.00000000000E+00  0.00000000000E+00  0.15207500578E+03  0.15207500580E+03  0.25500000920E-02 0.  1.
        2   -1    0    0  501    0  0.00000000000E+00  0.00000000000E+00 -0.79533322487E+03  0.79533322488E+03  0.25500000920E-02 0. -1.
    10030    2    1    2    0    0  0.00000000000E+00  0.00000000000E+00 -0.64325821909E+03  0.94740823068E+03  0.69555820686E+03 0.  0.
        4    1    3    3  502    0 -0.35640895949E+02  0.19863933577E+03  0.64157595580E+02  0.21176796063E+03  0.12699999809E+01 0.  1.
       -4    1    3    3    0  502  0.35640895949E+02 -0.19863933577E+03 -0.70741581467E+03  0.73564027005E+03  0.12699999809E+01 0. -1.
</event>
<event>
 5   0  0.1197259E-02  0.6967136E+03  0.7818609E-02  0.9722869E-01
        1   -1    0    0  501    0  0.00000000000E+00  0.00000000000E+00  0.52791041291E+03  0.52791041294E+03  0.50400001928E-02 0. -1.
       -1   -1    0    0    0  501  0.00000000000E+00  0.00000000000E+00 -0.22987320735E+03  0.22987320741E+03  0.50400001928E-02 0.  1.
    10030    2    1    2    0    0  0.00000000000E+00  0.00000000000E+00  0.29803720556E+03  0.75778362035E+03  0.69671359924E+03 0.  0.
        3    1    3    3  502    0  0.29618060455E+03 -0.18188313923E+03  0.17448046924E+03  0.38890599275E+03  0.10100000352E+00 0.  1.
       -3    1    3    3    0  502 -0.29618060455E+03  0.18188313923E+03  0.12355673632E+03  0.36887762760E+03  0.10100000352E+00 0. -1.
</event>
<event>
 5   0  0.1197259E-02  0.7017609E+03  0.7818609E-02  0.9714226E-01
        1   -1    0    0  501    0  0.00000000000E+00  0.00000000000E+00  0.23606694922E+03  0.23606694927E+03  0.50400001928E-02 0.  1.
       -1   -1    0    0    0  501  0.00000000000E+00  0.00000000000E+00 -0.52153460751E+03  0.52153460753E+03  0.50400001928E-02 0. -1.
    10030    2    1    2    0    0  0.00000000000E+00  0.00000000000E+00 -0.28546765829E+03  0.75760155681E+03  0.70176088160E+03 0.  0.
        3    1    3    3  502    0  0.10593559727E+03  0.21248231133E+03  0.13617630388E+03  0.27370619164E+03  0.10100000352E+00 0.  1.
       -3    1    3    3    0  502 -0.10593559727E+03 -0.21248231133E+03 -0.42164396217E+03  0.48389536517E+03  0.10100000352E+00 0. -1.
</event>
<event>
 5   0  0.1257442E-02  0.7055635E+03  0.7818609E-02  0.9707765E-01
       -1   -1    0    0    0  501  0.00000000000E+00  0.00000000000E+00  0.18006567151E+03  0.18006567158E+03  0.50400001928E-02 0.  1.
        1   -1    0    0  501    0  0.00000000000E+00  0.00000000000E+00 -0.69116432008E+03  0.69116432010E+03  0.50400001928E-02 0. -1.
    10030    2    1    2    0    0  0.00000000000E+00  0.00000000000E+00 -0.51109864857E+03  0.87122999169E+03  0.70556351227E+03 0.  0.
        1    1    3    3  502    0  0.90724290792E+02  0.27413963124E+03 -0.53033147010E+01  0.28881059456E+03  0.50400001928E-02 0.  1.
       -1    1    3    3    0  502 -0.90724290792E+02 -0.27413963124E+03 -0.50579533387E+03  0.58241939713E+03  0.50400001928E-02 0. -1.
</event>
<event>
 5   0  0.7947250E-03  0.6956109E+03  0.7818609E-02  0.9724768E-01
       -4   -1    0    0    0  501  0.00000000000E+00  0.00000000000E+00  0.15992384470E+03  0.15992888733E+03  0.12699999809E+01 0. -1.
        4   -1    0    0  501    0  0.00000000000E+00  0.00000000000E+00 -0.75639656656E+03  0.75639763274E+03  0.12699999809E+01 0.  1.
    10030    2    1    2    0    0  0.00000000000E+00  0.00000000000E+00 -0.59647272187E+03  0.91632652007E+03  0.69561094259E+03 0.  0.
        4    1    3    3  502    0 -0.16067376438E+03  0.30256147460E+03 -0.37735680857E+03  0.50966584969E+03  0.12699999809E+01 0.  1.
       -4    1    3    3    0  502  0.16067376438E+03 -0.30256147460E+03 -0.21911591330E+03  0.40666067037E+03  0.12699999809E+01 0. -1.
</event>
<event>
 5   0  0.1948138E-02  0.6956762E+03  0.7818609E-02  0.9724655E-01
        2   -1    0    0  501    0  0.00000000000E+00  0.00000000000E+00  0.42038343664E+03  0.42038343664E+03  0.25500000920E-02 0. -1.
       -2   -1    0    0    0  501  0.00000000000E+00  0.00000000000E+00 -0.28781187366E+03  0.28781187368E+03  0.25500000920E-02 0.  1.
    10030    2    1    2    0    0  0.00000000000E+00  0.00000000000E+00  0.13257156297E+03  0.70819531032E+03  0.69567620216E+03 0.  0.
        3    1    3    3  502    0  0.13326033254E+02 -0.96467970195E+02 -0.27365110563E+03  0.29046271748E+03  0.10100000352E+00 0.  1.
       -3    1    3    3    0  502 -0.13326033254E+02  0.96467970195E+02  0.40622266860E+03  0.41773259284E+03  0.10100000352E+00 0. -1.
</event>
<event>
 5   0  0.1948138E-02  0.6967496E+03  0.7818609E-02  0.9722807E-01
        2   -1    0    0  501    0  0.00000000000E+00  0.00000000000E+00  0.22610844117E+03  0.22610844119E+03  0.25500000920E-02 0. -1.
       -2   -1    0    0    0  501  0.00000000000E+00  0.00000000000E+00 -0.53675578620E+03  0.53675578621E+03  0.25500000920E-02 0.  1.
    10030    2    1    2    0    0  0.00000000000E+00  0.00000000000E+00 -0.31064734503E+03  0.76286422740E+03  0.69674963686E+03 0.  0.
        3    1    3    3  502    0 -0.28183909181E+03 -0.29979122171E+02 -0.37711116026E+03  0.47174660447E+03  0.10100000352E+00 0.  1.
       -3    1    3    3    0  502  0.28183909181E+03  0.29979122171E+02  0.66463815225E+02  0.29111762292E+03  0.10100000352E+00 0. -1.
</event>
<event>
 5   0  0.7947250E-03  0.7019982E+03  0.7818609E-02  0.9713821E-01
       -3   -1    0    0    0  501  0.00000000000E+00  0.00000000000E+00  0.80980016732E+02  0.80980079717E+02  0.10100000352E+00 0. -1.
        3   -1    0    0  501    0  0.00000000000E+00  0.00000000000E+00 -0.15213670150E+04  0.15213670184E+04  0.10100000352E+00 0.  1.
    10030    2    1    2    0    0  0.00000000000E+00  0.00000000000E+00 -0.14403869983E+04  0.16023470981E+04  0.70199823214E+03 0.  0.
        3    1    3    3  502    0 -0.74843371784E+02 -0.31593687522E+03 -0.41581091816E+03  0.52755698202E+03  0.10100000352E+00 0. -1.
       -3    1    3    3    0  502  0.74843371784E+02  0.31593687522E+03 -0.10245760801E+04  0.10747901161E+04  0.10100000352E+00 0.  1.
</event>
<event>
 5   0  0.1197259E-02  0.7090173E+03  0.7818609E-02  0.9701935E-01
       -1   -1    0    0    0  501  0.00000000000E+00  0.00000000000E+00  0.36205084995E+03  0.36205084999E+03  0.50400001928E-02 0. -1.
        1   -1    0    0  501    0  0.00000000000E+00  0.00000000000E+00 -0.34712353666E+03  0.34712353670E+03  0.50400001928E-02 0.  1.
    10030    2    1    2    0    0  0.00000000000E+00  0.00000000000E+00  0.14927313289E+02  0.70917438669E+03  0.70901726781E+03 0.  0.
        3    1    3    3  502    0 -0.12856642297E+03  0.28815415350E+03 -0.15417110190E+03  0.35118496573E+03  0.10100000352E+00 0.  1.
       -3    1    3    3    0  502  0.12856642297E+03 -0.28815415350E+03  0.16909841519E+03  0.35798942095E+03  0.10100000352E+00 0. -1.
</event>
<event>
 5   0  0.2026361E-02  0.6955982E+03  0.7818609E-02  0.9724790E-01
        2   -1    0    0  501    0  0.00000000000E+00  0.00000000000E+00  0.55764670312E+03  0.55764670312E+03  0.25500000920E-02 0. -1.
       -2   -1    0    0    0  501  0.00000000000E+00  0.00000000000E+00 -0.21691906535E+03  0.21691906536E+03  0.25500000920E-02 0.  1.
    10030    2    1    2    0    0  0.00000000000E+00  0.00000000000E+00  0.34072763777E+03  0.77456576848E+03  0.69559816458E+03 0.  0.
        2    1    3    3  502    0 -0.48533954378E+02 -0.34005930367E+03  0.10969636957E+03  0.36059557435E+03  0.25500000920E-02 0. -1.
       -2    1    3    3    0  502  0.48533954378E+02  0.34005930367E+03  0.23103126821E+03  0.41397019414E+03  0.25500000920E-02 0.  1.
</event>
<event>
 5   0  0.1909053E-02  0.6988992E+03  0.7818609E-02  0.9719117E-01
        2   -1    0    0  501    0  0.00000000000E+00  0.00000000000E+00  0.13243806473E+04  0.13243806473E+04  0.25500000920E-02 0.  1.
       -2   -1    0    0    0  501  0.00000000000E+00  0.00000000000E+00 -0.92205386793E+02  0.92205386828E+02  0.25500000920E-02 0. -1.
    10030    2    1    2    0    0  0.00000000000E+00  0.00000000000E+00  0.12321752605E+04  0.14165860341E+04  0.69889921983E+03 0.  0.
        1    1    3    3  502    0 -0.45321298739E+02 -0.24286569181E+03  0.11516783714E+03  0.27258282248E+03  0.50400001928E-02 0. -1.
       -1    1    3    3    0  502  0.45321298739E+02  0.24286569181E+03  0.11170074233E+04  0.11440032116E+04  0.50400001928E-02 0.  1.
</event>
<event>
 5   0  0.2006362E-02  0.6865567E+03  0.7818609E-02  0.9740502E-01
       -2   -1    0    0    0  501  0.00000000000E+00  0.00000000000E+00  0.63417916536E+02  0.63417916587E+02  0.25500000920E-02 0.  1.
        2   -1    0    0  501    0  0.00000000000E+00  0.00000000000E+00 -0.18581506107E+04  0.18581506107E+04  0.25500000920E-02 0. -1.
    10030    2    1    2    0    0  0.00000000000E+00  0.00000000000E+00 -0.17947326942E+04  0.19215685273E+04  0.68655674315E+03 0.  0.
        4    1    3    3  502    0 -0.19109513487E+02 -0.19613968930E+03 -0.11068329870E+03  0.22602733625E+03  0.12699999809E+01 0.  1.
       -4    1    3    3    0  502  0.19109513487E+02  0.19613968930E+03 -0.16840493955E+04  0.16955411911E+04  0.12699999809E+01 0. -1.
</event>
<event>
 5   0  0.7947250E-03  0.6999997E+03  0.7818609E-02  0.9717233E-01
        3   -1    0    0  501    0  0.00000000000E+00  0.00000000000E+00  0.89994754686E+02  0.89994811362E+02  0.10100000352E+00 0. -1.
       -3   -1    0    0    0  501  0.00000000000E+00  0.00000000000E+00 -0.13611888907E+04  0.13611888944E+04  0.10100000352E+00 0.  1.
    10030    2    1    2    0    0  0.00000000000E+00  0.00000000000E+00 -0.12711941360E+04  0.14511837058E+04  0.69999972611E+03 0.  0.
        3    1    3    3  502    0 -0.99984531957E+02  0.10846650163E+02  0.59394203644E+02  0.11679999177E+03  0.10100000352E+00 0. -1.
       -3    1    3    3    0  502  0.99984531957E+02 -0.10846650163E+02 -0.13305883396E+04  0.13343837140E+04  0.10100000352E+00 0.  1.
</event>
<event>
 5   0  0.1237686E-02  0.6996611E+03  0.7818609E-02  0.9717812E-01
        1   -1    0    0  501    0  0.00000000000E+00  0.00000000000E+00  0.73373582162E+03  0.73373582164E+03  0.50400001928E-02 0.  1.
       -1   -1    0    0    0  501  0.00000000000E+00  0.00000000000E+00 -0.16679220237E+03  0.16679220245E+03  0.50400001928E-02 0. -1.
    10030    2    1    2    0    0  0.00000000000E+00  0.00000000000E+00  0.56694361925E+03  0.90052802409E+03  0.69966109994E+03 0.  0.
        5    1    3    3  502    0 -0.16759382335E+03  0.50524517178E+02 -0.10632559204E+03  0.20486004486E+03  0.46999998093E+01 0. -1.
       -5    1    3    3    0  502  0.16759382335E+03 -0.50524517178E+02  0.67326921129E+03  0.69566797923E+03  0.46999998093E+01 0.  1.
</event>
<event>
 5   0  0.1909053E-02  0.7084989E+03  0.7818609E-02  0.9702807E-01
       -2   -1    0    0    0  501  0.00000000000E+00  0.00000000000E+00  0.11629695099E+03  0.11629695102E+03  0.25500000920E-02 0. -1.
        2   -1    0    0  501    0  0.00000000000E+00  0.00000000000E+00 -0.10790711109E+04  0.10790711109E+04  0.25500000920E-02 0.  1.
    10030    2    1    2    0    0  0.00000000000E+00  0.00000000000E+00 -0.96277415991E+03  0.11953680619E+04  0.70849892059E+03 0.  0.
        1    1    3    3  502    0 -0.10643341581E+01 -0.26416531145E+03 -0.83167915645E+02  0.27695007998E+03  0.50400001928E-02 0. -1.
       -1    1    3    3    0  502  0.10643341581E+01  0.26416531145E+03 -0.87960624427E+03  0.91841798195E+03  0.50400001928E-02 0.  1.
</event>
<event>
 5   0  0.1948138E-02  0.6437142E+03  0.7818609E-02  0.9818646E-01
        2   -1    0    0  501    0  0.00000000000E+00  0.00000000000E+00  0.22959627282E+03  0.22959627284E+03  0.25500000920E-02 0. -1.
       -2   -1    0    0    0  501  0.00000000000E+00  0.00000000000E+00 -0.45119196355E+03  0.45119196356E+03  0.25500000920E-02 0.  1.
    10030    2    1    2    0    0  0.00000000000E+00  0.00000000000E+00 -0.22159569073E+03  0.68078823639E+03  0.64371420107E+03 0.  0.
        3    1    3    3  502    0  0.70829972117E+02 -0.11385039100E+03  0.19865129696E+03  0.23966882247E+03  0.10100000352E+00 0. -1.
       -3    1    3    3    0  502 -0.70829972117E+02  0.11385039100E+03 -0.42024698768E+03  0.44111941392E+03  0.10100000352E+00 0.  1.
</event>
<event>
 5   0  0.1226303E-02  0.6936175E+03  0.7818609E-02  0.9728210E-01
        1   -1    0    0  501    0  0.00000000000E+00  0.00000000000E+00  0.54246760123E+03  0.54246760125E+03  0.50400001928E-02 0. -1.
       -1   -1    0    0    0  501  0.00000000000E+00  0.00000000000E+00 -0.22172074051E+03  0.22172074056E+03  0.50400001928E-02 0.  1.
    10030    2    1    2    0    0  0.00000000000E+00  0.00000000000E+00  0.32074686073E+03  0.76418834182E+03  0.69361752653E+03 0.  0.
        4    1    3    3  502    0 -0.46015898411E+02  0.34198249432E+03  0.12212507172E+03  0.36604048324E+03  0.12699999809E+01 0. -1.
       -4    1    3    3    0  502  0.46015898411E+02 -0.34198249432E+03  0.19862178901E+03  0.39814785858E+03  0.12699999809E+01 0.  1.
</event>
<event>
 5   0  0.1973067E-02  0.7032930E+03  0.7818609E-02  0.9711617E-01
        2   -1    0    0  501    0  0.00000000000E+00  0.00000000000E+00  0.17088393109E+04  0.17088393109E+04  0.25500000920E-02 0.  1.
       -2   -1    0    0    0  501  0.00000000000E+00  0.00000000000E+00 -0.72362125027E+02  0.72362125072E+02  0.25500000920E-02 0. -1.
    10030    2    1    2    0    0  0.00000000000E+00  0.00000000000E+00  0.16364771858E+04  0.17812014359E+04  0.70329295150E+03 0.  0.
        5    1    3    3  502    0 -0.41194256946E+02 -0.20235747391E+03  0.15389910692E+04  0.15527913946E+04  0.46999998093E+01 0.  1.
       -5    1    3    3    0  502  0.41194256946E+02  0.20235747391E+03  0.97486116641E+02  0.22841004135E+03  0.46999998093E+01 0. -1.
</event>
<event>
 5   0  0.2026361E-02  0.6979811E+03  0.7818609E-02  0.9720691E-01
       -2   -1    0    0    0  501  0.00000000000E+00  0.00000000000E+00  0.21434767658E+03  0.21434767659E+03  0.25500000920E-02 0. -1.
        2   -1    0    0  501    0  0.00000000000E+00  0.00000000000E+00 -0.56820955253E+03  0.56820955254E+03  0.25500000920E-02 0.  1.
    10030    2    1    2    0    0  0.00000000000E+00  0.00000000000E+00 -0.35386187595E+03  0.78255722914E+03  0.69798108113E+03 0.  0.
        2    1    3    3  502    0  0.17718663491E+03 -0.27127119574E+03 -0.32230008078E+03  0.45701258988E+03  0.25500000920E-02 0.  1.
       -2    1    3    3    0  502 -0.17718663491E+03  0.27127119574E+03 -0.31561795177E+02  0.32554463926E+03  0.25500000920E-02 0. -1.
</event>
<event>
 5   0  0.2026361E-02  0.6780703E+03  0.7818609E-02  0.9755488E-01
       -2   -1    0    0    0  501  0.00000000000E+00  0.00000000000E+00  0.81544180836E+02  0.81544180876E+02  0.25500000920E-02 0. -1.
        2   -1    0    0  501    0  0.00000000000E+00  0.00000000000E+00 -0.14096017916E+04  0.14096017916E+04  0.25500000920E-02 0.  1.
    10030    2    1    2    0    0  0.00000000000E+00  0.00000000000E+00 -0.13280576108E+04  0.14911459725E+04  0.67807027198E+03 0.  0.
        2    1    3    3  502    0 -0.38270956589E+02  0.92006186136E+02  0.48612782639E+02  0.11087383392E+03  0.25500000920E-02 0. -1.
       -2    1    3    3    0  502  0.38270956589E+02 -0.92006186136E+02 -0.13766703934E+04  0.13802721386E+04  0.25500000920E-02 0.  1.
</event>
<event>
 5   0  0.1197259E-02  0.6987847E+03  0.7818609E-02  0.9719313E-01
        1   -1    0    0  501    0  0.00000000000E+00  0.00000000000E+00  0.11029874339E+03  0.11029874350E+03  0.50400001928E-02 0.  1.
       -1   -1    0    0    0  501  0.00000000000E+00  0.00000000000E+00 -0.11067669732E+04  0.11067669732E+04  0.50400001928E-02 0. -1.
    10030    2    1    2    0    0  0.00000000000E+00  0.00000000000E+00 -0.99646822984E+03  0.12170657167E+04  0.69878467771E+03 0.  0.
        3    1    3    3  502    0 -0.71721643885E+02  0.13421101506E+03 -0.10460179459E+04  0.10570289231E+04  0.10100000352E+00 0. -1.
       -3    1    3    3    0  502  0.71721643885E+02 -0.13421101506E+03  0.49549716104E+02  0.16003679368E+03  0.10100000352E+00 0.  1.
</event>
<event>
 5   0  0.1223742E-02  0.6963950E+03  0.7818609E-02  0.9723417E-01
        1   -1    0    0  501    0  0.00000000000E+00  0.00000000000E+00  0.15513492607E+04  0.15513492607E+04  0.50400001928E-02 0. -1.
       -1   -1    0    0    0  501  0.00000000000E+00  0.00000000000E+00 -0.78152301268E+02  0.78152301431E+02  0.50400001928E-02 0.  1.
    10030    2    1    2    0    0  0.00000000000E+00  0.00000000000E+00  0.14731969594E+04  0.16295015621E+04  0.69639504574E+03 0.  0.
        2    1    3    3  502    0  0.58156223643E+02 -0.21954593108E+01  0.15398883355E+04  0.15409876873E+04  0.25500000920E-02 0. -1.
       -2    1    3    3    0  502 -0.58156223643E+02  0.21954593108E+01 -0.66691376108E+02  0.88513874865E+02  0.25500000920E-02 0.  1.
</event>
<event>
 5   0  0.1909053E-02  0.7030337E+03  0.7818609E-02  0.9712058E-01
        2   -1    0    0  501    0  0.00000000000E+00  0.00000000000E+00  0.95251185329E+03  0.95251185329E+03  0.25500000920E-02 0.  1.
       -2   -1    0    0    0  501  0.00000000000E+00  0.00000000000E+00 -0.12972447613E+03  0.12972447615E+03  0.25500000920E-02 0. -1.
    10030    2    1    2    0    0  0.00000000000E+00  0.00000000000E+00  0.82278737716E+03  0.10822363294E+04  0.70303371523E+03 0.  0.
        1    1    3    3  502    0 -0.25040010246E+03  0.46150666729E+01  0.79110173983E+03  0.82979724810E+03  0.50400001928E-02 0.  1.
       -1    1    3    3    0  502  0.25040010246E+03 -0.46150666729E+01  0.31685637328E+02  0.25243908135E+03  0.50400001928E-02 0. -1.
</event>
<event>
 5   0  0.7947250E-03  0.6945581E+03  0.7818609E-02  0.9726584E-01
        4   -1    0    0  501    0  0.00000000000E+00  0.00000000000E+00  0.14795529163E+04  0.14795534613E+04  0.12699999809E+01 0.  1.
       -4   -1    0    0    0  501  0.00000000000E+00  0.00000000000E+00 -0.81507447439E+02  0.81517341026E+02  0.12699999809E+01 0. -1.
    10030    2    1    2    0    0  0.00000000000E+00  0.00000000000E+00  0.13980454688E+04  0.15610708024E+04  0.69455807321E+03 0.  0.
        4    1    3    3  502    0  0.31001981124E+03  0.15124523277E+02  0.34894848391E+03  0.46702001230E+03  0.12699999809E+01 0. -1.
       -4    1    3    3    0  502 -0.31001981124E+03 -0.15124523277E+02  0.10490969849E+04  0.10940507901E+04  0.12699999809E+01 0.  1.
</event>
<event>
 5   0  0.1237686E-02  0.7175928E+03  0.7818609E-02  0.9687610E-01
        1   -1    0    0  501    0  0.00000000000E+00  0.00000000000E+00  0.54113133652E+03  0.54113133655E+03  0.50400001928E-02 0. -1.
       -1   -1    0    0    0  501  0.00000000000E+00  0.00000000000E+00 -0.23789945996E+03  0.23789946001E+03  0.50400001928E-02 0.  1.
    10030    2    1    2    0    0  0.00000000000E+00  0.00000000000E+00  0.30323187657E+03  0.77903079655E+03  0.71759278913E+03 0.  0.
        5    1    3    3  502    0 -0.74141501707E+02  0.16750091599E+03  0.48650583939E+03  0.51986877276E+03  0.46999998093E+01 0. -1.
       -5    1    3    3    0  502  0.74141501707E+02 -0.16750091599E+03 -0.18327396282E+03  0.25916202380E+03  0.46999998093E+01 0.  1.
</event>
<event>
 5   0  0.1973067E-02  0.6418540E+03  0.7818609E-02  0.9822186E-01
        2   -1    0    0  501    0  0.00000000000E+00  0.00000000000E+00  0.54588447851E+03  0.54588447852E+03  0.25500000920E-02 0.  1.
       -2   -1    0    0    0  501  0.00000000000E+00  0.00000000000E+00 -0.18867386370E+03  0.18867386372E+03  0.25500000920E-02 0. -1.
    10030    2    1    2    0    0  0.00000000000E+00  0.00000000000E+00  0.35721061481E+03  0.73455834224E+03  0.64185398248E+03 0.  0.
        5    1    3    3  502    0  0.24970771456E+02  0.30648462737E+03  0.73618532093E+02  0.31622483221E+03  0.46999998093E+01 0. -1.
       -5    1    3    3    0  502 -0.24970771456E+02 -0.30648462737E+03  0.28359208272E+03  0.41833351003E+03  0.46999998093E+01 0.  1.
</event>
<event>
 5   0  0.7947250E-03  0.7018309E+03  0.7818609E-02  0.9714106E-01
        4   -1    0    0  501    0  0.00000000000E+00  0.00000000000E+00  0.12637957350E+03  0.12638595451E+03  0.12699999809E+01 0.  1.
       -4   -1    0    0    0  501  0.00000000000E+00  0.00000000000E+00 -0.97434794868E+03  0.97434877636E+03  0.12699999809E+01 0. -1.
    10030    2    1    2    0    0  0.00000000000E+00  0.00000000000E+00 -0.84796837517E+03  0.11007347309E+04  0.70183087881E+03 0.  0.
        4    1    3    3  502    0 -0.12769186249E+03 -0.10902325313E+03  0.59291365160E+02  0.17806841481E+03  0.12699999809E+01 0.  1.
       -4    1    3    3    0  502  0.12769186249E+03  0.10902325313E+03 -0.90725974033E+03  0.92266631606E+03  0.12699999809E+01 0. -1.
</event>
<event>
 5   0  0.1197259E-02  0.6948542E+03  0.7818609E-02  0.9726073E-01
        1   -1    0    0  501    0  0.00000000000E+00  0.00000000000E+00  0.85532957508E+03  0.85532957509E+03  0.50400001928E-02 0.  1.
       -1   -1    0    0    0  501  0.00000000000E+00  0.00000000000E+00 -0.14112172310E+03  0.14112172319E+03  0.50400001928E-02 0. -1.
    10030    2    1    2    0    0  0.00000000000E+00  0.00000000000E+00  0.71420785197E+03  0.99645129828E+03  0.69485418185E+03 0.  0.
        3    1    3    3  502    0  0.19414416100E+03 -0.28808629700E+03  0.36350167995E+03  0.50281124818E+03  0.10100000352E+00 0.  1.
       -3    1    3    3    0  502 -0.19414416100E+03  0.28808629700E+03  0.35070617203E+03  0.49364005010E+03  0.10100000352E+00 0. -1.
</event>
<event>
 5   0  0.1197259E-02  0.7008162E+03  0.7818609E-02  0.9715837E-01
       -1   -1    0    0    0  501  0.00000000000E+00  0.00000000000E+00  0.89791377635E+02  0.89791377777E+02  0.50400001928E-02 0.  1.
        1   -1    0    0  501    0  0.00000000000E+00  0.00000000000E+00 -0.13674567065E+04  0.13674567065E+04  0.50400001928E-02 0. -1.
    10030    2    1    2    0    0  0.00000000000E+00  0.00000000000E+00 -0.12776653289E+04  0.14572480843E+04  0.70081615748E+03 0.  0.
        3    1    3    3  502    0 -0.12520268472E+01  0.19021152717E+03 -0.12507572585E+04  0.12651386179E+04  0.10100000352E+00 0. -1.
       -3    1    3    3    0  502  0.12520268472E+01 -0.19021152717E+03 -0.26908070431E+02  0.19210946644E+03  0.10100000352E+00 0.  1.
</event>
<event>
 5   0  0.2026361E-02  0.6959243E+03  0.7818609E-02  0.9724228E-01
       -2   -1    0    0    0  501  0.00000000000E+00  0.00000000000E+00  0.75181104770E+02  0.75181104814E+02  0.25500000920E-02 0.  1.
        2   -1    0    0  501    0  0.00000000000E+00  0.00000000000E+00 -0.16104798465E+04  0.16104798465E+04  0.25500000920E-02 0. -1.
    10030    2    1    2    0    0  0.00000000000E+00  0.00000000000E+00 -0.15352987417E+04  0.16856609513E+04  0.69592428929E+03 0.  0.
        2    1    3    3  502    0  0.16008038762E+03  0.10017705907E+03 -0.14755610347E+04  0.14875958930E+04  0.25500000920E-02 0. -1.
       -2    1    3    3    0  502 -0.16008038762E+03 -0.10017705907E+03 -0.59737706945E+02  0.19806505826E+03  0.25500000920E-02 0.  1.
</event>
<event>
 5   0  0.1909053E-02  0.7057030E+03  0.7818609E-02  0.9707529E-01
        2   -1    0    0  501    0  0.00000000000E+00  0.00000000000E+00  0.48580060521E+03  0.48580060521E+03  0.25500000920E-02 0.  1.
       -2   -1    0    0    0  501  0.00000000000E+00  0.00000000000E+00 -0.25628661039E+03  0.25628661040E+03  0.25500000920E-02 0. -1.
    10030    2    1    2    0    0  0.00000000000E+00  0.00000000000E+00  0.22951399482E+03  0.74208721561E+03  0.70570302660E+03 0.  0.
        1    1    3    3  502    0  0.31719460642E+03 -0.15407821450E+03  0.12770763773E+03  0.37504900384E+03  0.50400001928E-02 0.  1.
       -1    1    3    3    0  502 -0.31719460642E+03  0.15407821450E+03  0.10180635709E+03  0.36703821177E+03  0.50400001928E-02 0. -1.
</event>
<event>
 5   0  0.1257442E-02  0.6972209E+03  0.7818609E-02  0.9721997E-01
       -1   -1    0    0    0  501  0.00000000000E+00  0.00000000000E+00  0.16057453160E+03  0.16057453168E+03  0.50400001928E-02 0. -1.
        1   -1    0    0  501    0  0.00000000000E+00  0.00000000000E+00 -0.75684013436E+03  0.75684013438E+03  0.50400001928E-02 0.  1.
    10030    2    1    2    0    0  0.00000000000E+00  0.00000000000E+00 -0.59626560277E+03  0.91741466606E+03  0.69722091223E+03 0.  0.
        1    1    3    3  502    0  0.11372489654E+03 -0.63495673785E+02  0.12735467135E+03  0.18216548801E+03  0.50400001928E-02 0. -1.
       -1    1    3    3    0  502 -0.11372489654E+03  0.63495673785E+02 -0.72362027411E+03  0.73524917804E+03  0.50400001928E-02 0.  1.
</event>
<event>
 5   0  0.1909053E-02  0.7085987E+03  0.7818609E-02  0.9702639E-01
       -2   -1    0    0    0  501  0.00000000000E+00  0.00000000000E+00  0.11921171229E+03  0.11921171231E+03  0.25500000920E-02 0. -1.
        2   -1    0    0  501    0  0.00000000000E+00  0.00000000000E+00 -0.10529840720E+04  0.10529840720E+04  0.25500000920E-02 0.  1.
    10030    2    1    2    0    0  0.00000000000E+00  0.00000000000E+00 -0.93377235969E+03  0.11721957843E+04  0.70859871366E+03 0.  0.
        1    1    3    3  502    0 -0.12767358929E+03  0.75571514134E+02 -0.99912242816E+03  0.10100778315E+04  0.50400001928E-02 0.  1.
       -1    1    3    3    0  502  0.12767358929E+03 -0.75571514134E+02  0.65350068476E+02  0.16211795282E+03  0.50400001928E-02 0. -1.
</event>
<event>
 5   0  0.1909053E-02  0.7021249E+03  0.7818609E-02  0.9713605E-01
       -2   -1    0    0    0  501  0.00000000000E+00  0.00000000000E+00  0.33310268981E+03  0.33310268982E+03  0.25500000920E-02 0.  1.
        2   -1    0    0  501    0  0.00000000000E+00  0.00000000000E+00 -0.36999048842E+03  0.36999048842E+03  0.25500000920E-02 0. -1.
    10030    2    1    2    0    0  0.00000000000E+00  0.00000000000E+00 -0.36887798609E+02  0.70309317824E+03  0.70212485186E+03 0.  0.
        1    1    3    3  502    0 -0.17211146150E+03  0.25541025731E+02 -0.32377444416E+03  0.36756576268E+03  0.50400001928E-02 0. -1.
       -1    1    3    3    0  502  0.17211146150E+03 -0.25541025731E+02  0.28688664555E+03  0.33552741557E+03  0.50400001928E-02 0.  1.
</event>
<event>
 5   0  0.1973067E-02  0.7007469E+03  0.7818609E-02  0.9715956E-01
        2   -1    0    0  501    0  0.00000000000E+00  0.00000000000E+00  0.13499712151E+04  0.13499712151E+04  0.25500000920E-02 0. -1.
       -2   -1    0    0    0  501  0.00000000000E+00  0.00000000000E+00 -0.90936432291E+02  0.90936432326E+02  0.25500000920E-02 0.  1.
    10030    2    1    2    0    0  0.00000000000E+00  0.00000000000E+00  0.12590347829E+04  0.14409076475E+04  0.70074693300E+03 0.  0.
        5    1    3    3  502    0 -0.48124609347E+02  0.18731697052E+03  0.28840808561E+02  0.19559526504E+03  0.46999998093E+01 0.  1.
       -5    1    3    3    0  502  0.48124609347E+02 -0.18731697052E+03  0.12301939743E+04  0.12453123824E+04  0.46999998093E+01 0. -1.
</event>
<event>
 5   0  0.1948138E-02  0.6995743E+03  0.7818609E-02  0.9717960E-01
        2   -1    0    0  501    0  0.00000000000E+00  0.00000000000E+00  0.63638606166E+03  0.63638606166E+03  0.25500000920E-02 0.  1.
       -2   -1    0    0    0  501  0.00000000000E+00  0.00000000000E+00 -0.19225916325E+03  0.19225916327E+03  0.25500000920E-02 0. -1.
    10030    2    1    2    0    0  0.00000000000E+00  0.00000000000E+00  0.44412689841E+03  0.82864522493E+03  0.69957430406E+03 0.  0.
        3    1    3    3  502    0  0.25618788974E+03  0.14722541281E+03  0.32631793999E+00  0.29547871956E+03  0.10100000352E+00 0. -1.
       -3    1    3    3    0  502 -0.25618788974E+03 -0.14722541281E+03  0.44380058047E+03  0.53316650537E+03  0.10100000352E+00 0.  1.
</event>
<event>
 5   0  0.1226303E-02  0.6989294E+03  0.7818609E-02  0.9719065E-01
       -1   -1    0    0    0  501  0.00000000000E+00  0.00000000000E+00  0.46266138361E+03  0.46266138364E+03  0.50400001928E-02 0. -1.
        1   -1    0    0  501    0  0.00000000000E+00  0.00000000000E+00 -0.26396318658E+03  0.26396318663E+03  0.50400001928E-02 0.  1.
    10030    2    1    2    0    0  0.00000000000E+00  0.00000000000E+00  0.19869819703E+03  0.72662457027E+03  0.69892939030E+03 0.  0.
        4    1    3    3  502    0  0.24304512883E+03 -0.12385533090E+03  0.32643731728E+03  0.42541040497E+03  0.12699999809E+01 0.  1.
       -4    1    3    3    0  502 -0.24304512883E+03  0.12385533090E+03 -0.12773912025E+03  0.30121416531E+03  0.12699999809E+01 0. -1.
</event>
<event>
 5   0  0.1257442E-02  0.7000762E+03  0.7818609E-02  0.9717102E-01
        1   -1    0    0  501    0  0.00000000000E+00  0.00000000000E+00  0.49554762662E+03  0.49554762665E+03  0.50400001928E-02 0.  1.
       -1   -1    0    0    0  501  0.00000000000E+00  0.00000000000E+00 -0.24725507361E+03  0.24725507366E+03  0.50400001928E-02 0. -1.
    10030    2    1    2    0    0  0.00000000000E+00  0.00000000000E+00  0.24829255302E+03  0.74280270030E+03  0.70007618135E+03 0.  0.
        1    1    3    3  502    0  0.22932851929E+03 -0.10322271115E+03 -0.13418850436E+03  0.28504921082E+03  0.50400001928E-02 0. -1.
       -1    1    3    3    0  502 -0.22932851929E+03  0.10322271115E+03  0.38248105738E+03  0.45775348949E+03  0.50400001928E-02 0.  1.
</event>
<event>
 5   0  0.1257442E-02  0.6389295E+03  0.7818609E-02  0.9827777E-01
        1   -1    0    0  501    0  0.00000000000E+00  0.00000000000E+00  0.10494506615E+04  0.10494506615E+04  0.50400001928E-02 0. -1.
       -1   -1    0    0    0  501  0.00000000000E+00  0.00000000000E+00 -0.97248711072E+02  0.97248711203E+02  0.50400001928E-02 0.  1.
    10030    2    1    2    0    0  0.00000000000E+00  0.00000000000E+00  0.95220195044E+03  0.11466993727E+04  0.63892949297E+03 0.  0.
        1    1    3    3  502    0 -0.17193314685E+03  0.16200693587E+03  0.90129940319E+02  0.25284513130E+03  0.50400001928E-02 0.  1.
       -1    1    3    3    0  502  0.17193314685E+03 -0.16200693587E+03  0.86207201012E+03  0.89385424143E+03  0.50400001928E-02 0. -1.
</event>
<event>
 5   0  0.1973067E-02  0.7009965E+03  0.7818609E-02  0.9715530E-01
       -2   -1    0    0    0  501  0.00000000000E+00  0.00000000000E+00  0.21696743426E+03  0.21696743427E+03  0.25500000920E-02 0. -1.
        2   -1    0    0  501    0  0.00000000000E+00  0.00000000000E+00 -0.56620944249E+03  0.56620944250E+03  0.25500000920E-02 0.  1.
    10030    2    1    2    0    0  0.00000000000E+00  0.00000000000E+00 -0.34924200823E+03  0.78317687677E+03  0.70099646218E+03 0.  0.
        5    1    3    3  502    0 -0.27238389248E+03  0.21626079854E+03 -0.22287207778E+03  0.41310503619E+03  0.46999998093E+01 0.  1.
       -5    1    3    3    0  502  0.27238389248E+03 -0.21626079854E+03 -0.12636993046E+03  0.37007184058E+03  0.46999998093E+01 0. -1.
</event>
<event>
 5   0  0.1909053E-02  0.6992374E+03  0.7818609E-02  0.9718537E-01
       -2   -1    0    0    0  501  0.00000000000E+00  0.00000000000E+00  0.82795649669E+02  0.82795649709E+02  0.25500000920E-02 0. -1.
        2   -1    0    0  501    0  0.00000000000E+00  0.00000000000E+00 -0.14763245674E+04  0.14763245674E+04  0.25500000920E-02 0.  1.
    10030    2    1    2    0    0  0.00000000000E+00  0.00000000000E+00 -0.13935289177E+04  0.15591202171E+04  0.69923744668E+03 0.  0.
        1    1    3    3  502    0  0.20659804276E+03  0.22012954048E+03 -0.30358607692E+03  0.42814048160E+03  0.50400001928E-02 0. -1.
       -1    1    3    3    0  502 -0.20659804276E+03 -0.22012954048E+03 -0.10899428408E+04  0.11309797355E+04  0.50400001928E-02 0.  1.
</event>
<event>
 5   0  0.1197259E-02  0.7280917E+03  0.7818609E-02  0.9670362E-01
       -1   -1    0    0    0  501  0.00000000000E+00  0.00000000000E+00  0.25443774921E+03  0.25443774926E+03  0.50400001928E-02 0.  1.
        1   -1    0    0  501    0  0.00000000000E+00  0.00000000000E+00 -0.52087160127E+03  0.52087160129E+03  0.50400001928E-02 0. -1.
    10030    2    1    2    0    0  0.00000000000E+00  0.00000000000E+00 -0.26643385206E+03  0.77530935055E+03  0.72809174664E+03 0.  0.
        3    1    3    3  502    0  0.17471420438E+02  0.30581982499E+03 -0.34269340243E+03  0.45964094048E+03  0.10100000352E+00 0. -1.
       -3    1    3    3    0  502 -0.17471420438E+02 -0.30581982499E+03  0.76259550370E+02  0.31566841007E+03  0.10100000352E+00 0.  1.
</event>
<event>
 5   0  0.1197259E-02  0.7037040E+03  0.7818609E-02  0.9710919E-01
       -1   -1    0    0    0  501  0.00000000000E+00  0.00000000000E+00  0.23861170414E+03  0.23861170419E+03  0.50400001928E-02 0.  1.
        1   -1    0    0  501    0  0.00000000000E+00  0.00000000000E+00 -0.51883386654E+03  0.51883386656E+03  0.50400001928E-02 0. -1.
    10030    2    1    2    0    0  0.00000000000E+00  0.00000000000E+00 -0.28022216240E+03  0.75744557076E+03  0.70370400905E+03 0.  0.
        3    1    3    3  502    0 -0.28192832894E+03  0.32188287870E+02  0.83815580444E+02  0.29587958744E+03  0.10100000352E+00 0.  1.
       -3    1    3    3    0  502  0.28192832894E+03 -0.32188287870E+02 -0.36403774285E+03  0.46156598332E+03  0.10100000352E+00 0. -1.
</event>
<event>
 5   0  0.1909053E-02  0.6973463E+03  0.7818609E-02  0.9721781E-01
       -2   -1    0    0    0  501  0.00000000000E+00  0.00000000000E+00  0.17029518281E+03  0.17029518282E+03  0.25500000920E-02 0. -1.
        2   -1    0    0  501    0  0.00000000000E+00  0.00000000000E+00 -0.71389553021E+03  0.71389553021E+03  0.25500000920E-02 0.  1.
    10030    2    1    2    0    0  0.00000000000E+00  0.00000000000E+00 -0.54360034740E+03  0.88419071303E+03  0.69734631233E+03 0.  0.
        1    1    3    3  502    0  0.23399852947E+03  0.31514214318E+02 -0.59710556840E+03  0.64209307530E+03  0.50400001928E-02 0.  1.
       -1    1    3    3    0  502 -0.23399852947E+03 -0.31514214318E+02  0.53505221004E+02  0.24209763774E+03  0.50400001928E-02 0. -1.
</event>
<event>
 5   0  0.1257442E-02  0.6946441E+03  0.7818609E-02  0.9726436E-01
        1   -1    0    0  501    0  0.00000000000E+00  0.00000000000E+00  0.87753399214E+03  0.87753399215E+03  0.50400001928E-02 0.  1.
       -1   -1    0    0    0  501  0.00000000000E+00  0.00000000000E+00 -0.13746771540E+03  0.13746771549E+03  0.50400001928E-02 0. -1.
    10030    2    1    2    0    0  0.00000000000E+00  0.00000000000E+00  0.74006627674E+03  0.10150017076E+04  0.69464406178E+03 0.  0.
        1    1    3    3  502    0  0.24061250646E+03 -0.17065816949E+03  0.10213816219E+03  0.31217109617E+03  0.50400001928E-02 0. -1.
       -1    1    3    3    0  502 -0.24061250646E+03  0.17065816949E+03  0.63792811455E+03  0.70283061148E+03  0.50400001928E-02 0.  1.
</event>
<event>
 5   0  0.1223742E-02  0.7058676E+03  0.7818609E-02  0.9707250E-01
       -1   -1    0    0    0  501  0.00000000000E+00  0.00000000000E+00  0.34184437105E+03  0.34184437109E+03  0.50400001928E-02 0. -1.
        1   -1    0    0  501    0  0.00000000000E+00  0.00000000000E+00 -0.36438295851E+03  0.36438295855E+03  0.50400001928E-02 0.  1.
    10030    2    1    2    0    0  0.00000000000E+00  0.00000000000E+00 -0.22538587464E+02  0.70622732963E+03  0.70586758900E+03 0.  0.
        2    1    3    3  502    0 -0.27817044454E+03  0.21600649308E+03  0.11647881913E+02  0.35238228450E+03  0.25500000920E-02 0.  1.
       -2    1    3    3    0  502  0.27817044454E+03 -0.21600649308E+03 -0.34186469377E+02  0.35384504513E+03  0.25500000920E-02 0. -1.
</event>
<event>
 5   0  0.1226303E-02  0.6973777E+03  0.7818609E-02  0.9721727E-01
       -1   -1    0    0    0  501  0.00000000000E+00  0.00000000000E+00  0.10985848123E+03  0.10985848134E+03  0.50400001928E-02 0. -1.
        1   -1    0    0  501    0  0.00000000000E+00  0.00000000000E+00 -0.11067322516E+04  0.11067322516E+04  0.50400001928E-02 0.  1.
    10030    2    1    2    0    0  0.00000000000E+00  0.00000000000E+00 -0.99687377039E+03  0.12165907330E+04  0.69737772940E+03 0.  0.
        4    1    3    3  502    0 -0.74276295625E+02 -0.30317413827E+03 -0.22732905694E+03  0.38614976270E+03  0.12699999809E+01 0. -1.
       -4    1    3    3    0  502  0.74276295625E+02  0.30317413827E+03 -0.76954471345E+03  0.83044097027E+03  0.12699999809E+01 0.  1.
</event>
<event>
 5   0  0.1223742E-02  0.7016965E+03  0.7818609E-02  0.9714335E-01
       -1   -1    0    0    0  501  0.00000000000E+00  0.00000000000E+00  0.20014198598E+03  0.20014198604E+03  0.50400001928E-02 0. -1.
        1   -1    0    0  501    0  0.00000000000E+00  0.00000000000E+00 -0.61503575595E+03  0.61503575597E+03  0.50400001928E-02 0.  1.
    10030    2    1    2    0    0  0.00000000000E+00  0.00000000000E+00 -0.41489376998E+03  0.81517774202E+03  0.70169645197E+03 0.  0.
        2    1    3    3  502    0  0.31026547935E+03  0.11034842510E+03 -0.34807327459E+03  0.47916223462E+03  0.25500000920E-02 0.  1.
       -2    1    3    3    0  502 -0.31026547935E+03 -0.11034842510E+03 -0.66820495385E+02  0.33601550739E+03  0.25500000920E-02 0. -1.
</event>
<event>
 5   0  0.1257442E-02  0.7013207E+03  0.7818609E-02  0.9714976E-01
        1   -1    0    0  501    0  0.00000000000E+00  0.00000000000E+00  0.75788486049E+03  0.75788486050E+03  0.50400001928E-02 0. -1.
       -1   -1    0    0    0  501  0.00000000000E+00  0.00000000000E+00 -0.16224453630E+03  0.16224453638E+03  0.50400001928E-02 0.  1.
    10030    2    1    2    0    0  0.00000000000E+00  0.00000000000E+00  0.59564032418E+03  0.92012939689E+03  0.70132069071E+03 0.  0.
        1    1    3    3  502    0  0.12856271773E+03 -0.16872923122E+03 -0.68517361124E+02  0.22291826901E+03  0.50400001928E-02 0.  1.
       -1    1    3    3    0  502 -0.12856271773E+03  0.16872923122E+03  0.66415768531E+03  0.69721112788E+03  0.50400001928E-02 0. -1.
</event>
<event>
 5   0  0.1197259E-02  0.7014833E+03  0.7818609E-02  0.9714699E-01
       -1   -1    0    0    0  501  0.00000000000E+00  0.00000000000E+00  0.13069874898E+03  0.13069874908E+03  0.50400001928E-02 0. -1.
        1   -1    0    0  501    0  0.00000000000E+00  0.00000000000E+00 -0.94124619578E+03  0.94124619579E+03  0.50400001928E-02 0.  1.
    10030    2    1    2    0    0  0.00000000000E+00  0.00000000000E+00 -0.81054744680E+03  0.10719449449E+04  0.70148328656E+03 0.  0.
        3    1    3    3  502    0 -0.44256645954E+02  0.16290588299E+03 -0.87508478829E+03  0.89121847732E+03  0.10100000352E+00 0.  1.
       -3    1    3    3    0  502  0.44256645954E+02 -0.16290588299E+03  0.64537341491E+02  0.18072646755E+03  0.10100000352E+00 0. -1.
</event>
<event>
 5   0  0.1226303E-02  0.6969598E+03  0.7818609E-02  0.9722446E-01
       -1   -1    0    0    0  501  0.00000000000E+00  0.00000000000E+00  0.11880250227E+03  0.11880250238E+03  0.50400001928E-02 0.  1.
        1   -1    0    0  501    0  0.00000000000E+00  0.00000000000E+00 -0.10221858078E+04  0.10221858078E+04  0.50400001928E-02 0. -1.
    10030    2    1    2    0    0  0.00000000000E+00  0.00000000000E+00 -0.90338330552E+03  0.11409883102E+04  0.69695977451E+03 0.  0.
        4    1    3    3  502    0  0.18831560095E+03  0.15573963237E+02  0.27647825780E+02  0.19097468173E+03  0.12699999809E+01 0.  1.
       -4    1    3    3    0  502 -0.18831560095E+03 -0.15573963237E+02 -0.93103113130E+03  0.95001362845E+03  0.12699999809E+01 0. -1.
</event>
<event>
 5   0  0.1948138E-02  0.6872028E+03  0.7818609E-02  0.9739371E-01
       -2   -1    0    0    0  501  0.00000000000E+00  0.00000000000E+00  0.60777055149E+02  0.60777055202E+02  0.25500000920E-02 0. -1.
        2   -1    0    0  501    0  0.00000000000E+00  0.00000000000E+00 -0.19425409714E+04  0.19425409714E+04  0.25500000920E-02 0.  1.
    10030    2    1    2    0    0  0.00000000000E+00  0.00000000000E+00 -0.18817639162E+04  0.20033180266E+04  0.68720279337E+03 0.  0.
        3    1    3    3  502    0 -0.21297915750E+03 -0.24071839184E+03 -0.58675756896E+03  0.66902161447E+03  0.10100000352E+00 0.  1.
       -3    1    3    3    0  502  0.21297915750E+03  0.24071839184E+03 -0.12950063473E+04  0.13342964121E+04  0.10100000352E+00 0. -1.
</event>
<event>
 5   0  0.1223742E-02  0.6878221E+03  0.7818609E-02  0.9738288E-01
        1   -1    0    0  501    0  0.00000000000E+00  0.00000000000E+00  0.12844102226E+04  0.12844102226E+04  0.50400001928E-02 0.  1.
       -1   -1    0    0    0  501  0.00000000000E+00  0.00000000000E+00 -0.92084921983E+02  0.92084922121E+02  0.50400001928E-02 0. -1.
    10030    2    1    2    0    0  0.00000000000E+00  0.00000000000E+00  0.11923253006E+04  0.13764951447E+04  0.68782211434E+03 0.  0.
        2    1    3    3  502    0 -0.18260364411E+03 -0.26555054132E+03  0.35590053297E+03  0.48013161760E+03  0.25500000920E-02 0. -1.
       -2    1    3    3    0  502  0.18260364411E+03  0.26555054132E+03  0.83642476765E+03  0.89636352714E+03  0.25500000920E-02 0.  1.
</event>
<event>
 5   0  0.1197259E-02  0.7006480E+03  0.7818609E-02  0.9716125E-01
       -1   -1    0    0    0  501  0.00000000000E+00  0.00000000000E+00  0.28031732426E+03  0.28031732430E+03  0.50400001928E-02 0. -1.
        1   -1    0    0  501    0  0.00000000000E+00  0.00000000000E+00 -0.43781418161E+03  0.43781418164E+03  0.50400001928E-02 0.  1.
    10030    2    1    2    0    0  0.00000000000E+00  0.00000000000E+00 -0.15749685735E+03  0.71813150594E+03  0.70064798562E+03 0.  0.
        3    1    3    3  502    0  0.24764349508E+02 -0.13472305516E+03 -0.40922765301E+03  0.43154473324E+03  0.10100000352E+00 0.  1.
       -3    1    3    3    0  502 -0.24764349508E+02  0.13472305516E+03  0.25173079566E+03  0.28658677270E+03  0.10100000352E+00 0. -1.
</event>
<event>
 5   0  0.7947250E-03  0.6972654E+03  0.7818609E-02  0.9721920E-01
        4   -1    0    0  501    0  0.00000000000E+00  0.00000000000E+00  0.84592046393E+02  0.84601579258E+02  0.12699999809E+01 0.  1.
       -4   -1    0    0    0  501  0.00000000000E+00  0.00000000000E+00 -0.14367437186E+04  0.14367442799E+04  0.12699999809E+01 0. -1.
    10030    2    1    2    0    0  0.00000000000E+00  0.00000000000E+00 -0.13521516722E+04  0.15213458592E+04  0.69726542904E+03 0.  0.
        1    1    3    3  502    0  0.11356613685E+02 -0.33099978313E+03 -0.43851244661E+03  0.54952979443E+03  0.50400001928E-02 0.  1.
       -1    1    3    3    0  502 -0.11356613685E+02  0.33099978313E+03 -0.91363922559E+03  0.97181606473E+03  0.50400001928E-02 0. -1.
</event>
<event>
 5   0  0.1909053E-02  0.7049517E+03  0.7818609E-02  0.9708801E-01
       -2   -1    0    0    0  501  0.00000000000E+00  0.00000000000E+00  0.60364185709E+03  0.60364185710E+03  0.25500000920E-02 0.  1.
        2   -1    0    0  501    0  0.00000000000E+00  0.00000000000E+00 -0.20581612553E+03  0.20581612554E+03  0.25500000920E-02 0. -1.
    10030    2    1    2    0    0  0.00000000000E+00  0.00000000000E+00  0.39782573157E+03  0.80945798264E+03  0.70495170967E+03 0.  0.
        1    1    3    3  502    0  0.71421214952E+02  0.24690034577E+03  0.47587222360E+03  0.54084669168E+03  0.50400001928E-02 0.  1.
       -1    1    3    3    0  502 -0.71421214952E+02 -0.24690034577E+03 -0.78046492034E+02  0.26861129096E+03  0.50400001928E-02 0. -1.
</event>
<event>
 5   0  0.7947250E-03  0.6994229E+03  0.7818609E-02  0.9718220E-01
       -3   -1    0    0    0  501  0.00000000000E+00  0.00000000000E+00  0.37597988847E+03  0.37597990204E+03  0.10100000352E+00 0.  1.
        3   -1    0    0  501    0  0.00000000000E+00  0.00000000000E+00 -0.32527830943E+03  0.32527832511E+03  0.10100000352E+00 0. -1.
    10030    2    1    2    0    0  0.00000000000E+00  0.00000000000E+00  0.50701579039E+02  0.70125822715E+03  0.69942294145E+03 0.  0.
        3    1    3    3  502    0  0.12559324454E+03 -0.23779555003E+03  0.24949436632E+03  0.36683488890E+03  0.10100000352E+00 0.  1.
       -3    1    3    3    0  502 -0.12559324454E+03  0.23779555003E+03 -0.19879278728E+03  0.33442333825E+03  0.10100000352E+00 0. -1.
</event>
<event>
 5   0  0.1257442E-02  0.6968756E+03  0.7818609E-02  0.9722590E-01
       -1   -1    0    0    0  501  0.00000000000E+00  0.00000000000E+00  0.13161432317E+03  0.13161432326E+03  0.50400001928E-02 0.  1.
        1   -1    0    0  501    0  0.00000000000E+00  0.00000000000E+00 -0.92245971069E+03  0.92245971070E+03  0.50400001928E-02 0. -1.
    10030    2    1    2    0    0  0.00000000000E+00  0.00000000000E+00 -0.79084538752E+03  0.10540740340E+04  0.69687562887E+03 0.  0.
        1    1    3    3  502    0  0.97736996397E+02  0.10141493899E+03  0.86637818688E+02  0.16535906980E+03  0.50400001928E-02 0.  1.
       -1    1    3    3    0  502 -0.97736996397E+02 -0.10141493899E+03 -0.87748320621E+03  0.88871496416E+03  0.50400001928E-02 0. -1.
</event>
<event>
 5   0  0.2026361E-02  0.6950145E+03  0.7818609E-02  0.9725796E-01
       -2   -1    0    0    0  501  0.00000000000E+00  0.00000000000E+00  0.33832865460E+03  0.33832865461E+03  0.25500000920E-02 0.  1.
        2   -1    0    0  501    0  0.00000000000E+00  0.00000000000E+00 -0.35693485779E+03  0.35693485780E+03  0.25500000920E-02 0. -1.
    10030    2    1    2    0    0  0.00000000000E+00  0.00000000000E+00 -0.18606203195E+02  0.69526351241E+03  0.69501450409E+03 0.  0.
        2    1    3    3  502    0 -0.15341243342E+02  0.30861506010E+03 -0.16836535622E+03  0.35188847985E+03  0.25500000920E-02 0. -1.
       -2    1    3    3    0  502  0.15341243342E+02 -0.30861506010E+03  0.14975915303E+03  0.34337503256E+03  0.25500000920E-02 0.  1.
</event>
<event>
 5   0  0.1237686E-02  0.6978661E+03  0.7818609E-02  0.9720888E-01
       -1   -1    0    0    0  501  0.00000000000E+00  0.00000000000E+00  0.33839678892E+03  0.33839678895E+03  0.50400001928E-02 0.  1.
        1   -1    0    0  501    0  0.00000000000E+00  0.00000000000E+00 -0.35979737223E+03  0.35979737227E+03  0.50400001928E-02 0. -1.
    10030    2    1    2    0    0  0.00000000000E+00  0.00000000000E+00 -0.21400583315E+02  0.69819416122E+03  0.69786610592E+03 0.  0.
        5    1    3    3  502    0 -0.27060895941E+03 -0.69825485523E+02 -0.21967015734E+03  0.35550228602E+03  0.46999998093E+01 0. -1.
       -5    1    3    3    0  502  0.27060895941E+03  0.69825485523E+02  0.19826957403E+03  0.34269187520E+03  0.46999998093E+01 0.  1.
</event>
<event>
 5   0  0.1226303E-02  0.7147098E+03  0.7818609E-02  0.9692402E-01
       -1   -1    0    0    0  501  0.00000000000E+00  0.00000000000E+00  0.25501316931E+03  0.25501316936E+03  0.50400001928E-02 0. -1.
        1   -1    0    0  501    0  0.00000000000E+00  0.00000000000E+00 -0.50076838802E+03  0.50076838805E+03  0.50400001928E-02 0.  1.
    10030    2    1    2    0    0  0.00000000000E+00  0.00000000000E+00 -0.24575521871E+03  0.75578155741E+03  0.71470982573E+03 0.  0.
        4    1    3    3  502    0 -0.26156744561E+03 -0.82502269675E+02 -0.36511996212E+03  0.45665999687E+03  0.12699999809E+01 0.  1.
       -4    1    3    3    0  502  0.26156744561E+03  0.82502269675E+02  0.11936474341E+03  0.29912156053E+03  0.12699999809E+01 0. -1.
</event>
<event>
 5   0  0.1197259E-02  0.7035635E+03  0.7818609E-02  0.9711157E-01
        1   -1    0    0  501    0  0.00000000000E+00  0.00000000000E+00  0.59857253209E+03  0.59857253211E+03  0.50400001928E-02 0.  1.
       -1   -1    0    0    0  501  0.00000000000E+00  0.00000000000E+00 -0.20674254024E+03  0.20674254030E+03  0.50400001928E-02 0. -1.
    10030    2    1    2    0    0  0.00000000000E+00  0.00000000000E+00  0.39182999186E+03  0.80531507241E+03  0.70356351763E+03 0.  0.
        3    1    3    3  502    0 -0.21719162768E+03  0.25734062738E+03  0.79444353687E+02  0.34598817490E+03  0.10100000352E+00 0. -1.
       -3    1    3    3    0  502  0.21719162768E+03 -0.25734062738E+03  0.31238563817E+03  0.45932689751E+03  0.10100000352E+00 0.  1.
</event>
<event>
 5   0  0.7947250E-03  0.7003299E+03  0.7818609E-02  0.9716668E-01
       -3   -1    0    0    0  501  0.00000000000E+00  0.00000000000E+00  0.51136843902E+03  0.51136844900E+03  0.10100000352E+00 0.  1.
        3   -1    0    0  501    0  0.00000000000E+00  0.00000000000E+00 -0.23977911785E+03  0.23977913912E+03  0.10100000352E+00 0. -1.
    10030    2    1    2    0    0  0.00000000000E+00  0.00000000000E+00  0.27158932117E+03  0.75114758812E+03  0.70032987925E+03 0.  0.
        4    1    3    3  502    0  0.30959972530E+03 -0.75640745054E+02 -0.19783704278E+02  0.31932196929E+03  0.12699999809E+01 0. -1.
       -4    1    3    3    0  502 -0.30959972530E+03  0.75640745054E+02  0.29137302545E+03  0.43182561883E+03  0.12699999809E+01 0.  1.
</event>
<event>
 5   0  0.1948138E-02  0.7098446E+03  0.7818609E-02  0.9700543E-01
        2   -1    0    0  501    0  0.00000000000E+00  0.00000000000E+00  0.58356564750E+03  0.58356564751E+03  0.25500000920E-02 0.  1.
       -2   -1    0    0    0  501  0.00000000000E+00  0.00000000000E+00 -0.21586234480E+03  0.21586234482E+03  0.25500000920E-02 0. -1.
    10030    2    1    2    0    0  0.00000000000E+00  0.00000000000E+00  0.36770330270E+03  0.79942799233E+03  0.70984462814E+03 0.  0.
        3    1    3    3  502    0 -0.98253710440E+01 -0.25090087117E+03 -0.98647726568E+02  0.26977614651E+03  0.10100000352E+00 0. -1.
       -3    1    3    3    0  502  0.98253710440E+01  0.25090087117E+03  0.46635102927E+03  0.52965184581E+03  0.10100000352E+00 0.  1.
</event>
<event>
 5   0  0.2006362E-02  0.6955147E+03  0.7818609E-02  0.9724934E-01
       -2   -1    0    0    0  501  0.00000000000E+00  0.00000000000E+00  0.31549737656E+03  0.31549737657E+03  0.25500000920E-02 0.  1.
        2   -1    0    0  501    0  0.00000000000E+00  0.00000000000E+00 -0.38331594115E+03  0.38331594116E+03  0.25500000920E-02 0. -1.
    10030    2    1    2    0    0  0.00000000000E+00  0.00000000000E+00 -0.67818564593E+02  0.69881331772E+03  0.69551469814E+03 0.  0.
        4    1    3    3  502    0 -0.30816235168E+03 -0.10589898170E+03  0.88136692699E+02  0.33756231842E+03  0.12699999809E+01 0.  1.
       -4    1    3    3    0  502  0.30816235168E+03  0.10589898170E+03 -0.15595525729E+03  0.36125099930E+03  0.12699999809E+01 0. -1.
</event>
<event>
 5   0  0.1226303E-02  0.6982927E+03  0.7818609E-02  0.9720156E-01
       -1   -1    0    0    0  501  0.00000000000E+00  0.00000000000E+00  0.45866992306E+03  0.45866992308E+03  0.50400001928E-02 0. -1.
        1   -1    0    0  501    0  0.00000000000E+00  0.00000000000E+00 -0.26577537357E+03  0.26577537362E+03  0.50400001928E-02 0.  1.
    10030    2    1    2    0    0  0.00000000000E+00  0.00000000000E+00  0.19289454949E+03  0.72444529670E+03  0.69829268984E+03 0.  0.
        4    1    3    3  502    0  0.25482528473E+02  0.13600274246E+02 -0.26453128312E+03  0.26610663157E+03  0.12699999809E+01 0.  1.
       -4    1    3    3    0  502 -0.25482528473E+02 -0.13600274246E+02  0.45742583261E+03  0.45833866513E+03  0.12699999809E+01 0. -1.
</event>
<event>
 5   0  0.1237686E-02  0.6980314E+03  0.7818609E-02  0.9720605E-01
        1   -1    0    0  501    0  0.00000000000E+00  0.00000000000E+00  0.50343138354E+03  0.50343138356E+03  0.50400001928E-02 0.  1.
       -1   -1    0    0    0  501  0.00000000000E+00  0.00000000000E+00 -0.24196338305E+03  0.24196338310E+03  0.50400001928E-02 0. -1.
    10030    2    1    2    0    0  0.00000000000E+00  0.00000000000E+00  0.26146800049E+03  0.74539476666E+03  0.69803140537E+03 0.  0.
        5    1    3    3  502    0 -0.20821157693E+02 -0.34801769355E+03  0.14727831352E+03  0.37850076257E+03  0.46999998093E+01 0.  1.
       -5    1    3    3    0  502  0.20821157693E+02  0.34801769355E+03  0.11418968697E+03  0.36689400409E+03  0.46999998093E+01 0. -1.
</event>
<event>
 5   0  0.1948138E-02  0.6996721E+03  0.7818609E-02  0.9717793E-01
       -2   -1    0    0    0  501  0.00000000000E+00  0.00000000000E+00  0.29994090387E+03  0.29994090389E+03  0.25500000920E-02 0.  1.
        2   -1    0    0  501    0  0.00000000000E+00  0.00000000000E+00 -0.40803123645E+03  0.40803123646E+03  0.25500000920E-02 0. -1.
    10030    2    1    2    0    0  0.00000000000E+00  0.00000000000E+00 -0.10809033257E+03  0.70797214034E+03  0.69967208856E+03 0.  0.
        3    1    3    3  502    0  0.11896207364E+03 -0.32507526286E+03 -0.10523528490E+03  0.36180157113E+03  0.10100000352E+00 0. -1.
       -3    1    3    3    0  502 -0.11896207364E+03  0.32507526286E+03 -0.28550476766E+01  0.34617056921E+03  0.10100000352E+00 0.  1.
</event>
<event>
 5   0  0.1223742E-02  0.6985586E+03  0.7818609E-02  0.9719700E-01
       -1   -1    0    0    0  501  0.00000000000E+00  0.00000000000E+00  0.48893744986E+03  0.48893744989E+03  0.50400001928E-02 0. -1.
        1   -1    0    0  501    0  0.00000000000E+00  0.00000000000E+00 -0.24951254964E+03  0.24951254969E+03  0.50400001928E-02 0.  1.
    10030    2    1    2    0    0  0.00000000000E+00  0.00000000000E+00  0.23942490022E+03  0.73844999958E+03  0.69855860100E+03 0.  0.
        2    1    3    3  502    0  0.78265223090E+02  0.29554453554E+03 -0.58822627420E+02  0.31133923481E+03  0.25500000920E-02 0.  1.
       -2    1    3    3    0  502 -0.78265223090E+02 -0.29554453554E+03  0.29824752764E+03  0.42711076477E+03  0.25500000920E-02 0. -1.
</event>
<event>
 5   0  0.1948138E-02  0.7135730E+03  0.7818609E-02  0.9694298E-01
        2   -1    0    0  501    0  0.00000000000E+00  0.00000000000E+00  0.51796493804E+03  0.51796493805E+03  0.25500000920E-02 0. -1.
       -2   -1    0    0    0  501  0.00000000000E+00  0.00000000000E+00 -0.24576300839E+03  0.24576300840E+03  0.25500000920E-02 0.  1.
    10030    2    1    2    0    0  0.00000000000E+00  0.00000000000E+00  0.27220192966E+03  0.76372794645E+03  0.71357304159E+03 0.  0.
        3    1    3    3  502    0  0.32206056856E+03 -0.15031762984E+03  0.16957566101E+03  0.39379476211E+03  0.10100000352E+00 0. -1.
       -3    1    3    3    0  502 -0.32206056856E+03  0.15031762984E+03  0.10262626864E+03  0.36993318434E+03  0.10100000352E+00 0.  1.
</event>
<event>
 5   0  0.1237686E-02  0.7068749E+03  0.7818609E-02  0.9705547E-01
       -1   -1    0    0    0  501  0.00000000000E+00  0.00000000000E+00  0.21562416902E+03  0.21562416908E+03  0.50400001928E-02 0.  1.
        1   -1    0    0  501    0  0.00000000000E+00  0.00000000000E+00 -0.57933226698E+03  0.57933226700E+03  0.50400001928E-02 0. -1.
    10030    2    1    2    0    0  0.00000000000E+00  0.00000000000E+00 -0.36370809796E+03  0.79495643609E+03  0.70687492157E+03 0.  0.
        5    1    3    3  502    0  0.29989780562E+03  0.12837491224E+03 -0.33472258011E+03  0.46741855713E+03  0.46999998093E+01 0. -1.
       -5    1    3    3    0  502 -0.29989780562E+03 -0.12837491224E+03 -0.28985517846E+02  0.32753787896E+03  0.46999998093E+01 0.  1.
</event>
<event>
 5   0  0.1223742E-02  0.7040379E+03  0.7818609E-02  0.9710352E-01
        1   -1    0    0  501    0  0.00000000000E+00  0.00000000000E+00  0.19976470191E+03  0.19976470198E+03  0.50400001928E-02 0.  1.
       -1   -1    0    0    0  501  0.00000000000E+00  0.00000000000E+00 -0.62031648321E+03  0.62031648324E+03  0.50400001928E-02 0. -1.
    10030    2    1    2    0    0  0.00000000000E+00  0.00000000000E+00 -0.42055178130E+03  0.82008118521E+03  0.70403788931E+03 0.  0.
        2    1    3    3  502    0  0.14428419841E+02  0.75255118925E+02  0.18993244691E+03  0.20480685198E+03  0.25500000920E-02 0.  1.
       -2    1    3    3    0  502 -0.14428419841E+02 -0.75255118925E+02 -0.61048422821E+03  0.61527433323E+03  0.25500000920E-02 0. -1.
</event>
<event>
 5   0  0.1973067E-02  0.6998857E+03  0.7818609E-02  0.9717428E-01
       -2   -1    0    0    0  501  0.00000000000E+00  0.00000000000E+00  0.49375149049E+03  0.49375149050E+03  0.25500000920E-02 0. -1.
        2   -1    0    0  501    0  0.00000000000E+00  0.00000000000E+00 -0.24801949224E+03  0.24801949225E+03  0.25500000920E-02 0.  1.
    10030    2    1    2    0    0  0.00000000000E+00  0.00000000000E+00  0.24573199826E+03  0.74177098275E+03  0.69988568772E+03 0.  0.
        5    1    3    3  502    0  0.17777059666E+03  0.28852129515E+03  0.30525613255E+02  0.34029520398E+03  0.46999998093E+01 0.  1.
       -5    1    3    3    0  502 -0.17777059666E+03 -0.28852129515E+03  0.21520638500E+03  0.40147577876E+03  0.46999998093E+01 0. -1.
</event>
<event>
 5   0  0.1257442E-02  0.7008389E+03  0.7818609E-02  0.9715799E-01
       -1   -1    0    0    0  501  0.00000000000E+00  0.00000000000E+00  0.51047749365E+03  0.51047749368E+03  0.50400001928E-02 0. -1.
        1   -1    0    0  501    0  0.00000000000E+00  0.00000000000E+00 -0.24054693825E+03  0.24054693830E+03  0.50400001928E-02 0.  1.
    10030    2    1    2    0    0  0.00000000000E+00  0.00000000000E+00  0.26993055540E+03  0.75102443198E+03  0.70083892065E+03 0.  0.
        1    1    3    3  502    0  0.26564128183E+03 -0.77257172820E+02 -0.95517193357E+02  0.29267301826E+03  0.50400001928E-02 0.  1.
       -1    1    3    3    0  502 -0.26564128183E+03  0.77257172820E+02  0.36544774876E+03  0.45835141372E+03  0.50400001928E-02 0. -1.
</event>
<event>
 5   0  0.1257442E-02  0.7019481E+03  0.7818609E-02  0.9713907E-01
       -1   -1    0    0    0  501  0.00000000000E+00  0.00000000000E+00  0.16885306957E+03  0.16885306965E+03  0.50400001928E-02 0. -1.
        1   -1    0    0  501    0  0.00000000000E+00  0.00000000000E+00 -0.72952637499E+03  0.72952637501E+03  0.50400001928E-02 0.  1.
    10030    2    1    2    0    0  0.00000000000E+00  0.00000000000E+00 -0.56067330542E+03  0.89837944466E+03  0.70194805447E+03 0.  0.
        1    1    3    3  502    0 -0.13598713358E+03 -0.24463895554E+03 -0.93190154126E+01  0.28004921557E+03  0.50400001928E-02 0. -1.
       -1    1    3    3    0  502  0.13598713358E+03  0.24463895554E+03 -0.55135429000E+03  0.61833022908E+03  0.50400001928E-02 0.  1.
</event>
<event>
 5   0  0.1948138E-02  0.7017866E+03  0.7818609E-02  0.9714182E-01
       -2   -1    0    0    0  501  0.00000000000E+00  0.00000000000E+00  0.69672900997E+02  0.69672901044E+02  0.25500000920E-02 0.  1.
        2   -1    0    0  501    0  0.00000000000E+00  0.00000000000E+00 -0.17672023976E+04  0.17672023976E+04  0.25500000920E-02 0. -1.
    10030    2    1    2    0    0  0.00000000000E+00  0.00000000000E+00 -0.16975294966E+04  0.18368752986E+04  0.70178662778E+03 0.  0.
        3    1    3    3  502    0 -0.18871154126E+03  0.68769788283E+02 -0.16018598614E+04  0.16144027860E+04  0.10100000352E+00 0. -1.
       -3    1    3    3    0  502  0.18871154126E+03 -0.68769788283E+02 -0.95669635168E+02  0.22247251264E+03  0.10100000352E+00 0.  1.
</event>
<event>
 5   0  0.1223742E-02  0.6999706E+03  0.7818609E-02  0.9717282E-01
        1   -1    0    0  501    0  0.00000000000E+00  0.00000000000E+00  0.18647985613E+03  0.18647985620E+03  0.50400001928E-02 0.  1.
       -1   -1    0    0    0  501  0.00000000000E+00  0.00000000000E+00 -0.65685223188E+03  0.65685223189E+03  0.50400001928E-02 0. -1.
    10030    2    1    2    0    0  0.00000000000E+00  0.00000000000E+00 -0.47037237575E+03  0.84333208809E+03  0.69997059862E+03 0.  0.
        2    1    3    3  502    0 -0.14977891160E+03 -0.20196538281E+03  0.58120206240E+02  0.25807304507E+03  0.25500000920E-02 0.  1.
       -2    1    3    3    0  502  0.14977891160E+03  0.20196538281E+03 -0.52849258199E+03  0.58525904302E+03  0.25500000920E-02 0. -1.
</event>
<event>
 5   0  0.1257442E-02  0.7016504E+03  0.7818609E-02  0.9714414E-01
       -1   -1    0    0    0  501  0.00000000000E+00  0.00000000000E+00  0.28279090412E+03  0.28279090417E+03  0.50400001928E-02 0.  1.
        1   -1    0    0  501    0  0.00000000000E+00  0.00000000000E+00 -0.43522734322E+03  0.43522734325E+03  0.50400001928E-02 0. -1.
    10030    2    1    2    0    0  0.00000000000E+00  0.00000000000E+00 -0.15243643910E+03  0.71801824741E+03  0.70165043694E+03 0.  0.
        1    1    3    3  502    0  0.14580890160E+03 -0.11985467319E+03  0.22640477661E+03  0.29476177054E+03  0.50400001928E-02 0.  1.
       -1    1    3    3    0  502 -0.14580890160E+03  0.11985467319E+03 -0.37884121571E+03  0.42325647688E+03  0.50400001928E-02 0. -1.
</event>
<event>
 5   0  0.1973067E-02  0.6971269E+03  0.7818609E-02  0.9722158E-01
        2   -1    0    0  501    0  0.00000000000E+00  0.00000000000E+00  0.43724131455E+03  0.43724131456E+03  0.25500000920E-02 0.  1.
       -2   -1    0    0    0  501  0.00000000000E+00  0.00000000000E+00 -0.27787051610E+03  0.27787051612E+03  0.25500000920E-02 0. -1.
    10030    2    1    2    0    0  0.00000000000E+00  0.00000000000E+00  0.15937079845E+03  0.71511183067E+03  0.69712687437E+03 0.  0.
        5    1    3    3  502    0 -0.32288672348E+03 -0.11292125898E+03  0.11122954935E+02  0.34227599544E+03  0.46999998093E+01 0. -1.
       -5    1    3    3    0  502  0.32288672348E+03  0.11292125898E+03  0.14824784351E+03  0.37283583523E+03  0.46999998093E+01 0.  1.
</event>
<event>
 5   0  0.1237686E-02  0.7077477E+03  0.7818609E-02  0.9704074E-01
        1   -1    0    0  501    0  0.00000000000E+00  0.00000000000E+00  0.87758865289E+03  0.87758865291E+03  0.50400001928E-02 0. -1.
       -1   -1    0    0    0  501  0.00000000000E+00  0.00000000000E+00 -0.14269407780E+03  0.14269407789E+03  0.50400001928E-02 0.  1.
    10030    2    1    2    0    0  0.00000000000E+00  0.00000000000E+00  0.73489457509E+03  0.10202827308E+04  0.70774770523E+03 0.  0.
        5    1    3    3  502    0  0.24056297789E+03  0.17785859092E+03  0.95065202900E+02  0.31394857460E+03  0.46999998093E+01 0.  1.
       -5    1    3    3    0  502 -0.24056297789E+03 -0.17785859092E+03  0.63982937219E+03  0.70633415620E+03  0.46999998093E+01 0. -1.
</event>
<event>
 5   0  0.1948138E-02  0.6686885E+03  0.7818609E-02  0.9772330E-01
       -2   -1    0    0    0  501  0.00000000000E+00  0.00000000000E+00  0.13131234040E+03  0.13131234042E+03  0.25500000920E-02 0.  1.
        2   -1    0    0  501    0  0.00000000000E+00  0.00000000000E+00 -0.85129909359E+03  0.85129909359E+03  0.25500000920E-02 0. -1.
    10030    2    1    2    0    0  0.00000000000E+00  0.00000000000E+00 -0.71998675319E+03  0.98261143401E+03  0.66868849660E+03 0.  0.
        3    1    3    3  502    0  0.12964584736E+03  0.88028717381E+02 -0.79399196994E+03  0.80930856869E+03  0.10100000352E+00 0. -1.
       -3    1    3    3    0  502 -0.12964584736E+03 -0.88028717381E+02  0.74005216754E+02  0.17330286532E+03  0.10100000352E+00 0.  1.
</event>
<event>
 5   0  0.1223742E-02  0.7100706E+03  0.7818609E-02  0.9700163E-01
        1   -1    0    0  501    0  0.00000000000E+00  0.00000000000E+00  0.12325155841E+04  0.12325155841E+04  0.50400001928E-02 0. -1.
       -1   -1    0    0    0  501  0.00000000000E+00  0.00000000000E+00 -0.10227055981E+03  0.10227055994E+03  0.50400001928E-02 0.  1.
    10030    2    1    2    0    0  0.00000000000E+00  0.00000000000E+00  0.11302450243E+04  0.13347861441E+04  0.71007058482E+03 0.  0.
        2    1    3    3  502    0  0.20375580817E+02 -0.94935969094E+02  0.12070714950E+04  0.12109705185E+04  0.25500000920E-02 0. -1.
       -2    1    3    3    0  502 -0.20375580817E+02  0.94935969094E+02 -0.76826470740E+02  0.12381562557E+03  0.25500000920E-02 0.  1.
</event>
<event>
 5   0  0.1223742E-02  0.6609156E+03  0.7818609E-02  0.9786510E-01
        1   -1    0    0  501    0  0.00000000000E+00  0.00000000000E+00  0.13311324807E+03  0.13311324817E+03  0.50400001928E-02 0. -1.
       -1   -1    0    0    0  501  0.00000000000E+00  0.00000000000E+00 -0.82037188730E+03  0.82037188732E+03  0.50400001928E-02 0.  1.
    10030    2    1    2    0    0  0.00000000000E+00  0.00000000000E+00 -0.68725863923E+03  0.95348513548E+03  0.66091562729E+03 0.  0.
        2    1    3    3  502    0  0.93948071185E+02 -0.15193125680E+03 -0.74471581870E+03  0.76584006000E+03  0.25500000920E-02 0.  1.
       -2    1    3    3    0  502 -0.93948071185E+02  0.15193125680E+03  0.57457179475E+02  0.18764507548E+03  0.25500000920E-02 0. -1.
</event>
<event>
 5   0  0.1257442E-02  0.6951777E+03  0.7818609E-02  0.9725515E-01
        1   -1    0    0  501    0  0.00000000000E+00  0.00000000000E+00  0.17105832328E+03  0.17105832336E+03  0.50400001928E-02 0. -1.
       -1   -1    0    0    0  501  0.00000000000E+00  0.00000000000E+00 -0.70629712532E+03  0.70629712534E+03  0.50400001928E-02 0.  1.
    10030    2    1    2    0    0  0.00000000000E+00  0.00000000000E+00 -0.53523880204E+03  0.87735544870E+03  0.69517768100E+03 0.  0.
        1    1    3    3  502    0 -0.34250966696E+02  0.27880384527E+03 -0.52599745855E+03  0.59630364688E+03  0.50400001928E-02 0.  1.
       -1    1    3    3    0  502  0.34250966696E+02 -0.27880384527E+03 -0.92413434950E+01  0.28105180183E+03  0.50400001928E-02 0. -1.
</event>
<event>
 5   0  0.1226303E-02  0.7113946E+03  0.7818609E-02  0.9697942E-01
        1   -1    0    0  501    0  0.00000000000E+00  0.00000000000E+00  0.70638448185E+03  0.70638448187E+03  0.50400001928E-02 0.  1.
       -1   -1    0    0    0  501  0.00000000000E+00  0.00000000000E+00 -0.17911005423E+03  0.17911005430E+03  0.50400001928E-02 0. -1.
    10030    2    1    2    0    0  0.00000000000E+00  0.00000000000E+00  0.52727442762E+03  0.88549453616E+03  0.71139458218E+03 0.  0.
        4    1    3    3  502    0  0.29556597465E+03  0.18000871385E+03  0.36595199840E+03  0.50367138142E+03  0.12699999809E+01 0. -1.
       -4    1    3    3    0  502 -0.29556597465E+03 -0.18000871385E+03  0.16132242922E+03  0.38182315475E+03  0.12699999809E+01 0.  1.
</event>
<event>
 5   0  0.2026361E-02  0.6976615E+03  0.7818609E-02  0.9721240E-01
        2   -1    0    0  501    0  0.00000000000E+00  0.00000000000E+00  0.11697894502E+04  0.11697894502E+04  0.25500000920E-02 0. -1.
       -2   -1    0    0    0  501  0.00000000000E+00  0.00000000000E+00 -0.10402118825E+03  0.10402118828E+03  0.25500000920E-02 0.  1.
    10030    2    1    2    0    0  0.00000000000E+00  0.00000000000E+00  0.10657682620E+04  0.12738106385E+04  0.69766148995E+03 0.  0.
        2    1    3    3  502    0  0.17487519777E+03  0.18345508797E+02  0.10829558504E+04  0.10971377609E+04  0.25500000920E-02 0. -1.
       -2    1    3    3    0  502 -0.17487519777E+03 -0.18345508797E+02 -0.17187588403E+02  0.17667287763E+03  0.25500000920E-02 0.  1.
</event>
<event>
 5   0  0.1909053E-02  0.7022387E+03  0.7818609E-02  0.9713411E-01
        2   -1    0    0  501    0  0.00000000000E+00  0.00000000000E+00  0.48919085559E+03  0.48919085559E+03  0.25500000920E-02 0. -1.
       -2   -1    0    0    0  501  0.00000000000E+00  0.00000000000E+00 -0.25201775955E+03  0.25201775956E+03  0.25500000920E-02 0.  1.
    10030    2    1    2    0    0  0.00000000000E+00  0.00000000000E+00  0.23717309604E+03  0.74120861515E+03  0.70223865865E+03 0.  0.
        1    1    3    3  502    0 -0.10952051664E+03  0.33342428011E+03  0.10710690468E+03  0.36693103328E+03  0.50400001928E-02 0. -1.
       -1    1    3    3    0  502  0.10952051664E+03 -0.33342428011E+03  0.13006619135E+03  0.37427758187E+03  0.50400001928E-02 0.  1.
</event>
<event>
 5   0  0.1948138E-02  0.7036892E+03  0.7818609E-02  0.9710944E-01
       -2   -1    0    0    0  501  0.00000000000E+00  0.00000000000E+00  0.37114544594E+03  0.37114544595E+03  0.25500000920E-02 0. -1.
        2   -1    0    0  501    0  0.00000000000E+00  0.00000000000E+00 -0.33354745174E+03  0.33354745175E+03  0.25500000920E-02 0.  1.
    10030    2    1    2    0    0  0.00000000000E+00  0.00000000000E+00  0.37597994200E+02  0.70469289770E+03  0.70368918629E+03 0.  0.
        3    1    3    3  502    0 -0.80497845144E+01  0.10177722598E+03 -0.31838767353E+03  0.33435628245E+03  0.10100000352E+00 0.  1.
       -3    1    3    3    0  502  0.80497845144E+01 -0.10177722598E+03  0.35598566773E+03  0.37033661524E+03  0.10100000352E+00 0. -1.
</event>
<event>
 5   0  0.1909053E-02  0.6862057E+03  0.7818609E-02  0.9741117E-01
        2   -1    0    0  501    0  0.00000000000E+00  0.00000000000E+00  0.64506567366E+03  0.64506567366E+03  0.25500000920E-02 0.  1.
       -2   -1    0    0    0  501  0.00000000000E+00  0.00000000000E+00 -0.18249238922E+03  0.18249238923E+03  0.25500000920E-02 0. -1.
    10030    2    1    2    0    0  0.00000000000E+00  0.00000000000E+00  0.46257328444E+03  0.82755806290E+03  0.68620573007E+03 0.  0.
        1    1    3    3  502    0 -0.14584426660E+03 -0.12082911547E+03  0.57631258675E+03  0.60663532943E+03  0.50400001928E-02 0.  1.
       -1    1    3    3    0  502  0.14584426660E+03  0.12082911547E+03 -0.11373930231E+03  0.22092273346E+03  0.50400001928E-02 0. -1.
</event>
<event>
 5   0  0.2006362E-02  0.7041312E+03  0.7818609E-02  0.9710193E-01
       -2   -1    0    0    0  501  0.00000000000E+00  0.00000000000E+00  0.83906680000E+02  0.83906680039E+02  0.25500000920E-02 0.  1.
        2   -1    0    0  501    0  0.00000000000E+00  0.00000000000E+00 -0.14772386090E+04  0.14772386090E+04  0.25500000920E-02 0. -1.
    10030    2    1    2    0    0  0.00000000000E+00  0.00000000000E+00 -0.13933319290E+04  0.15611452890E+04  0.70413120164E+03 0.  0.
        4    1    3    3  502    0 -0.22953554249E+03 -0.10304719640E+03 -0.15068048746E+03  0.29327719337E+03  0.12699999809E+01 0.  1.
       -4    1    3    3    0  502  0.22953554249E+03  0.10304719640E+03 -0.12426514415E+04  0.12678680957E+04  0.12699999809E+01 0. -1.
</event>
<event>
 5   0  0.1197259E-02  0.6982058E+03  0.7818609E-02  0.9720306E-01
        1   -1    0    0  501    0  0.00000000000E+00  0.00000000000E+00  0.89701365231E+03  0.89701365232E+03  0.50400001928E-02 0. -1.
       -1   -1    0    0    0  501  0.00000000000E+00  0.00000000000E+00 -0.13586506850E+03  0.13586506859E+03  0.50400001928E-02 0.  1.
    10030    2    1    2    0    0  0.00000000000E+00  0.00000000000E+00  0.76114858381E+03  0.10328787209E+04  0.69820576157E+03 0.  0.
        3    1    3    3  502    0  0.23497022618E+03  0.11708741428E+02  0.76212950793E+03  0.79761488130E+03  0.10100000352E+00 0. -1.
       -3    1    3    3    0  502 -0.23497022618E+03 -0.11708741428E+02 -0.98092411990E+00  0.23526383961E+03  0.10100000352E+00 0.  1.
</event>
<event>
 5   0  0.1257442E-02  0.6984669E+03  0.7818609E-02  0.9719858E-01
       -1   -1    0    0    0  501  0.00000000000E+00  0.00000000000E+00  0.77828813241E+02  0.77828813404E+02  0.50400001928E-02 0.  1.
        1   -1    0    0  501    0  0.00000000000E+00  0.00000000000E+00 -0.15670805494E+04  0.15670805495E+04  0.50400001928E-02 0. -1.
    10030    2    1    2    0    0  0.00000000000E+00  0.00000000000E+00 -0.14892517362E+04  0.16449093629E+04  0.69846694856E+03 0.  0.
        1    1    3    3  502    0 -0.25862366828E+03  0.22583325451E+03 -0.89500062244E+03  0.95859948614E+03  0.50400001928E-02 0. -1.
       -1    1    3    3    0  502  0.25862366828E+03 -0.22583325451E+03 -0.59425111377E+03  0.68630987672E+03  0.50400001928E-02 0.  1.
</event>
<event>
 5   0  0.1237686E-02  0.7069991E+03  0.7818609E-02  0.9705337E-01
        1   -1    0    0  501    0  0.00000000000E+00  0.00000000000E+00  0.24272403602E+04  0.24272403602E+04  0.50400001928E-02 0.  1.
       -1   -1    0    0    0  501  0.00000000000E+00  0.00000000000E+00 -0.51483125428E+02  0.51483125675E+02  0.50400001928E-02 0. -1.
    10030    2    1    2    0    0  0.00000000000E+00  0.00000000000E+00  0.23757572348E+04  0.24787234859E+04  0.70699906710E+03 0.  0.
        5    1    3    3  502    0 -0.47129585491E+02 -0.28661861830E+03  0.18940387270E+04  0.19161879396E+04  0.46999998093E+01 0.  1.
       -5    1    3    3    0  502  0.47129585491E+02  0.28661861830E+03  0.48171850775E+03  0.56253554633E+03  0.46999998093E+01 0. -1.
</event>
<event>
 5   0  0.1226303E-02  0.7096768E+03  0.7818609E-02  0.9700825E-01
        1   -1    0    0  501    0  0.00000000000E+00  0.00000000000E+00  0.15469754643E+04  0.15469754643E+04  0.50400001928E-02 0. -1.
       -1   -1    0    0    0  501  0.00000000000E+00  0.00000000000E+00 -0.81391274949E+02  0.81391275105E+02  0.50400001928E-02 0.  1.
    10030    2    1    2    0    0  0.00000000000E+00  0.00000000000E+00  0.14655841893E+04  0.16283667394E+04  0.70967684332E+03 0.  0.
        4    1    3    3  502    0 -0.81078007147E+02  0.74728875830E+02 -0.41078814854E+02  0.11767382910E+03  0.12699999809E+01 0.  1.
       -4    1    3    3    0  502  0.81078007147E+02 -0.74728875830E+02  0.15066630042E+04  0.15106929103E+04  0.12699999809E+01 0. -1.
</event>
<event>
 5   0  0.1226303E-02  0.7004087E+03  0.7818609E-02  0.9716533E-01
        1   -1    0    0  501    0  0.00000000000E+00  0.00000000000E+00  0.35876392484E+03  0.35876392487E+03  0.50400001928E-02 0.  1.
       -1   -1    0    0    0  501  0.00000000000E+00  0.00000000000E+00 -0.34184900484E+03  0.34184900488E+03  0.50400001928E-02 0. -1.
    10030    2    1    2    0    0  0.00000000000E+00  0.00000000000E+00  0.16914919992E+02  0.70061292975E+03  0.70040871127E+03 0.  0.
        4    1    3    3  502    0  0.24406283015E+03  0.12946554237E+03 -0.20681097083E+03  0.34510923238E+03  0.12699999809E+01 0. -1.
       -4    1    3    3    0  502 -0.24406283015E+03 -0.12946554237E+03  0.22372589082E+03  0.35550369737E+03  0.12699999809E+01 0.  1.
</event>
<event>
 5   0  0.1197259E-02  0.7075991E+03  0.7818609E-02  0.9704324E-01
       -1   -1    0    0    0  501  0.00000000000E+00  0.00000000000E+00  0.37307566759E+03  0.37307566762E+03  0.50400001928E-02 0.  1.
        1   -1    0    0  501    0  0.00000000000E+00  0.00000000000E+00 -0.33551941122E+03  0.33551941126E+03  0.50400001928E-02 0. -1.
    10030    2    1    2    0    0  0.00000000000E+00  0.00000000000E+00  0.37556256369E+02  0.70859507888E+03  0.70759911915E+03 0.  0.
        3    1    3    3  502    0 -0.35236094657E+03  0.18757272434E+02 -0.70272365670E+01  0.35292982899E+03  0.10100000352E+00 0. -1.
       -3    1    3    3    0  502  0.35236094657E+03 -0.18757272434E+02  0.44583492936E+02  0.35566524989E+03  0.10100000352E+00 0.  1.
</event>
<event>
 5   0  0.2006362E-02  0.6964781E+03  0.7818609E-02  0.9723274E-01
       -2   -1    0    0    0  501  0.00000000000E+00  0.00000000000E+00  0.11314341230E+03  0.11314341233E+03  0.25500000920E-02 0. -1.
        2   -1    0    0  501    0  0.00000000000E+00  0.00000000000E+00 -0.10718292492E+04  0.10718292492E+04  0.25500000920E-02 0.  1.
    10030    2    1    2    0    0  0.00000000000E+00  0.00000000000E+00 -0.95868583689E+03  0.11849726615E+04  0.69647805042E+03 0.  0.
        4    1    3    3  502    0  0.74655092736E+02  0.32043506552E+03 -0.67345513739E+03  0.74953015221E+03  0.12699999809E+01 0.  1.
       -4    1    3    3    0  502 -0.74655092736E+02 -0.32043506552E+03 -0.28523069950E+03  0.43544250932E+03  0.12699999809E+01 0. -1.
</event>
<event>
 5   0  0.1223742E-02  0.7063372E+03  0.7818609E-02  0.9706456E-01
       -1   -1    0    0    0  501  0.00000000000E+00  0.00000000000E+00  0.36963959313E+03  0.36963959317E+03  0.50400001928E-02 0.  1.
        1   -1    0    0  501    0  0.00000000000E+00  0.00000000000E+00 -0.33743150445E+03  0.33743150449E+03  0.50400001928E-02 0. -1.
    10030    2    1    2    0    0  0.00000000000E+00  0.00000000000E+00  0.32208088685E+02  0.70707109765E+03  0.70633715474E+03 0.  0.
        2    1    3    3  502    0  0.83040471876E+01 -0.74016704298E+02 -0.32948012788E+03  0.33779370094E+03  0.25500000920E-02 0. -1.
       -2    1    3    3    0  502 -0.83040471876E+01  0.74016704298E+02  0.36168821657E+03  0.36927739672E+03  0.25500000920E-02 0.  1.
</event>
<event>
 5   0  0.1197259E-02  0.6996169E+03  0.7818609E-02  0.9717888E-01
        1   -1    0    0  501    0  0.00000000000E+00  0.00000000000E+00  0.61451643020E+03  0.61451643023E+03  0.50400001928E-02 0.  1.
       -1   -1    0    0    0  501  0.00000000000E+00  0.00000000000E+00 -0.19912560965E+03  0.19912560971E+03  0.50400001928E-02 0. -1.
    10030    2    1    2    0    0  0.00000000000E+00  0.00000000000E+00  0.41539082056E+03  0.81364203994E+03  0.69961692043E+03 0.  0.
        3    1    3    3  502    0 -0.94245257747E+02  0.16095128343E+03 -0.13647358063E+03  0.23111151563E+03  0.10100000352E+00 0. -1.
       -3    1    3    3    0  502  0.94245257747E+02 -0.16095128343E+03  0.55186440119E+03  0.58253052430E+03  0.10100000352E+00 0.  1.
</event>
<event>
 5   0  0.1973067E-02  0.7016816E+03  0.7818609E-02  0.9714361E-01
        2   -1    0    0  501    0  0.00000000000E+00  0.00000000000E+00  0.87435507076E+03  0.87435507077E+03  0.25500000920E-02 0. -1.
       -2   -1    0    0    0  501  0.00000000000E+00  0.00000000000E+00 -0.14077722842E+03  0.14077722844E+03  0.25500000920E-02 0.  1.
    10030    2    1    2    0    0  0.00000000000E+00  0.00000000000E+00  0.73357784234E+03  0.10151322992E+04  0.70168164727E+03 0.  0.
        5    1    3    3  502    0  0.44173304982E+02 -0.18246673161E+03 -0.61940913980E+02  0.19774770755E+03  0.46999998093E+01 0.  1.
       -5    1    3    3    0  502 -0.44173304982E+02  0.18246673161E+03  0.79551875632E+03  0.81738459166E+03  0.46999998093E+01 0. -1.
</event>
<event>
 5   0  0.1223742E-02  0.6987806E+03  0.7818609E-02  0.9719320E-01
       -1   -1    0    0    0  501  0.00000000000E+00  0.00000000000E+00  0.12113812042E+03  0.12113812052E+03  0.50400001928E-02 0. -1.
        1   -1    0    0  501    0  0.00000000000E+00  0.00000000000E+00 -0.10077223797E+04  0.10077223797E+04  0.50400001928E-02 0.  1.
    10030    2    1    2    0    0  0.00000000000E+00  0.00000000000E+00 -0.88658425929E+03  0.11288605002E+04  0.69878063811E+03 0.  0.
        2    1    3    3  502    0 -0.27946662575E+03 -0.10228850523E+03 -0.14757223117E+03  0.33217780876E+03  0.25500000920E-02 0. -1.
       -2    1    3    3    0  502  0.27946662575E+03  0.10228850523E+03 -0.73901202812E+03  0.79668269149E+03  0.25500000920E-02 0.  1.
</event>
<event>
 5   0  0.1197259E-02  0.6993104E+03  0.7818609E-02  0.9718412E-01
        1   -1    0    0  501    0  0.00000000000E+00  0.00000000000E+00  0.11611453933E+04  0.11611453933E+04  0.50400001928E-02 0. -1.
       -1   -1    0    0    0  501  0.00000000000E+00  0.00000000000E+00 -0.10529151859E+03  0.10529151871E+03  0.50400001928E-02 0.  1.
    10030    2    1    2    0    0  0.00000000000E+00  0.00000000000E+00  0.10558538747E+04  0.12664369121E+04  0.69931040847E+03 0.  0.
        3    1    3    3  502    0  0.30684619569E+03  0.14783403479E+03  0.67108899576E+03  0.75257553779E+03  0.10100000352E+00 0. -1.
       -3    1    3    3    0  502 -0.30684619569E+03 -0.14783403479E+03  0.38476487899E+03  0.51386137426E+03  0.10100000352E+00 0.  1.
</event>
<event>
 5   0  0.1237686E-02  0.7243913E+03  0.7818609E-02  0.9676406E-01
       -1   -1    0    0    0  501  0.00000000000E+00  0.00000000000E+00  0.18715554135E+03  0.18715554142E+03  0.50400001928E-02 0. -1.
        1   -1    0    0  501    0  0.00000000000E+00  0.00000000000E+00 -0.70094465784E+03  0.70094465785E+03  0.50400001928E-02 0.  1.
    10030    2    1    2    0    0  0.00000000000E+00  0.00000000000E+00 -0.51378911649E+03  0.88810019927E+03  0.72439126701E+03 0.  0.
        5    1    3    3  502    0  0.95297860106E+02  0.31106170711E+03 -0.45198779575E+03  0.55691662327E+03  0.46999998093E+01 0.  1.
       -5    1    3    3    0  502 -0.95297860106E+02 -0.31106170711E+03 -0.61801320741E+02  0.33118357600E+03  0.46999998093E+01 0. -1.
</event>
<event>
 5   0  0.2026361E-02  0.6973632E+03  0.7818609E-02  0.9721752E-01
        2   -1    0    0  501    0  0.00000000000E+00  0.00000000000E+00  0.64653745268E+03  0.64653745269E+03  0.25500000920E-02 0.  1.
       -2   -1    0    0    0  501  0.00000000000E+00  0.00000000000E+00 -0.18804610970E+03  0.18804610972E+03  0.25500000920E-02 0. -1.
    10030    2    1    2    0    0  0.00000000000E+00  0.00000000000E+00  0.45849134298E+03  0.83458356240E+03  0.69736318446E+03 0.  0.
        2    1    3    3  502    0 -0.37396751299E+02  0.20044221286E+02  0.64343639068E+03  0.64483383648E+03  0.25500000920E-02 0.  1.
       -2    1    3    3    0  502  0.37396751299E+02 -0.20044221286E+02 -0.18494504769E+03  0.18974972592E+03  0.25500000920E-02 0. -1.
</event>
<event>
 5   0  0.2026361E-02  0.7016773E+03  0.7818609E-02  0.9714368E-01
       -2   -1    0    0    0  501  0.00000000000E+00  0.00000000000E+00  0.42459022129E+03  0.42459022129E+03  0.25500000920E-02 0.  1.
        2   -1    0    0  501    0  0.00000000000E+00  0.00000000000E+00 -0.28989780759E+03  0.28989780760E+03  0.25500000920E-02 0. -1.
    10030    2    1    2    0    0  0.00000000000E+00  0.00000000000E+00  0.13469241369E+03  0.71448802890E+03  0.70167734546E+03 0.  0.
        2    1    3    3  502    0  0.23480841385E+03 -0.26067735472E+03  0.67024529718E+02  0.35718337317E+03  0.25500000920E-02 0. -1.
       -2    1    3    3    0  502 -0.23480841385E+03  0.26067735472E+03  0.67667883976E+02  0.35730465573E+03  0.25500000920E-02 0.  1.
</event>
<event>
 5   0  0.1948138E-02  0.7107794E+03  0.7818609E-02  0.9698974E-01
        2   -1    0    0  501    0  0.00000000000E+00  0.00000000000E+00  0.50613498498E+03  0.50613498499E+03  0.25500000920E-02 0.  1.
       -2   -1    0    0    0  501  0.00000000000E+00  0.00000000000E+00 -0.24954178783E+03  0.24954178785E+03  0.25500000920E-02 0. -1.
    10030    2    1    2    0    0  0.00000000000E+00  0.00000000000E+00  0.25659319715E+03  0.75567677284E+03  0.71077937236E+03 0.  0.
        3    1    3    3  502    0 -0.85529809058E+02 -0.33435710107E+03  0.21845787380E+03  0.40845302313E+03  0.10100000352E+00 0.  1.
       -3    1    3    3    0  502  0.85529809058E+02  0.33435710107E+03  0.38135323349E+02  0.34722374971E+03  0.10100000352E+00 0. -1.
</event>
<event>
 5   0  0.2006362E-02  0.6973785E+03  0.7818609E-02  0.9721726E-01
       -2   -1    0    0    0  501  0.00000000000E+00  0.00000000000E+00  0.64315738314E+03  0.64315738314E+03  0.25500000920E-02 0.  1.
        2   -1    0    0  501    0  0.00000000000E+00  0.00000000000E+00 -0.18904266433E+03  0.18904266434E+03  0.25500000920E-02 0. -1.
    10030    2    1    2    0    0  0.00000000000E+00  0.00000000000E+00  0.45411471881E+03  0.83220004748E+03  0.69737847772E+03 0.  0.
        4    1    3    3  502    0  0.12377170550E+03  0.32420165261E+03  0.18647679575E+03  0.39395603167E+03  0.12699999809E+01 0.  1.
       -4    1    3    3    0  502 -0.12377170550E+03 -0.32420165261E+03  0.26763792306E+03  0.43824401582E+03  0.12699999809E+01 0. -1.
</event>
<event>
 5   0  0.1257442E-02  0.7028590E+03  0.7818609E-02  0.9712355E-01
        1   -1    0    0  501    0  0.00000000000E+00  0.00000000000E+00  0.36716747694E+03  0.36716747698E+03  0.50400001928E-02 0.  1.
       -1   -1    0    0    0  501  0.00000000000E+00  0.00000000000E+00 -0.33636609388E+03  0.33636609392E+03  0.50400001928E-02 0. -1.
    10030    2    1    2    0    0  0.00000000000E+00  0.00000000000E+00  0.30801383059E+02  0.70353357090E+03  0.70285899025E+03 0.  0.
        1    1    3    3  502    0 -0.93272158092E+02  0.14583243874E+03 -0.29072922499E+03  0.33836412037E+03  0.50400001928E-02 0. -1.
       -1    1    3    3    0  502  0.93272158092E+02 -0.14583243874E+03  0.32153060805E+03  0.36516945053E+03  0.50400001928E-02 0.  1.
</event>
<event>
 5   0  0.2006362E-02  0.6980645E+03  0.7818609E-02  0.9720548E-01
       -2   -1    0    0    0  501  0.00000000000E+00  0.00000000000E+00  0.10647006678E+03  0.10647006681E+03  0.25500000920E-02 0.  1.
        2   -1    0    0  501    0  0.00000000000E+00  0.00000000000E+00 -0.11442043118E+04  0.11442043118E+04  0.25500000920E-02 0. -1.
    10030    2    1    2    0    0  0.00000000000E+00  0.00000000000E+00 -0.10377342450E+04  0.12506743786E+04  0.69806449417E+03 0.  0.
        4    1    3    3  502    0 -0.17197229096E+03  0.28646030724E+03 -0.33802838368E+03  0.47528809954E+03  0.12699999809E+01 0.  1.
       -4    1    3    3    0  502  0.17197229096E+03 -0.28646030724E+03 -0.69970586137E+03  0.77538627910E+03  0.12699999809E+01 0. -1.
</event>
<event>
 5   0  0.1226303E-02  0.7001486E+03  0.7818609E-02  0.9716978E-01
       -1   -1    0    0    0  501  0.00000000000E+00  0.00000000000E+00  0.14439937881E+04  0.14439937881E+04  0.50400001928E-02 0.  1.
        1   -1    0    0  501    0  0.00000000000E+00  0.00000000000E+00 -0.84870189226E+02  0.84870189376E+02  0.50400001928E-02 0. -1.
    10030    2    1    2    0    0  0.00000000000E+00  0.00000000000E+00  0.13591235988E+04  0.15288639775E+04  0.70014863038E+03 0.  0.
        4    1    3    3  502    0 -0.12342883632E+03 -0.32750370374E+03  0.66306714641E+03  0.74976863575E+03  0.12699999809E+01 0. -1.
       -4    1    3    3    0  502  0.12342883632E+03  0.32750370374E+03  0.69605645243E+03  0.77909534171E+03  0.12699999809E+01 0.  1.
</event>
<event>
 5   0  0.1909053E-02  0.6772059E+03  0.7818609E-02  0.9757027E-01
       -2   -1    0    0    0  501  0.00000000000E+00  0.00000000000E+00  0.41882773948E+03  0.41882773948E+03  0.25500000920E-02 0.  1.
        2   -1    0    0  501    0  0.00000000000E+00  0.00000000000E+00 -0.27374488841E+03  0.27374488842E+03  0.25500000920E-02 0. -1.
    10030    2    1    2    0    0  0.00000000000E+00  0.00000000000E+00  0.14508285107E+03  0.69257262791E+03  0.67720588542E+03 0.  0.
        1    1    3    3  502    0  0.10582729569E+03 -0.32147440717E+03  0.83107456553E+02  0.34849972789E+03  0.50400001928E-02 0. -1.
       -1    1    3    3    0  502 -0.10582729569E+03  0.32147440717E+03  0.61975394512E+02  0.34407290002E+03  0.50400001928E-02 0.  1.
</event>
<event>
 5   0  0.1197259E-02  0.6993411E+03  0.7818609E-02  0.9718360E-01
       -1   -1    0    0    0  501  0.00000000000E+00  0.00000000000E+00  0.13106981549E+03  0.13106981559E+03  0.50400001928E-02 0.  1.
        1   -1    0    0  501    0  0.00000000000E+00  0.00000000000E+00 -0.93285785411E+03  0.93285785413E+03  0.50400001928E-02 0. -1.
    10030    2    1    2    0    0  0.00000000000E+00  0.00000000000E+00 -0.80178803862E+03  0.10639276697E+04  0.69934113816E+03 0.  0.
        3    1    3    3  502    0  0.55108256012E+02 -0.27073462216E+02 -0.92459269795E+03  0.92662913808E+03  0.10100000352E+00 0. -1.
       -3    1    3    3    0  502 -0.55108256012E+02  0.27073462216E+02  0.12280465933E+03  0.13729853164E+03  0.10100000352E+00 0.  1.
</event>
<event>
 5   0  0.1948138E-02  0.7002838E+03  0.7818609E-02  0.9716747E-01
       -2   -1    0    0    0  501  0.00000000000E+00  0.00000000000E+00  0.18442669139E+03  0.18442669141E+03  0.25500000920E-02 0. -1.
        2   -1    0    0  501    0  0.00000000000E+00  0.00000000000E+00 -0.66475927289E+03  0.66475927290E+03  0.25500000920E-02 0.  1.
    10030    2    1    2    0    0  0.00000000000E+00  0.00000000000E+00 -0.48033258150E+03  0.84918596431E+03  0.70028380898E+03 0.  0.
        3    1    3    3  502    0  0.27242251390E+03 -0.76105919883E+02  0.10098000585E+02  0.28303377349E+03  0.10100000352E+00 0. -1.
       -3    1    3    3    0  502 -0.27242251390E+03  0.76105919883E+02 -0.49043058209E+03  0.56615219082E+03  0.10100000352E+00 0.  1.
</event>
<event>
 5   0  0.1237686E-02  0.7170544E+03  0.7818609E-02  0.9688503E-01
        1   -1    0    0  501    0  0.00000000000E+00  0.00000000000E+00  0.74769356187E+03  0.74769356189E+03  0.50400001928E-02 0. -1.
       -1   -1    0    0    0  501  0.00000000000E+00  0.00000000000E+00 -0.17191769067E+03  0.17191769075E+03  0.50400001928E-02 0.  1.
    10030    2    1    2    0    0  0.00000000000E+00  0.00000000000E+00  0.57577587120E+03  0.91961125264E+03  0.71705439272E+03 0.  0.
        5    1    3    3  502    0  0.31285919684E+03  0.74553707705E+02  0.49099288887E+03  0.58697124231E+03  0.46999998093E+01 0. -1.
       -5    1    3    3    0  502 -0.31285919684E+03 -0.74553707705E+02  0.84782982327E+02  0.33264001033E+03  0.46999998093E+01 0.  1.
</event>
<event>
 5   0  0.1909053E-02  0.6961351E+03  0.7818609E-02  0.9723865E-01
        2   -1    0    0  501    0  0.00000000000E+00  0.00000000000E+00  0.26750718873E+03  0.26750718874E+03  0.25500000920E-02 0.  1.
       -2   -1    0    0    0  501  0.00000000000E+00  0.00000000000E+00 -0.45288884010E+03  0.45288884011E+03  0.25500000920E-02 0. -1.
    10030    2    1    2    0    0  0.00000000000E+00  0.00000000000E+00 -0.18538165137E+03  0.72039602886E+03  0.69613510307E+03 0.  0.
        1    1    3    3  502    0 -0.14068711952E+03  0.31678610079E+03 -0.12549284270E+03  0.36863905496E+03  0.50400001928E-02 0.  1.
       -1    1    3    3    0  502  0.14068711952E+03 -0.31678610079E+03 -0.59888808678E+02  0.35175697389E+03  0.50400001928E-02 0. -1.
</event>
<event>
 5   0  0.1948138E-02  0.7277494E+03  0.7818609E-02  0.9670920E-01
       -2   -1    0    0    0  501  0.00000000000E+00  0.00000000000E+00  0.11876700801E+03  0.11876700803E+03  0.25500000920E-02 0.  1.
        2   -1    0    0  501    0  0.00000000000E+00  0.00000000000E+00 -0.11148279685E+04  0.11148279685E+04  0.25500000920E-02 0. -1.
    10030    2    1    2    0    0  0.00000000000E+00  0.00000000000E+00 -0.99606096050E+03  0.12335949765E+04  0.72774935872E+03 0.  0.
        3    1    3    3  502    0  0.14195917414E+03  0.31645198912E+03 -0.68457043248E+03  0.76741837075E+03  0.10100000352E+00 0. -1.
       -3    1    3    3    0  502 -0.14195917414E+03 -0.31645198912E+03 -0.31149052802E+03  0.46617660579E+03  0.10100000352E+00 0.  1.
</event>
<event>
 5   0  0.1237686E-02  0.6841350E+03  0.7818609E-02  0.9744755E-01
       -1   -1    0    0    0  501  0.00000000000E+00  0.00000000000E+00  0.77444617861E+02  0.77444618025E+02  0.50400001928E-02 0.  1.
        1   -1    0    0  501    0  0.00000000000E+00  0.00000000000E+00 -0.15108882962E+04  0.15108882962E+04  0.50400001928E-02 0. -1.
    10030    2    1    2    0    0  0.00000000000E+00  0.00000000000E+00 -0.14334436783E+04  0.15883329142E+04  0.68413497752E+03 0.  0.
        5    1    3    3  502    0 -0.30651164037E+03  0.89526657553E+02 -0.43215273895E+03  0.53734764155E+03  0.46999998093E+01 0.  1.
       -5    1    3    3    0  502  0.30651164037E+03 -0.89526657553E+02 -0.10012909394E+04  0.10509852727E+04  0.46999998093E+01 0. -1.
</event>
<event>
 5   0  0.1226303E-02  0.6997073E+03  0.7818609E-02  0.9717733E-01
        1   -1    0    0  501    0  0.00000000000E+00  0.00000000000E+00  0.72607570024E+03  0.72607570025E+03  0.50400001928E-02 0.  1.
       -1   -1    0    0    0  501  0.00000000000E+00  0.00000000000E+00 -0.16857413154E+03  0.16857413161E+03  0.50400001928E-02 0. -1.
    10030    2    1    2    0    0  0.00000000000E+00  0.00000000000E+00  0.55750156870E+03  0.89464983187E+03  0.69970731206E+03 0.  0.
        4    1    3    3  502    0 -0.28596434566E+03 -0.49039057843E+02  0.52870278924E+03  0.60308265473E+03  0.12699999809E+01 0.  1.
       -4    1    3    3    0  502  0.28596434566E+03  0.49039057843E+02  0.28798779460E+02  0.29156717714E+03  0.12699999809E+01 0. -1.
</event>
<event>
 5   0  0.1223742E-02  0.7022628E+03  0.7818609E-02  0.9713370E-01
       -1   -1    0    0    0  501  0.00000000000E+00  0.00000000000E+00  0.47642160141E+03  0.47642160143E+03  0.50400001928E-02 0. -1.
        1   -1    0    0  501    0  0.00000000000E+00  0.00000000000E+00 -0.25879024012E+03  0.25879024017E+03  0.50400001928E-02 0.  1.
    10030    2    1    2    0    0  0.00000000000E+00  0.00000000000E+00  0.21763136129E+03  0.73521184160E+03  0.70226280167E+03 0.  0.
        2    1    3    3  502    0  0.35105507023E+03 -0.69924657489E+01  0.10654511345E+03  0.36693380618E+03  0.25500000920E-02 0.  1.
       -2    1    3    3    0  502 -0.35105507023E+03  0.69924657489E+01  0.11108624783E+03  0.36827803542E+03  0.25500000920E-02 0. -1.
</event>
<event>
 5   0  0.2006362E-02  0.7034353E+03  0.7818609E-02  0.9711375E-01
        2   -1    0    0  501    0  0.00000000000E+00  0.00000000000E+00  0.42278005703E+03  0.42278005704E+03  0.25500000920E-02 0. -1.
       -2   -1    0    0    0  501  0.00000000000E+00  0.00000000000E+00 -0.29259967444E+03  0.29259967445E+03  0.25500000920E-02 0.  1.
    10030    2    1    2    0    0  0.00000000000E+00  0.00000000000E+00  0.13018038258E+03  0.71537973149E+03  0.70343530493E+03 0.  0.
        4    1    3    3  502    0  0.13188817018E+03 -0.32096417455E+03  0.67470471315E+01  0.34707294092E+03  0.12699999809E+01 0.  1.
       -4    1    3    3    0  502 -0.13188817018E+03  0.32096417455E+03  0.12343333545E+03  0.36830679057E+03  0.12699999809E+01 0. -1.
</event>
<event>
 5   0  0.1909053E-02  0.7050761E+03  0.7818609E-02  0.9708591E-01
        2   -1    0    0  501    0  0.00000000000E+00  0.00000000000E+00  0.20478059606E+04  0.20478059606E+04  0.25500000920E-02 0.  1.
       -2   -1    0    0    0  501  0.00000000000E+00  0.00000000000E+00 -0.60690849836E+02  0.60690849890E+02  0.25500000920E-02 0. -1.
    10030    2    1    2    0    0  0.00000000000E+00  0.00000000000E+00  0.19871151108E+04  0.21084968105E+04  0.70507612102E+03 0.  0.
        1    1    3    3  502    0 -0.15208068993E+03  0.30234878589E+03  0.12886859928E+04  0.13323869230E+04  0.50400001928E-02 0.  1.
       -1    1    3    3    0  502  0.15208068993E+03 -0.30234878589E+03  0.69842911794E+03  0.77610988745E+03  0.50400001928E-02 0. -1.
</event>
<event>
 5   0  0.1257442E-02  0.7034876E+03  0.7818609E-02  0.9711286E-01
       -1   -1    0    0    0  501  0.00000000000E+00  0.00000000000E+00  0.12775076436E+03  0.12775076446E+03  0.50400001928E-02 0. -1.
        1   -1    0    0  501    0  0.00000000000E+00  0.00000000000E+00 -0.96847714567E+03  0.96847714569E+03  0.50400001928E-02 0.  1.
    10030    2    1    2    0    0  0.00000000000E+00  0.00000000000E+00 -0.84072638132E+03  0.10962279101E+04  0.70348758534E+03 0.  0.
        1    1    3    3  502    0  0.32169375589E+03 -0.13363482512E+03 -0.34436536586E+03  0.48982919910E+03  0.50400001928E-02 0. -1.
       -1    1    3    3    0  502 -0.32169375589E+03  0.13363482512E+03 -0.49636101546E+03  0.60639871104E+03  0.50400001928E-02 0.  1.
</event>
<event>
 5   0  0.1973067E-02  0.6996503E+03  0.7818609E-02  0.9717830E-01
        2   -1    0    0  501    0  0.00000000000E+00  0.00000000000E+00  0.20317156257E+04  0.20317156257E+04  0.25500000920E-02 0. -1.
       -2   -1    0    0    0  501  0.00000000000E+00  0.00000000000E+00 -0.60233645044E+02  0.60233645098E+02  0.25500000920E-02 0.  1.
    10030    2    1    2    0    0  0.00000000000E+00  0.00000000000E+00  0.19714819807E+04  0.20919492708E+04  0.69965030662E+03 0.  0.
        5    1    3    3  502    0  0.32872791224E+03 -0.11952384028E+03  0.99396167920E+03  0.10537219265E+04  0.46999998093E+01 0. -1.
       -5    1    3    3    0  502 -0.32872791224E+03  0.11952384028E+03  0.97752030145E+03  0.10382273443E+04  0.46999998093E+01 0.  1.
</event>
<event>
 5   0  0.1226303E-02  0.6986336E+03  0.7818609E-02  0.9719572E-01
        1   -1    0    0  501    0  0.00000000000E+00  0.00000000000E+00  0.10657768903E+04  0.10657768904E+04  0.50400001928E-02 0. -1.
       -1   -1    0    0    0  501  0.00000000000E+00  0.00000000000E+00 -0.11449133403E+03  0.11449133414E+03  0.50400001928E-02 0.  1.
    10030    2    1    2    0    0  0.00000000000E+00  0.00000000000E+00  0.95128555632E+03  0.11802682245E+04  0.69863357498E+03 0.  0.
        4    1    3    3  502    0 -0.12064397382E+03 -0.18644825884E+03  0.20123792761E+02  0.22298991363E+03  0.12699999809E+01 0.  1.
       -4    1    3    3    0  502  0.12064397382E+03  0.18644825884E+03  0.93116176355E+03  0.95727831086E+03  0.12699999809E+01 0. -1.
</event>
<event>
 5   0  0.1197259E-02  0.7055615E+03  0.7818609E-02  0.9707768E-01
        1   -1    0    0  501    0  0.00000000000E+00  0.00000000000E+00  0.28609478628E+03  0.28609478632E+03  0.50400001928E-02 0.  1.
       -1   -1    0    0    0  501  0.00000000000E+00  0.00000000000E+00 -0.43501053577E+03  0.43501053580E+03  0.50400001928E-02 0. -1.
    10030    2    1    2    0    0  0.00000000000E+00  0.00000000000E+00 -0.14891574949E+03  0.72110532212E+03  0.70556146801E+03 0.  0.
        3    1    3    3  502    0 -0.86756682469E+02 -0.27386731637E+03  0.13480696965E+03  0.31733729405E+03  0.10100000352E+00 0.  1.
       -3    1    3    3    0  502  0.86756682469E+02  0.27386731637E+03 -0.28372271915E+03  0.40376802807E+03  0.10100000352E+00 0. -1.
</event>
<event>
 5   0  0.7947250E-03  0.7006173E+03  0.7818609E-02  0.9716177E-01
       -3   -1    0    0    0  501  0.00000000000E+00  0.00000000000E+00  0.20434232396E+03  0.20434234892E+03  0.10100000352E+00 0. -1.
        3   -1    0    0  501    0  0.00000000000E+00  0.00000000000E+00 -0.60054195340E+03  0.60054196189E+03  0.10100000352E+00 0.  1.
    10030    2    1    2    0    0  0.00000000000E+00  0.00000000000E+00 -0.39619962944E+03  0.80488431081E+03  0.70061730454E+03 0.  0.
        4    1    3    3  502    0 -0.11320101145E+03 -0.12259505585E+03  0.15574940958E+03  0.22826192892E+03  0.12699999809E+01 0. -1.
       -4    1    3    3    0  502  0.11320101145E+03  0.12259505585E+03 -0.55194903902E+03  0.57662238188E+03  0.12699999809E+01 0.  1.
</event>
<event>
 5   0  0.1223742E-02  0.7033462E+03  0.7818609E-02  0.9711527E-01
       -1   -1    0    0    0  501  0.00000000000E+00  0.00000000000E+00  0.45791206134E+03  0.45791206137E+03  0.50400001928E-02 0.  1.
        1   -1    0    0  501    0  0.00000000000E+00  0.00000000000E+00 -0.27008232843E+03  0.27008232848E+03  0.50400001928E-02 0. -1.
    10030    2    1    2    0    0  0.00000000000E+00  0.00000000000E+00  0.18782973291E+03  0.72799438985E+03  0.70334616163E+03 0.  0.
        2    1    3    3  502    0  0.44381394607E+02 -0.25303788737E+03 -0.15465973984E+03  0.29986249477E+03  0.25500000920E-02 0. -1.
       -2    1    3    3    0  502 -0.44381394607E+02  0.25303788737E+03  0.34248947275E+03  0.42813189508E+03  0.25500000920E-02 0.  1.
</event>
<event>
 5   0  0.7947250E-03  0.6973880E+03  0.7818609E-02  0.9721709E-01
        3   -1    0    0  501    0  0.00000000000E+00  0.00000000000E+00  0.18396290939E+03  0.18396293711E+03  0.10100000352E+00 0.  1.
       -3   -1    0    0    0  501  0.00000000000E+00  0.00000000000E+00 -0.66093483605E+03  0.66093484377E+03  0.10100000352E+00 0. -1.
    10030    2    1    2    0    0  0.00000000000E+00  0.00000000000E+00 -0.47697192666E+03  0.84489778088E+03  0.69738801346E+03 0.  0.
        1    1    3    3  502    0 -0.34170694244E+03 -0.57782073810E+02 -0.19179759767E+03  0.39609180888E+03  0.50400001928E-02 0. -1.
       -1    1    3    3    0  502  0.34170694244E+03  0.57782073810E+02 -0.28517432900E+03  0.44880597200E+03  0.50400001928E-02 0.  1.
</event>
<event>
 5   0  0.2006362E-02  0.6980245E+03  0.7818609E-02  0.9720617E-01
       -2   -1    0    0    0  501  0.00000000000E+00  0.00000000000E+00  0.17052648882E+03  0.17052648884E+03  0.25500000920E-02 0. -1.
        2   -1    0    0  501    0  0.00000000000E+00  0.00000000000E+00 -0.71431457045E+03  0.71431457046E+03  0.25500000920E-02 0.  1.
    10030    2    1    2    0    0  0.00000000000E+00  0.00000000000E+00 -0.54378808164E+03  0.88484105929E+03  0.69802451424E+03 0.  0.
        4    1    3    3  502    0  0.81066934949E+02 -0.31175473478E+02 -0.70039288459E+03  0.70575885667E+03  0.12699999809E+01 0.  1.
       -4    1    3    3    0  502 -0.81066934949E+02  0.31175473478E+02  0.15660480295E+03  0.17908220262E+03  0.12699999809E+01 0. -1.
</event>
<event>
 5   0  0.1257442E-02  0.6891075E+03  0.7818609E-02  0.9736043E-01
        1   -1    0    0  501    0  0.00000000000E+00  0.00000000000E+00  0.60116441286E+03  0.60116441289E+03  0.50400001928E-02 0.  1.
       -1   -1    0    0    0  501  0.00000000000E+00  0.00000000000E+00 -0.19747888368E+03  0.19747888374E+03  0.50400001928E-02 0. -1.
    10030    2    1    2    0    0  0.00000000000E+00  0.00000000000E+00  0.40368552919E+03  0.79864329662E+03  0.68910747258E+03 0.  0.
        1    1    3    3  502    0 -0.18446017477E+03  0.11800828592E+03 -0.10646005460E+03  0.24348563586E+03  0.50400001928E-02 0. -1.
       -1    1    3    3    0  502  0.18446017477E+03 -0.11800828592E+03  0.51014558379E+03  0.55515766076E+03  0.50400001928E-02 0.  1.
</event>
<event>
 5   0  0.1197259E-02  0.6990766E+03  0.7818609E-02  0.9718813E-01
       -1   -1    0    0    0  501  0.00000000000E+00  0.00000000000E+00  0.18859584452E+03  0.18859584459E+03  0.50400001928E-02 0. -1.
        1   -1    0    0  501    0  0.00000000000E+00  0.00000000000E+00 -0.64782462607E+03  0.64782462609E+03  0.50400001928E-02 0.  1.
    10030    2    1    2    0    0  0.00000000000E+00  0.00000000000E+00 -0.45922878154E+03  0.83642047068E+03  0.69907662668E+03 0.  0.
        3    1    3    3  502    0 -0.22171919245E+03  0.12097957821E+03 -0.51870749508E+03  0.57693408142E+03  0.10100000352E+00 0.  1.
       -3    1    3    3    0  502  0.22171919245E+03 -0.12097957821E+03  0.59478713542E+02  0.25948638926E+03  0.10100000352E+00 0. -1.
</event>
<event>
 5   0  0.2026361E-02  0.6981078E+03  0.7818609E-02  0.9720474E-01
       -2   -1    0    0    0  501  0.00000000000E+00  0.00000000000E+00  0.78379116720E+03  0.78379116721E+03  0.25500000920E-02 0. -1.
        2   -1    0    0  501    0  0.00000000000E+00  0.00000000000E+00 -0.15544783562E+03  0.15544783564E+03  0.25500000920E-02 0.  1.
    10030    2    1    2    0    0  0.00000000000E+00  0.00000000000E+00  0.62834333158E+03  0.93923900285E+03  0.69810784419E+03 0.  0.
        2    1    3    3  502    0  0.13716625675E+02  0.14920339516E+03  0.73832454094E+03  0.75337436026E+03  0.25500000920E-02 0. -1.
       -2    1    3    3    0  502 -0.13716625675E+02 -0.14920339516E+03 -0.10998120935E+03  0.18586464259E+03  0.25500000920E-02 0.  1.
</event>
<event>
 5   0  0.2006362E-02  0.6980505E+03  0.7818609E-02  0.9720572E-01
        2   -1    0    0  501    0  0.00000000000E+00  0.00000000000E+00  0.98723572075E+03  0.98723572076E+03  0.25500000920E-02 0. -1.
       -2   -1    0    0    0  501  0.00000000000E+00  0.00000000000E+00 -0.12339365097E+03  0.12339365099E+03  0.25500000920E-02 0.  1.
    10030    2    1    2    0    0  0.00000000000E+00  0.00000000000E+00  0.86384206979E+03  0.11106293717E+04  0.69805048518E+03 0.  0.
        4    1    3    3  502    0  0.43803229605E+02  0.33662397084E+03  0.30283460037E+03  0.45491189119E+03  0.12699999809E+01 0.  1.
       -4    1    3    3    0  502 -0.43803229605E+02 -0.33662397084E+03  0.56100746942E+03  0.65571748056E+03  0.12699999809E+01 0. -1.
</event>
<event>
 5   0  0.1237686E-02  0.6935354E+03  0.7818609E-02  0.9728352E-01
        1   -1    0    0  501    0  0.00000000000E+00  0.00000000000E+00  0.68818356745E+03  0.68818356747E+03  0.50400001928E-02 0.  1.
       -1   -1    0    0    0  501  0.00000000000E+00  0.00000000000E+00 -0.17473221474E+03  0.17473221482E+03  0.50400001928E-02 0. -1.
    10030    2    1    2    0    0  0.00000000000E+00  0.00000000000E+00  0.51345135271E+03  0.86291578229E+03  0.69353540337E+03 0.  0.
        5    1    3    3  502    0 -0.25386213952E+03  0.20432729777E+03  0.40410292516E+03  0.51915016577E+03  0.46999998093E+01 0.  1.
       -5    1    3    3    0  502  0.25386213952E+03 -0.20432729777E+03  0.10934842755E+03  0.34376561652E+03  0.46999998093E+01 0. -1.
</event>
<event>
 5   0  0.2006362E-02  0.7117459E+03  0.7818609E-02  0.9697353E-01
        2   -1    0    0  501    0  0.00000000000E+00  0.00000000000E+00  0.62352888756E+03  0.62352888756E+03  0.25500000920E-02 0. -1.
       -2   -1    0    0    0  501  0.00000000000E+00  0.00000000000E+00 -0.20311095726E+03  0.20311095728E+03  0.25500000920E-02 0.  1.
    10030    2    1    2    0    0  0.00000000000E+00  0.00000000000E+00  0.42041793030E+03  0.82663984484E+03  0.71174587948E+03 0.  0.
        4    1    3    3  502    0  0.32114507320E+03 -0.11000579362E+03  0.33426152101E+03  0.47641138735E+03  0.12699999809E+01 0.  1.
       -4    1    3    3    0  502 -0.32114507320E+03  0.11000579362E+03  0.86156409287E+02  0.35022845749E+03  0.12699999809E+01 0. -1.
</event>
<event>
 5   0  0.1223742E-02  0.7085200E+03  0.7818609E-02  0.9702772E-01
       -1   -1    0    0    0  501  0.00000000000E+00  0.00000000000E+00  0.14020125039E+03  0.14020125048E+03  0.50400001928E-02 0. -1.
        1   -1    0    0  501    0  0.00000000000E+00  0.00000000000E+00 -0.89514286419E+03  0.89514286420E+03  0.50400001928E-02 0.  1.
    10030    2    1    2    0    0  0.00000000000E+00  0.00000000000E+00 -0.75494161379E+03  0.10353441147E+04  0.70852000365E+03 0.  0.
        2    1    3    3  502    0  0.16850578574E+03 -0.36500263442E+02  0.74755362086E+02  0.18792241278E+03  0.25500000920E-02 0. -1.
       -2    1    3    3    0  502 -0.16850578574E+03  0.36500263442E+02 -0.82969697588E+03  0.84742170190E+03  0.25500000920E-02 0.  1.
</event>
<event>
 5   0  0.1973067E-02  0.6991212E+03  0.7818609E-02  0.9718736E-01
       -2   -1    0    0    0  501  0.00000000000E+00  0.00000000000E+00  0.85549740878E+03  0.85549740878E+03  0.25500000920E-02 0.  1.
        2   -1    0    0  501    0  0.00000000000E+00  0.00000000000E+00 -0.14283224313E+03  0.14283224315E+03  0.25500000920E-02 0. -1.
    10030    2    1    2    0    0  0.00000000000E+00  0.00000000000E+00  0.71266516565E+03  0.99832965194E+03  0.69912120238E+03 0.  0.
        5    1    3    3  502    0 -0.24974818136E+02  0.32067311769E+03  0.16097844780E+03  0.35970980054E+03  0.46999998093E+01 0.  1.
       -5    1    3    3    0  502  0.24974818136E+02 -0.32067311769E+03  0.55168671785E+03  0.63861985140E+03  0.46999998093E+01 0. -1.
</event>
<event>
 5   0  0.1223742E-02  0.6879001E+03  0.7818609E-02  0.9738151E-01
        1   -1    0    0  501    0  0.00000000000E+00  0.00000000000E+00  0.73613078228E+03  0.73613078230E+03  0.50400001928E-02 0.  1.
       -1   -1    0    0    0  501  0.00000000000E+00  0.00000000000E+00 -0.16070737700E+03  0.16070737708E+03  0.50400001928E-02 0. -1.
    10030    2    1    2    0    0  0.00000000000E+00  0.00000000000E+00  0.57542340528E+03  0.89683815938E+03  0.68790012994E+03 0.  0.
        2    1    3    3  502    0  0.27937430421E+03  0.15491389098E+03  0.45392275021E+03  0.55506231960E+03  0.25500000920E-02 0.  1.
       -2    1    3    3    0  502 -0.27937430421E+03 -0.15491389098E+03  0.12150065507E+03  0.34177583978E+03  0.25500000920E-02 0. -1.
</event>
<event>
 5   0  0.1948138E-02  0.7044676E+03  0.7818609E-02  0.9709622E-01
        2   -1    0    0  501    0  0.00000000000E+00  0.00000000000E+00  0.36360211685E+03  0.36360211686E+03  0.25500000920E-02 0.  1.
       -2   -1    0    0    0  501  0.00000000000E+00  0.00000000000E+00 -0.34122087986E+03  0.34122087987E+03  0.25500000920E-02 0. -1.
    10030    2    1    2    0    0  0.00000000000E+00  0.00000000000E+00  0.22381236991E+02  0.70482299673E+03  0.70446755564E+03 0.  0.
        3    1    3    3  502    0  0.27407037841E+03  0.11361307754E+03  0.20114457041E+03  0.35844337365E+03  0.10100000352E+00 0.  1.
       -3    1    3    3    0  502 -0.27407037841E+03 -0.11361307754E+03 -0.17876333341E+03  0.34637962308E+03  0.10100000352E+00 0. -1.
</event>
<event>
 5   0  0.1973067E-02  0.6964326E+03  0.7818609E-02  0.9723352E-01
        2   -1    0    0  501    0  0.00000000000E+00  0.00000000000E+00  0.20765667667E+03  0.20765667668E+03  0.25500000920E-02 0.  1.
       -2   -1    0    0    0  501  0.00000000000E+00  0.00000000000E+00 -0.58391858756E+03  0.58391858756E+03  0.25500000920E-02 0. -1.
    10030    2    1    2    0    0  0.00000000000E+00  0.00000000000E+00 -0.37626191089E+03  0.79157526425E+03  0.69643260505E+03 0.  0.
        5    1    3    3  502    0  0.81630260613E+02 -0.29203935156E+03  0.63663743341E+01  0.30333661670E+03  0.46999998093E+01 0.  1.
       -5    1    3    3    0  502 -0.81630260613E+02  0.29203935156E+03 -0.38262828522E+03  0.48823864755E+03  0.46999998093E+01 0. -1.
</event>
<event>
 5   0  0.2026361E-02  0.6985396E+03  0.7818609E-02  0.9719733E-01
       -2   -1    0    0    0  501  0.00000000000E+00  0.00000000000E+00  0.27092938963E+03  0.27092938965E+03  0.25500000920E-02 0. -1.
        2   -1    0    0  501    0  0.00000000000E+00  0.00000000000E+00 -0.45026271416E+03  0.45026271417E+03  0.25500000920E-02 0.  1.
    10030    2    1    2    0    0  0.00000000000E+00  0.00000000000E+00 -0.17933332452E+03  0.72119210381E+03  0.69853962616E+03 0.  0.
        2    1    3    3  502    0  0.72412108958E+02 -0.63276146987E+02  0.25699260741E+03  0.27439494269E+03  0.25500000920E-02 0. -1.
       -2    1    3    3    0  502 -0.72412108958E+02  0.63276146987E+02 -0.43632593194E+03  0.44679716112E+03  0.25500000920E-02 0.  1.
</event>
<event>
 5   0  0.1237686E-02  0.7165374E+03  0.7818609E-02  0.9689362E-01
        1   -1    0    0  501    0  0.00000000000E+00  0.00000000000E+00  0.90876154564E+03  0.90876154566E+03  0.50400001928E-02 0.  1.
       -1   -1    0    0    0  501  0.00000000000E+00  0.00000000000E+00 -0.14124328031E+03  0.14124328040E+03  0.50400001928E-02 0. -1.
    10030    2    1    2    0    0  0.00000000000E+00  0.00000000000E+00  0.76751826533E+03  0.10500048261E+04  0.71653740106E+03 0.  0.
        5    1    3    3  502    0 -0.71147188958E+01  0.10074005793E+03  0.88742448825E+03  0.89316487327E+03  0.46999998093E+01 0.  1.
       -5    1    3    3    0  502  0.71147188958E+01 -0.10074005793E+03 -0.11990622292E+03  0.15683995279E+03  0.46999998093E+01 0. -1.
</event>
<event>
 5   0  0.2006362E-02  0.6686177E+03  0.7818609E-02  0.9772458E-01
       -2   -1    0    0    0  501  0.00000000000E+00  0.00000000000E+00  0.11078001532E+04  0.11078001532E+04  0.25500000920E-02 0. -1.
        2   -1    0    0  501    0  0.00000000000E+00  0.00000000000E+00 -0.10088678124E+03  0.10088678127E+03  0.25500000920E-02 0.  1.
    10030    2    1    2    0    0  0.00000000000E+00  0.00000000000E+00  0.10069133720E+04  0.12086869345E+04  0.66861765379E+03 0.  0.
        4    1    3    3  502    0 -0.16303819274E+03 -0.27975051598E+03  0.35308818162E+03  0.47907690445E+03  0.12699999809E+01 0. -1.
       -4    1    3    3    0  502  0.16303819274E+03  0.27975051598E+03  0.65382519039E+03  0.72961003006E+03  0.12699999809E+01 0.  1.
</event>
<event>
 5   0  0.1973067E-02  0.7148667E+03  0.7818609E-02  0.9692141E-01
        2   -1    0    0  501    0  0.00000000000E+00  0.00000000000E+00  0.15167827996E+04  0.15167827996E+04  0.25500000920E-02 0.  1.
       -2   -1    0    0    0  501  0.00000000000E+00  0.00000000000E+00 -0.84229998635E+02  0.84229998674E+02  0.25500000920E-02 0. -1.
    10030    2    1    2    0    0  0.00000000000E+00  0.00000000000E+00  0.14325528010E+04  0.16010127983E+04  0.71486673772E+03 0.  0.
        5    1    3    3  502    0 -0.62196218427E+02  0.15706399008E+03  0.10895843716E+02  0.16934661489E+03  0.46999998093E+01 0. -1.
       -5    1    3    3    0  502  0.62196218427E+02 -0.15706399008E+03  0.14216569573E+04  0.14316661834E+04  0.46999998093E+01 0.  1.
</event>
<event>
 5   0  0.1226303E-02  0.7053984E+03  0.7818609E-02  0.9708045E-01
       -1   -1    0    0    0  501  0.00000000000E+00  0.00000000000E+00  0.11765690213E+03  0.11765690224E+03  0.50400001928E-02 0. -1.
        1   -1    0    0  501    0  0.00000000000E+00  0.00000000000E+00 -0.10572837024E+04  0.10572837024E+04  0.50400001928E-02 0.  1.
    10030    2    1    2    0    0  0.00000000000E+00  0.00000000000E+00 -0.93962680024E+03  0.11749406046E+04  0.70539839853E+03 0.  0.
        4    1    3    3  502    0 -0.25356457069E+03 -0.17484086799E+03 -0.18358087093E+03  0.35856362016E+03  0.12699999809E+01 0. -1.
       -4    1    3    3    0  502  0.25356457069E+03  0.17484086799E+03 -0.75604592931E+03  0.81637698446E+03  0.12699999809E+01 0.  1.
</event>
<event>
 5   0  0.7947250E-03  0.7010771E+03  0.7818609E-02  0.9715392E-01
        4   -1    0    0  501    0  0.00000000000E+00  0.00000000000E+00  0.11426920480E+04  0.11426927538E+04  0.12699999809E+01 0.  1.
       -4   -1    0    0    0  501  0.00000000000E+00  0.00000000000E+00 -0.10752865053E+03  0.10753615013E+03  0.12699999809E+01 0. -1.
    10030    2    1    2    0    0  0.00000000000E+00  0.00000000000E+00  0.10351633975E+04  0.12502289039E+04  0.70107706611E+03 0.  0.
        2    1    3    3  502    0 -0.20939523901E+03 -0.25595800979E+03  0.31025549286E+03  0.45345268745E+03  0.25500000920E-02 0. -1.
       -2    1    3    3    0  502  0.20939523901E+03  0.25595800979E+03  0.72490790463E+03  0.79677621645E+03  0.25500000920E-02 0.  1.
</event>
<event>
 5   0  0.1973067E-02  0.6982772E+03  0.7818609E-02  0.9720183E-01
        2   -1    0    0  501    0  0.00000000000E+00  0.00000000000E+00  0.71040160820E+03  0.71040160820E+03  0.25500000920E-02 0.  1.
       -2   -1    0    0    0  501  0.00000000000E+00  0.00000000000E+00 -0.17158991330E+03  0.17158991332E+03  0.25500000920E-02 0. -1.
    10030    2    1    2    0    0  0.00000000000E+00  0.00000000000E+00  0.53881169490E+03  0.88199152152E+03  0.69827716665E+03 0.  0.
        5    1    3    3  502    0  0.10051037900E+03  0.33085284643E+03  0.20870202243E+03  0.40391158245E+03  0.46999998093E+01 0.  1.
       -5    1    3    3    0  502 -0.10051037900E+03 -0.33085284643E+03  0.33010967247E+03  0.47807993906E+03  0.46999998093E+01 0. -1.
</event>
<event>
 5   0  0.1197259E-02  0.7008010E+03  0.7818609E-02  0.9715863E-01
        1   -1    0    0  501    0  0.00000000000E+00  0.00000000000E+00  0.96445711607E+03  0.96445711608E+03  0.50400001928E-02 0.  1.
       -1   -1    0    0    0  501  0.00000000000E+00  0.00000000000E+00 -0.12730529575E+03  0.12730529585E+03  0.50400001928E-02 0. -1.
    10030    2    1    2    0    0  0.00000000000E+00  0.00000000000E+00  0.83715182032E+03  0.10917624119E+04  0.70080096593E+03 0.  0.
        3    1    3    3  502    0  0.25953764868E+03 -0.16563022893E+03  0.15795207132E+03  0.34603761479E+03  0.10100000352E+00 0. -1.
       -3    1    3    3    0  502 -0.25953764868E+03  0.16563022893E+03  0.67919974901E+03  0.74572479714E+03  0.10100000352E+00 0.  1.
</event>
<event>
 5   0  0.1909053E-02  0.7025099E+03  0.7818609E-02  0.9712950E-01
       -2   -1    0    0    0  501  0.00000000000E+00  0.00000000000E+00  0.80969719249E+03  0.80969719250E+03  0.25500000920E-02 0. -1.
        2   -1    0    0  501    0  0.00000000000E+00  0.00000000000E+00 -0.15237798601E+03  0.15237798604E+03  0.25500000920E-02 0.  1.
    10030    2    1    2    0    0  0.00000000000E+00  0.00000000000E+00  0.65731920648E+03  0.96207517853E+03  0.70250986466E+03 0.  0.
        1    1    3    3  502    0 -0.18334749265E+03  0.18743048422E+03  0.64876002463E+03  0.69973999390E+03  0.50400001928E-02 0. -1.
       -1    1    3    3    0  502  0.18334749265E+03 -0.18743048422E+03  0.85591818450E+01  0.26233518463E+03  0.50400001928E-02 0.  1.
</event>
<event>
 5   0  0.1257442E-02  0.7033084E+03  0.7818609E-02  0.9711591E-01
        1   -1    0    0  501    0  0.00000000000E+00  0.00000000000E+00  0.10478448000E+04  0.10478448000E+04  0.50400001928E-02 0. -1.
       -1   -1    0    0    0  501  0.00000000000E+00  0.00000000000E+00 -0.11801430384E+03  0.11801430395E+03  0.50400001928E-02 0.  1.
    10030    2    1    2    0    0  0.00000000000E+00  0.00000000000E+00  0.92983049612E+03  0.11658591039E+04  0.70330839516E+03 0.  0.
        1    1    3    3  502    0 -0.14551133415E+03 -0.44458576729E+02 -0.60625162384E+02  0.16378499245E+03  0.50400001928E-02 0.  1.
       -1    1    3    3    0  502  0.14551133415E+03  0.44458576729E+02  0.99045565850E+03  0.10020741115E+04  0.50400001928E-02 0. -1.
</event>
<event>
 5   0  0.1909053E-02  0.6967920E+03  0.7818609E-02  0.9722734E-01
       -2   -1    0    0    0  501  0.00000000000E+00  0.00000000000E+00  0.48951600062E+03  0.48951600062E+03  0.25500000920E-02 0.  1.
        2   -1    0    0  501    0  0.00000000000E+00  0.00000000000E+00 -0.24795873797E+03  0.24795873799E+03  0.25500000920E-02 0. -1.
    10030    2    1    2    0    0  0.00000000000E+00  0.00000000000E+00  0.24155726264E+03  0.73747473861E+03  0.69679199117E+03 0.  0.
        1    1    3    3  502    0  0.24779901502E+03  0.17258759494E+03 -0.63115525566E+02  0.30850348355E+03  0.50400001928E-02 0. -1.
       -1    1    3    3    0  502 -0.24779901502E+03 -0.17258759494E+03  0.30467278821E+03  0.42897125506E+03  0.50400001928E-02 0.  1.
</event>
<event>
 5   0  0.1909053E-02  0.6873801E+03  0.7818609E-02  0.9739061E-01
        2   -1    0    0  501    0  0.00000000000E+00  0.00000000000E+00  0.42443063534E+03  0.42443063535E+03  0.25500000920E-02 0. -1.
       -2   -1    0    0    0  501  0.00000000000E+00  0.00000000000E+00 -0.27830893925E+03  0.27830893926E+03  0.25500000920E-02 0.  1.
    10030    2    1    2    0    0  0.00000000000E+00  0.00000000000E+00  0.14612169610E+03  0.70273957461E+03  0.68738006928E+03 0.  0.
        1    1    3    3  502    0  0.23245608640E+03  0.25144486931E+03  0.43036514839E+02  0.34512678257E+03  0.50400001928E-02 0.  1.
       -1    1    3    3    0  502 -0.23245608640E+03 -0.25144486931E+03  0.10308518126E+03  0.35761279204E+03  0.50400001928E-02 0. -1.
</event>
<event>
 5   0  0.1973067E-02  0.6986631E+03  0.7818609E-02  0.9719521E-01
        2   -1    0    0  501    0  0.00000000000E+00  0.00000000000E+00  0.13865091506E+04  0.13865091506E+04  0.25500000920E-02 0.  1.
       -2   -1    0    0    0  501  0.00000000000E+00  0.00000000000E+00 -0.88014222904E+02  0.88014222941E+02  0.25500000920E-02 0. -1.
    10030    2    1    2    0    0  0.00000000000E+00  0.00000000000E+00  0.12984949277E+04  0.14745233736E+04  0.69866308180E+03 0.  0.
        5    1    3    3  502    0 -0.12025052129E+03 -0.31070739882E+03  0.87071006728E+03  0.93228610781E+03  0.46999998093E+01 0.  1.
       -5    1    3    3    0  502  0.12025052129E+03  0.31070739882E+03  0.42778486042E+03  0.54223726574E+03  0.46999998093E+01 0. -1.
</event>
<event>
 5   0  0.1948138E-02  0.7000304E+03  0.7818609E-02  0.9717180E-01
       -2   -1    0    0    0  501  0.00000000000E+00  0.00000000000E+00  0.44367594087E+03  0.44367594088E+03  0.25500000920E-02 0. -1.
        2   -1    0    0  501    0  0.00000000000E+00  0.00000000000E+00 -0.27612639013E+03  0.27612639014E+03  0.25500000920E-02 0.  1.
    10030    2    1    2    0    0  0.00000000000E+00  0.00000000000E+00  0.16754955075E+03  0.71980233102E+03  0.70003038776E+03 0.  0.
        3    1    3    3  502    0  0.30404496482E+03  0.99368009550E+02 -0.62341916235E+02  0.32588934729E+03  0.10100000352E+00 0.  1.
       -3    1    3    3    0  502 -0.30404496482E+03 -0.99368009550E+02  0.22989146698E+03  0.39391298373E+03  0.10100000352E+00 0. -1.
</event>
<event>
 5   0  0.1223742E-02  0.7012714E+03  0.7818609E-02  0.9715060E-01
       -1   -1    0    0    0  501  0.00000000000E+00  0.00000000000E+00  0.66967832355E+03  0.66967832357E+03  0.50400001928E-02 0.  1.
        1   -1    0    0  501    0  0.00000000000E+00  0.00000000000E+00 -0.18358873768E+03  0.18358873775E+03  0.50400001928E-02 0. -1.
    10030    2    1    2    0    0  0.00000000000E+00  0.00000000000E+00  0.48608958587E+03  0.85326706132E+03  0.70127141140E+03 0.  0.
        2    1    3    3  502    0  0.28715134350E+03 -0.19884131748E+03  0.20551000783E+03  0.40525069641E+03  0.25500000920E-02 0.  1.
       -2    1    3    3    0  502 -0.28715134350E+03  0.19884131748E+03  0.28057957804E+03  0.44801636491E+03  0.25500000920E-02 0. -1.
</event>
<event>
 5   0  0.1197259E-02  0.6999739E+03  0.7818609E-02  0.9717277E-01
       -1   -1    0    0    0  501  0.00000000000E+00  0.00000000000E+00  0.43139374530E+03  0.43139374533E+03  0.50400001928E-02 0. -1.
        1   -1    0    0  501    0  0.00000000000E+00  0.00000000000E+00 -0.28394210784E+03  0.28394210789E+03  0.50400001928E-02 0.  1.
    10030    2    1    2    0    0  0.00000000000E+00  0.00000000000E+00  0.14745163746E+03  0.71533585322E+03  0.69997385487E+03 0.  0.
        3    1    3    3  502    0  0.31320181859E+03 -0.14078057032E+03  0.14285875322E+03  0.37191824602E+03  0.10100000352E+00 0. -1.
       -3    1    3    3    0  502 -0.31320181859E+03  0.14078057032E+03  0.45928842422E+01  0.34341760720E+03  0.10100000352E+00 0.  1.
</event>
<event>
 5   0  0.7947250E-03  0.6974488E+03  0.7818609E-02  0.9721605E-01
       -3   -1    0    0    0  501  0.00000000000E+00  0.00000000000E+00  0.16057699057E+03  0.16057702233E+03  0.10100000352E+00 0.  1.
        3   -1    0    0  501    0  0.00000000000E+00  0.00000000000E+00 -0.75732318025E+03  0.75732318699E+03  0.10100000352E+00 0. -1.
    10030    2    1    2    0    0  0.00000000000E+00  0.00000000000E+00 -0.59674618968E+03  0.91790020932E+03  0.69744876469E+03 0.  0.
        2    1    3    3  502    0 -0.77061851125E+02 -0.28146488669E+03 -0.54963006884E+03  0.62229753649E+03  0.25500000920E-02 0.  1.
       -2    1    3    3    0  502  0.77061851125E+02  0.28146488669E+03 -0.47116120842E+02  0.29560267284E+03  0.25500000920E-02 0. -1.
</event>
<event>
 5   0  0.7947250E-03  0.7043329E+03  0.7818609E-02  0.9709851E-01
       -3   -1    0    0    0  501  0.00000000000E+00  0.00000000000E+00  0.10930602313E+04  0.10930602359E+04  0.10100000352E+00 0. -1.
        3   -1    0    0  501    0  0.00000000000E+00  0.00000000000E+00 -0.11346235293E+03  0.11346239788E+03  0.10100000352E+00 0.  1.
    10030    2    1    2    0    0  0.00000000000E+00  0.00000000000E+00  0.97959787833E+03  0.12065226338E+04  0.70433292032E+03 0.  0.
        3    1    3    3  502    0  0.31569800638E+03  0.14357324243E+03  0.59459619122E+03  0.68834812994E+03  0.10100000352E+00 0.  1.
       -3    1    3    3    0  502 -0.31569800638E+03 -0.14357324243E+03  0.38500168711E+03  0.51817450387E+03  0.10100000352E+00 0. -1.
</event>
<event>
 5   0  0.1223742E-02  0.7014553E+03  0.7818609E-02  0.9714747E-01
        1   -1    0    0  501    0  0.00000000000E+00  0.00000000000E+00  0.59318055580E+03  0.59318055582E+03  0.50400001928E-02 0. -1.
       -1   -1    0    0    0  501  0.00000000000E+00  0.00000000000E+00 -0.20737342086E+03  0.20737342092E+03  0.50400001928E-02 0.  1.
    10030    2    1    2    0    0  0.00000000000E+00  0.00000000000E+00  0.38580713494E+03  0.80055397674E+03  0.70145529031E+03 0.  0.
        2    1    3    3  502    0  0.15521648778E+03  0.31434500511E+03  0.20459486491E+03  0.40591131922E+03  0.25500000920E-02 0. -1.
       -2    1    3    3    0  502 -0.15521648778E+03 -0.31434500511E+03  0.18121227004E+03  0.39464265752E+03  0.25500000920E-02 0.  1.
</event>
<event>
 5   0  0.1257442E-02  0.6999604E+03  0.7818609E-02  0.9717300E-01
       -1   -1    0    0    0  501  0.00000000000E+00  0.00000000000E+00  0.37252724230E+03  0.37252724234E+03  0.50400001928E-02 0. -1.
        1   -1    0    0  501    0  0.00000000000E+00  0.00000000000E+00 -0.32879779673E+03  0.32879779677E+03  0.50400001928E-02 0.  1.
    10030    2    1    2    0    0  0.00000000000E+00  0.00000000000E+00  0.43729445572E+02  0.70132503911E+03  0.69996038893E+03 0.  0.
        1    1    3    3  502    0 -0.39324147161E+02  0.81671000890E+02 -0.31683218053E+03  0.32954388415E+03  0.50400001928E-02 0.  1.
       -1    1    3    3    0  502  0.39324147161E+02 -0.81671000890E+02  0.36056162610E+03  0.37178115496E+03  0.50400001928E-02 0. -1.
</event>
<event>
 5   0  0.1909053E-02  0.7009019E+03  0.7818609E-02  0.9715691E-01
        2   -1    0    0  501    0  0.00000000000E+00  0.00000000000E+00  0.19954281677E+04  0.19954281677E+04  0.25500000920E-02 0.  1.
       -2   -1    0    0    0  501  0.00000000000E+00  0.00000000000E+00 -0.61548623239E+02  0.61548623292E+02  0.25500000920E-02 0. -1.
    10030    2    1    2    0    0  0.00000000000E+00  0.00000000000E+00  0.19338795444E+04  0.20569767910E+04  0.70090186631E+03 0.  0.
        1    1    3    3  502    0 -0.33839841290E+03  0.18215599574E+02  0.12289490462E+04  0.12748180467E+04  0.50400001928E-02 0. -1.
       -1    1    3    3    0  502  0.33839841290E+03 -0.18215599574E+02  0.70493049820E+03  0.78215874427E+03  0.50400001928E-02 0.  1.
</event>
<event>
 5   0  0.1197259E-02  0.7000894E+03  0.7818609E-02  0.9717079E-01
       -1   -1    0    0    0  501  0.00000000000E+00  0.00000000000E+00  0.15783276941E+03  0.15783276949E+03  0.50400001928E-02 0.  1.
        1   -1    0    0  501    0  0.00000000000E+00  0.00000000000E+00 -0.77633612511E+03  0.77633612512E+03  0.50400001928E-02 0. -1.
    10030    2    1    2    0    0  0.00000000000E+00  0.00000000000E+00 -0.61850335569E+03  0.93416889462E+03  0.70008936763E+03 0.  0.
        3    1    3    3  502    0  0.64116655756E+02  0.15390604812E+03  0.10144685011E+03  0.19516529095E+03  0.10100000352E+00 0.  1.
       -3    1    3    3    0  502 -0.64116655756E+02 -0.15390604812E+03 -0.71995020581E+03  0.73900360367E+03  0.10100000352E+00 0. -1.
</event>
<event>
 5   0  0.2026361E-02  0.6978741E+03  0.7818609E-02  0.9720875E-01
       -2   -1    0    0    0  501  0.00000000000E+00  0.00000000000E+00  0.11530059076E+03  0.11530059079E+03  0.25500000920E-02 0. -1.
        2   -1    0    0  501    0  0.00000000000E+00  0.00000000000E+00 -0.10559969571E+04  0.10559969571E+04  0.25500000920E-02 0.  1.
    10030    2    1    2    0    0  0.00000000000E+00  0.00000000000E+00 -0.94069636637E+03  0.11712975479E+04  0.69787412336E+03 0.  0.
        2    1    3    3  502    0 -0.41398557140E+02 -0.12533419366E+02 -0.10514799793E+04  0.10523692669E+04  0.25500000920E-02 0.  1.
       -2    1    3    3    0  502  0.41398557140E+02  0.12533419366E+02  0.11078361289E+03  0.11892828101E+03  0.25500000920E-02 0. -1.
</event>
<event>
 5   0  0.1237686E-02  0.7019098E+03  0.7818609E-02  0.9713972E-01
        1   -1    0    0  501    0  0.00000000000E+00  0.00000000000E+00  0.11055418950E+04  0.11055418950E+04  0.50400001928E-02 0.  1.
       -1   -1    0    0    0  501  0.00000000000E+00  0.00000000000E+00 -0.11141082625E+03  0.11141082637E+03  0.50400001928E-02 0. -1.
    10030    2    1    2    0    0  0.00000000000E+00  0.00000000000E+00  0.99413106872E+03  0.12169527214E+04  0.70190978353E+03 0.  0.
        5    1    3    3  502    0  0.16427275064E+03  0.13410190509E+03  0.12295498958E+02  0.21246676645E+03  0.46999998093E+01 0. -1.
       -5    1    3    3    0  502 -0.16427275064E+03 -0.13410190509E+03  0.98183556977E+03  0.10044859549E+04  0.46999998093E+01 0.  1.
</event>
<event>
 5   0  0.2006362E-02  0.6989634E+03  0.7818609E-02  0.9719007E-01
       -2   -1    0    0    0  501  0.00000000000E+00  0.00000000000E+00  0.28313958359E+03  0.28313958360E+03  0.25500000920E-02 0. -1.
        2   -1    0    0  501    0  0.00000000000E+00  0.00000000000E+00 -0.43136837575E+03  0.43136837575E+03  0.25500000920E-02 0.  1.
    10030    2    1    2    0    0  0.00000000000E+00  0.00000000000E+00 -0.14822879216E+03  0.71450795935E+03  0.69896341045E+03 0.  0.
        4    1    3    3  502    0  0.20956505789E+03  0.27325476421E+03 -0.13205996524E+02  0.34461818132E+03  0.12699999809E+01 0. -1.
       -4    1    3    3    0  502 -0.20956505789E+03 -0.27325476421E+03 -0.13502279563E+03  0.36988977803E+03  0.12699999809E+01 0.  1.
</event>
<event>
 5   0  0.1909053E-02  0.7086394E+03  0.7818609E-02  0.9702571E-01
        2   -1    0    0  501    0  0.00000000000E+00  0.00000000000E+00  0.72582484091E+03  0.72582484092E+03  0.25500000920E-02 0. -1.
       -2   -1    0    0    0  501  0.00000000000E+00  0.00000000000E+00 -0.17296520427E+03  0.17296520429E+03  0.25500000920E-02 0.  1.
    10030    2    1    2    0    0  0.00000000000E+00  0.00000000000E+00  0.55285963665E+03  0.89879004521E+03  0.70863937763E+03 0.  0.
        1    1    3    3  502    0  0.57650927805E+02  0.21382745383E+03  0.62722541264E+03  0.66517480993E+03  0.50400001928E-02 0. -1.
       -1    1    3    3    0  502 -0.57650927805E+02 -0.21382745383E+03 -0.74365775990E+02  0.23361523527E+03  0.50400001928E-02 0.  1.
</event>
<event>
 5   0  0.1909053E-02  0.6984298E+03  0.7818609E-02  0.9719921E-01
        2   -1    0    0  501    0  0.00000000000E+00  0.00000000000E+00  0.12351634966E+04  0.12351634967E+04  0.25500000920E-02 0. -1.
       -2   -1    0    0    0  501  0.00000000000E+00  0.00000000000E+00 -0.98732706865E+02  0.98732706898E+02  0.25500000920E-02 0.  1.
    10030    2    1    2    0    0  0.00000000000E+00  0.00000000000E+00  0.11364307898E+04  0.13338962035E+04  0.69842976875E+03 0.  0.
        1    1    3    3  502    0 -0.12794041777E+03 -0.32402623259E+03  0.61457739741E+03  0.70644683263E+03  0.50400001928E-02 0. -1.
       -1    1    3    3    0  502  0.12794041777E+03  0.32402623259E+03  0.52185339238E+03  0.62744937092E+03  0.50400001928E-02 0.  1.
</event>
<event>
 5   0  0.1223742E-02  0.7084834E+03  0.7818609E-02  0.9702833E-01
        1   -1    0    0  501    0  0.00000000000E+00  0.00000000000E+00  0.11702594974E+04  0.11702594975E+04  0.50400001928E-02 0. -1.
       -1   -1    0    0    0  501  0.00000000000E+00  0.00000000000E+00 -0.10723022466E+03  0.10723022478E+03  0.50400001928E-02 0.  1.
    10030    2    1    2    0    0  0.00000000000E+00  0.00000000000E+00  0.10630292728E+04  0.12774897222E+04  0.70848341944E+03 0.  0.
        2    1    3    3  502    0  0.26189608615E+03 -0.13945882428E+03  0.18257761031E+03  0.34838614697E+03  0.25500000920E-02 0.  1.
       -2    1    3    3    0  502 -0.26189608615E+03  0.13945882428E+03  0.88045166248E+03  0.92910357527E+03  0.25500000920E-02 0. -1.
</event>
<event>
 5   0  0.2006362E-02  0.7006095E+03  0.7818609E-02  0.9716190E-01
        2   -1    0    0  501    0  0.00000000000E+00  0.00000000000E+00  0.73099289099E+03  0.73099289100E+03  0.25500000920E-02 0.  1.
       -2   -1    0    0    0  501  0.00000000000E+00  0.00000000000E+00 -0.16787224534E+03  0.16787224536E+03  0.25500000920E-02 0. -1.
    10030    2    1    2    0    0  0.00000000000E+00  0.00000000000E+00  0.56312064565E+03  0.89886513635E+03  0.70060950021E+03 0.  0.
        4    1    3    3  502    0  0.12805527194E+03 -0.14733805865E+03  0.65473907742E+03  0.68322143453E+03  0.12699999809E+01 0.  1.
       -4    1    3    3    0  502 -0.12805527194E+03  0.14733805865E+03 -0.91618431765E+02  0.21564370183E+03  0.12699999809E+01 0. -1.
</event>
<event>
 5   0  0.2006362E-02  0.6969625E+03  0.7818609E-02  0.9722441E-01
       -2   -1    0    0    0  501  0.00000000000E+00  0.00000000000E+00  0.78486456206E+02  0.78486456247E+02  0.25500000920E-02 0. -1.
        2   -1    0    0  501    0  0.00000000000E+00  0.00000000000E+00 -0.15472630815E+04  0.15472630815E+04  0.25500000920E-02 0.  1.
    10030    2    1    2    0    0  0.00000000000E+00  0.00000000000E+00 -0.14687766253E+04  0.16257495377E+04  0.69696254166E+03 0.  0.
        4    1    3    3  502    0 -0.28898125734E+03  0.15490821299E+03 -0.45907120928E+03  0.56414068249E+03  0.12699999809E+01 0.  1.
       -4    1    3    3    0  502  0.28898125734E+03 -0.15490821299E+03 -0.10097054160E+04  0.10616088553E+04  0.12699999809E+01 0. -1.
</event>
<event>
 5   0  0.7947250E-03  0.7083158E+03  0.7818609E-02  0.9703116E-01
       -4   -1    0    0    0  501  0.00000000000E+00  0.00000000000E+00  0.33322005471E+03  0.33322247487E+03  0.12699999809E+01 0. -1.
        4   -1    0    0  501    0  0.00000000000E+00  0.00000000000E+00 -0.37640649293E+03  0.37640863542E+03  0.12699999809E+01 0.  1.
    10030    2    1    2    0    0  0.00000000000E+00  0.00000000000E+00 -0.43186438221E+02  0.70963111029E+03  0.70831578004E+03 0.  0.
        4    1    3    3  502    0 -0.21879086732E+03 -0.26738426186E+03 -0.99599292837E+02  0.35956281669E+03  0.12699999809E+01 0.  1.
       -4    1    3    3    0  502  0.21879086732E+03  0.26738426186E+03  0.56412854616E+02  0.35006829360E+03  0.12699999809E+01 0. -1.
</event>
<event>
 5   0  0.1909053E-02  0.7009974E+03  0.7818609E-02  0.9715528E-01
        2   -1    0    0  501    0  0.00000000000E+00  0.00000000000E+00  0.35180481408E+03  0.35180481409E+03  0.25500000920E-02 0.  1.
       -2   -1    0    0    0  501  0.00000000000E+00  0.00000000000E+00 -0.34919745767E+03  0.34919745768E+03  0.25500000920E-02 0. -1.
    10030    2    1    2    0    0  0.00000000000E+00  0.00000000000E+00  0.26073564098E+01  0.70100227178E+03  0.70099742277E+03 0.  0.
        1    1    3    3  502    0  0.20899527207E+03  0.27995812301E+03  0.29477837498E+02  0.35060592881E+03  0.50400001928E-02 0.  1.
       -1    1    3    3    0  502 -0.20899527207E+03 -0.27995812301E+03 -0.26870481088E+02  0.35039634297E+03  0.50400001928E-02 0. -1.
</event>
<event>
 5   0  0.1197259E-02  0.7105890E+03  0.7818609E-02  0.9699293E-01
       -1   -1    0    0    0  501  0.00000000000E+00  0.00000000000E+00  0.25874394217E+03  0.25874394222E+03  0.50400001928E-02 0. -1.
        1   -1    0    0  501    0  0.00000000000E+00  0.00000000000E+00 -0.48787298855E+03  0.48787298858E+03  0.50400001928E-02 0.  1.
    10030    2    1    2    0    0  0.00000000000E+00  0.00000000000E+00 -0.22912904638E+03  0.74661693080E+03  0.71058899616E+03 0.  0.
        3    1    3    3  502    0 -0.23229899196E+03  0.85238347281E-01  0.16789902706E+03  0.28662331102E+03  0.10100000352E+00 0. -1.
       -3    1    3    3    0  502  0.23229899196E+03 -0.85238347281E-01 -0.39702807344E+03  0.45999361977E+03  0.10100000352E+00 0.  1.
</event>
<event>
 5   0  0.1237686E-02  0.7015620E+03  0.7818609E-02  0.9714565E-01
       -1   -1    0    0    0  501  0.00000000000E+00  0.00000000000E+00  0.28359574178E+03  0.28359574183E+03  0.50400001928E-02 0.  1.
        1   -1    0    0  501    0  0.00000000000E+00  0.00000000000E+00 -0.43388274033E+03  0.43388274036E+03  0.50400001928E-02 0. -1.
    10030    2    1    2    0    0  0.00000000000E+00  0.00000000000E+00 -0.15028699854E+03  0.71747848219E+03  0.70156196481E+03 0.  0.
        5    1    3    3  502    0 -0.71347141370E+02  0.50871658045E+01 -0.42631249391E+03  0.43229703481E+03  0.46999998093E+01 0. -1.
       -5    1    3    3    0  502  0.71347141370E+02 -0.50871658045E+01  0.27602549537E+03  0.28518144738E+03  0.46999998093E+01 0.  1.
</event>
<event>
 5   0  0.1197259E-02  0.6987388E+03  0.7818609E-02  0.9719391E-01
       -1   -1    0    0    0  501  0.00000000000E+00  0.00000000000E+00  0.73879235927E+02  0.73879236099E+02  0.50400001928E-02 0.  1.
        1   -1    0    0  501    0  0.00000000000E+00  0.00000000000E+00 -0.16521419704E+04  0.16521419704E+04  0.50400001928E-02 0. -1.
    10030    2    1    2    0    0  0.00000000000E+00  0.00000000000E+00 -0.15782627345E+04  0.17260212065E+04  0.69873882552E+03 0.  0.
        3    1    3    3  502    0 -0.21694890042E+03  0.15645470266E+02 -0.11378089060E+03  0.24547445366E+03  0.10100000352E+00 0.  1.
       -3    1    3    3    0  502  0.21694890042E+03 -0.15645470266E+02 -0.14644818439E+04  0.14805467529E+04  0.10100000352E+00 0. -1.
</event>
<event>
 5   0  0.7947250E-03  0.6952864E+03  0.7818609E-02  0.9725327E-01
        4   -1    0    0  501    0  0.00000000000E+00  0.00000000000E+00  0.18461993184E+03  0.18462429995E+03  0.12699999809E+01 0. -1.
       -4   -1    0    0    0  501  0.00000000000E+00  0.00000000000E+00 -0.65460665485E+03  0.65460788681E+03  0.12699999809E+01 0.  1.
    10030    2    1    2    0    0  0.00000000000E+00  0.00000000000E+00 -0.46998672302E+03  0.83923218676E+03  0.69528637516E+03 0.  0.
        1    1    3    3  502    0  0.16496258886E+03  0.30447217703E+03 -0.19798996656E+03  0.39889345594E+03  0.50400001928E-02 0.  1.
       -1    1    3    3    0  502 -0.16496258886E+03 -0.30447217703E+03 -0.27199675646E+03  0.44033873082E+03  0.50400001928E-02 0. -1.
</event>
<event>
 5   0  0.1948138E-02  0.6978017E+03  0.7818609E-02  0.9720999E-01
        2   -1    0    0  501    0  0.00000000000E+00  0.00000000000E+00  0.15972392279E+04  0.15972392279E+04  0.25500000920E-02 0.  1.
       -2   -1    0    0    0  501  0.00000000000E+00  0.00000000000E+00 -0.76213877058E+02  0.76213877100E+02  0.25500000920E-02 0. -1.
    10030    2    1    2    0    0  0.00000000000E+00  0.00000000000E+00  0.15210253508E+04  0.16734531050E+04  0.69780167435E+03 0.  0.
        3    1    3    3  502    0  0.55348260272E+02 -0.88077894338E+02  0.15591840930E+04  0.15626503740E+04  0.10100000352E+00 0.  1.
       -3    1    3    3    0  502 -0.55348260272E+02  0.88077894338E+02 -0.38158742161E+02  0.11080273097E+03  0.10100000352E+00 0. -1.
</event>
<event>
 5   0  0.1973067E-02  0.6999813E+03  0.7818609E-02  0.9717264E-01
        2   -1    0    0  501    0  0.00000000000E+00  0.00000000000E+00  0.40180721395E+03  0.40180721396E+03  0.25500000920E-02 0. -1.
       -2   -1    0    0    0  501  0.00000000000E+00  0.00000000000E+00 -0.30485630221E+03  0.30485630222E+03  0.25500000920E-02 0.  1.
    10030    2    1    2    0    0  0.00000000000E+00  0.00000000000E+00  0.96950911741E+02  0.70666351618E+03  0.69998131819E+03 0.  0.
        5    1    3    3  502    0 -0.69133905807E+02 -0.30995421520E+03  0.19691741137E+03  0.37369729642E+03  0.46999998093E+01 0.  1.
       -5    1    3    3    0  502  0.69133905807E+02  0.30995421520E+03 -0.99966499631E+02  0.33296621976E+03  0.46999998093E+01 0. -1.
</event>
<event>
 5   0  0.2026361E-02  0.6995070E+03  0.7818609E-02  0.9718076E-01
       -2   -1    0    0    0  501  0.00000000000E+00  0.00000000000E+00  0.12552610742E+03  0.12552610744E+03  0.25500000920E-02 0. -1.
        2   -1    0    0  501    0  0.00000000000E+00  0.00000000000E+00 -0.97451833991E+03  0.97451833992E+03  0.25500000920E-02 0.  1.
    10030    2    1    2    0    0  0.00000000000E+00  0.00000000000E+00 -0.84899223250E+03  0.11000444474E+04  0.69950695159E+03 0.  0.
        2    1    3    3  502    0  0.23473280428E+02 -0.48656481364E+02  0.11892537795E+03  0.13062041800E+03  0.25500000920E-02 0. -1.
       -2    1    3    3    0  502 -0.23473280428E+02  0.48656481364E+02 -0.96791761045E+03  0.96942402935E+03  0.25500000920E-02 0.  1.
</event>
<event>
 5   0  0.1223742E-02  0.7113098E+03  0.7818609E-02  0.9698084E-01
        1   -1    0    0  501    0  0.00000000000E+00  0.00000000000E+00  0.69827430555E+03  0.69827430557E+03  0.50400001928E-02 0. -1.
       -1   -1    0    0    0  501  0.00000000000E+00  0.00000000000E+00 -0.18114717820E+03  0.18114717827E+03  0.50400001928E-02 0.  1.
    10030    2    1    2    0    0  0.00000000000E+00  0.00000000000E+00  0.51712712735E+03  0.87942148384E+03  0.71130983432E+03 0.  0.
        2    1    3    3  502    0 -0.22051785919E+03  0.12268772581E+03  0.56841442605E+03  0.62191266593E+03  0.25500000920E-02 0. -1.
       -2    1    3    3    0  502  0.22051785919E+03 -0.12268772581E+03 -0.51287298706E+02  0.25750881792E+03  0.25500000920E-02 0.  1.
</event>
<event>
 5   0  0.1909053E-02  0.7087284E+03  0.7818609E-02  0.9702421E-01
        2   -1    0    0  501    0  0.00000000000E+00  0.00000000000E+00  0.33059853960E+03  0.33059853961E+03  0.25500000920E-02 0. -1.
       -2   -1    0    0    0  501  0.00000000000E+00  0.00000000000E+00 -0.37983831483E+03  0.37983831484E+03  0.25500000920E-02 0.  1.
    10030    2    1    2    0    0  0.00000000000E+00  0.00000000000E+00 -0.49239775237E+02  0.71043685445E+03  0.70872841674E+03 0.  0.
        1    1    3    3  502    0 -0.43892543175E+02 -0.32728024240E+02 -0.37557285094E+03  0.37954267916E+03  0.50400001928E-02 0.  1.
       -1    1    3    3    0  502  0.43892543175E+02  0.32728024240E+02  0.32633307570E+03  0.33089417529E+03  0.50400001928E-02 0. -1.
</event>
<event>
 5   0  0.7947250E-03  0.6988336E+03  0.7818609E-02  0.9719229E-01
        3   -1    0    0  501    0  0.00000000000E+00  0.00000000000E+00  0.15229867563E+03  0.15229870912E+03  0.10100000352E+00 0. -1.
       -3   -1    0    0    0  501  0.00000000000E+00  0.00000000000E+00 -0.80166210868E+03  0.80166211505E+03  0.10100000352E+00 0.  1.
    10030    2    1    2    0    0  0.00000000000E+00  0.00000000000E+00 -0.64936343306E+03  0.95396082416E+03  0.69883358952E+03 0.  0.
        2    1    3    3  502    0  0.19650799959E+03 -0.18042572366E+03 -0.16636214676E+02  0.26729309625E+03  0.25500000920E-02 0. -1.
       -2    1    3    3    0  502 -0.19650799959E+03  0.18042572366E+03 -0.63272721838E+03  0.68666772791E+03  0.25500000920E-02 0.  1.
</event>
<event>
 5   0  0.7947250E-03  0.6741227E+03  0.7818609E-02  0.9762539E-01
        4   -1    0    0  501    0  0.00000000000E+00  0.00000000000E+00  0.69545807846E+03  0.69545923806E+03  0.12699999809E+01 0. -1.
       -4   -1    0    0    0  501  0.00000000000E+00  0.00000000000E+00 -0.16335667676E+03  0.16336161343E+03  0.12699999809E+01 0.  1.
    10030    2    1    2    0    0  0.00000000000E+00  0.00000000000E+00  0.53210140170E+03  0.85882085149E+03  0.67412265447E+03 0.  0.
        2    1    3    3  502    0  0.29295259238E+03 -0.94037650550E+02  0.44140759747E+03  0.53805665892E+03  0.25500000920E-02 0. -1.
       -2    1    3    3    0  502 -0.29295259238E+03  0.94037650550E+02  0.90693804224E+02  0.32076419256E+03  0.25500000920E-02 0.  1.
</event>
<event>
 5   0  0.1257442E-02  0.6989786E+03  0.7818609E-02  0.9718981E-01
        1   -1    0    0  501    0  0.00000000000E+00  0.00000000000E+00  0.18593379508E+03  0.18593379515E+03  0.50400001928E-02 0.  1.
       -1   -1    0    0    0  501  0.00000000000E+00  0.00000000000E+00 -0.65691539327E+03  0.65691539329E+03  0.50400001928E-02 0. -1.
    10030    2    1    2    0    0  0.00000000000E+00  0.00000000000E+00 -0.47098159819E+03  0.84284918844E+03  0.69897860383E+03 0.  0.
        1    1    3    3  502    0 -0.12640973407E+03 -0.31548249823E+03 -0.33370594288E+03  0.47630692195E+03  0.50400001928E-02 0.  1.
       -1    1    3    3    0  502  0.12640973407E+03  0.31548249823E+03 -0.13727565531E+03  0.36654226649E+03  0.50400001928E-02 0. -1.
</event>
<event>
 5   0  0.7947250E-03  0.6953440E+03  0.7818609E-02  0.9725228E-01
       -3   -1    0    0    0  501  0.00000000000E+00  0.00000000000E+00  0.49115291009E+03  0.49115292048E+03  0.10100000352E+00 0.  1.
        3   -1    0    0  501    0  0.00000000000E+00  0.00000000000E+00 -0.24610626185E+03  0.24610628257E+03  0.10100000352E+00 0. -1.
    10030    2    1    2    0    0  0.00000000000E+00  0.00000000000E+00  0.24504664825E+03  0.73725920305E+03  0.69534399592E+03 0.  0.
        3    1    3    3  502    0  0.15147707764E+02  0.87858445203E+02  0.47882664224E+03  0.48705597518E+03  0.10100000352E+00 0.  1.
       -3    1    3    3    0  502 -0.15147707764E+02 -0.87858445203E+02 -0.23377999399E+03  0.25020322787E+03  0.10100000352E+00 0. -1.
</event>
<event>
 5   0  0.1197259E-02  0.7008965E+03  0.7818609E-02  0.9715700E-01
       -1   -1    0    0    0  501  0.00000000000E+00  0.00000000000E+00  0.67726385462E+03  0.67726385464E+03  0.50400001928E-02 0. -1.
        1   -1    0    0  501    0  0.00000000000E+00  0.00000000000E+00 -0.18133845106E+03  0.18133845113E+03  0.50400001928E-02 0.  1.
    10030    2    1    2    0    0  0.00000000000E+00  0.00000000000E+00  0.49592540356E+03  0.85860230577E+03  0.70089650704E+03 0.  0.
        3    1    3    3  502    0  0.24932902116E+03 -0.24123166521E+03  0.18725020794E+03  0.39423384896E+03  0.10100000352E+00 0.  1.
       -3    1    3    3    0  502 -0.24932902116E+03  0.24123166521E+03  0.30867519562E+03  0.46436845681E+03  0.10100000352E+00 0. -1.
</event>
<event>
 5   0  0.1223742E-02  0.7019573E+03  0.7818609E-02  0.9713891E-01
       -1   -1    0    0    0  501  0.00000000000E+00  0.00000000000E+00  0.14341675719E+03  0.14341675728E+03  0.50400001928E-02 0.  1.
        1   -1    0    0  501    0  0.00000000000E+00  0.00000000000E+00 -0.85893735665E+03  0.85893735666E+03  0.50400001928E-02 0. -1.
    10030    2    1    2    0    0  0.00000000000E+00  0.00000000000E+00 -0.71552059945E+03  0.10023541139E+04  0.70195729322E+03 0.  0.
        2    1    3    3  502    0  0.12336317704E+03 -0.24565723030E+03 -0.46154548057E+02  0.27874036407E+03  0.25500000920E-02 0.  1.
       -2    1    3    3    0  502 -0.12336317704E+03  0.24565723030E+03 -0.66936605140E+03  0.72361374988E+03  0.25500000920E-02 0. -1.
</event>
<event>
 5   0  0.1197259E-02  0.7038952E+03  0.7818609E-02  0.9710594E-01
        1   -1    0    0  501    0  0.00000000000E+00  0.00000000000E+00  0.33256046759E+03  0.33256046763E+03  0.50400001928E-02 0.  1.
       -1   -1    0    0    0  501  0.00000000000E+00  0.00000000000E+00 -0.37246492324E+03  0.37246492328E+03  0.50400001928E-02 0. -1.
    10030    2    1    2    0    0  0.00000000000E+00  0.00000000000E+00 -0.39904455650E+02  0.70502539091E+03  0.70389518839E+03 0.  0.
        3    1    3    3  502    0 -0.24255486852E+03 -0.25501438959E+03 -0.18573164504E+02  0.35243464043E+03  0.10100000352E+00 0.  1.
       -3    1    3    3    0  502  0.24255486852E+03  0.25501438959E+03 -0.21331291145E+02  0.35259075047E+03  0.10100000352E+00 0. -1.
</event>
<event>
 5   0  0.1226303E-02  0.6924711E+03  0.7818609E-02  0.9730195E-01
       -1   -1    0    0    0  501  0.00000000000E+00  0.00000000000E+00  0.31913482619E+03  0.31913482623E+03  0.50400001928E-02 0.  1.
        1   -1    0    0  501    0  0.00000000000E+00  0.00000000000E+00 -0.37563765377E+03  0.37563765380E+03  0.50400001928E-02 0. -1.
    10030    2    1    2    0    0  0.00000000000E+00  0.00000000000E+00 -0.56502827580E+02  0.69477248003E+03  0.69247110372E+03 0.  0.
        4    1    3    3  502    0 -0.32698168116E+03  0.10036025762E+03  0.25669574462E+02  0.34300108028E+03  0.12699999809E+01 0. -1.
       -4    1    3    3    0  502  0.32698168116E+03 -0.10036025762E+03 -0.82172402042E+02  0.35177139975E+03  0.12699999809E+01 0.  1.
</event>
<event>
 5   0  0.7947250E-03  0.6610595E+03  0.7818609E-02  0.9786245E-01
        4   -1    0    0  501    0  0.00000000000E+00  0.00000000000E+00  0.15806188938E+03  0.15806699141E+03  0.12699999809E+01 0.  1.
       -4   -1    0    0    0  501  0.00000000000E+00  0.00000000000E+00 -0.69116758409E+03  0.69116875089E+03  0.12699999809E+01 0. -1.
    10030    2    1    2    0    0  0.00000000000E+00  0.00000000000E+00 -0.53310569472E+03  0.84923574230E+03  0.66105950129E+03 0.  0.
        3    1    3    3  502    0  0.26263076567E+03  0.21139725261E+02 -0.10173817070E+02  0.26367655150E+03  0.10100000352E+00 0. -1.
       -3    1    3    3    0  502 -0.26263076567E+03 -0.21139725261E+02 -0.52293187765E+03  0.58555919079E+03  0.10100000352E+00 0.  1.
</event>
<event>
 5   0  0.2026361E-02  0.6994797E+03  0.7818609E-02  0.9718122E-01
        2   -1    0    0  501    0  0.00000000000E+00  0.00000000000E+00  0.93472634511E+03  0.93472634511E+03  0.25500000920E-02 0. -1.
       -2   -1    0    0    0  501  0.00000000000E+00  0.00000000000E+00 -0.13085964175E+03  0.13085964178E+03  0.25500000920E-02 0.  1.
    10030    2    1    2    0    0  0.00000000000E+00  0.00000000000E+00  0.80386670335E+03  0.10655859869E+04  0.69947967712E+03 0.  0.
        2    1    3    3  502    0 -0.19221982710E+03  0.26931539604E+03  0.57454658894E+03  0.66301057861E+03  0.25500000920E-02 0.  1.
       -2    1    3    3    0  502  0.19221982710E+03 -0.26931539604E+03  0.22932011441E+03  0.40257540829E+03  0.25500000920E-02 0. -1.
</event>
<event>
 5   0  0.1223742E-02  0.7017517E+03  0.7818609E-02  0.9714241E-01
       -1   -1    0    0    0  501  0.00000000000E+00  0.00000000000E+00  0.30656492025E+03  0.30656492029E+03  0.50400001928E-02 0. -1.
        1   -1    0    0  501    0  0.00000000000E+00  0.00000000000E+00 -0.40159147374E+03  0.40159147377E+03  0.50400001928E-02 0.  1.
    10030    2    1    2    0    0  0.00000000000E+00  0.00000000000E+00 -0.95026553490E+02  0.70815639406E+03  0.70175168869E+03 0.  0.
        2    1    3    3  502    0 -0.13788695111E+03 -0.19040463130E+03  0.21533881257E+03  0.31880642891E+03  0.25500000920E-02 0. -1.
       -2    1    3    3    0  502  0.13788695111E+03  0.19040463130E+03 -0.31036536606E+03  0.38934996515E+03  0.25500000920E-02 0.  1.
</event>
<event>
 5   0  0.1237686E-02  0.6961851E+03  0.7818609E-02  0.9723778E-01
       -1   -1    0    0    0  501  0.00000000000E+00  0.00000000000E+00  0.18199788630E+03  0.18199788637E+03  0.50400001928E-02 0.  1.
        1   -1    0    0  501    0  0.00000000000E+00  0.00000000000E+00 -0.66576835168E+03  0.66576835170E+03  0.50400001928E-02 0. -1.
    10030    2    1    2    0    0  0.00000000000E+00  0.00000000000E+00 -0.48377046539E+03  0.84776623807E+03  0.69618512712E+03 0.  0.
        5    1    3    3  502    0  0.83999908011E+02 -0.46394289930E+02 -0.64930304089E+03  0.65637256463E+03  0.46999998093E+01 0. -1.
       -5    1    3    3    0  502 -0.83999908011E+02  0.46394289930E+02  0.16553257550E+03  0.19139367344E+03  0.46999998093E+01 0.  1.
</event>
<event>
 5   0  0.1237686E-02  0.7001144E+03  0.7818609E-02  0.9717037E-01
       -1   -1    0    0    0  501  0.00000000000E+00  0.00000000000E+00  0.34805686466E+03  0.34805686470E+03  0.50400001928E-02 0.  1.
        1   -1    0    0  501    0  0.00000000000E+00  0.00000000000E+00 -0.35206900536E+03  0.35206900539E+03  0.50400001928E-02 0. -1.
    10030    2    1    2    0    0  0.00000000000E+00  0.00000000000E+00 -0.40121406949E+01  0.70012587009E+03  0.70011437401E+03 0.  0.
        5    1    3    3  502    0 -0.18325126828E+02  0.66818470682E+02  0.34109929513E+03  0.34809673574E+03  0.46999998093E+01 0.  1.
       -5    1    3    3    0  502  0.18325126828E+02 -0.66818470682E+02 -0.34511143582E+03  0.35202913435E+03  0.46999998093E+01 0. -1.
</event>
<event>
 5   0  0.1948138E-02  0.7012787E+03  0.7818609E-02  0.9715048E-01
       -2   -1    0    0    0  501  0.00000000000E+00  0.00000000000E+00  0.49202610299E+03  0.49202610300E+03  0.25500000920E-02 0. -1.
        2   -1    0    0  501    0  0.00000000000E+00  0.00000000000E+00 -0.24988097896E+03  0.24988097897E+03  0.25500000920E-02 0.  1.
    10030    2    1    2    0    0  0.00000000000E+00  0.00000000000E+00  0.24214512403E+03  0.74190708197E+03  0.70127873003E+03 0.  0.
        3    1    3    3  502    0 -0.31830688137E+03 -0.11625872718E+03  0.25784463640E+02  0.33985321999E+03  0.10100000352E+00 0.  1.
       -3    1    3    3    0  502  0.31830688137E+03  0.11625872718E+03  0.21636066039E+03  0.40205386198E+03  0.10100000352E+00 0. -1.
</event>
<event>
 5   0  0.1948138E-02  0.7011510E+03  0.7818609E-02  0.9715266E-01
        2   -1    0    0  501    0  0.00000000000E+00  0.00000000000E+00  0.84331324736E+03  0.84331324736E+03  0.25500000920E-02 0. -1.
       -2   -1    0    0    0  501  0.00000000000E+00  0.00000000000E+00 -0.14573848910E+03  0.14573848912E+03  0.25500000920E-02 0.  1.
    10030    2    1    2    0    0  0.00000000000E+00  0.00000000000E+00  0.69757475826E+03  0.98905173648E+03  0.70115104941E+03 0.  0.
        3    1    3    3  502    0  0.65902282920E+02 -0.59354211339E+02 -0.12965152586E+03  0.15708456848E+03  0.10100000352E+00 0.  1.
       -3    1    3    3    0  502 -0.65902282920E+02  0.59354211339E+02  0.82722628411E+03  0.83196716800E+03  0.10100000352E+00 0. -1.
</event>
<event>
 5   0  0.2006362E-02  0.6854340E+03  0.7818609E-02  0.9742471E-01
       -2   -1    0    0    0  501  0.00000000000E+00  0.00000000000E+00  0.11430781327E+03  0.11430781330E+03  0.25500000920E-02 0. -1.
        2   -1    0    0  501    0  0.00000000000E+00  0.00000000000E+00 -0.10275320673E+04  0.10275320673E+04  0.25500000920E-02 0.  1.
    10030    2    1    2    0    0  0.00000000000E+00  0.00000000000E+00 -0.91322425401E+03  0.11418398806E+04  0.68543400469E+03 0.  0.
        4    1    3    3  502    0  0.15103876862E+03  0.26754060623E+03 -0.70959674736E+03  0.77325276745E+03  0.12699999809E+01 0.  1.
       -4    1    3    3    0  502 -0.15103876862E+03 -0.26754060623E+03 -0.20362750665E+03  0.36858711314E+03  0.12699999809E+01 0. -1.
</event>
<event>
 5   0  0.1948138E-02  0.7016267E+03  0.7818609E-02  0.9714454E-01
        2   -1    0    0  501    0  0.00000000000E+00  0.00000000000E+00  0.15768298112E+04  0.15768298112E+04  0.25500000920E-02 0. -1.
       -2   -1    0    0    0  501  0.00000000000E+00  0.00000000000E+00 -0.78049020066E+02  0.78049020108E+02  0.25500000920E-02 0.  1.
    10030    2    1    2    0    0  0.00000000000E+00  0.00000000000E+00  0.14987807911E+04  0.16548788313E+04  0.70162674296E+03 0.  0.
        3    1    3    3  502    0 -0.32724815657E+02  0.29195815873E+03  0.12016054850E+04  0.12369988811E+04  0.10100000352E+00 0. -1.
       -3    1    3    3    0  502  0.32724815657E+02 -0.29195815873E+03  0.29717530607E+03  0.41787995016E+03  0.10100000352E+00 0.  1.
</event>
<event>
 5   0  0.1909053E-02  0.7018018E+03  0.7818609E-02  0.9714156E-01
        2   -1    0    0  501    0  0.00000000000E+00  0.00000000000E+00  0.11421765377E+04  0.11421765377E+04  0.25500000920E-02 0.  1.
       -2   -1    0    0    0  501  0.00000000000E+00  0.00000000000E+00 -0.10780422091E+03  0.10780422094E+03  0.25500000920E-02 0. -1.
    10030    2    1    2    0    0  0.00000000000E+00  0.00000000000E+00  0.10343723168E+04  0.12499807586E+04  0.70180182904E+03 0.  0.
        1    1    3    3  502    0 -0.26266343221E+03  0.13992056130E+03  0.18606585390E+03  0.35098482034E+03  0.50400001928E-02 0. -1.
       -1    1    3    3    0  502  0.26266343221E+03 -0.13992056130E+03  0.84830646287E+03  0.89899593830E+03  0.50400001928E-02 0.  1.
</event>
<event>
 5   0  0.1948138E-02  0.6720395E+03  0.7818609E-02  0.9766280E-01
       -2   -1    0    0    0  501  0.00000000000E+00  0.00000000000E+00  0.56511899548E+02  0.56511899606E+02  0.25500000920E-02 0.  1.
        2   -1    0    0  501    0  0.00000000000E+00  0.00000000000E+00 -0.19979733017E+04  0.19979733017E+04  0.25500000920E-02 0. -1.
    10030    2    1    2    0    0  0.00000000000E+00  0.00000000000E+00 -0.19414614022E+04  0.20544852014E+04  0.67203948274E+03 0.  0.
        3    1    3    3  502    0  0.28654230264E+03 -0.15850353036E+02 -0.43638204525E+03  0.52229017271E+03  0.10100000352E+00 0.  1.
       -3    1    3    3    0  502 -0.28654230264E+03  0.15850353036E+02 -0.15050793569E+04  0.15321950286E+04  0.10100000352E+00 0. -1.
</event>
<event>
 5   0  0.1973067E-02  0.7206549E+03  0.7818609E-02  0.9682547E-01
        2   -1    0    0  501    0  0.00000000000E+00  0.00000000000E+00  0.59741370347E+03  0.59741370347E+03  0.25500000920E-02 0.  1.
       -2   -1    0    0    0  501  0.00000000000E+00  0.00000000000E+00 -0.21732989193E+03  0.21732989195E+03  0.25500000920E-02 0. -1.
    10030    2    1    2    0    0  0.00000000000E+00  0.00000000000E+00  0.38008381153E+03  0.81474359542E+03  0.72065485670E+03 0.  0.
        5    1    3    3  502    0  0.25628917188E+03  0.15886259797E+03  0.41300113602E+03  0.51138389984E+03  0.46999998093E+01 0.  1.
       -5    1    3    3    0  502 -0.25628917188E+03 -0.15886259797E+03 -0.32917324490E+02  0.30335969558E+03  0.46999998093E+01 0. -1.
</event>
<event>
 5   0  0.1197259E-02  0.7084188E+03  0.7818609E-02  0.9702942E-01
       -1   -1    0    0    0  501  0.00000000000E+00  0.00000000000E+00  0.10051115166E+03  0.10051115179E+03  0.50400001928E-02 0.  1.
        1   -1    0    0  501    0  0.00000000000E+00  0.00000000000E+00 -0.12482624913E+04  0.12482624913E+04  0.50400001928E-02 0. -1.
    10030    2    1    2    0    0  0.00000000000E+00  0.00000000000E+00 -0.11477513397E+04  0.13487736431E+04  0.70841880457E+03 0.  0.
        3    1    3    3  502    0 -0.17222874149E+03  0.30932514654E+03 -0.59468900311E+03  0.69209811898E+03  0.10100000352E+00 0. -1.
       -3    1    3    3    0  502  0.17222874149E+03 -0.30932514654E+03 -0.55306233654E+03  0.65667552412E+03  0.10100000352E+00 0.  1.
</event>
<event>
 5   0  0.7947250E-03  0.6355782E+03  0.7818609E-02  0.9834223E-01
        3   -1    0    0  501    0  0.00000000000E+00  0.00000000000E+00  0.50096053845E+03  0.50096054863E+03  0.10100000352E+00 0. -1.
       -3   -1    0    0    0  501  0.00000000000E+00  0.00000000000E+00 -0.20159253891E+03  0.20159256421E+03  0.10100000352E+00 0.  1.
    10030    2    1    2    0    0  0.00000000000E+00  0.00000000000E+00  0.29936799954E+03  0.70255311285E+03  0.63557822274E+03 0.  0.
        3    1    3    3  502    0  0.23260557344E+02 -0.56940376448E+02 -0.19495001581E+03  0.20442303897E+03  0.10100000352E+00 0.  1.
       -3    1    3    3    0  502 -0.23260557344E+02  0.56940376448E+02  0.49431801535E+03  0.49813007387E+03  0.10100000352E+00 0. -1.
</event>
<event>
 5   0  0.1257442E-02  0.6898420E+03  0.7818609E-02  0.9734763E-01
       -1   -1    0    0    0  501  0.00000000000E+00  0.00000000000E+00  0.47823635399E+03  0.47823635402E+03  0.50400001928E-02 0. -1.
        1   -1    0    0  501    0  0.00000000000E+00  0.00000000000E+00 -0.24876925007E+03  0.24876925012E+03  0.50400001928E-02 0.  1.
    10030    2    1    2    0    0  0.00000000000E+00  0.00000000000E+00  0.22946710392E+03  0.72700560414E+03  0.68984200849E+03 0.  0.
        1    1    3    3  502    0 -0.46679760178E+02 -0.10300808469E+03 -0.22867506338E+03  0.25511164254E+03  0.50400001928E-02 0.  1.
       -1    1    3    3    0  502  0.46679760178E+02  0.10300808469E+03  0.45814216729E+03  0.47189396160E+03  0.50400001928E-02 0. -1.
</event>
<event>
 5   0  0.1197259E-02  0.7052077E+03  0.7818609E-02  0.9708368E-01
       -1   -1    0    0    0  501  0.00000000000E+00  0.00000000000E+00  0.11067621501E+03  0.11067621512E+03  0.50400001928E-02 0. -1.
        1   -1    0    0  501    0  0.00000000000E+00  0.00000000000E+00 -0.11233621930E+04  0.11233621931E+04  0.50400001928E-02 0.  1.
    10030    2    1    2    0    0  0.00000000000E+00  0.00000000000E+00 -0.10126859780E+04  0.12340384082E+04  0.70520770184E+03 0.  0.
        3    1    3    3  502    0  0.17623169906E+03 -0.27399937594E+03 -0.27029411679E+03  0.42331098443E+03  0.10100000352E+00 0. -1.
       -3    1    3    3    0  502 -0.17623169906E+03  0.27399937594E+03 -0.74239186125E+03  0.81072742375E+03  0.10100000352E+00 0.  1.
</event>
<event>
 5   0  0.1226303E-02  0.6995862E+03  0.7818609E-02  0.9717940E-01
        1   -1    0    0  501    0  0.00000000000E+00  0.00000000000E+00  0.59057312565E+03  0.59057312567E+03  0.50400001928E-02 0. -1.
       -1   -1    0    0    0  501  0.00000000000E+00  0.00000000000E+00 -0.20718045671E+03  0.20718045677E+03  0.50400001928E-02 0.  1.
    10030    2    1    2    0    0  0.00000000000E+00  0.00000000000E+00  0.38339266894E+03  0.79775358244E+03  0.69958619176E+03 0.  0.
        4    1    3    3  502    0  0.86945452972E+02  0.30337778819E+03  0.36371498017E+03  0.48154729140E+03  0.12699999809E+01 0. -1.
       -4    1    3    3    0  502 -0.86945452972E+02 -0.30337778819E+03  0.19677688770E+02  0.31620629104E+03  0.12699999809E+01 0.  1.
</event>
<event>
 5   0  0.1226303E-02  0.6993605E+03  0.7818609E-02  0.9718326E-01
       -1   -1    0    0    0  501  0.00000000000E+00  0.00000000000E+00  0.48886795779E+03  0.48886795781E+03  0.50400001928E-02 0.  1.
        1   -1    0    0  501    0  0.00000000000E+00  0.00000000000E+00 -0.25012126829E+03  0.25012126834E+03  0.50400001928E-02 0. -1.
    10030    2    1    2    0    0  0.00000000000E+00  0.00000000000E+00  0.23874668950E+03  0.73898922615E+03  0.69936048975E+03 0.  0.
        4    1    3    3  502    0 -0.61840249705E+02  0.65401164965E+02  0.47641506863E+03  0.48484477864E+03  0.12699999809E+01 0.  1.
       -4    1    3    3    0  502  0.61840249705E+02 -0.65401164965E+02 -0.23766837913E+03  0.25414444751E+03  0.12699999809E+01 0. -1.
</event>
<event>
 5   0  0.2006362E-02  0.6988551E+03  0.7818609E-02  0.9719192E-01
       -2   -1    0    0    0  501  0.00000000000E+00  0.00000000000E+00  0.56890366240E+02  0.56890366297E+02  0.25500000920E-02 0. -1.
        2   -1    0    0  501    0  0.00000000000E+00  0.00000000000E+00 -0.21462263905E+04  0.21462263905E+04  0.25500000920E-02 0.  1.
    10030    2    1    2    0    0  0.00000000000E+00  0.00000000000E+00 -0.20893360243E+04  0.22031167568E+04  0.69885507927E+03 0.  0.
        4    1    3    3  502    0  0.10749264178E+03  0.13877179222E+02  0.25522323153E+01  0.10842218836E+03  0.12699999809E+01 0. -1.
       -4    1    3    3    0  502 -0.10749264178E+03 -0.13877179222E+02 -0.20918882566E+04  0.20946945685E+04  0.12699999809E+01 0.  1.
</event>
<event>
 5   0  0.1973067E-02  0.6891885E+03  0.7818609E-02  0.9735902E-01
        2   -1    0    0  501    0  0.00000000000E+00  0.00000000000E+00  0.15960232657E+04  0.15960232657E+04  0.25500000920E-02 0. -1.
       -2   -1    0    0    0  501  0.00000000000E+00  0.00000000000E+00 -0.74400668712E+02  0.74400668755E+02  0.25500000920E-02 0.  1.
    10030    2    1    2    0    0  0.00000000000E+00  0.00000000000E+00  0.15216225970E+04  0.16704239344E+04  0.68918850334E+03 0.  0.
        5    1    3    3  502    0 -0.72073050213E+02  0.67947248306E+02  0.15606935463E+04  0.15638407172E+04  0.46999998093E+01 0. -1.
       -5    1    3    3    0  502  0.72073050213E+02 -0.67947248306E+02 -0.39070949367E+02  0.10658321726E+03  0.46999998093E+01 0.  1.
</event>
<event>
 5   0  0.1226303E-02  0.6997112E+03  0.7818609E-02  0.9717726E-01
        1   -1    0    0  501    0  0.00000000000E+00  0.00000000000E+00  0.42741989442E+03  0.42741989445E+03  0.50400001928E-02 0.  1.
       -1   -1    0    0    0  501  0.00000000000E+00  0.00000000000E+00 -0.28636693582E+03  0.28636693586E+03  0.50400001928E-02 0. -1.
    10030    2    1    2    0    0  0.00000000000E+00  0.00000000000E+00  0.14105295860E+03  0.71378683031E+03  0.69971115612E+03 0.  0.
        4    1    3    3  502    0  0.34861551112E+03 -0.78108546129E+01  0.41609668729E+02  0.35117910171E+03  0.12699999809E+01 0.  1.
       -4    1    3    3    0  502 -0.34861551112E+03  0.78108546129E+01  0.99443289871E+02  0.36260772861E+03  0.12699999809E+01 0. -1.
</event>
<event>
 5   0  0.1948138E-02  0.7155722E+03  0.7818609E-02  0.9690966E-01
       -2   -1    0    0    0  501  0.00000000000E+00  0.00000000000E+00  0.11877164898E+03  0.11877164901E+03  0.25500000920E-02 0.  1.
        2   -1    0    0  501    0  0.00000000000E+00  0.00000000000E+00 -0.10777900905E+04  0.10777900905E+04  0.25500000920E-02 0. -1.
    10030    2    1    2    0    0  0.00000000000E+00  0.00000000000E+00 -0.95901844153E+03  0.11965617395E+04  0.71557223625E+03 0.  0.
        3    1    3    3  502    0 -0.43036011044E+02  0.31720105572E+03 -0.74675541541E+03  0.81247293410E+03  0.10100000352E+00 0. -1.
       -3    1    3    3    0  502  0.43036011044E+02 -0.31720105572E+03 -0.21226302612E+03  0.38408880542E+03  0.10100000352E+00 0.  1.
</event>
<event>
 5   0  0.1909053E-02  0.7008660E+03  0.7818609E-02  0.9715752E-01
       -2   -1    0    0    0  501  0.00000000000E+00  0.00000000000E+00  0.13236870295E+03  0.13236870298E+03  0.25500000920E-02 0. -1.
        2   -1    0    0  501    0  0.00000000000E+00  0.00000000000E+00 -0.92773668439E+03  0.92773668439E+03  0.25500000920E-02 0.  1.
    10030    2    1    2    0    0  0.00000000000E+00  0.00000000000E+00 -0.79536798144E+03  0.10601053874E+04  0.70086604030E+03 0.  0.
        1    1    3    3  502    0  0.12098512151E+03  0.45819948021E+02  0.94925765612E+02  0.16046111138E+03  0.50400001928E-02 0. -1.
       -1    1    3    3    0  502 -0.12098512151E+03 -0.45819948021E+02 -0.89029374705E+03  0.89964427599E+03  0.50400001928E-02 0.  1.
</event>
<event>
 5   0  0.2026361E-02  0.6968086E+03  0.7818609E-02  0.9722705E-01
        2   -1    0    0  501    0  0.00000000000E+00  0.00000000000E+00  0.11976757464E+04  0.11976757464E+04  0.25500000920E-02 0.  1.
       -2   -1    0    0    0  501  0.00000000000E+00  0.00000000000E+00 -0.10135094896E+03  0.10135094900E+03  0.25500000920E-02 0. -1.
    10030    2    1    2    0    0  0.00000000000E+00  0.00000000000E+00  0.10963247974E+04  0.12990266954E+04  0.69680864940E+03 0.  0.
        2    1    3    3  502    0  0.36972659081E+01 -0.26949857745E+03  0.13657877272E+03  0.30215379227E+03  0.25500000920E-02 0. -1.
       -2    1    3    3    0  502 -0.36972659081E+01  0.26949857745E+03  0.95974602471E+03  0.99687290312E+03  0.25500000920E-02 0.  1.
</event>
<event>
 5   0  0.7947250E-03  0.6565500E+03  0.7818609E-02  0.9794566E-01
        4   -1    0    0  501    0  0.00000000000E+00  0.00000000000E+00  0.83283458002E+03  0.83283554833E+03  0.12699999809E+01 0.  1.
       -4   -1    0    0    0  501  0.00000000000E+00  0.00000000000E+00 -0.12939064026E+03  0.12939687278E+03  0.12699999809E+01 0. -1.
    10030    2    1    2    0    0  0.00000000000E+00  0.00000000000E+00  0.70344393976E+03  0.96223242112E+03  0.65654996449E+03 0.  0.
        4    1    3    3  502    0 -0.77806588130E+01  0.30957997374E+03  0.19209683647E+03  0.36442160511E+03  0.12699999809E+01 0. -1.
       -4    1    3    3    0  502  0.77806588130E+01 -0.30957997374E+03  0.51134710329E+03  0.59781081600E+03  0.12699999809E+01 0.  1.
</event>
<event>
 5   0  0.1226303E-02  0.7265563E+03  0.7818609E-02  0.9672865E-01
       -1   -1    0    0    0  501  0.00000000000E+00  0.00000000000E+00  0.11032326989E+03  0.11032327001E+03  0.50400001928E-02 0.  1.
        1   -1    0    0  501    0  0.00000000000E+00  0.00000000000E+00 -0.11962209496E+04  0.11962209496E+04  0.50400001928E-02 0. -1.
    10030    2    1    2    0    0  0.00000000000E+00  0.00000000000E+00 -0.10858976797E+04  0.13065442196E+04  0.72655627933E+03 0.  0.
        4    1    3    3  502    0 -0.26567379224E+03 -0.12527607797E+03 -0.92734445581E+03  0.97275177318E+03  0.12699999809E+01 0. -1.
       -4    1    3    3    0  502  0.26567379224E+03  0.12527607797E+03 -0.15855322391E+03  0.33379244645E+03  0.12699999809E+01 0.  1.
</event>
<event>
 5   0  0.1973067E-02  0.7022681E+03  0.7818609E-02  0.9713361E-01
       -2   -1    0    0    0  501  0.00000000000E+00  0.00000000000E+00  0.56033058212E+03  0.56033058213E+03  0.25500000920E-02 0.  1.
        2   -1    0    0  501    0  0.00000000000E+00  0.00000000000E+00 -0.22003994831E+03  0.22003994833E+03  0.25500000920E-02 0. -1.
    10030    2    1    2    0    0  0.00000000000E+00  0.00000000000E+00  0.34029063381E+03  0.78037053046E+03  0.70226807513E+03 0.  0.
        5    1    3    3  502    0 -0.12287058868E+03 -0.65652947655E+02 -0.18797887383E+03  0.23402059333E+03  0.46999998093E+01 0. -1.
       -5    1    3    3    0  502  0.12287058868E+03  0.65652947655E+02  0.52826950764E+03  0.54634993712E+03  0.46999998093E+01 0.  1.
</event>
<event>
 5   0  0.1973067E-02  0.6992943E+03  0.7818609E-02  0.9718440E-01
       -2   -1    0    0    0  501  0.00000000000E+00  0.00000000000E+00  0.92557758055E+02  0.92557758090E+02  0.25500000920E-02 0.  1.
        2   -1    0    0  501    0  0.00000000000E+00  0.00000000000E+00 -0.13208308558E+04  0.13208308558E+04  0.25500000920E-02 0. -1.
    10030    2    1    2    0    0  0.00000000000E+00  0.00000000000E+00 -0.12282730978E+04  0.14133886139E+04  0.69929433807E+03 0.  0.
        5    1    3    3  502    0  0.33220977700E+03  0.78955831558E+02 -0.76584095195E+03  0.83852955401E+03  0.46999998093E+01 0. -1.
       -5    1    3    3    0  502 -0.33220977700E+03 -0.78955831558E+02 -0.46243214583E+03  0.57485905992E+03  0.46999998093E+01 0.  1.
</event>
<event>
 5   0  0.1237686E-02  0.7065107E+03  0.7818609E-02  0.9706162E-01
       -1   -1    0    0    0  501  0.00000000000E+00  0.00000000000E+00  0.43459059180E+03  0.43459059183E+03  0.50400001928E-02 0. -1.
        1   -1    0    0  501    0  0.00000000000E+00  0.00000000000E+00 -0.28714226497E+03  0.28714226501E+03  0.50400001928E-02 0.  1.
    10030    2    1    2    0    0  0.00000000000E+00  0.00000000000E+00  0.14744832683E+03  0.72173285684E+03  0.70651065637E+03 0.  0.
        5    1    3    3  502    0 -0.13624355978E+03 -0.31298480736E+03 -0.19036675901E+02  0.34191560691E+03  0.46999998093E+01 0.  1.
       -5    1    3    3    0  502  0.13624355978E+03  0.31298480736E+03  0.16648500273E+03  0.37981724994E+03  0.46999998093E+01 0. -1.
</event>
<event>
 5   0  0.1226303E-02  0.6962365E+03  0.7818609E-02  0.9723690E-01
       -1   -1    0    0    0  501  0.00000000000E+00  0.00000000000E+00  0.10841404170E+03  0.10841404182E+03  0.50400001928E-02 0.  1.
        1   -1    0    0  501    0  0.00000000000E+00  0.00000000000E+00 -0.11178102007E+04  0.11178102008E+04  0.50400001928E-02 0. -1.
    10030    2    1    2    0    0  0.00000000000E+00  0.00000000000E+00 -0.10093961591E+04  0.12262242426E+04  0.69623651669E+03 0.  0.
        4    1    3    3  502    0  0.72679993081E+02 -0.26552930333E+03 -0.12944491373E+03  0.30421339700E+03  0.12699999809E+01 0.  1.
       -4    1    3    3    0  502 -0.72679993081E+02  0.26552930333E+03 -0.87995124532E+03  0.92201084558E+03  0.12699999809E+01 0. -1.
</event>
<event>
 5   0  0.1197259E-02  0.6987394E+03  0.7818609E-02  0.9719390E-01
        1   -1    0    0  501    0  0.00000000000E+00  0.00000000000E+00  0.14958805500E+04  0.14958805500E+04  0.50400001928E-02 0.  1.
       -1   -1    0    0    0  501  0.00000000000E+00  0.00000000000E+00 -0.81596885050E+02  0.81596885205E+02  0.50400001928E-02 0. -1.
    10030    2    1    2    0    0  0.00000000000E+00  0.00000000000E+00  0.14142836649E+04  0.15774774352E+04  0.69873941756E+03 0.  0.
        3    1    3    3  502    0 -0.30116873093E+03  0.47941724488E+02  0.32230020678E+03  0.44370986796E+03  0.10100000352E+00 0. -1.
       -3    1    3    3    0  502  0.30116873093E+03 -0.47941724488E+02  0.10919834581E+04  0.11337675672E+04  0.10100000352E+00 0.  1.
</event>
<event>
 5   0  0.7947250E-03  0.7066109E+03  0.7818609E-02  0.9705993E-01
       -3   -1    0    0    0  501  0.00000000000E+00  0.00000000000E+00  0.47539625719E+03  0.47539626792E+03  0.10100000352E+00 0. -1.
        3   -1    0    0  501    0  0.00000000000E+00  0.00000000000E+00 -0.26256984629E+03  0.26256986572E+03  0.10100000352E+00 0.  1.
    10030    2    1    2    0    0  0.00000000000E+00  0.00000000000E+00  0.21282641090E+03  0.73796613364E+03  0.70661087822E+03 0.  0.
        5    1    3    3  502    0  0.20306676214E+03  0.16115761891E+03  0.35705158928E+03  0.44126615033E+03  0.46999998093E+01 0. -1.
       -5    1    3    3    0  502 -0.20306676214E+03 -0.16115761891E+03 -0.14422517839E+03  0.29669998331E+03  0.46999998093E+01 0.  1.
</event>
<event>
 5   0  0.7947250E-03  0.6970991E+03  0.7818609E-02  0.9722206E-01
       -3   -1    0    0    0  501  0.00000000000E+00  0.00000000000E+00  0.36419081670E+03  0.36419083070E+03  0.10100000352E+00 0.  1.
        3   -1    0    0  501    0  0.00000000000E+00  0.00000000000E+00 -0.33357996901E+03  0.33357998430E+03  0.10100000352E+00 0. -1.
    10030    2    1    2    0    0  0.00000000000E+00  0.00000000000E+00  0.30610847691E+02  0.69777081500E+03  0.69709905054E+03 0.  0.
        4    1    3    3  502    0  0.94641002374E+02 -0.20787470100E+03 -0.24822826807E+03  0.33732431963E+03  0.12699999809E+01 0. -1.
       -4    1    3    3    0  502 -0.94641002374E+02  0.20787470100E+03  0.27883911576E+03  0.36044649537E+03  0.12699999809E+01 0.  1.
</event>
<event>
 5   0  0.1237686E-02  0.6599644E+03  0.7818609E-02  0.9788259E-01
       -1   -1    0    0    0  501  0.00000000000E+00  0.00000000000E+00  0.13364663615E+03  0.13364663624E+03  0.50400001928E-02 0.  1.
        1   -1    0    0  501    0  0.00000000000E+00  0.00000000000E+00 -0.81474739486E+03  0.81474739488E+03  0.50400001928E-02 0. -1.
    10030    2    1    2    0    0  0.00000000000E+00  0.00000000000E+00 -0.68110075871E+03  0.94839403112E+03  0.65996438899E+03 0.  0.
        5    1    3    3  502    0  0.25351075126E+03  0.15397814971E+03 -0.13285392639E+03  0.32503727071E+03  0.46999998093E+01 0. -1.
       -5    1    3    3    0  502 -0.25351075126E+03 -0.15397814971E+03 -0.54824683233E+03  0.62335676041E+03  0.46999998093E+01 0.  1.
</event>
<event>
 5   0  0.1226303E-02  0.6979920E+03  0.7818609E-02  0.9720672E-01
       -1   -1    0    0    0  501  0.00000000000E+00  0.00000000000E+00  0.49052675704E+03  0.49052675706E+03  0.50400001928E-02 0. -1.
        1   -1    0    0  501    0  0.00000000000E+00  0.00000000000E+00 -0.24830085992E+03  0.24830085997E+03  0.50400001928E-02 0.  1.
    10030    2    1    2    0    0  0.00000000000E+00  0.00000000000E+00  0.24222589712E+03  0.73882761703E+03  0.69799202177E+03 0.  0.
        4    1    3    3  502    0  0.14003117573E+02 -0.25904036303E+03  0.36822012488E+03  0.45042831865E+03  0.12699999809E+01 0. -1.
       -4    1    3    3    0  502 -0.14003117573E+02  0.25904036303E+03 -0.12599422776E+03  0.28839929838E+03  0.12699999809E+01 0.  1.
</event>
<event>
 5   0  0.7947250E-03  0.6886469E+03  0.7818609E-02  0.9736847E-01
       -3   -1    0    0    0  501  0.00000000000E+00  0.00000000000E+00  0.26431958046E+03  0.26431959975E+03  0.10100000352E+00 0. -1.
        3   -1    0    0  501    0  0.00000000000E+00  0.00000000000E+00 -0.44854279727E+03  0.44854280864E+03  0.10100000352E+00 0.  1.
    10030    2    1    2    0    0  0.00000000000E+00  0.00000000000E+00 -0.18422321682E+03  0.71286240839E+03  0.68864694851E+03 0.  0.
        2    1    3    3  502    0  0.25350408166E+03 -0.21526961845E+03  0.20577828062E+00  0.33257385705E+03  0.25500000920E-02 0. -1.
       -2    1    3    3    0  502 -0.25350408166E+03  0.21526961845E+03 -0.18442899510E+03  0.38028855134E+03  0.25500000920E-02 0.  1.
</event>
<event>
 5   0  0.1909053E-02  0.6962438E+03  0.7818609E-02  0.9723677E-01
        2   -1    0    0  501    0  0.00000000000E+00  0.00000000000E+00  0.13325561650E+04  0.13325561650E+04  0.25500000920E-02 0. -1.
       -2   -1    0    0    0  501  0.00000000000E+00  0.00000000000E+00 -0.90944651533E+02  0.90944651568E+02  0.25500000920E-02 0.  1.
    10030    2    1    2    0    0  0.00000000000E+00  0.00000000000E+00  0.12416115135E+04  0.14235008166E+04  0.69624379667E+03 0.  0.
        1    1    3    3  502    0 -0.76590289273E+02  0.27613765622E+03  0.21667452535E+03  0.35925746694E+03  0.50400001928E-02 0.  1.
       -1    1    3    3    0  502  0.76590289273E+02 -0.27613765622E+03  0.10249369881E+04  0.10642433496E+04  0.50400001928E-02 0. -1.
</event>
<event>
 5   0  0.1257442E-02  0.6870964E+03  0.7818609E-02  0.9739557E-01
        1   -1    0    0  501    0  0.00000000000E+00  0.00000000000E+00  0.81376974547E+03  0.81376974548E+03  0.50400001928E-02 0. -1.
       -1   -1    0    0    0  501  0.00000000000E+00  0.00000000000E+00 -0.14503532292E+03  0.14503532300E+03  0.50400001928E-02 0.  1.
    10030    2    1    2    0    0  0.00000000000E+00  0.00000000000E+00  0.66873442255E+03  0.95880506849E+03  0.68709637712E+03 0.  0.
        1    1    3    3  502    0 -0.30861779302E+03 -0.14348661786E+03  0.26903406879E+03  0.43383485552E+03  0.50400001928E-02 0.  1.
       -1    1    3    3    0  502  0.30861779302E+03  0.14348661786E+03  0.39970035376E+03  0.52497021296E+03  0.50400001928E-02 0. -1.
</event>
<event>
 5   0  0.2006362E-02  0.7516331E+03  0.7818609E-02  0.9632792E-01
       -2   -1    0    0    0  501  0.00000000000E+00  0.00000000000E+00  0.10385328178E+03  0.10385328181E+03  0.25500000920E-02 0.  1.
        2   -1    0    0  501    0  0.00000000000E+00  0.00000000000E+00 -0.13599770529E+04  0.13599770529E+04  0.25500000920E-02 0. -1.
    10030    2    1    2    0    0  0.00000000000E+00  0.00000000000E+00 -0.12561237712E+04  0.14638303348E+04  0.75163310229E+03 0.  0.
        4    1    3    3  502    0 -0.17279432822E+03  0.74479032122E+02 -0.12616284361E+04  0.12755833684E+04  0.12699999809E+01 0. -1.
       -4    1    3    3    0  502  0.17279432822E+03 -0.74479032122E+02  0.55046649637E+01  0.18824696632E+03  0.12699999809E+01 0.  1.
</event>
<event>
 5   0  0.1973067E-02  0.7034564E+03  0.7818609E-02  0.9711340E-01
       -2   -1    0    0    0  501  0.00000000000E+00  0.00000000000E+00  0.19370097440E+03  0.19370097442E+03  0.25500000920E-02 0. -1.
        2   -1    0    0  501    0  0.00000000000E+00  0.00000000000E+00 -0.63867888409E+03  0.63867888410E+03  0.25500000920E-02 0.  1.
    10030    2    1    2    0    0  0.00000000000E+00  0.00000000000E+00 -0.44497790969E+03  0.83237985852E+03  0.70345638725E+03 0.  0.
        5    1    3    3  502    0 -0.32953969044E+02  0.27223315016E+03 -0.48306074990E+03  0.55548774083E+03  0.46999998093E+01 0.  1.
       -5    1    3    3    0  502  0.32953969044E+02 -0.27223315016E+03  0.38082840209E+02  0.27689211769E+03  0.46999998093E+01 0. -1.
</event>
<event>
 5   0  0.7947250E-03  0.7047383E+03  0.7818609E-02  0.9709163E-01
        4   -1    0    0  501    0  0.00000000000E+00  0.00000000000E+00  0.36915894764E+03  0.36916113219E+03  0.12699999809E+01 0.  1.
       -4   -1    0    0    0  501  0.00000000000E+00  0.00000000000E+00 -0.33633858253E+03  0.33634098026E+03  0.12699999809E+01 0. -1.
    10030    2    1    2    0    0  0.00000000000E+00  0.00000000000E+00  0.32820365103E+02  0.70550211245E+03  0.70473828781E+03 0.  0.
        1    1    3    3  502    0 -0.69257545177E+02 -0.11302147359E+00  0.36228051102E+03  0.36884114335E+03  0.50400001928E-02 0.  1.
       -1    1    3    3    0  502  0.69257545177E+02  0.11302147359E+00 -0.32946014592E+03  0.33666096909E+03  0.50400001928E-02 0. -1.
</event>
<event>
 5   0  0.1257442E-02  0.6935919E+03  0.7818609E-02  0.9728254E-01
        1   -1    0    0  501    0  0.00000000000E+00  0.00000000000E+00  0.60506069115E+03  0.60506069117E+03  0.50400001928E-02 0.  1.
       -1   -1    0    0    0  501  0.00000000000E+00  0.00000000000E+00 -0.19876921165E+03  0.19876921171E+03  0.50400001928E-02 0. -1.
    10030    2    1    2    0    0  0.00000000000E+00  0.00000000000E+00  0.40629147950E+03  0.80382990288E+03  0.69359191637E+03 0.  0.
        1    1    3    3  502    0 -0.13099252752E+03  0.74658843013E+02 -0.15879640719E+03  0.21897324966E+03  0.50400001928E-02 0. -1.
       -1    1    3    3    0  502  0.13099252752E+03 -0.74658843013E+02  0.56508788669E+03  0.58485665322E+03  0.50400001928E-02 0.  1.
</event>
<event>
 5   0  0.2026361E-02  0.7015814E+03  0.7818609E-02  0.9714532E-01
        2   -1    0    0  501    0  0.00000000000E+00  0.00000000000E+00  0.11707952013E+04  0.11707952013E+04  0.25500000920E-02 0. -1.
       -2   -1    0    0    0  501  0.00000000000E+00  0.00000000000E+00 -0.10510303738E+03  0.10510303741E+03  0.25500000920E-02 0.  1.
    10030    2    1    2    0    0  0.00000000000E+00  0.00000000000E+00  0.10656921640E+04  0.12758982388E+04  0.70158144739E+03 0.  0.
        2    1    3    3  502    0 -0.24330234793E+03 -0.22624718682E+03  0.73755254684E+03  0.80892989895E+03  0.25500000920E-02 0. -1.
       -2    1    3    3    0  502  0.24330234793E+03  0.22624718682E+03  0.32813961711E+03  0.46696833980E+03  0.25500000920E-02 0.  1.
</event>
<event>
 5   0  0.1197259E-02  0.6992572E+03  0.7818609E-02  0.9718503E-01
        1   -1    0    0  501    0  0.00000000000E+00  0.00000000000E+00  0.52831399618E+03  0.52831399620E+03  0.50400001928E-02 0. -1.
       -1   -1    0    0    0  501  0.00000000000E+00  0.00000000000E+00 -0.23137786848E+03  0.23137786853E+03  0.50400001928E-02 0.  1.
    10030    2    1    2    0    0  0.00000000000E+00  0.00000000000E+00  0.29693612770E+03  0.75969186474E+03  0.69925722407E+03 0.  0.
        3    1    3    3  502    0 -0.33586505199E+03 -0.36547802793E+02  0.50695188307E+02  0.34163004458E+03  0.10100000352E+00 0.  1.
       -3    1    3    3    0  502  0.33586505199E+03  0.36547802793E+02  0.24624093939E+03  0.41806182016E+03  0.10100000352E+00 0. -1.
</event>
<event>
 5   0  0.1197259E-02  0.6951536E+03  0.7818609E-02  0.9725556E-01
       -1   -1    0    0    0  501  0.00000000000E+00  0.00000000000E+00  0.12162127754E+03  0.12162127764E+03  0.50400001928E-02 0. -1.
        1   -1    0    0  501    0  0.00000000000E+00  0.00000000000E+00 -0.99332645478E+03  0.99332645479E+03  0.50400001928E-02 0.  1.
    10030    2    1    2    0    0  0.00000000000E+00  0.00000000000E+00 -0.87170517724E+03  0.11149477324E+04  0.69515360176E+03 0.  0.
        3    1    3    3  502    0  0.85568897645E+02  0.36491452622E+02  0.10128421413E+03  0.13752150592E+03  0.10100000352E+00 0. -1.
       -3    1    3    3    0  502 -0.85568897645E+02 -0.36491452622E+02 -0.97298939136E+03  0.97742622651E+03  0.10100000352E+00 0.  1.
</event>
<event>
 5   0  0.2026361E-02  0.6955569E+03  0.7818609E-02  0.9724861E-01
        2   -1    0    0  501    0  0.00000000000E+00  0.00000000000E+00  0.67379177432E+03  0.67379177432E+03  0.25500000920E-02 0. -1.
       -2   -1    0    0    0  501  0.00000000000E+00  0.00000000000E+00 -0.17950627766E+03  0.17950627768E+03  0.25500000920E-02 0.  1.
    10030    2    1    2    0    0  0.00000000000E+00  0.00000000000E+00  0.49428549666E+03  0.85329805200E+03  0.69555690878E+03 0.  0.
        2    1    3    3  502    0  0.33855813497E+03  0.73469221890E+02  0.20972048838E+03  0.40497162934E+03  0.25500000920E-02 0. -1.
       -2    1    3    3    0  502 -0.33855813497E+03 -0.73469221890E+02  0.28456500828E+03  0.44832642266E+03  0.25500000920E-02 0.  1.
</event>
<event>
 5   0  0.1197259E-02  0.7040437E+03  0.7818609E-02  0.9710342E-01
       -1   -1    0    0    0  501  0.00000000000E+00  0.00000000000E+00  0.61527457010E+03  0.61527457012E+03  0.50400001928E-02 0. -1.
        1   -1    0    0  501    0  0.00000000000E+00  0.00000000000E+00 -0.20140502715E+03  0.20140502721E+03  0.50400001928E-02 0.  1.
    10030    2    1    2    0    0  0.00000000000E+00  0.00000000000E+00  0.41386954295E+03  0.81667959733E+03  0.70404372458E+03 0.  0.
        3    1    3    3  502    0 -0.31445944689E+03 -0.30136434385E+02  0.38711147309E+03  0.49964812741E+03  0.10100000352E+00 0. -1.
       -3    1    3    3    0  502  0.31445944689E+03  0.30136434385E+02  0.26758069853E+02  0.31703146992E+03  0.10100000352E+00 0.  1.
</event>
<event>
 5   0  0.1948138E-02  0.6977365E+03  0.7818609E-02  0.9721111E-01
        2   -1    0    0  501    0  0.00000000000E+00  0.00000000000E+00  0.17697122110E+04  0.17697122110E+04  0.25500000920E-02 0. -1.
       -2   -1    0    0    0  501  0.00000000000E+00  0.00000000000E+00 -0.68773351845E+02  0.68773351892E+02  0.25500000920E-02 0.  1.
    10030    2    1    2    0    0  0.00000000000E+00  0.00000000000E+00  0.17009388591E+04  0.18384855628E+04  0.69773645624E+03 0.  0.
        3    1    3    3  502    0  0.20898275581E+03 -0.27330788012E+03  0.10027044714E+04  0.10600883250E+04  0.10100000352E+00 0. -1.
       -3    1    3    3    0  502 -0.20898275581E+03  0.27330788012E+03  0.69823438771E+03  0.77839723789E+03  0.10100000352E+00 0.  1.
</event>
<event>
 5   0  0.1948138E-02  0.7026220E+03  0.7818609E-02  0.9712759E-01
       -2   -1    0    0    0  501  0.00000000000E+00  0.00000000000E+00  0.23171297173E+03  0.23171297174E+03  0.25500000920E-02 0. -1.
        2   -1    0    0  501    0  0.00000000000E+00  0.00000000000E+00 -0.53263919302E+03  0.53263919302E+03  0.25500000920E-02 0.  1.
    10030    2    1    2    0    0  0.00000000000E+00  0.00000000000E+00 -0.30092622129E+03  0.76435216476E+03  0.70262197597E+03 0.  0.
        3    1    3    3  502    0 -0.22528897409E+03  0.23172994765E+03 -0.64854860399E+00  0.32319393760E+03  0.10100000352E+00 0. -1.
       -3    1    3    3    0  502  0.22528897409E+03 -0.23172994765E+03 -0.30027767268E+03  0.44115822717E+03  0.10100000352E+00 0.  1.
</event>
<event>
 5   0  0.2026361E-02  0.7055309E+03  0.7818609E-02  0.9707820E-01
        2   -1    0    0  501    0  0.00000000000E+00  0.00000000000E+00  0.35061126521E+03  0.35061126522E+03  0.25500000920E-02 0. -1.
       -2   -1    0    0    0  501  0.00000000000E+00  0.00000000000E+00 -0.35493286237E+03  0.35493286238E+03  0.25500000920E-02 0.  1.
    10030    2    1    2    0    0  0.00000000000E+00  0.00000000000E+00 -0.43215971544E+01  0.70554412760E+03  0.70553089216E+03 0.  0.
        2    1    3    3  502    0  0.21616418022E+03 -0.18821250654E+03  0.20349460812E+03  0.35151238381E+03  0.25500000920E-02 0. -1.
       -2    1    3    3    0  502 -0.21616418022E+03  0.18821250654E+03 -0.20781620528E+03  0.35403174379E+03  0.25500000920E-02 0.  1.
</event>
<event>
 5   0  0.1226303E-02  0.7011800E+03  0.7818609E-02  0.9715216E-01
        1   -1    0    0  501    0  0.00000000000E+00  0.00000000000E+00  0.57315363468E+03  0.57315363470E+03  0.50400001928E-02 0.  1.
       -1   -1    0    0    0  501  0.00000000000E+00  0.00000000000E+00 -0.21445096154E+03  0.21445096159E+03  0.50400001928E-02 0. -1.
    10030    2    1    2    0    0  0.00000000000E+00  0.00000000000E+00  0.35870267314E+03  0.78760459630E+03  0.70117999999E+03 0.  0.
        4    1    3    3  502    0 -0.51598995155E+02  0.21228398931E+03  0.48734636627E+03  0.53407400426E+03  0.12699999809E+01 0.  1.
       -4    1    3    3    0  502  0.51598995155E+02 -0.21228398931E+03 -0.12864369312E+03  0.25353059203E+03  0.12699999809E+01 0. -1.
</event>
<event>
 5   0  0.1909053E-02  0.6936773E+03  0.7818609E-02  0.9728106E-01
       -2   -1    0    0    0  501  0.00000000000E+00  0.00000000000E+00  0.21322569503E+03  0.21322569504E+03  0.25500000920E-02 0.  1.
        2   -1    0    0  501    0  0.00000000000E+00  0.00000000000E+00 -0.56417704578E+03  0.56417704579E+03  0.25500000920E-02 0. -1.
    10030    2    1    2    0    0  0.00000000000E+00  0.00000000000E+00 -0.35095135076E+03  0.77740274083E+03  0.69367728149E+03 0.  0.
        1    1    3    3  502    0  0.19435215840E+03  0.22349777407E+03 -0.37773923706E+03  0.48001140375E+03  0.50400001928E-02 0. -1.
       -1    1    3    3    0  502 -0.19435215840E+03 -0.22349777407E+03  0.26787886302E+02  0.29739133708E+03  0.50400001928E-02 0.  1.
</event>
<event>
 5   0  0.2026361E-02  0.7587113E+03  0.7818609E-02  0.9621782E-01
       -2   -1    0    0    0  501  0.00000000000E+00  0.00000000000E+00  0.15806440374E+03  0.15806440376E+03  0.25500000920E-02 0. -1.
        2   -1    0    0  501    0  0.00000000000E+00  0.00000000000E+00 -0.91045609021E+03  0.91045609021E+03  0.25500000920E-02 0.  1.
    10030    2    1    2    0    0  0.00000000000E+00  0.00000000000E+00 -0.75239168647E+03  0.10685204940E+04  0.75871127326E+03 0.  0.
        2    1    3    3  502    0  0.34813811338E+03 -0.85513366645E+01 -0.58809042766E+03  0.68346442663E+03  0.25500000920E-02 0.  1.
       -2    1    3    3    0  502 -0.34813811338E+03  0.85513366645E+01 -0.16430125881E+03  0.38505606735E+03  0.25500000920E-02 0. -1.
</event>
<event>
 5   0  0.1909053E-02  0.7000385E+03  0.7818609E-02  0.9717166E-01
       -2   -1    0    0    0  501  0.00000000000E+00  0.00000000000E+00  0.11405469117E+03  0.11405469120E+03  0.25500000920E-02 0. -1.
        2   -1    0    0  501    0  0.00000000000E+00  0.00000000000E+00 -0.10741642064E+04  0.10741642064E+04  0.25500000920E-02 0.  1.
    10030    2    1    2    0    0  0.00000000000E+00  0.00000000000E+00 -0.96010951522E+03  0.11882188976E+04  0.70003847564E+03 0.  0.
        1    1    3    3  502    0  0.57089947533E+02 -0.25669849547E+03 -0.87214208864E+03  0.91092546484E+03  0.50400001928E-02 0.  1.
       -1    1    3    3    0  502 -0.57089947533E+02  0.25669849547E+03 -0.87967426577E+02  0.27729343275E+03  0.50400001928E-02 0. -1.
</event>
<event>
 5   0  0.1948138E-02  0.6966965E+03  0.7818609E-02  0.9722898E-01
        2   -1    0    0  501    0  0.00000000000E+00  0.00000000000E+00  0.57188630973E+03  0.57188630973E+03  0.25500000920E-02 0.  1.
       -2   -1    0    0    0  501  0.00000000000E+00  0.00000000000E+00 -0.21218638530E+03  0.21218638532E+03  0.25500000920E-02 0. -1.
    10030    2    1    2    0    0  0.00000000000E+00  0.00000000000E+00  0.35969992443E+03  0.78407269505E+03  0.69669645865E+03 0.  0.
        3    1    3    3  502    0 -0.10526525657E+03  0.65671599327E+02 -0.18647730343E+03  0.22398064223E+03  0.10100000352E+00 0. -1.
       -3    1    3    3    0  502  0.10526525657E+03 -0.65671599327E+02  0.54617722786E+03  0.56009205282E+03  0.10100000352E+00 0.  1.
</event>
<event>
 5   0  0.7947250E-03  0.7002630E+03  0.7818609E-02  0.9716783E-01
       -4   -1    0    0    0  501  0.00000000000E+00  0.00000000000E+00  0.24838640553E+03  0.24838965226E+03  0.12699999809E+01 0.  1.
        4   -1    0    0  501    0  0.00000000000E+00  0.00000000000E+00 -0.49354655179E+03  0.49354818577E+03  0.12699999809E+01 0. -1.
    10030    2    1    2    0    0  0.00000000000E+00  0.00000000000E+00 -0.24516014625E+03  0.74193783804E+03  0.70026299217E+03 0.  0.
        1    1    3    3  502    0 -0.25521312822E+03 -0.23700408603E+03 -0.16059558911E+03  0.38353046930E+03  0.50400001928E-02 0. -1.
       -1    1    3    3    0  502  0.25521312822E+03  0.23700408603E+03 -0.84564557147E+02  0.35840736874E+03  0.50400001928E-02 0.  1.
</event>
<event>
 5   0  0.1909053E-02  0.6947843E+03  0.7818609E-02  0.9726194E-01
        2   -1    0    0  501    0  0.00000000000E+00  0.00000000000E+00  0.17474319774E+04  0.17474319774E+04  0.25500000920E-02 0.  1.
       -2   -1    0    0    0  501  0.00000000000E+00  0.00000000000E+00 -0.69062093201E+02  0.69062093248E+02  0.25500000920E-02 0. -1.
    10030    2    1    2    0    0  0.00000000000E+00  0.00000000000E+00  0.16783698842E+04  0.18164940707E+04  0.69478431224E+03 0.  0.
        1    1    3    3  502    0 -0.21658364052E+03 -0.43310656109E+02  0.15402195163E+04  0.15559757212E+04  0.50400001928E-02 0.  1.
       -1    1    3    3    0  502  0.21658364052E+03  0.43310656109E+02  0.13815036790E+03  0.26051834954E+03  0.50400001928E-02 0. -1.
</event>
<event>
 5   0  0.2006362E-02  0.6988593E+03  0.7818609E-02  0.9719185E-01
       -2   -1    0    0    0  501  0.00000000000E+00  0.00000000000E+00  0.24579465373E+03  0.24579465374E+03  0.25500000920E-02 0.  1.
        2   -1    0    0  501    0  0.00000000000E+00  0.00000000000E+00 -0.49676045073E+03  0.49676045074E+03  0.25500000920E-02 0. -1.
    10030    2    1    2    0    0  0.00000000000E+00  0.00000000000E+00 -0.25096579700E+03  0.74255510448E+03  0.69885925044E+03 0.  0.
        4    1    3    3  502    0  0.32889200759E+03 -0.81904305501E+02 -0.35192177656E+02  0.34076145642E+03  0.12699999809E+01 0. -1.
       -4    1    3    3    0  502 -0.32889200759E+03  0.81904305501E+02 -0.21577361935E+03  0.40179364806E+03  0.12699999809E+01 0.  1.
</event>
<event>
 5   0  0.1257442E-02  0.6985319E+03  0.7818609E-02  0.9719746E-01
        1   -1    0    0  501    0  0.00000000000E+00  0.00000000000E+00  0.13808550551E+04  0.13808550551E+04  0.50400001928E-02 0.  1.
       -1   -1    0    0    0  501  0.00000000000E+00  0.00000000000E+00 -0.88341422793E+02  0.88341422937E+02  0.50400001928E-02 0. -1.
    10030    2    1    2    0    0  0.00000000000E+00  0.00000000000E+00  0.12925136323E+04  0.14691964780E+04  0.69853189003E+03 0.  0.
        1    1    3    3  502    0 -0.27821591270E+03 -0.10587032104E+03  0.10304930360E+04  0.10726269231E+04  0.50400001928E-02 0.  1.
       -1    1    3    3    0  502  0.27821591270E+03  0.10587032104E+03  0.26202059626E+03  0.39656955487E+03  0.50400001928E-02 0. -1.
</event>
<event>
 5   0  0.1223742E-02  0.6611551E+03  0.7818609E-02  0.9786070E-01
       -1   -1    0    0    0  501  0.00000000000E+00  0.00000000000E+00  0.23776884984E+03  0.23776884989E+03  0.50400001928E-02 0.  1.
        1   -1    0    0  501    0  0.00000000000E+00  0.00000000000E+00 -0.45961248598E+03  0.45961248601E+03  0.50400001928E-02 0. -1.
    10030    2    1    2    0    0  0.00000000000E+00  0.00000000000E+00 -0.22184363615E+03  0.69738133590E+03  0.66115514727E+03 0.  0.
        2    1    3    3  502    0 -0.29841100263E+03 -0.11563719666E+03 -0.19828794084E+03  0.37648266259E+03  0.25500000920E-02 0. -1.
       -2    1    3    3    0  502  0.29841100263E+03  0.11563719666E+03 -0.23555695307E+02  0.32089867331E+03  0.25500000920E-02 0.  1.
</event>
<event>
 5   0  0.1237686E-02  0.6974823E+03  0.7818609E-02  0.9721548E-01
       -1   -1    0    0    0  501  0.00000000000E+00  0.00000000000E+00  0.53452909892E+03  0.53452909894E+03  0.50400001928E-02 0. -1.
        1   -1    0    0  501    0  0.00000000000E+00  0.00000000000E+00 -0.22752808183E+03  0.22752808189E+03  0.50400001928E-02 0.  1.
    10030    2    1    2    0    0  0.00000000000E+00  0.00000000000E+00  0.30700101709E+03  0.76205718083E+03  0.69748227387E+03 0.  0.
        5    1    3    3  502    0 -0.34595825037E+03 -0.33766896152E+02  0.12316334987E+03  0.36880701597E+03  0.46999998093E+01 0. -1.
       -5    1    3    3    0  502  0.34595825037E+03  0.33766896152E+02  0.18383766722E+03  0.39325016486E+03  0.46999998093E+01 0.  1.
</event>
<event>
 5   0  0.1237686E-02  0.6975121E+03  0.7818609E-02  0.9721496E-01
        1   -1    0    0  501    0  0.00000000000E+00  0.00000000000E+00  0.12284116953E+04  0.12284116953E+04  0.50400001928E-02 0. -1.
       -1   -1    0    0    0  501  0.00000000000E+00  0.00000000000E+00 -0.99014658979E+02  0.99014659108E+02  0.50400001928E-02 0.  1.
    10030    2    1    2    0    0  0.00000000000E+00  0.00000000000E+00  0.11293970363E+04  0.13274263544E+04  0.69751205061E+03 0.  0.
        5    1    3    3  502    0 -0.13729532417E+03  0.31366207647E+03  0.69057261846E+03  0.77080901371E+03  0.46999998093E+01 0.  1.
       -5    1    3    3    0  502  0.13729532417E+03 -0.31366207647E+03  0.43882441783E+03  0.55661734067E+03  0.46999998093E+01 0. -1.
</event>
<event>
 5   0  0.1257442E-02  0.6987387E+03  0.7818609E-02  0.9719392E-01
        1   -1    0    0  501    0  0.00000000000E+00  0.00000000000E+00  0.14483460224E+04  0.14483460224E+04  0.50400001928E-02 0.  1.
       -1   -1    0    0    0  501  0.00000000000E+00  0.00000000000E+00 -0.84274713219E+02  0.84274713370E+02  0.50400001928E-02 0. -1.
    10030    2    1    2    0    0  0.00000000000E+00  0.00000000000E+00  0.13640713092E+04  0.15326207358E+04  0.69873870883E+03 0.  0.
        1    1    3    3  502    0  0.14896135564E+03 -0.15233459701E+03  0.74719846007E+02  0.22578390184E+03  0.50400001928E-02 0. -1.
       -1    1    3    3    0  502 -0.14896135564E+03  0.15233459701E+03  0.12893514632E+04  0.13068368340E+04  0.50400001928E-02 0.  1.
</event>
<event>
 5   0  0.2006362E-02  0.6988906E+03  0.7818609E-02  0.9719131E-01
        2   -1    0    0  501    0  0.00000000000E+00  0.00000000000E+00  0.42893810748E+03  0.42893810749E+03  0.25500000920E-02 0.  1.
       -2   -1    0    0    0  501  0.00000000000E+00  0.00000000000E+00 -0.28468446484E+03  0.28468446485E+03  0.25500000920E-02 0. -1.
    10030    2    1    2    0    0  0.00000000000E+00  0.00000000000E+00  0.14425364264E+03  0.71362257234E+03  0.69889059397E+03 0.  0.
        4    1    3    3  502    0  0.16732038795E+03 -0.29389447996E+03  0.16196045861E+03  0.37497050634E+03  0.12699999809E+01 0.  1.
       -4    1    3    3    0  502 -0.16732038795E+03  0.29389447996E+03 -0.17706815965E+02  0.33865206600E+03  0.12699999809E+01 0. -1.
</event>
<event>
 5   0  0.1257442E-02  0.7055249E+03  0.7818609E-02  0.9707830E-01
       -1   -1    0    0    0  501  0.00000000000E+00  0.00000000000E+00  0.24332032433E+03  0.24332032438E+03  0.50400001928E-02 0.  1.
        1   -1    0    0  501    0  0.00000000000E+00  0.00000000000E+00 -0.51143012916E+03  0.51143012918E+03  0.50400001928E-02 0. -1.
    10030    2    1    2    0    0  0.00000000000E+00  0.00000000000E+00 -0.26810980483E+03  0.75475045356E+03  0.70552489658E+03 0.  0.
        1    1    3    3  502    0  0.32198686733E+03  0.11316129840E+03 -0.38609200522E+02  0.34347007523E+03  0.50400001928E-02 0. -1.
       -1    1    3    3    0  502 -0.32198686733E+03 -0.11316129840E+03 -0.22950060431E+03  0.41128037832E+03  0.50400001928E-02 0.  1.
</event>
<event>
 5   0  0.1973067E-02  0.7230683E+03  0.7818609E-02  0.9678576E-01
        2   -1    0    0  501    0  0.00000000000E+00  0.00000000000E+00  0.10662812544E+04  0.10662812544E+04  0.25500000920E-02 0.  1.
       -2   -1    0    0    0  501  0.00000000000E+00  0.00000000000E+00 -0.12258203490E+03  0.12258203492E+03  0.25500000920E-02 0. -1.
    10030    2    1    2    0    0  0.00000000000E+00  0.00000000000E+00  0.94369921951E+03  0.11888632893E+04  0.72306825668E+03 0.  0.
        5    1    3    3  502    0 -0.17325258293E+03 -0.23768561073E+03  0.81741929283E+03  0.86873891206E+03  0.46999998093E+01 0.  1.
       -5    1    3    3    0  502  0.17325258293E+03  0.23768561073E+03  0.12627992668E+03  0.32012437727E+03  0.46999998093E+01 0. -1.
</event>
<event>
 5   0  0.1973067E-02  0.7017424E+03  0.7818609E-02  0.9714257E-01
        2   -1    0    0  501    0  0.00000000000E+00  0.00000000000E+00  0.79554714708E+03  0.79554714708E+03  0.25500000920E-02 0.  1.
       -2   -1    0    0    0  501  0.00000000000E+00  0.00000000000E+00 -0.15474958018E+03  0.15474958021E+03  0.25500000920E-02 0. -1.
    10030    2    1    2    0    0  0.00000000000E+00  0.00000000000E+00  0.64079756689E+03  0.95029672729E+03  0.70174236594E+03 0.  0.
        5    1    3    3  502    0 -0.19065081600E+03  0.40354092508E+02 -0.74674559536E+02  0.20874521854E+03  0.46999998093E+01 0. -1.
       -5    1    3    3    0  502  0.19065081600E+03 -0.40354092508E+02  0.71547212643E+03  0.74155150874E+03  0.46999998093E+01 0.  1.
</event>
<event>
 5   0  0.1973067E-02  0.7083393E+03  0.7818609E-02  0.9703076E-01
        2   -1    0    0  501    0  0.00000000000E+00  0.00000000000E+00  0.87934066490E+03  0.87934066491E+03  0.25500000920E-02 0.  1.
       -2   -1    0    0    0  501  0.00000000000E+00  0.00000000000E+00 -0.14264795359E+03  0.14264795362E+03  0.25500000920E-02 0. -1.
    10030    2    1    2    0    0  0.00000000000E+00  0.00000000000E+00  0.73669271131E+03  0.10219886185E+04  0.70833931522E+03 0.  0.
        5    1    3    3  502    0 -0.18261817167E+03 -0.26946622200E+03  0.56957680974E+03  0.65604974934E+03  0.46999998093E+01 0. -1.
       -5    1    3    3    0  502  0.18261817167E+03  0.26946622200E+03  0.16711590157E+03  0.36593886918E+03  0.46999998093E+01 0.  1.
</event>
<event>
 5   0  0.2026361E-02  0.7073055E+03  0.7818609E-02  0.9704820E-01
       -2   -1    0    0    0  501  0.00000000000E+00  0.00000000000E+00  0.83346878328E+02  0.83346878367E+02  0.25500000920E-02 0. -1.
        2   -1    0    0  501    0  0.00000000000E+00  0.00000000000E+00 -0.15005993978E+04  0.15005993978E+04  0.25500000920E-02 0.  1.
    10030    2    1    2    0    0  0.00000000000E+00  0.00000000000E+00 -0.14172525195E+04  0.15839462762E+04  0.70730552228E+03 0.  0.
        2    1    3    3  502    0 -0.21429017847E+02  0.13669696593E+03 -0.14374670320E+04  0.14441110523E+04  0.25500000920E-02 0.  1.
       -2    1    3    3    0  502  0.21429017847E+02 -0.13669696593E+03  0.20214512556E+02  0.13983522384E+03  0.25500000920E-02 0. -1.
</event>
<event>
 5   0  0.1226303E-02  0.6975175E+03  0.7818609E-02  0.9721487E-01
        1   -1    0    0  501    0  0.00000000000E+00  0.00000000000E+00  0.23505034418E+03  0.23505034423E+03  0.50400001928E-02 0.  1.
       -1   -1    0    0    0  501  0.00000000000E+00  0.00000000000E+00 -0.51747494460E+03  0.51747494462E+03  0.50400001928E-02 0. -1.
    10030    2    1    2    0    0  0.00000000000E+00  0.00000000000E+00 -0.28242460042E+03  0.75252528886E+03  0.69751749472E+03 0.  0.
        4    1    3    3  502    0 -0.70559228659E+01 -0.22857257237E+03 -0.42529507269E+03  0.48287961092E+03  0.12699999809E+01 0. -1.
       -4    1    3    3    0  502  0.70559228659E+01  0.22857257237E+03  0.14287047227E+03  0.26964567794E+03  0.12699999809E+01 0.  1.
</event>
<event>
 5   0  0.1909053E-02  0.6721496E+03  0.7818609E-02  0.9766082E-01
        2   -1    0    0  501    0  0.00000000000E+00  0.00000000000E+00  0.37587225764E+03  0.37587225764E+03  0.25500000920E-02 0. -1.
       -2   -1    0    0    0  501  0.00000000000E+00  0.00000000000E+00 -0.30049107525E+03  0.30049107526E+03  0.25500000920E-02 0.  1.
    10030    2    1    2    0    0  0.00000000000E+00  0.00000000000E+00  0.75381182388E+02  0.67636333290E+03  0.67214956329E+03 0.  0.
        1    1    3    3  502    0 -0.15467523596E+03  0.23358880786E+02 -0.26162362749E+03  0.30482288041E+03  0.50400001928E-02 0.  1.
       -1    1    3    3    0  502  0.15467523596E+03 -0.23358880786E+02  0.33700480988E+03  0.37154045249E+03  0.50400001928E-02 0. -1.
</event>
<event>
 5   0  0.1973067E-02  0.7035776E+03  0.7818609E-02  0.9711133E-01
       -2   -1    0    0    0  501  0.00000000000E+00  0.00000000000E+00  0.30331136087E+03  0.30331136088E+03  0.25500000920E-02 0.  1.
        2   -1    0    0  501    0  0.00000000000E+00  0.00000000000E+00 -0.40801430508E+03  0.40801430509E+03  0.25500000920E-02 0. -1.
    10030    2    1    2    0    0  0.00000000000E+00  0.00000000000E+00 -0.10470294421E+03  0.71132566597E+03  0.70357764073E+03 0.  0.
        5    1    3    3  502    0 -0.51783906253E+02 -0.20769623292E+03  0.22985317515E+03  0.31412397272E+03  0.46999998093E+01 0. -1.
       -5    1    3    3    0  502  0.51783906253E+02  0.20769623292E+03 -0.33455611936E+03  0.39720169324E+03  0.46999998093E+01 0.  1.
</event>
<event>
 5   0  0.2006362E-02  0.6979916E+03  0.7818609E-02  0.9720673E-01
       -2   -1    0    0    0  501  0.00000000000E+00  0.00000000000E+00  0.13284662213E+03  0.13284662215E+03  0.25500000920E-02 0.  1.
        2   -1    0    0  501    0  0.00000000000E+00  0.00000000000E+00 -0.91683235769E+03  0.91683235770E+03  0.25500000920E-02 0. -1.
    10030    2    1    2    0    0  0.00000000000E+00  0.00000000000E+00 -0.78398573556E+03  0.10496789798E+04  0.69799163832E+03 0.  0.
        4    1    3    3  502    0 -0.73274984276E+02  0.28983469988E+03 -0.12120232245E+03  0.32259106070E+03  0.12699999809E+01 0.  1.
       -4    1    3    3    0  502  0.73274984276E+02 -0.28983469988E+03 -0.66278341312E+03  0.72708791915E+03  0.12699999809E+01 0. -1.
</event>
<event>
 5   0  0.1948138E-02  0.6881153E+03  0.7818609E-02  0.9737775E-01
       -2   -1    0    0    0  501  0.00000000000E+00  0.00000000000E+00  0.19027788171E+03  0.19027788173E+03  0.25500000920E-02 0. -1.
        2   -1    0    0  501    0  0.00000000000E+00  0.00000000000E+00 -0.62211992816E+03  0.62211992816E+03  0.25500000920E-02 0.  1.
    10030    2    1    2    0    0  0.00000000000E+00  0.00000000000E+00 -0.43184204645E+03  0.81239780989E+03  0.68811528717E+03 0.  0.
        3    1    3    3  502    0  0.28004779860E+03  0.18825303031E+03 -0.29520407378E+03  0.44834298065E+03  0.10100000352E+00 0.  1.
       -3    1    3    3    0  502 -0.28004779860E+03 -0.18825303031E+03 -0.13663797267E+03  0.36405482924E+03  0.10100000352E+00 0. -1.
</event>
<event>
 5   0  0.1973067E-02  0.7015074E+03  0.7818609E-02  0.9714658E-01
        2   -1    0    0  501    0  0.00000000000E+00  0.00000000000E+00  0.47464723127E+03  0.47464723128E+03  0.25500000920E-02 0. -1.
       -2   -1    0    0    0  501  0.00000000000E+00  0.00000000000E+00 -0.25919912371E+03  0.25919912373E+03  0.25500000920E-02 0.  1.
    10030    2    1    2    0    0  0.00000000000E+00  0.00000000000E+00  0.21544810756E+03  0.73384635500E+03  0.70150736682E+03 0.  0.
        5    1    3    3  502    0  0.48014660185E+02 -0.18435287981E+02 -0.25519972016E+03  0.26037329856E+03  0.46999998093E+01 0.  1.
       -5    1    3    3    0  502 -0.48014660185E+02  0.18435287981E+02  0.47064782772E+03  0.47347305644E+03  0.46999998093E+01 0. -1.
</event>
<event>
 5   0  0.1226303E-02  0.6995915E+03  0.7818609E-02  0.9717931E-01
        1   -1    0    0  501    0  0.00000000000E+00  0.00000000000E+00  0.56821957605E+03  0.56821957608E+03  0.50400001928E-02 0.  1.
       -1   -1    0    0    0  501  0.00000000000E+00  0.00000000000E+00 -0.21533414561E+03  0.21533414567E+03  0.50400001928E-02 0. -1.
    10030    2    1    2    0    0  0.00000000000E+00  0.00000000000E+00  0.35288543044E+03  0.78355372174E+03  0.69959152928E+03 0.  0.
        4    1    3    3  502    0  0.91731824973E+02  0.15605092629E+03 -0.15879371207E+03  0.24079799668E+03  0.12699999809E+01 0. -1.
       -4    1    3    3    0  502 -0.91731824973E+02 -0.15605092629E+03  0.51167914252E+03  0.54275572507E+03  0.12699999809E+01 0.  1.
</event>
<event>
 5   0  0.1197259E-02  0.7053435E+03  0.7818609E-02  0.9708138E-01
       -1   -1    0    0    0  501  0.00000000000E+00  0.00000000000E+00  0.11902795870E+03  0.11902795881E+03  0.50400001928E-02 0.  1.
        1   -1    0    0  501    0  0.00000000000E+00  0.00000000000E+00 -0.10449423630E+04  0.10449423630E+04  0.50400001928E-02 0. -1.
    10030    2    1    2    0    0  0.00000000000E+00  0.00000000000E+00 -0.92591440425E+03  0.11639703218E+04  0.70534348085E+03 0.  0.
        3    1    3    3  502    0  0.10273324817E+03 -0.16635567533E+03  0.21400721997E+02  0.19668841374E+03  0.10100000352E+00 0.  1.
       -3    1    3    3    0  502 -0.10273324817E+03  0.16635567533E+03 -0.94731512624E+03  0.96728190803E+03  0.10100000352E+00 0. -1.
</event>
<event>
 5   0  0.1237686E-02  0.7008413E+03  0.7818609E-02  0.9715795E-01
       -1   -1    0    0    0  501  0.00000000000E+00  0.00000000000E+00  0.28967896150E+03  0.28967896154E+03  0.50400001928E-02 0.  1.
        1   -1    0    0  501    0  0.00000000000E+00  0.00000000000E+00 -0.42389903306E+03  0.42389903309E+03  0.50400001928E-02 0. -1.
    10030    2    1    2    0    0  0.00000000000E+00  0.00000000000E+00 -0.13422007156E+03  0.71357799463E+03  0.70084129931E+03 0.  0.
        5    1    3    3  502    0  0.17345100208E+03  0.22095915398E+03 -0.28035440943E+03  0.39689908382E+03  0.46999998093E+01 0. -1.
       -5    1    3    3    0  502 -0.17345100208E+03 -0.22095915398E+03  0.14613433786E+03  0.31667891081E+03  0.46999998093E+01 0.  1.
</event>
<event>
 5   0  0.1909053E-02  0.6909013E+03  0.7818609E-02  0.9732920E-01
        2   -1    0    0  501    0  0.00000000000E+00  0.00000000000E+00  0.89014413208E+03  0.89014413209E+03  0.25500000920E-02 0. -1.
       -2   -1    0    0    0  501  0.00000000000E+00  0.00000000000E+00 -0.13406383840E+03  0.13406383843E+03  0.25500000920E-02 0.  1.
    10030    2    1    2    0    0  0.00000000000E+00  0.00000000000E+00  0.75608029368E+03  0.10242079705E+04  0.69090126383E+03 0.  0.
        1    1    3    3  502    0  0.11286910910E+03 -0.15700389724E+03 -0.46322661188E+02  0.19883522954E+03  0.50400001928E-02 0.  1.
       -1    1    3    3    0  502 -0.11286910910E+03  0.15700389724E+03  0.80240295487E+03  0.82537274098E+03  0.50400001928E-02 0. -1.
</event>
<event>
 5   0  0.1973067E-02  0.7008746E+03  0.7818609E-02  0.9715738E-01
       -2   -1    0    0    0  501  0.00000000000E+00  0.00000000000E+00  0.30981667712E+03  0.30981667713E+03  0.25500000920E-02 0.  1.
        2   -1    0    0  501    0  0.00000000000E+00  0.00000000000E+00 -0.39638374150E+03  0.39638374151E+03  0.25500000920E-02 0. -1.
    10030    2    1    2    0    0  0.00000000000E+00  0.00000000000E+00 -0.86567064379E+02  0.70620041864E+03  0.70087457840E+03 0.  0.
        5    1    3    3  502    0  0.96064027908E+02 -0.15862962724E+03  0.25628451493E+03  0.31637872667E+03  0.46999998093E+01 0.  1.
       -5    1    3    3    0  502 -0.96064027908E+02  0.15862962724E+03 -0.34285157931E+03  0.38982169197E+03  0.46999998093E+01 0. -1.
</event>
<event>
 5   0  0.1237686E-02  0.7012700E+03  0.7818609E-02  0.9715063E-01
       -1   -1    0    0    0  501  0.00000000000E+00  0.00000000000E+00  0.95712520537E+02  0.95712520670E+02  0.50400001928E-02 0. -1.
        1   -1    0    0  501    0  0.00000000000E+00  0.00000000000E+00 -0.12845228101E+04  0.12845228101E+04  0.50400001928E-02 0.  1.
    10030    2    1    2    0    0  0.00000000000E+00  0.00000000000E+00 -0.11888102896E+04  0.13802353308E+04  0.70127003626E+03 0.  0.
        5    1    3    3  502    0 -0.22446948465E+03 -0.40292961511E+02 -0.11185243000E+04  0.11415466578E+04  0.46999998093E+01 0.  1.
       -5    1    3    3    0  502  0.22446948465E+03  0.40292961511E+02 -0.70285989609E+02  0.23868867301E+03  0.46999998093E+01 0. -1.
</event>
<event>
 5   0  0.1257442E-02  0.7068168E+03  0.7818609E-02  0.9705645E-01
        1   -1    0    0  501    0  0.00000000000E+00  0.00000000000E+00  0.96328952644E+03  0.96328952645E+03  0.50400001928E-02 0.  1.
       -1   -1    0    0    0  501  0.00000000000E+00  0.00000000000E+00 -0.12965728497E+03  0.12965728507E+03  0.50400001928E-02 0. -1.
    10030    2    1    2    0    0  0.00000000000E+00  0.00000000000E+00  0.83363224147E+03  0.10929468115E+04  0.70681682125E+03 0.  0.
        1    1    3    3  502    0  0.15966606031E+03 -0.30744219303E+03  0.30875734311E+03  0.46405285240E+03  0.50400001928E-02 0.  1.
       -1    1    3    3    0  502 -0.15966606031E+03  0.30744219303E+03  0.52487489836E+03  0.62889395912E+03  0.50400001928E-02 0. -1.
</event>
<event>
 5   0  0.2006362E-02  0.6711934E+03  0.7818609E-02  0.9767804E-01
        2   -1    0    0  501    0  0.00000000000E+00  0.00000000000E+00  0.43851045561E+03  0.43851045562E+03  0.25500000920E-02 0. -1.
       -2   -1    0    0    0  501  0.00000000000E+00  0.00000000000E+00 -0.25683573811E+03  0.25683573813E+03  0.25500000920E-02 0.  1.
    10030    2    1    2    0    0  0.00000000000E+00  0.00000000000E+00  0.18167471750E+03  0.69534619374E+03  0.67119343425E+03 0.  0.
        4    1    3    3  502    0 -0.84177536623E+01  0.29523767467E+03  0.25590521062E+03  0.39080075850E+03  0.12699999809E+01 0. -1.
       -4    1    3    3    0  502  0.84177536623E+01 -0.29523767467E+03 -0.74230493122E+02  0.30454543525E+03  0.12699999809E+01 0.  1.
</event>
<event>
 5   0  0.1226303E-02  0.7030735E+03  0.7818609E-02  0.9711990E-01
        1   -1    0    0  501    0  0.00000000000E+00  0.00000000000E+00  0.15852125507E+03  0.15852125515E+03  0.50400001928E-02 0. -1.
       -1   -1    0    0    0  501  0.00000000000E+00  0.00000000000E+00 -0.77956797756E+03  0.77956797757E+03  0.50400001928E-02 0.  1.
    10030    2    1    2    0    0  0.00000000000E+00  0.00000000000E+00 -0.62104672248E+03  0.93808923273E+03  0.70307352180E+03 0.  0.
        4    1    3    3  502    0  0.16978696267E+03  0.25923993176E+03 -0.53196188641E+03  0.61564439119E+03  0.12699999809E+01 0.  1.
       -4    1    3    3    0  502 -0.16978696267E+03 -0.25923993176E+03 -0.89084836070E+02  0.32244484153E+03  0.12699999809E+01 0. -1.
</event>
<event>
 5   0  0.2006362E-02  0.6995171E+03  0.7818609E-02  0.9718058E-01
        2   -1    0    0  501    0  0.00000000000E+00  0.00000000000E+00  0.20575442509E+04  0.20575442509E+04  0.25500000920E-02 0. -1.
       -2   -1    0    0    0  501  0.00000000000E+00  0.00000000000E+00 -0.59454884298E+02  0.59454884353E+02  0.25500000920E-02 0.  1.
    10030    2    1    2    0    0  0.00000000000E+00  0.00000000000E+00  0.19980893666E+04  0.21169991352E+04  0.69951713469E+03 0.  0.
        4    1    3    3  502    0  0.84447108037E+02 -0.29334122395E+03  0.48234932272E+03  0.57082647955E+03  0.12699999809E+01 0.  1.
       -4    1    3    3    0  502 -0.84447108037E+02  0.29334122395E+03  0.15157400438E+04  0.15461726557E+04  0.12699999809E+01 0. -1.
</event>
<event>
 5   0  0.1909053E-02  0.7075618E+03  0.7818609E-02  0.9704387E-01
        2   -1    0    0  501    0  0.00000000000E+00  0.00000000000E+00  0.26927770948E+03  0.26927770949E+03  0.25500000920E-02 0. -1.
       -2   -1    0    0    0  501  0.00000000000E+00  0.00000000000E+00 -0.46480240198E+03  0.46480240198E+03  0.25500000920E-02 0.  1.
    10030    2    1    2    0    0  0.00000000000E+00  0.00000000000E+00 -0.19552469250E+03  0.73408011148E+03  0.70756180273E+03 0.  0.
        1    1    3    3  502    0  0.15848195491E+03  0.22291209784E+03  0.13504604084E+03  0.30503076331E+03  0.50400001928E-02 0. -1.
       -1    1    3    3    0  502 -0.15848195491E+03 -0.22291209784E+03 -0.33057073333E+03  0.42904934816E+03  0.50400001928E-02 0.  1.
</event>
<event>
 5   0  0.1973067E-02  0.6962614E+03  0.7818609E-02  0.9723647E-01
       -2   -1    0    0    0  501  0.00000000000E+00  0.00000000000E+00  0.11201507262E+03  0.11201507265E+03  0.25500000920E-02 0.  1.
        2   -1    0    0  501    0  0.00000000000E+00  0.00000000000E+00 -0.10819524707E+04  0.10819524707E+04  0.25500000920E-02 0. -1.
    10030    2    1    2    0    0  0.00000000000E+00  0.00000000000E+00 -0.96993739805E+03  0.11939675433E+04  0.69626140090E+03 0.  0.
        5    1    3    3  502    0 -0.21741724129E+02  0.22911642086E+03 -0.93281711136E+03  0.96080013017E+03  0.46999998093E+01 0. -1.
       -5    1    3    3    0  502  0.21741724129E+02 -0.22911642086E+03 -0.37120286686E+02  0.23316741316E+03  0.46999998093E+01 0.  1.
</event>
<event>
 5   0  0.1257442E-02  0.7607918E+03  0.7818609E-02  0.9618570E-01
        1   -1    0    0  501    0  0.00000000000E+00  0.00000000000E+00  0.89299230189E+03  0.89299230190E+03  0.50400001928E-02 0.  1.
       -1   -1    0    0    0  501  0.00000000000E+00  0.00000000000E+00 -0.16204065222E+03  0.16204065230E+03  0.50400001928E-02 0. -1.
    10030    2    1    2    0    0  0.00000000000E+00  0.00000000000E+00  0.73095164967E+03  0.10550329542E+04  0.76079183768E+03 0.  0.
        1    1    3    3  502    0 -0.34229057446E+03  0.26672387399E+02  0.59261112121E+03  0.68488115365E+03  0.50400001928E-02 0.  1.
       -1    1    3    3    0  502  0.34229057446E+03 -0.26672387399E+02  0.13834052846E+03  0.37015180055E+03  0.50400001928E-02 0. -1.
</event>
<event>
 5   0  0.1237686E-02  0.6983630E+03  0.7818609E-02  0.9720036E-01
       -1   -1    0    0    0  501  0.00000000000E+00  0.00000000000E+00  0.22070604546E+03  0.22070604551E+03  0.50400001928E-02 0.  1.
        1   -1    0    0  501    0  0.00000000000E+00  0.00000000000E+00 -0.55244392750E+03  0.55244392752E+03  0.50400001928E-02 0. -1.
    10030    2    1    2    0    0  0.00000000000E+00  0.00000000000E+00 -0.33173788204E+03  0.77314997304E+03  0.69836298472E+03 0.  0.
        5    1    3    3  502    0  0.36374955564E+02 -0.21493705007E+03  0.13607332337E+03  0.25701967282E+03  0.46999998093E+01 0.  1.
       -5    1    3    3    0  502 -0.36374955564E+02  0.21493705007E+03 -0.46781120542E+03  0.51613030021E+03  0.46999998093E+01 0. -1.
</event>
<event>
 5   0  0.2006362E-02  0.7005155E+03  0.7818609E-02  0.9716351E-01
        2   -1    0    0  501    0  0.00000000000E+00  0.00000000000E+00  0.29554033599E+03  0.29554033600E+03  0.25500000920E-02 0.  1.
       -2   -1    0    0    0  501  0.00000000000E+00  0.00000000000E+00 -0.41510568958E+03  0.41510568958E+03  0.25500000920E-02 0. -1.
    10030    2    1    2    0    0  0.00000000000E+00  0.00000000000E+00 -0.11956535359E+03  0.71064602559E+03  0.70051545301E+03 0.  0.
        4    1    3    3  502    0 -0.11229458506E+03 -0.61636295794E+02 -0.39048744116E+03  0.41096369840E+03  0.12699999809E+01 0. -1.
       -4    1    3    3    0  502  0.11229458506E+03  0.61636295794E+02  0.27092208758E+03  0.29968232719E+03  0.12699999809E+01 0.  1.
</event>
<event>
 5   0  0.7947250E-03  0.6996611E+03  0.7818609E-02  0.9717812E-01
       -3   -1    0    0    0  501  0.00000000000E+00  0.00000000000E+00  0.34178718214E+03  0.34178719706E+03  0.10100000352E+00 0. -1.
        3   -1    0    0  501    0  0.00000000000E+00  0.00000000000E+00 -0.35806317486E+03  0.35806318911E+03  0.10100000352E+00 0.  1.
    10030    2    1    2    0    0  0.00000000000E+00  0.00000000000E+00 -0.16275992724E+02  0.69985038617E+03  0.69966110017E+03 0.  0.
        3    1    3    3  502    0 -0.17764909376E+03  0.99099075969E+02  0.27654675980E+03  0.34330445369E+03  0.10100000352E+00 0. -1.
       -3    1    3    3    0  502  0.17764909376E+03 -0.99099075969E+02 -0.29282275252E+03  0.35654593248E+03  0.10100000352E+00 0.  1.
</event>
<event>
 5   0  0.1226303E-02  0.6928249E+03  0.7818609E-02  0.9729582E-01
        1   -1    0    0  501    0  0.00000000000E+00  0.00000000000E+00  0.58403434831E+03  0.58403434833E+03  0.50400001928E-02 0.  1.
       -1   -1    0    0    0  501  0.00000000000E+00  0.00000000000E+00 -0.20547008794E+03  0.20547008800E+03  0.50400001928E-02 0. -1.
    10030    2    1    2    0    0  0.00000000000E+00  0.00000000000E+00  0.37856426036E+03  0.78950443633E+03  0.69282490989E+03 0.  0.
        4    1    3    3  502    0  0.20729037898E+03 -0.22338011363E+03  0.37698546227E+03  0.48475522487E+03  0.12699999809E+01 0.  1.
       -4    1    3    3    0  502 -0.20729037898E+03  0.22338011363E+03  0.15787980972E+01  0.30474921146E+03  0.12699999809E+01 0. -1.
</event>
<event>
 5   0  0.2006362E-02  0.7173999E+03  0.7818609E-02  0.9687930E-01
        2   -1    0    0  501    0  0.00000000000E+00  0.00000000000E+00  0.68945054279E+03  0.68945054279E+03  0.25500000920E-02 0.  1.
       -2   -1    0    0    0  501  0.00000000000E+00  0.00000000000E+00 -0.18662059040E+03  0.18662059042E+03  0.25500000920E-02 0. -1.
    10030    2    1    2    0    0  0.00000000000E+00  0.00000000000E+00  0.50282995239E+03  0.87607113321E+03  0.71739993687E+03 0.  0.
        4    1    3    3  502    0  0.17776886721E+03 -0.22460999121E+03  0.51506624689E+03  0.58936089952E+03  0.12699999809E+01 0.  1.
       -4    1    3    3    0  502 -0.17776886721E+03  0.22460999121E+03 -0.12236294495E+02  0.28671023369E+03  0.12699999809E+01 0. -1.
</event>
<event>
 5   0  0.7947250E-03  0.7000822E+03  0.7818609E-02  0.9717092E-01
        4   -1    0    0  501    0  0.00000000000E+00  0.00000000000E+00  0.41325796155E+03  0.41325991299E+03  0.12699999809E+01 0.  1.
       -4   -1    0    0    0  501  0.00000000000E+00  0.00000000000E+00 -0.29649059289E+03  0.29649331286E+03  0.12699999809E+01 0. -1.
    10030    2    1    2    0    0  0.00000000000E+00  0.00000000000E+00  0.11676736866E+03  0.70975322585E+03  0.70008215462E+03 0.  0.
        1    1    3    3  502    0  0.31208352633E+03  0.42208163108E+02 -0.96537936964E+02  0.32938917671E+03  0.50400001928E-02 0. -1.
       -1    1    3    3    0  502 -0.31208352633E+03 -0.42208163108E+02  0.21330530563E+03  0.38036404913E+03  0.50400001928E-02 0.  1.
</event>
<event>
 5   0  0.1909053E-02  0.6950851E+03  0.7818609E-02  0.9725674E-01
       -2   -1    0    0    0  501  0.00000000000E+00  0.00000000000E+00  0.34494299524E+03  0.34494299525E+03  0.25500000920E-02 0.  1.
        2   -1    0    0  501    0  0.00000000000E+00  0.00000000000E+00 -0.35016171432E+03  0.35016171433E+03  0.25500000920E-02 0. -1.
    10030    2    1    2    0    0  0.00000000000E+00  0.00000000000E+00 -0.52187190736E+01  0.69510470958E+03  0.69508511871E+03 0.  0.
        1    1    3    3  502    0 -0.30930378359E+03 -0.12984371982E+03 -0.93483304664E+02  0.34823461976E+03  0.50400001928E-02 0. -1.
       -1    1    3    3    0  502  0.30930378359E+03  0.12984371982E+03  0.88264585590E+02  0.34687008983E+03  0.50400001928E-02 0.  1.
</event>
<event>
 5   0  0.1257442E-02  0.7107850E+03  0.7818609E-02  0.9698964E-01
       -1   -1    0    0    0  501  0.00000000000E+00  0.00000000000E+00  0.46020852612E+02  0.46020852888E+02  0.50400001928E-02 0.  1.
        1   -1    0    0  501    0  0.00000000000E+00  0.00000000000E+00 -0.27444913467E+04  0.27444913467E+04  0.50400001928E-02 0. -1.
    10030    2    1    2    0    0  0.00000000000E+00  0.00000000000E+00 -0.26984704941E+04  0.27905121996E+04  0.71078500872E+03 0.  0.
        1    1    3    3  502    0 -0.75773963903E+02  0.31564085297E+02  0.82941361431E+01  0.82503198762E+02  0.50400001928E-02 0.  1.
       -1    1    3    3    0  502  0.75773963903E+02 -0.31564085297E+02 -0.27067646302E+04  0.27080090008E+04  0.50400001928E-02 0. -1.
</event>
<event>
 5   0  0.1226303E-02  0.6949021E+03  0.7818609E-02  0.9725990E-01
        1   -1    0    0  501    0  0.00000000000E+00  0.00000000000E+00  0.97560188368E+03  0.97560188370E+03  0.50400001928E-02 0. -1.
       -1   -1    0    0    0  501  0.00000000000E+00  0.00000000000E+00 -0.12374128328E+03  0.12374128338E+03  0.50400001928E-02 0.  1.
    10030    2    1    2    0    0  0.00000000000E+00  0.00000000000E+00  0.85186060040E+03  0.10993431671E+04  0.69490209130E+03 0.  0.
        4    1    3    3  502    0 -0.18542167630E+03  0.16077001153E+03  0.81502932989E+03  0.85117719432E+03  0.12699999809E+01 0. -1.
       -4    1    3    3    0  502  0.18542167630E+03 -0.16077001153E+03  0.36831270510E+02  0.24816597276E+03  0.12699999809E+01 0.  1.
</event>
<event>
 5   0  0.1197259E-02  0.7471287E+03  0.7818609E-02  0.9639866E-01
       -1   -1    0    0    0  501  0.00000000000E+00  0.00000000000E+00  0.41425071753E+03  0.41425071756E+03  0.50400001928E-02 0. -1.
        1   -1    0    0  501    0  0.00000000000E+00  0.00000000000E+00 -0.33687407081E+03  0.33687407085E+03  0.50400001928E-02 0.  1.
    10030    2    1    2    0    0  0.00000000000E+00  0.00000000000E+00  0.77376646717E+02  0.75112478841E+03  0.74712870531E+03 0.  0.
        3    1    3    3  502    0 -0.22567252978E+03 -0.14514574172E+03 -0.22261517427E+03  0.34864437907E+03  0.10100000352E+00 0.  1.
       -3    1    3    3    0  502  0.22567252978E+03  0.14514574172E+03  0.29999182099E+03  0.40248040934E+03  0.10100000352E+00 0. -1.
</event>
<event>
 5   0  0.1948138E-02  0.7049201E+03  0.7818609E-02  0.9708855E-01
       -2   -1    0    0    0  501  0.00000000000E+00  0.00000000000E+00  0.42969343522E+03  0.42969343522E+03  0.25500000920E-02 0.  1.
        2   -1    0    0  501    0  0.00000000000E+00  0.00000000000E+00 -0.28910862338E+03  0.28910862340E+03  0.25500000920E-02 0. -1.
    10030    2    1    2    0    0  0.00000000000E+00  0.00000000000E+00  0.14058481183E+03  0.71880205862E+03  0.70492007360E+03 0.  0.
        3    1    3    3  502    0  0.50427276568E+02 -0.12266564055E+03  0.40327845329E+03  0.42452713774E+03  0.10100000352E+00 0.  1.
       -3    1    3    3    0  502 -0.50427276568E+02  0.12266564055E+03 -0.26269364146E+03  0.29427492088E+03  0.10100000352E+00 0. -1.
</event>
<event>
 5   0  0.2026361E-02  0.7041062E+03  0.7818609E-02  0.9710236E-01
        2   -1    0    0  501    0  0.00000000000E+00  0.00000000000E+00  0.12028239856E+03  0.12028239859E+03  0.25500000920E-02 0. -1.
       -2   -1    0    0    0  501  0.00000000000E+00  0.00000000000E+00 -0.10304199165E+04  0.10304199165E+04  0.25500000920E-02 0.  1.
    10030    2    1    2    0    0  0.00000000000E+00  0.00000000000E+00 -0.91013751793E+03  0.11507023151E+04  0.70410618262E+03 0.  0.
        2    1    3    3  502    0  0.23523927275E+03 -0.17462989758E+02 -0.88217086006E+03  0.91316367525E+03  0.25500000920E-02 0.  1.
       -2    1    3    3    0  502 -0.23523927275E+03  0.17462989758E+02 -0.27966657873E+02  0.23753863984E+03  0.25500000920E-02 0. -1.
</event>
<event>
 5   0  0.1223742E-02  0.7055088E+03  0.7818609E-02  0.9707858E-01
        1   -1    0    0  501    0  0.00000000000E+00  0.00000000000E+00  0.11436590796E+04  0.11436590796E+04  0.50400001928E-02 0. -1.
       -1   -1    0    0    0  501  0.00000000000E+00  0.00000000000E+00 -0.10880486462E+03  0.10880486474E+03  0.50400001928E-02 0.  1.
    10030    2    1    2    0    0  0.00000000000E+00  0.00000000000E+00  0.10348542150E+04  0.12524639444E+04  0.70550881330E+03 0.  0.
        2    1    3    3  502    0 -0.17200501660E+03  0.56479072083E+02  0.10548954115E+04  0.10703176820E+04  0.25500000920E-02 0. -1.
       -2    1    3    3    0  502  0.17200501660E+03 -0.56479072083E+02 -0.20041196476E+02  0.18214626234E+03  0.25500000920E-02 0.  1.
</event>
<event>
 5   0  0.1909053E-02  0.7012111E+03  0.7818609E-02  0.9715163E-01
       -2   -1    0    0    0  501  0.00000000000E+00  0.00000000000E+00  0.14635413087E+03  0.14635413089E+03  0.25500000920E-02 0. -1.
        2   -1    0    0  501    0  0.00000000000E+00  0.00000000000E+00 -0.83990957768E+03  0.83990957769E+03  0.25500000920E-02 0.  1.
    10030    2    1    2    0    0  0.00000000000E+00  0.00000000000E+00 -0.69355544681E+03  0.98626370858E+03  0.70121105599E+03 0.  0.
        1    1    3    3  502    0  0.11759035379E+03 -0.23778812353E+03 -0.24340375673E+02  0.26638907055E+03  0.50400001928E-02 0. -1.
       -1    1    3    3    0  502 -0.11759035379E+03  0.23778812353E+03 -0.66921507114E+03  0.71987463802E+03  0.50400001928E-02 0.  1.
</event>
<event>
 5   0  0.1973067E-02  0.7004632E+03  0.7818609E-02  0.9716440E-01
        2   -1    0    0  501    0  0.00000000000E+00  0.00000000000E+00  0.88826741644E+03  0.88826741645E+03  0.25500000920E-02 0. -1.
       -2   -1    0    0    0  501  0.00000000000E+00  0.00000000000E+00 -0.13809147366E+03  0.13809147369E+03  0.25500000920E-02 0.  1.
    10030    2    1    2    0    0  0.00000000000E+00  0.00000000000E+00  0.75017594278E+03  0.10263588901E+04  0.70046315123E+03 0.  0.
        5    1    3    3  502    0  0.12371746619E+03  0.20605887290E+03  0.18819773403E+01  0.24039946418E+03  0.46999998093E+01 0.  1.
       -5    1    3    3    0  502 -0.12371746619E+03 -0.20605887290E+03  0.74829396544E+03  0.78595942596E+03  0.46999998093E+01 0. -1.
</event>
<event>
 5   0  0.1226303E-02  0.7006613E+03  0.7818609E-02  0.9716102E-01
        1   -1    0    0  501    0  0.00000000000E+00  0.00000000000E+00  0.93973192475E+03  0.93973192477E+03  0.50400001928E-02 0.  1.
       -1   -1    0    0    0  501  0.00000000000E+00  0.00000000000E+00 -0.13060273031E+03  0.13060273041E+03  0.50400001928E-02 0. -1.
    10030    2    1    2    0    0  0.00000000000E+00  0.00000000000E+00  0.80912919444E+03  0.10703346552E+04  0.70066127391E+03 0.  0.
        4    1    3    3  502    0 -0.20560814535E+03 -0.24439586338E+03  0.62448631433E+03  0.70141914513E+03  0.12699999809E+01 0.  1.
       -4    1    3    3    0  502  0.20560814535E+03  0.24439586338E+03  0.18464288012E+03  0.36891551004E+03  0.12699999809E+01 0. -1.
</event>
<event>
 5   0  0.1909053E-02  0.7014651E+03  0.7818609E-02  0.9714730E-01
        2   -1    0    0  501    0  0.00000000000E+00  0.00000000000E+00  0.64677796135E+03  0.64677796136E+03  0.25500000920E-02 0. -1.
       -2   -1    0    0    0  501  0.00000000000E+00  0.00000000000E+00 -0.19019402913E+03  0.19019402915E+03  0.25500000920E-02 0.  1.
    10030    2    1    2    0    0  0.00000000000E+00  0.00000000000E+00  0.45658393222E+03  0.83697199050E+03  0.70146505667E+03 0.  0.
        1    1    3    3  502    0 -0.67825195364E+01  0.25181514453E+03  0.51947712502E+03  0.57733296548E+03  0.50400001928E-02 0. -1.
       -1    1    3    3    0  502  0.67825195364E+01 -0.25181514453E+03 -0.62893192801E+02  0.25963902502E+03  0.50400001928E-02 0.  1.
</event>
<event>
 5   0  0.1257442E-02  0.7067617E+03  0.7818609E-02  0.9705738E-01
       -1   -1    0    0    0  501  0.00000000000E+00  0.00000000000E+00  0.36567106682E+03  0.36567106686E+03  0.50400001928E-02 0.  1.
        1   -1    0    0  501    0  0.00000000000E+00  0.00000000000E+00 -0.34150367953E+03  0.34150367956E+03  0.50400001928E-02 0. -1.
    10030    2    1    2    0    0  0.00000000000E+00  0.00000000000E+00  0.24167387295E+02  0.70717474642E+03  0.70676167084E+03 0.  0.
        1    1    3    3  502    0  0.44035703275E+02  0.33688950431E+03 -0.85155066541E+02  0.35026428116E+03  0.50400001928E-02 0.  1.
       -1    1    3    3    0  502 -0.44035703275E+02 -0.33688950431E+03  0.10932245384E+03  0.35691046526E+03  0.50400001928E-02 0. -1.
</event>
<event>
 5   0  0.1909053E-02  0.6973395E+03  0.7818609E-02  0.9721793E-01
       -2   -1    0    0    0  501  0.00000000000E+00  0.00000000000E+00  0.10508189005E+03  0.10508189009E+03  0.25500000920E-02 0. -1.
        2   -1    0    0  501    0  0.00000000000E+00  0.00000000000E+00 -0.11569130554E+04  0.11569130554E+04  0.25500000920E-02 0.  1.
    10030    2    1    2    0    0  0.00000000000E+00  0.00000000000E+00 -0.10518311654E+04  0.12619949455E+04  0.69733954574E+03 0.  0.
        1    1    3    3  502    0 -0.48198089374E+01  0.32560671810E+03 -0.30040541987E+03  0.44304218957E+03  0.50400001928E-02 0. -1.
       -1    1    3    3    0  502  0.48198089374E+01 -0.32560671810E+03 -0.75142574550E+03  0.81895275594E+03  0.50400001928E-02 0.  1.
</event>
<event>
 5   0  0.1223742E-02  0.7002663E+03  0.7818609E-02  0.9716777E-01
       -1   -1    0    0    0  501  0.00000000000E+00  0.00000000000E+00  0.49005661875E+03  0.49005661878E+03  0.50400001928E-02 0. -1.
        1   -1    0    0  501    0  0.00000000000E+00  0.00000000000E+00 -0.25016134490E+03  0.25016134495E+03  0.50400001928E-02 0.  1.
    10030    2    1    2    0    0  0.00000000000E+00  0.00000000000E+00  0.23989527385E+03  0.74021796373E+03  0.70026630035E+03 0.  0.
        2    1    3    3  502    0 -0.20047018138E+03  0.17377674890E+03  0.36147090533E+03  0.44838361644E+03  0.25500000920E-02 0. -1.
       -2    1    3    3    0  502  0.20047018138E+03 -0.17377674890E+03 -0.12157563148E+03  0.29183434729E+03  0.25500000920E-02 0.  1.
</event>
<event>
 5   0  0.2026361E-02  0.6995686E+03  0.7818609E-02  0.9717970E-01
        2   -1    0    0  501    0  0.00000000000E+00  0.00000000000E+00  0.86234565556E+03  0.86234565557E+03  0.25500000920E-02 0.  1.
       -2   -1    0    0    0  501  0.00000000000E+00  0.00000000000E+00 -0.14187936165E+03  0.14187936168E+03  0.25500000920E-02 0. -1.
    10030    2    1    2    0    0  0.00000000000E+00  0.00000000000E+00  0.72046629391E+03  0.10042250172E+04  0.69956858463E+03 0.  0.
        2    1    3    3  502    0  0.34124394338E+03  0.52357458227E+02  0.44093178152E+03  0.56000854304E+03  0.25500000920E-02 0.  1.
       -2    1    3    3    0  502 -0.34124394338E+03 -0.52357458227E+02  0.27953451239E+03  0.44421647420E+03  0.25500000920E-02 0. -1.
</event>
<event>
 5   0  0.2026361E-02  0.6988433E+03  0.7818609E-02  0.9719212E-01
        2   -1    0    0  501    0  0.00000000000E+00  0.00000000000E+00  0.14057271974E+04  0.14057271974E+04  0.25500000920E-02 0. -1.
       -2   -1    0    0    0  501  0.00000000000E+00  0.00000000000E+00 -0.86855751843E+02  0.86855751881E+02  0.25500000920E-02 0.  1.
    10030    2    1    2    0    0  0.00000000000E+00  0.00000000000E+00  0.13188714455E+04  0.14925829492E+04  0.69884330903E+03 0.  0.
        2    1    3    3  502    0  0.13681775452E+02 -0.23463835565E+03  0.12116651961E+04  0.12342507429E+04  0.25500000920E-02 0. -1.
       -2    1    3    3    0  502 -0.13681775452E+02  0.23463835565E+03  0.10720624946E+03  0.25833220637E+03  0.25500000920E-02 0.  1.
</event>
<event>
 5   0  0.1226303E-02  0.6996398E+03  0.7818609E-02  0.9717848E-01
        1   -1    0    0  501    0  0.00000000000E+00  0.00000000000E+00  0.35740912679E+03  0.35740912682E+03  0.50400001928E-02 0.  1.
       -1   -1    0    0    0  501  0.00000000000E+00  0.00000000000E+00 -0.34239183354E+03  0.34239183357E+03  0.50400001928E-02 0. -1.
    10030    2    1    2    0    0  0.00000000000E+00  0.00000000000E+00  0.15017293251E+02  0.69980096040E+03  0.69963981096E+03 0.  0.
        4    1    3    3  502    0 -0.32414648453E+03  0.55171757502E+02  0.12694086916E+03  0.35246342139E+03  0.12699999809E+01 0. -1.
       -4    1    3    3    0  502  0.32414648453E+03 -0.55171757502E+02 -0.11192357591E+03  0.34733753900E+03  0.12699999809E+01 0.  1.
</event>
<event>
 5   0  0.1237686E-02  0.7086821E+03  0.7818609E-02  0.9702499E-01
       -1   -1    0    0    0  501  0.00000000000E+00  0.00000000000E+00  0.58872425685E+03  0.58872425687E+03  0.50400001928E-02 0. -1.
        1   -1    0    0  501    0  0.00000000000E+00  0.00000000000E+00 -0.21327059077E+03  0.21327059082E+03  0.50400001928E-02 0.  1.
    10030    2    1    2    0    0  0.00000000000E+00  0.00000000000E+00  0.37545366609E+03  0.80199484770E+03  0.70868207283E+03 0.  0.
        5    1    3    3  502    0  0.32056455914E+03  0.10789900041E+03  0.30712561264E+03  0.45689392949E+03  0.46999998093E+01 0. -1.
       -5    1    3    3    0  502 -0.32056455914E+03 -0.10789900041E+03  0.68328053451E+02  0.34510091821E+03  0.46999998093E+01 0.  1.
</event>
<event>
 5   0  0.7947250E-03  0.6957738E+03  0.7818609E-02  0.9724487E-01
        4   -1    0    0  501    0  0.00000000000E+00  0.00000000000E+00  0.78929832671E+02  0.78940049312E+02  0.12699999809E+01 0. -1.
       -4   -1    0    0    0  501  0.00000000000E+00  0.00000000000E+00 -0.15332177542E+04  0.15332182801E+04  0.12699999809E+01 0.  1.
    10030    2    1    2    0    0  0.00000000000E+00  0.00000000000E+00 -0.14542879215E+04  0.16121583295E+04  0.69577375680E+03 0.  0.
        4    1    3    3  502    0  0.94316140674E+02  0.27700193871E+03 -0.29120129979E+03  0.41282613573E+03  0.12699999809E+01 0. -1.
       -4    1    3    3    0  502 -0.94316140674E+02 -0.27700193871E+03 -0.11630866217E+04  0.11993321937E+04  0.12699999809E+01 0.  1.
</event>
<event>
 5   0  0.1948138E-02  0.6989095E+03  0.7818609E-02  0.9719099E-01
       -2   -1    0    0    0  501  0.00000000000E+00  0.00000000000E+00  0.90953452767E+02  0.90953452803E+02  0.25500000920E-02 0.  1.
        2   -1    0    0  501    0  0.00000000000E+00  0.00000000000E+00 -0.13426495129E+04  0.13426495129E+04  0.25500000920E-02 0. -1.
    10030    2    1    2    0    0  0.00000000000E+00  0.00000000000E+00 -0.12516960601E+04  0.14336029657E+04  0.69890946217E+03 0.  0.
        3    1    3    3  502    0 -0.15627118789E+02 -0.33957662469E+03 -0.45968681574E+03  0.57172412022E+03  0.10100000352E+00 0. -1.
       -3    1    3    3    0  502  0.15627118789E+02  0.33957662469E+03 -0.79200924435E+03  0.86187884543E+03  0.10100000352E+00 0.  1.
</event>
<event>
 5   0  0.7947250E-03  0.7062175E+03  0.7818609E-02  0.9706658E-01
        4   -1    0    0  501    0  0.00000000000E+00  0.00000000000E+00  0.23767475627E+03  0.23767814933E+03  0.12699999809E+01 0. -1.
       -4   -1    0    0    0  501  0.00000000000E+00  0.00000000000E+00 -0.52459891738E+03  0.52460045465E+03  0.12699999809E+01 0.  1.
    10030    2    1    2    0    0  0.00000000000E+00  0.00000000000E+00 -0.28692416111E+03  0.76227860398E+03  0.70621752729E+03 0.  0.
        3    1    3    3  502    0 -0.31969874233E+03 -0.14811788322E+03 -0.16853526133E+03  0.39057692929E+03  0.10100000352E+00 0. -1.
       -3    1    3    3    0  502  0.31969874233E+03  0.14811788322E+03 -0.11838889978E+03  0.37170167469E+03  0.10100000352E+00 0.  1.
</event>
<event>
 5   0  0.1257442E-02  0.6969713E+03  0.7818609E-02  0.9722426E-01
       -1   -1    0    0    0  501  0.00000000000E+00  0.00000000000E+00  0.13926803531E+03  0.13926803541E+03  0.50400001928E-02 0. -1.
        1   -1    0    0  501    0  0.00000000000E+00  0.00000000000E+00 -0.87200384904E+03  0.87200384905E+03  0.50400001928E-02 0.  1.
    10030    2    1    2    0    0  0.00000000000E+00  0.00000000000E+00 -0.73273581372E+03  0.10112718845E+04  0.69697134201E+03 0.  0.
        1    1    3    3  502    0  0.24826787537E+03 -0.23218158785E+03 -0.47778963028E+03  0.58636861999E+03  0.50400001928E-02 0.  1.
       -1    1    3    3    0  502 -0.24826787537E+03  0.23218158785E+03 -0.25494618344E+03  0.42490326447E+03  0.50400001928E-02 0. -1.
</event>
<event>
 5   0  0.1909053E-02  0.7018400E+03  0.7818609E-02  0.9714091E-01
        2   -1    0    0  501    0  0.00000000000E+00  0.00000000000E+00  0.32514412615E+03  0.32514412616E+03  0.25500000920E-02 0.  1.
       -2   -1    0    0    0  501  0.00000000000E+00  0.00000000000E+00 -0.37873930085E+03  0.37873930086E+03  0.25500000920E-02 0. -1.
    10030    2    1    2    0    0  0.00000000000E+00  0.00000000000E+00 -0.53595174708E+02  0.70388342702E+03  0.70184003596E+03 0.  0.
        1    1    3    3  502    0 -0.16450991428E+02 -0.48230853097E+02  0.32141352106E+03  0.32542818233E+03  0.50400001928E-02 0.  1.
       -1    1    3    3    0  502  0.16450991428E+02  0.48230853097E+02 -0.37500869577E+03  0.37845524469E+03  0.50400001928E-02 0. -1.
</event>
<event>
 5   0  0.1237686E-02  0.7031883E+03  0.7818609E-02  0.9711795E-01
       -1   -1    0    0    0  501  0.00000000000E+00  0.00000000000E+00  0.20161279538E+03  0.20161279544E+03  0.50400001928E-02 0. -1.
        1   -1    0    0  501    0  0.00000000000E+00  0.00000000000E+00 -0.61314777328E+03  0.61314777330E+03  0.50400001928E-02 0.  1.
    10030    2    1    2    0    0  0.00000000000E+00  0.00000000000E+00 -0.41153497790E+03  0.81476056874E+03  0.70318827233E+03 0.  0.
        5    1    3    3  502    0  0.12167453869E+03 -0.12333206469E+03 -0.56021496496E+03  0.58641144985E+03  0.46999998093E+01 0.  1.
       -5    1    3    3    0  502 -0.12167453869E+03  0.12333206469E+03  0.14867998706E+03  0.22834911889E+03  0.46999998093E+01 0. -1.
</event>
<event>
 5   0  0.1237686E-02  0.7032156E+03  0.7818609E-02  0.9711749E-01
       -1   -1    0    0    0  501  0.00000000000E+00  0.00000000000E+00  0.24671326819E+03  0.24671326825E+03  0.50400001928E-02 0. -1.
        1   -1    0    0  501    0  0.00000000000E+00  0.00000000000E+00 -0.50110013070E+03  0.50110013072E+03  0.50400001928E-02 0.  1.
    10030    2    1    2    0    0  0.00000000000E+00  0.00000000000E+00 -0.25438686250E+03  0.74781339897E+03  0.70321561691E+03 0.  0.
        5    1    3    3  502    0  0.19843542689E+03 -0.18991462428E+03 -0.36056932294E+03  0.45329516852E+03  0.46999998093E+01 0.  1.
       -5    1    3    3    0  502 -0.19843542689E+03  0.18991462428E+03  0.10618246044E+03  0.29451823045E+03  0.46999998093E+01 0. -1.
</event>
<event>
 5   0  0.2026361E-02  0.6994988E+03  0.7818609E-02  0.9718090E-01
       -2   -1    0    0    0  501  0.00000000000E+00  0.00000000000E+00  0.26039204369E+03  0.26039204370E+03  0.25500000920E-02 0.  1.
        2   -1    0    0  501    0  0.00000000000E+00  0.00000000000E+00 -0.46977102767E+03  0.46977102768E+03  0.25500000920E-02 0. -1.
    10030    2    1    2    0    0  0.00000000000E+00  0.00000000000E+00 -0.20937898398E+03  0.73016307139E+03  0.69949878619E+03 0.  0.
        2    1    3    3  502    0 -0.26044913366E+03 -0.73425431685E+02 -0.33598747414E+03  0.43140772829E+03  0.25500000920E-02 0. -1.
       -2    1    3    3    0  502  0.26044913366E+03  0.73425431685E+02  0.12660849015E+03  0.29875534310E+03  0.25500000920E-02 0.  1.
</event>
<event>
 5   0  0.2026361E-02  0.7085829E+03  0.7818609E-02  0.9702666E-01
        2   -1    0    0  501    0  0.00000000000E+00  0.00000000000E+00  0.19258748247E+04  0.19258748247E+04  0.25500000920E-02 0. -1.
       -2   -1    0    0    0  501  0.00000000000E+00  0.00000000000E+00 -0.65176842854E+02  0.65176842904E+02  0.25500000920E-02 0.  1.
    10030    2    1    2    0    0  0.00000000000E+00  0.00000000000E+00  0.18606979819E+04  0.19910516676E+04  0.70858292629E+03 0.  0.
        2    1    3    3  502    0  0.58693655425E+02 -0.23796234098E+03  0.21147729760E+03  0.32371850166E+03  0.25500000920E-02 0.  1.
       -2    1    3    3    0  502 -0.58693655425E+02  0.23796234098E+03  0.16492206843E+04  0.16673331660E+04  0.25500000920E-02 0. -1.
</event>
<event>
 5   0  0.1257442E-02  0.6965642E+03  0.7818609E-02  0.9723126E-01
        1   -1    0    0  501    0  0.00000000000E+00  0.00000000000E+00  0.12089105160E+04  0.12089105160E+04  0.50400001928E-02 0. -1.
       -1   -1    0    0    0  501  0.00000000000E+00  0.00000000000E+00 -0.10033863745E+03  0.10033863758E+03  0.50400001928E-02 0.  1.
    10030    2    1    2    0    0  0.00000000000E+00  0.00000000000E+00  0.11085718785E+04  0.13092491535E+04  0.69656423699E+03 0.  0.
        1    1    3    3  502    0 -0.23362469706E+03 -0.16547220356E+03  0.92708271776E+03  0.97028032796E+03  0.50400001928E-02 0. -1.
       -1    1    3    3    0  502  0.23362469706E+03  0.16547220356E+03  0.18148916074E+03  0.33896882559E+03  0.50400001928E-02 0.  1.
</event>
<event>
 5   0  0.1973067E-02  0.7078372E+03  0.7818609E-02  0.9703923E-01
       -2   -1    0    0    0  501  0.00000000000E+00  0.00000000000E+00  0.11125280404E+03  0.11125280407E+03  0.25500000920E-02 0. -1.
        2   -1    0    0  501    0  0.00000000000E+00  0.00000000000E+00 -0.11258895684E+04  0.11258895684E+04  0.25500000920E-02 0.  1.
    10030    2    1    2    0    0  0.00000000000E+00  0.00000000000E+00 -0.10146367643E+04  0.12371423725E+04  0.70783718904E+03 0.  0.
        5    1    3    3  502    0  0.16172080962E+03  0.30520077643E+03 -0.64196704921E+03  0.72900268618E+03  0.46999998093E+01 0.  1.
       -5    1    3    3    0  502 -0.16172080962E+03 -0.30520077643E+03 -0.37266971514E+03  0.50813968628E+03  0.46999998093E+01 0. -1.
</event>
<event>
 5   0  0.1226303E-02  0.7005797E+03  0.7818609E-02  0.9716241E-01
        1   -1    0    0  501    0  0.00000000000E+00  0.00000000000E+00  0.25543276498E+03  0.25543276503E+03  0.50400001928E-02 0. -1.
       -1   -1    0    0    0  501  0.00000000000E+00  0.00000000000E+00 -0.48037284387E+03  0.48037284390E+03  0.50400001928E-02 0.  1.
    10030    2    1    2    0    0  0.00000000000E+00  0.00000000000E+00 -0.22494007889E+03  0.73580560893E+03  0.70057965646E+03 0.  0.
        4    1    3    3  502    0  0.31872242569E+03  0.14497650486E+03 -0.12292966193E+03  0.37110037225E+03  0.12699999809E+01 0.  1.
       -4    1    3    3    0  502 -0.31872242569E+03 -0.14497650486E+03 -0.10201041696E+03  0.36470523669E+03  0.12699999809E+01 0. -1.
</event>
<event>
 5   0  0.2026361E-02  0.7023182E+03  0.7818609E-02  0.9713276E-01
        2   -1    0    0  501    0  0.00000000000E+00  0.00000000000E+00  0.96380272039E+03  0.96380272039E+03  0.25500000920E-02 0.  1.
       -2   -1    0    0    0  501  0.00000000000E+00  0.00000000000E+00 -0.12794393382E+03  0.12794393384E+03  0.25500000920E-02 0. -1.
    10030    2    1    2    0    0  0.00000000000E+00  0.00000000000E+00  0.83585878657E+03  0.10917466542E+04  0.70231819423E+03 0.  0.
        2    1    3    3  502    0 -0.12224370033E+03  0.31016305859E+02  0.92738295554E+03  0.93591916304E+03  0.25500000920E-02 0.  1.
       -2    1    3    3    0  502  0.12224370033E+03 -0.31016305859E+02 -0.91524168973E+02  0.15582749120E+03  0.25500000920E-02 0. -1.
</event>
<event>
 5   0  0.1197259E-02  0.6953936E+03  0.7818609E-02  0.9725142E-01
       -1   -1    0    0    0  501  0.00000000000E+00  0.00000000000E+00  0.20920305527E+03  0.20920305533E+03  0.50400001928E-02 0.  1.
        1   -1    0    0  501    0  0.00000000000E+00  0.00000000000E+00 -0.57787431326E+03  0.57787431328E+03  0.50400001928E-02 0. -1.
    10030    2    1    2    0    0  0.00000000000E+00  0.00000000000E+00 -0.36867125799E+03  0.78707736861E+03  0.69539362069E+03 0.  0.
        3    1    3    3  502    0  0.32129432830E+02  0.17442452790E+03  0.15415368195E+03  0.23498847684E+03  0.10100000352E+00 0.  1.
       -3    1    3    3    0  502 -0.32129432830E+02 -0.17442452790E+03 -0.52282493994E+03  0.55208889177E+03  0.10100000352E+00 0. -1.
</event>
<event>
 5   0  0.1237686E-02  0.7278865E+03  0.7818609E-02  0.9670696E-01
       -1   -1    0    0    0  501  0.00000000000E+00  0.00000000000E+00  0.52960325802E+03  0.52960325804E+03  0.50400001928E-02 0.  1.
        1   -1    0    0  501    0  0.00000000000E+00  0.00000000000E+00 -0.25010176032E+03  0.25010176037E+03  0.50400001928E-02 0. -1.
    10030    2    1    2    0    0  0.00000000000E+00  0.00000000000E+00  0.27950149770E+03  0.77970501842E+03  0.72788654921E+03 0.  0.
        5    1    3    3  502    0  0.11578524178E+03  0.22978403865E+02 -0.22899146303E+03  0.25766918596E+03  0.46999998093E+01 0. -1.
       -5    1    3    3    0  502 -0.11578524178E+03 -0.22978403865E+02  0.50849296072E+03  0.52203583245E+03  0.46999998093E+01 0.  1.
</event>
<event>
 5   0  0.7947250E-03  0.6964333E+03  0.7818609E-02  0.9723351E-01
       -4   -1    0    0    0  501  0.00000000000E+00  0.00000000000E+00  0.37920575390E+03  0.37920788058E+03  0.12699999809E+01 0.  1.
        4   -1    0    0  501    0  0.00000000000E+00  0.00000000000E+00 -0.31975574068E+03  0.31975826275E+03  0.12699999809E+01 0. -1.
    10030    2    1    2    0    0  0.00000000000E+00  0.00000000000E+00  0.59450013221E+02  0.69896614332E+03  0.69643331730E+03 0.  0.
        3    1    3    3  502    0 -0.17282526763E+03  0.28234120208E+03  0.13814428531E+03  0.35870458777E+03  0.10100000352E+00 0.  1.
       -3    1    3    3    0  502  0.17282526763E+03 -0.28234120208E+03 -0.78694272086E+02  0.34026155555E+03  0.10100000352E+00 0. -1.
</event>
<event>
 5   0  0.1237686E-02  0.7041697E+03  0.7818609E-02  0.9710128E-01
        1   -1    0    0  501    0  0.00000000000E+00  0.00000000000E+00  0.13606057611E+04  0.13606057612E+04  0.50400001928E-02 0.  1.
       -1   -1    0    0    0  501  0.00000000000E+00  0.00000000000E+00 -0.91109237666E+02  0.91109237806E+02  0.50400001928E-02 0. -1.
    10030    2    1    2    0    0  0.00000000000E+00  0.00000000000E+00  0.12694965235E+04  0.14517149990E+04  0.70416973457E+03 0.  0.
        5    1    3    3  502    0  0.80141326830E+02  0.16255127035E+03  0.12569825500E+04  0.12699892790E+04  0.46999998093E+01 0.  1.
       -5    1    3    3    0  502 -0.80141326830E+02 -0.16255127035E+03  0.12513973456E+02  0.18172571994E+03  0.46999998093E+01 0. -1.
</event>
<event>
 5   0  0.2026361E-02  0.6989655E+03  0.7818609E-02  0.9719003E-01
        2   -1    0    0  501    0  0.00000000000E+00  0.00000000000E+00  0.56615361375E+03  0.56615361376E+03  0.25500000920E-02 0. -1.
       -2   -1    0    0    0  501  0.00000000000E+00  0.00000000000E+00 -0.21573329075E+03  0.21573329077E+03  0.25500000920E-02 0.  1.
    10030    2    1    2    0    0  0.00000000000E+00  0.00000000000E+00  0.35042032300E+03  0.78188690453E+03  0.69896547032E+03 0.  0.
        2    1    3    3  502    0 -0.19758484610E+03  0.24165978382E+03 -0.59335105629E+00  0.31215312684E+03  0.25500000920E-02 0.  1.
       -2    1    3    3    0  502  0.19758484610E+03 -0.24165978382E+03  0.35101367406E+03  0.46973377769E+03  0.25500000920E-02 0. -1.
</event>
<event>
 5   0  0.2026361E-02  0.6946486E+03  0.7818609E-02  0.9726428E-01
        2   -1    0    0  501    0  0.00000000000E+00  0.00000000000E+00  0.17441206879E+03  0.17441206881E+03  0.25500000920E-02 0.  1.
       -2   -1    0    0    0  501  0.00000000000E+00  0.00000000000E+00 -0.69166175211E+03  0.69166175211E+03  0.25500000920E-02 0. -1.
    10030    2    1    2    0    0  0.00000000000E+00  0.00000000000E+00 -0.51724968332E+03  0.86607382092E+03  0.69464856466E+03 0.  0.
        2    1    3    3  502    0 -0.10900936994E+03 -0.22135159228E+03  0.46147388454E+02  0.25101623774E+03  0.25500000920E-02 0.  1.
       -2    1    3    3    0  502  0.10900936994E+03  0.22135159228E+03 -0.56339707177E+03  0.61505758318E+03  0.25500000920E-02 0. -1.
</event>
<event>
 5   0  0.1223742E-02  0.6981498E+03  0.7818609E-02  0.9720402E-01
        1   -1    0    0  501    0  0.00000000000E+00  0.00000000000E+00  0.12276627038E+04  0.12276627038E+04  0.50400001928E-02 0. -1.
       -1   -1    0    0    0  501  0.00000000000E+00  0.00000000000E+00 -0.99256314728E+02  0.99256314856E+02  0.50400001928E-02 0.  1.
    10030    2    1    2    0    0  0.00000000000E+00  0.00000000000E+00  0.11284063890E+04  0.13269190186E+04  0.69814977131E+03 0.  0.
        2    1    3    3  502    0 -0.44714536268E+02 -0.11979005842E+03 -0.53145807789E+02  0.13846849729E+03  0.25500000920E-02 0.  1.
       -2    1    3    3    0  502  0.44714536268E+02  0.11979005842E+03  0.11815521968E+04  0.11884505213E+04  0.25500000920E-02 0. -1.
</event>
<event>
 5   0  0.2006362E-02  0.6757595E+03  0.7818609E-02  0.9759609E-01
        2   -1    0    0  501    0  0.00000000000E+00  0.00000000000E+00  0.61179653032E+03  0.61179653033E+03  0.25500000920E-02 0. -1.
       -2   -1    0    0    0  501  0.00000000000E+00  0.00000000000E+00 -0.18660245335E+03  0.18660245337E+03  0.25500000920E-02 0.  1.
    10030    2    1    2    0    0  0.00000000000E+00  0.00000000000E+00  0.42519407697E+03  0.79839898370E+03  0.67575952386E+03 0.  0.
        4    1    3    3  502    0  0.94964113624E+02 -0.17198316902E+03 -0.11218152759E+03  0.22623594174E+03  0.12699999809E+01 0.  1.
       -4    1    3    3    0  502 -0.94964113624E+02  0.17198316902E+03  0.53737560456E+03  0.57216304196E+03  0.12699999809E+01 0. -1.
</event>
<event>
 5   0  0.1237686E-02  0.6942793E+03  0.7818609E-02  0.9727066E-01
        1   -1    0    0  501    0  0.00000000000E+00  0.00000000000E+00  0.11525368584E+04  0.11525368584E+04  0.50400001928E-02 0. -1.
       -1   -1    0    0    0  501  0.00000000000E+00  0.00000000000E+00 -0.10455712823E+03  0.10455712836E+03  0.50400001928E-02 0.  1.
    10030    2    1    2    0    0  0.00000000000E+00  0.00000000000E+00  0.10479797302E+04  0.12570939868E+04  0.69427932183E+03 0.  0.
        5    1    3    3  502    0  0.34078093101E+03 -0.63068660509E+02  0.55903207571E+03  0.65776002504E+03  0.46999998093E+01 0. -1.
       -5    1    3    3    0  502 -0.34078093101E+03  0.63068660509E+02  0.48894765445E+03  0.59933396172E+03  0.46999998093E+01 0.  1.
</event>
<event>
 5   0  0.1237686E-02  0.6985586E+03  0.7818609E-02  0.9719700E-01
       -1   -1    0    0    0  501  0.00000000000E+00  0.00000000000E+00  0.31634163614E+03  0.31634163618E+03  0.50400001928E-02 0.  1.
        1   -1    0    0  501    0  0.00000000000E+00  0.00000000000E+00 -0.38564644262E+03  0.38564644265E+03  0.50400001928E-02 0. -1.
    10030    2    1    2    0    0  0.00000000000E+00  0.00000000000E+00 -0.69304806480E+02  0.70198807883E+03  0.69855859212E+03 0.  0.
        5    1    3    3  502    0  0.34693682916E+03  0.40101388183E+02 -0.35463766557E+02  0.35107414245E+03  0.46999998093E+01 0. -1.
       -5    1    3    3    0  502 -0.34693682916E+03 -0.40101388183E+02 -0.33841039923E+02  0.35091393638E+03  0.46999998093E+01 0.  1.
</event>
<event>
 5   0  0.1197259E-02  0.6924606E+03  0.7818609E-02  0.9730213E-01
        1   -1    0    0  501    0  0.00000000000E+00  0.00000000000E+00  0.86936315748E+03  0.86936315749E+03  0.50400001928E-02 0. -1.
       -1   -1    0    0    0  501  0.00000000000E+00  0.00000000000E+00 -0.13788876628E+03  0.13788876637E+03  0.50400001928E-02 0.  1.
    10030    2    1    2    0    0  0.00000000000E+00  0.00000000000E+00  0.73147439120E+03  0.10072519239E+04  0.69246057877E+03 0.  0.
        3    1    3    3  502    0  0.13810528475E+03  0.96242756905E+02  0.80583348906E+03  0.82322740493E+03  0.10100000352E+00 0. -1.
       -3    1    3    3    0  502 -0.13810528475E+03 -0.96242756905E+02 -0.74359097866E+02  0.18402451893E+03  0.10100000352E+00 0.  1.
</event>
<event>
 5   0  0.2026361E-02  0.7016611E+03  0.7818609E-02  0.9714396E-01
       -2   -1    0    0    0  501  0.00000000000E+00  0.00000000000E+00  0.82302646417E+02  0.82302646456E+02  0.25500000920E-02 0.  1.
        2   -1    0    0  501    0  0.00000000000E+00  0.00000000000E+00 -0.14954813751E+04  0.14954813751E+04  0.25500000920E-02 0. -1.
    10030    2    1    2    0    0  0.00000000000E+00  0.00000000000E+00 -0.14131787287E+04  0.15777840216E+04  0.70166110017E+03 0.  0.
        2    1    3    3  502    0 -0.10565726757E+03 -0.33395346926E+03 -0.75120645318E+03  0.82885433770E+03  0.25500000920E-02 0.  1.
       -2    1    3    3    0  502  0.10565726757E+03  0.33395346926E+03 -0.66197227553E+03  0.74892968389E+03  0.25500000920E-02 0. -1.
</event>
<event>
 5   0  0.1226303E-02  0.6997427E+03  0.7818609E-02  0.9717672E-01
       -1   -1    0    0    0  501  0.00000000000E+00  0.00000000000E+00  0.28653919179E+03  0.28653919183E+03  0.50400001928E-02 0.  1.
        1   -1    0    0  501    0  0.00000000000E+00  0.00000000000E+00 -0.42720146852E+03  0.42720146855E+03  0.50400001928E-02 0. -1.
    10030    2    1    2    0    0  0.00000000000E+00  0.00000000000E+00 -0.14066227674E+03  0.71374066039E+03  0.69974270571E+03 0.  0.
        4    1    3    3  502    0 -0.73660880128E+01  0.13862351414E+03  0.25724374554E+03  0.29231266726E+03  0.12699999809E+01 0.  1.
       -4    1    3    3    0  502  0.73660880128E+01 -0.13862351414E+03 -0.39790602227E+03  0.42142799312E+03  0.12699999809E+01 0. -1.
</event>
<event>
 5   0  0.2026361E-02  0.7305662E+03  0.7818609E-02  0.9666342E-01
       -2   -1    0    0    0  501  0.00000000000E+00  0.00000000000E+00  0.17011315812E+03  0.17011315814E+03  0.25500000920E-02 0.  1.
        2   -1    0    0  501    0  0.00000000000E+00  0.00000000000E+00 -0.78437050480E+03  0.78437050481E+03  0.25500000920E-02 0. -1.
    10030    2    1    2    0    0  0.00000000000E+00  0.00000000000E+00 -0.61425734668E+03  0.95448366295E+03  0.73056620157E+03 0.  0.
        2    1    3    3  502    0 -0.29052883339E+03  0.13737521139E+03 -0.80260962622E+02  0.33124126232E+03  0.25500000920E-02 0.  1.
       -2    1    3    3    0  502  0.29052883339E+03 -0.13737521139E+03 -0.53399638406E+03  0.62324240062E+03  0.25500000920E-02 0. -1.
</event>
<event>
 5   0  0.2026361E-02  0.6992525E+03  0.7818609E-02  0.9718511E-01
       -2   -1    0    0    0  501  0.00000000000E+00  0.00000000000E+00  0.13929625888E+03  0.13929625890E+03  0.25500000920E-02 0.  1.
        2   -1    0    0  501    0  0.00000000000E+00  0.00000000000E+00 -0.87754349264E+03  0.87754349265E+03  0.25500000920E-02 0. -1.
    10030    2    1    2    0    0  0.00000000000E+00  0.00000000000E+00 -0.73824723376E+03  0.10168397516E+04  0.69925253105E+03 0.  0.
        2    1    3    3  502    0  0.17155127217E+03  0.20881644338E+03 -0.69169092403E+03  0.74261058463E+03  0.25500000920E-02 0. -1.
       -2    1    3    3    0  502 -0.17155127217E+03 -0.20881644338E+03 -0.46556309734E+02  0.27422916693E+03  0.25500000920E-02 0.  1.
</event>
<event>
 5   0  0.1197259E-02  0.7016164E+03  0.7818609E-02  0.9714472E-01
        1   -1    0    0  501    0  0.00000000000E+00  0.00000000000E+00  0.13729492633E+04  0.13729492634E+04  0.50400001928E-02 0.  1.
       -1   -1    0    0    0  501  0.00000000000E+00  0.00000000000E+00 -0.89636508653E+02  0.89636508794E+02  0.50400001928E-02 0. -1.
    10030    2    1    2    0    0  0.00000000000E+00  0.00000000000E+00  0.12833127547E+04  0.14625857721E+04  0.70161635851E+03 0.  0.
        3    1    3    3  502    0  0.29118160573E+03  0.56768001741E+01  0.10493394517E+04  0.10890051647E+04  0.10100000352E+00 0.  1.
       -3    1    3    3    0  502 -0.29118160573E+03 -0.56768001741E+01  0.23397330299E+03  0.37358060749E+03  0.10100000352E+00 0. -1.
</event>
<event>
 5   0  0.1257442E-02  0.6990631E+03  0.7818609E-02  0.9718836E-01
        1   -1    0    0  501    0  0.00000000000E+00  0.00000000000E+00  0.40059921888E+03  0.40059921892E+03  0.50400001928E-02 0. -1.
       -1   -1    0    0    0  501  0.00000000000E+00  0.00000000000E+00 -0.30497389904E+03  0.30497389909E+03  0.50400001928E-02 0.  1.
    10030    2    1    2    0    0  0.00000000000E+00  0.00000000000E+00  0.95625319841E+02  0.70557311800E+03  0.69906310377E+03 0.  0.
        1    1    3    3  502    0  0.34331028668E+03 -0.57841872927E+02  0.16464276361E+02  0.34853795722E+03  0.50400001928E-02 0.  1.
       -1    1    3    3    0  502 -0.34331028668E+03  0.57841872927E+02  0.79161043480E+02  0.35703516078E+03  0.50400001928E-02 0. -1.
</event>
<event>
 5   0  0.1197259E-02  0.7008311E+03  0.7818609E-02  0.9715812E-01
        1   -1    0    0  501    0  0.00000000000E+00  0.00000000000E+00  0.39409350306E+03  0.39409350309E+03  0.50400001928E-02 0. -1.
       -1   -1    0    0    0  501  0.00000000000E+00  0.00000000000E+00 -0.31157848855E+03  0.31157848859E+03  0.50400001928E-02 0.  1.
    10030    2    1    2    0    0  0.00000000000E+00  0.00000000000E+00  0.82515014515E+02  0.70567199168E+03  0.70083110107E+03 0.  0.
        3    1    3    3  502    0 -0.70373880330E+02 -0.18483938103E+03 -0.25000333518E+03  0.31877854008E+03  0.10100000352E+00 0.  1.
       -3    1    3    3    0  502  0.70373880330E+02  0.18483938103E+03  0.33251834969E+03  0.38689345161E+03  0.10100000352E+00 0. -1.
</event>
<event>
 5   0  0.1237686E-02  0.6969004E+03  0.7818609E-02  0.9722548E-01
       -1   -1    0    0    0  501  0.00000000000E+00  0.00000000000E+00  0.48019035247E+03  0.48019035249E+03  0.50400001928E-02 0. -1.
        1   -1    0    0  501    0  0.00000000000E+00  0.00000000000E+00 -0.25285296377E+03  0.25285296382E+03  0.50400001928E-02 0.  1.
    10030    2    1    2    0    0  0.00000000000E+00  0.00000000000E+00  0.22733738870E+03  0.73304331631E+03  0.69690043427E+03 0.  0.
        5    1    3    3  502    0 -0.24536281125E+03 -0.24019536335E+03  0.17588652563E+03  0.38581716086E+03  0.46999998093E+01 0. -1.
       -5    1    3    3    0  502  0.24536281125E+03  0.24019536335E+03  0.51450863072E+02  0.34722615545E+03  0.46999998093E+01 0.  1.
</event>
<event>
 5   0  0.1226303E-02  0.6995162E+03  0.7818609E-02  0.9718060E-01
       -1   -1    0    0    0  501  0.00000000000E+00  0.00000000000E+00  0.10228825350E+03  0.10228825362E+03  0.50400001928E-02 0. -1.
        1   -1    0    0  501    0  0.00000000000E+00  0.00000000000E+00 -0.11959410777E+04  0.11959410777E+04  0.50400001928E-02 0.  1.
    10030    2    1    2    0    0  0.00000000000E+00  0.00000000000E+00 -0.10936528242E+04  0.12982293313E+04  0.69951618770E+03 0.  0.
        4    1    3    3  502    0 -0.30074124906E+03 -0.35346097300E+01 -0.87815099991E+03  0.92822873468E+03  0.12699999809E+01 0.  1.
       -4    1    3    3    0  502  0.30074124906E+03  0.35346097300E+01 -0.21550182430E+03  0.37000059666E+03  0.12699999809E+01 0. -1.
</event>
<event>
 5   0  0.1226303E-02  0.7022314E+03  0.7818609E-02  0.9713424E-01
        1   -1    0    0  501    0  0.00000000000E+00  0.00000000000E+00  0.98937388628E+03  0.98937388629E+03  0.50400001928E-02 0. -1.
       -1   -1    0    0    0  501  0.00000000000E+00  0.00000000000E+00 -0.12460631712E+03  0.12460631722E+03  0.50400001928E-02 0.  1.
    10030    2    1    2    0    0  0.00000000000E+00  0.00000000000E+00  0.86476756915E+03  0.11139802035E+04  0.70223140428E+03 0.  0.
        4    1    3    3  502    0  0.19273731347E+03  0.14687460619E+03  0.29312664640E+02  0.24409151390E+03  0.12699999809E+01 0.  1.
       -4    1    3    3    0  502 -0.19273731347E+03 -0.14687460619E+03  0.83545490451E+03  0.86988868962E+03  0.12699999809E+01 0. -1.
</event>
<event>
 5   0  0.1909053E-02  0.6953430E+03  0.7818609E-02  0.9725230E-01
        2   -1    0    0  501    0  0.00000000000E+00  0.00000000000E+00  0.20199388879E+04  0.20199388879E+04  0.25500000920E-02 0. -1.
       -2   -1    0    0    0  501  0.00000000000E+00  0.00000000000E+00 -0.59841160733E+02  0.59841160787E+02  0.25500000920E-02 0.  1.
    10030    2    1    2    0    0  0.00000000000E+00  0.00000000000E+00  0.19600977271E+04  0.20797800487E+04  0.69534304546E+03 0.  0.
        1    1    3    3  502    0 -0.27745945067E+03 -0.15502644961E+03  0.14015434098E+04  0.14371293875E+04  0.50400001928E-02 0. -1.
       -1    1    3    3    0  502  0.27745945067E+03  0.15502644961E+03  0.55855431732E+03  0.64265066114E+03  0.50400001928E-02 0.  1.
</event>
<event>
 5   0  0.1948138E-02  0.6940252E+03  0.7818609E-02  0.9727505E-01
        2   -1    0    0  501    0  0.00000000000E+00  0.00000000000E+00  0.86220952055E+03  0.86220952056E+03  0.25500000920E-02 0.  1.
       -2   -1    0    0    0  501  0.00000000000E+00  0.00000000000E+00 -0.13966181838E+03  0.13966181840E+03  0.25500000920E-02 0. -1.
    10030    2    1    2    0    0  0.00000000000E+00  0.00000000000E+00  0.72254770217E+03  0.10018713390E+04  0.69402521418E+03 0.  0.
        3    1    3    3  502    0  0.51027366424E+01  0.31516277620E+03  0.57078562037E+03  0.65203515859E+03  0.10100000352E+00 0.  1.
       -3    1    3    3    0  502 -0.51027366424E+01 -0.31516277620E+03  0.15176208180E+03  0.34983618037E+03  0.10100000352E+00 0. -1.
</event>
<event>
 5   0  0.1237686E-02  0.7380796E+03  0.7818609E-02  0.9654239E-01
       -1   -1    0    0    0  501  0.00000000000E+00  0.00000000000E+00  0.29450732679E+03  0.29450732683E+03  0.50400001928E-02 0.  1.
        1   -1    0    0  501    0  0.00000000000E+00  0.00000000000E+00 -0.46243456632E+03  0.46243456634E+03  0.50400001928E-02 0. -1.
    10030    2    1    2    0    0  0.00000000000E+00  0.00000000000E+00 -0.16792723953E+03  0.75694189317E+03  0.73807958369E+03 0.  0.
        5    1    3    3  502    0  0.21874298442E+03  0.27208306352E+03  0.38634680452E+02  0.35127256543E+03  0.46999998093E+01 0.  1.
       -5    1    3    3    0  502 -0.21874298442E+03 -0.27208306352E+03 -0.20656191998E+03  0.40566932775E+03  0.46999998093E+01 0. -1.
</event>
<event>
 5   0  0.2026361E-02  0.6908934E+03  0.7818609E-02  0.9732934E-01
       -2   -1    0    0    0  501  0.00000000000E+00  0.00000000000E+00  0.68270870245E+02  0.68270870292E+02  0.25500000920E-02 0. -1.
        2   -1    0    0  501    0  0.00000000000E+00  0.00000000000E+00 -0.17479404266E+04  0.17479404266E+04  0.25500000920E-02 0.  1.
    10030    2    1    2    0    0  0.00000000000E+00  0.00000000000E+00 -0.16796695564E+04  0.18162112969E+04  0.69089337558E+03 0.  0.
        2    1    3    3  502    0  0.23156655605E+03 -0.21856163635E+03 -0.48772300430E+03  0.58246543906E+03  0.25500000920E-02 0. -1.
       -2    1    3    3    0  502 -0.23156655605E+03  0.21856163635E+03 -0.11919465521E+04  0.12337458579E+04  0.25500000920E-02 0.  1.
</event>
<event>
 5   0  0.2006362E-02  0.7083117E+03  0.7818609E-02  0.9703123E-01
        2   -1    0    0  501    0  0.00000000000E+00  0.00000000000E+00  0.48935590455E+03  0.48935590456E+03  0.25500000920E-02 0. -1.
       -2   -1    0    0    0  501  0.00000000000E+00  0.00000000000E+00 -0.25630911648E+03  0.25630911649E+03  0.25500000920E-02 0.  1.
    10030    2    1    2    0    0  0.00000000000E+00  0.00000000000E+00  0.23304678807E+03  0.74566502105E+03  0.70831173800E+03 0.  0.
        4    1    3    3  502    0  0.22506990903E+03  0.27224365399E+03  0.14339797570E+03  0.38123177127E+03  0.12699999809E+01 0.  1.
       -4    1    3    3    0  502 -0.22506990903E+03 -0.27224365399E+03  0.89648812380E+02  0.36443324979E+03  0.12699999809E+01 0. -1.
</event>
<event>
 5   0  0.1226303E-02  0.7091023E+03  0.7818609E-02  0.9701792E-01
        1   -1    0    0  501    0  0.00000000000E+00  0.00000000000E+00  0.71139285708E+03  0.71139285710E+03  0.50400001928E-02 0. -1.
       -1   -1    0    0    0  501  0.00000000000E+00  0.00000000000E+00 -0.17670475935E+03  0.17670475942E+03  0.50400001928E-02 0.  1.
    10030    2    1    2    0    0  0.00000000000E+00  0.00000000000E+00  0.53468809773E+03  0.88809761653E+03  0.70910225964E+03 0.  0.
        4    1    3    3  502    0 -0.30791847369E+03  0.14650861581E+03  0.14574696756E+03  0.37084006310E+03  0.12699999809E+01 0.  1.
       -4    1    3    3    0  502  0.30791847369E+03 -0.14650861581E+03  0.38894113017E+03  0.51725755343E+03  0.12699999809E+01 0. -1.
</event>
<event>
 5   0  0.1973067E-02  0.6973049E+03  0.7818609E-02  0.9721852E-01
        2   -1    0    0  501    0  0.00000000000E+00  0.00000000000E+00  0.10507698384E+04  0.10507698384E+04  0.25500000920E-02 0.  1.
       -2   -1    0    0    0  501  0.00000000000E+00  0.00000000000E+00 -0.11568519723E+03  0.11568519726E+03  0.25500000920E-02 0. -1.
    10030    2    1    2    0    0  0.00000000000E+00  0.00000000000E+00  0.93508464115E+03  0.11664550357E+04  0.69730485735E+03 0.  0.
        5    1    3    3  502    0 -0.14408804338E+03 -0.79044641296E+02  0.98185030210E+03  0.99552073072E+03  0.46999998093E+01 0.  1.
       -5    1    3    3    0  502  0.14408804338E+03  0.79044641296E+02 -0.46765660947E+02  0.17093430493E+03  0.46999998093E+01 0. -1.
</event>
<event>
 5   0  0.1909053E-02  0.7009843E+03  0.7818609E-02  0.9715550E-01
        2   -1    0    0  501    0  0.00000000000E+00  0.00000000000E+00  0.11954211239E+04  0.11954211239E+04  0.25500000920E-02 0.  1.
       -2   -1    0    0    0  501  0.00000000000E+00  0.00000000000E+00 -0.10276274264E+03  0.10276274267E+03  0.25500000920E-02 0. -1.
    10030    2    1    2    0    0  0.00000000000E+00  0.00000000000E+00  0.10926583812E+04  0.12981838665E+04  0.70098431743E+03 0.  0.
        1    1    3    3  502    0  0.15901798648E+03  0.12880190100E+03  0.10732979741E+04  0.10926322304E+04  0.50400001928E-02 0.  1.
       -1    1    3    3    0  502 -0.15901798648E+03 -0.12880190100E+03  0.19360407128E+02  0.20555163612E+03  0.50400001928E-02 0. -1.
</event>
<event>
 5   0  0.1226303E-02  0.7001054E+03  0.7818609E-02  0.9717052E-01
       -1   -1    0    0    0  501  0.00000000000E+00  0.00000000000E+00  0.60856432837E+02  0.60856433046E+02  0.50400001928E-02 0.  1.
        1   -1    0    0  501    0  0.00000000000E+00  0.00000000000E+00 -0.20135404097E+04  0.20135404097E+04  0.50400001928E-02 0. -1.
    10030    2    1    2    0    0  0.00000000000E+00  0.00000000000E+00 -0.19526839769E+04  0.20743968428E+04  0.70010538330E+03 0.  0.
        4    1    3    3  502    0 -0.14680785478E+02 -0.21210888676E+03 -0.15239130229E+03  0.26159210083E+03  0.12699999809E+01 0.  1.
       -4    1    3    3    0  502  0.14680785478E+02  0.21210888676E+03 -0.18002926746E+04  0.18128047419E+04  0.12699999809E+01 0. -1.
</event>
<event>
 5   0  0.7947250E-03  0.6941146E+03  0.7818609E-02  0.9727350E-01
        3   -1    0    0  501    0  0.00000000000E+00  0.00000000000E+00  0.67892564075E+02  0.67892639201E+02  0.10100000352E+00 0. -1.
       -3   -1    0    0    0  501  0.00000000000E+00  0.00000000000E+00 -0.17741075864E+04  0.17741075893E+04  0.10100000352E+00 0.  1.
    10030    2    1    2    0    0  0.00000000000E+00  0.00000000000E+00 -0.17062150224E+04  0.18420002285E+04  0.69411464421E+03 0.  0.
        1    1    3    3  502    0 -0.19081541705E+03  0.24342220318E+02 -0.86522188485E+02  0.21092452726E+03  0.50400001928E-02 0. -1.
       -1    1    3    3    0  502  0.19081541705E+03 -0.24342220318E+02 -0.16196928339E+04  0.16310757013E+04  0.50400001928E-02 0.  1.
</event>
<event>
 5   0  0.1257442E-02  0.7207480E+03  0.7818609E-02  0.9682394E-01
       -1   -1    0    0    0  501  0.00000000000E+00  0.00000000000E+00  0.66243457882E+03  0.66243457884E+03  0.50400001928E-02 0.  1.
        1   -1    0    0  501    0  0.00000000000E+00  0.00000000000E+00 -0.19604869197E+03  0.19604869203E+03  0.50400001928E-02 0. -1.
    10030    2    1    2    0    0  0.00000000000E+00  0.00000000000E+00  0.46638588685E+03  0.85848327087E+03  0.72074803566E+03 0.  0.
        1    1    3    3  502    0 -0.13031133323E+03  0.32905384793E+03  0.31408220419E+03  0.47318612556E+03  0.50400001928E-02 0.  1.
       -1    1    3    3    0  502  0.13031133323E+03 -0.32905384793E+03  0.15230368266E+03  0.38529714531E+03  0.50400001928E-02 0. -1.
</event>
<event>
 5   0  0.2006362E-02  0.7013507E+03  0.7818609E-02  0.9714925E-01
        2   -1    0    0  501    0  0.00000000000E+00  0.00000000000E+00  0.74815791185E+03  0.74815791185E+03  0.25500000920E-02 0. -1.
       -2   -1    0    0    0  501  0.00000000000E+00  0.00000000000E+00 -0.16436796203E+03  0.16436796205E+03  0.25500000920E-02 0.  1.
    10030    2    1    2    0    0  0.00000000000E+00  0.00000000000E+00  0.58378994982E+03  0.91252587390E+03  0.70135067194E+03 0.  0.
        4    1    3    3  502    0  0.29456548990E+03  0.89509497601E+02  0.51035082181E+03  0.59602042936E+03  0.12699999809E+01 0. -1.
       -4    1    3    3    0  502 -0.29456548990E+03 -0.89509497601E+02  0.73439128007E+02  0.31650544454E+03  0.12699999809E+01 0.  1.
</event>
<event>
 5   0  0.1948138E-02  0.7003252E+03  0.7818609E-02  0.9716676E-01
       -2   -1    0    0    0  501  0.00000000000E+00  0.00000000000E+00  0.24294191356E+03  0.24294191357E+03  0.25500000920E-02 0.  1.
        2   -1    0    0  501    0  0.00000000000E+00  0.00000000000E+00 -0.50470437019E+03  0.50470437020E+03  0.25500000920E-02 0. -1.
    10030    2    1    2    0    0  0.00000000000E+00  0.00000000000E+00 -0.26176245663E+03  0.74764628377E+03  0.70032519727E+03 0.  0.
        3    1    3    3  502    0 -0.16646475045E+03 -0.16020942003E+03 -0.41178866638E+03  0.47217315401E+03  0.10100000352E+00 0. -1.
       -3    1    3    3    0  502  0.16646475045E+03  0.16020942003E+03  0.15002620975E+03  0.27547312976E+03  0.10100000352E+00 0.  1.
</event>
<event>
 5   0  0.2026361E-02  0.7169105E+03  0.7818609E-02  0.9688742E-01
       -2   -1    0    0    0  501  0.00000000000E+00  0.00000000000E+00  0.11375819069E+03  0.11375819071E+03  0.25500000920E-02 0.  1.
        2   -1    0    0  501    0  0.00000000000E+00  0.00000000000E+00 -0.11295025192E+04  0.11295025192E+04  0.25500000920E-02 0. -1.
    10030    2    1    2    0    0  0.00000000000E+00  0.00000000000E+00 -0.10157443286E+04  0.12432607100E+04  0.71691049088E+03 0.  0.
        2    1    3    3  502    0  0.17125100608E+03  0.31161762817E+03 -0.42920575507E+03  0.55735987787E+03  0.25500000920E-02 0.  1.
       -2    1    3    3    0  502 -0.17125100608E+03 -0.31161762817E+03 -0.58653857349E+03  0.68590083209E+03  0.25500000920E-02 0. -1.
</event>
<event>
 5   0  0.2026361E-02  0.6983665E+03  0.7818609E-02  0.9720030E-01
       -2   -1    0    0    0  501  0.00000000000E+00  0.00000000000E+00  0.11717517039E+03  0.11717517042E+03  0.25500000920E-02 0.  1.
        2   -1    0    0  501    0  0.00000000000E+00  0.00000000000E+00 -0.10405698247E+04  0.10405698247E+04  0.25500000920E-02 0. -1.
    10030    2    1    2    0    0  0.00000000000E+00  0.00000000000E+00 -0.92339465429E+03  0.11577449951E+04  0.69836651273E+03 0.  0.
        2    1    3    3  502    0  0.51520578947E+01 -0.33943654560E+03 -0.59724367586E+03  0.68698160131E+03  0.25500000920E-02 0.  1.
       -2    1    3    3    0  502 -0.51520578947E+01  0.33943654560E+03 -0.32615097843E+03  0.47076339378E+03  0.25500000920E-02 0. -1.
</event>
<event>
 5   0  0.2006362E-02  0.7006766E+03  0.7818609E-02  0.9716076E-01
        2   -1    0    0  501    0  0.00000000000E+00  0.00000000000E+00  0.17446504684E+03  0.17446504685E+03  0.25500000920E-02 0. -1.
       -2   -1    0    0    0  501  0.00000000000E+00  0.00000000000E+00 -0.70350433640E+03  0.70350433640E+03  0.25500000920E-02 0.  1.
    10030    2    1    2    0    0  0.00000000000E+00  0.00000000000E+00 -0.52903928956E+03  0.87796938326E+03  0.70067657877E+03 0.  0.
        4    1    3    3  502    0 -0.34863429426E+03  0.55217609596E+01 -0.22186239678E+03  0.41328065159E+03  0.12699999809E+01 0. -1.
       -4    1    3    3    0  502  0.34863429426E+03 -0.55217609596E+01 -0.30717689278E+03  0.46468873166E+03  0.12699999809E+01 0.  1.
</event>
<event>
 5   0  0.1973067E-02  0.7007243E+03  0.7818609E-02  0.9715994E-01
        2   -1    0    0  501    0  0.00000000000E+00  0.00000000000E+00  0.65259756671E+03  0.65259756671E+03  0.25500000920E-02 0. -1.
       -2   -1    0    0    0  501  0.00000000000E+00  0.00000000000E+00 -0.18810006041E+03  0.18810006043E+03  0.25500000920E-02 0.  1.
    10030    2    1    2    0    0  0.00000000000E+00  0.00000000000E+00  0.46449750630E+03  0.84069762714E+03  0.70072431592E+03 0.  0.
        5    1    3    3  502    0  0.33971047271E+03 -0.15249129912E+02  0.13118541530E+03  0.36450986875E+03  0.46999998093E+01 0.  1.
       -5    1    3    3    0  502 -0.33971047271E+03  0.15249129912E+02  0.33331209100E+03  0.47618775839E+03  0.46999998093E+01 0. -1.
</event>
<event>
 5   0  0.1973067E-02  0.7017570E+03  0.7818609E-02  0.9714232E-01
       -2   -1    0    0    0  501  0.00000000000E+00  0.00000000000E+00  0.97320498357E+02  0.97320498391E+02  0.25500000920E-02 0.  1.
        2   -1    0    0  501    0  0.00000000000E+00  0.00000000000E+00 -0.12650543230E+04  0.12650543230E+04  0.25500000920E-02 0. -1.
    10030    2    1    2    0    0  0.00000000000E+00  0.00000000000E+00 -0.11677338246E+04  0.13623748214E+04  0.70175698695E+03 0.  0.
        5    1    3    3  502    0  0.11121529528E+02  0.85798855878E+02 -0.12439593195E+04  0.12469731395E+04  0.46999998093E+01 0. -1.
       -5    1    3    3    0  502 -0.11121529528E+02 -0.85798855878E+02  0.76225494931E+02  0.11540168181E+03  0.46999998093E+01 0.  1.
</event>
<event>
 5   0  0.1948138E-02  0.7025267E+03  0.7818609E-02  0.9712921E-01
        2   -1    0    0  501    0  0.00000000000E+00  0.00000000000E+00  0.48200975248E+03  0.48200975248E+03  0.25500000920E-02 0.  1.
       -2   -1    0    0    0  501  0.00000000000E+00  0.00000000000E+00 -0.25598221487E+03  0.25598221488E+03  0.25500000920E-02 0. -1.
    10030    2    1    2    0    0  0.00000000000E+00  0.00000000000E+00  0.22602753760E+03  0.73799196737E+03  0.70252665155E+03 0.  0.
        3    1    3    3  502    0 -0.14191909280E+03  0.27340672115E+03  0.29033587090E+03  0.42330508171E+03  0.10100000352E+00 0.  1.
       -3    1    3    3    0  502  0.14191909280E+03 -0.27340672115E+03 -0.64308333291E+02  0.31468688566E+03  0.10100000352E+00 0. -1.
</event>
<event>
 5   0  0.1226303E-02  0.7037079E+03  0.7818609E-02  0.9710912E-01
        1   -1    0    0  501    0  0.00000000000E+00  0.00000000000E+00  0.19929652090E+03  0.19929652097E+03  0.50400001928E-02 0.  1.
       -1   -1    0    0    0  501  0.00000000000E+00  0.00000000000E+00 -0.62119100870E+03  0.62119100872E+03  0.50400001928E-02 0. -1.
    10030    2    1    2    0    0  0.00000000000E+00  0.00000000000E+00 -0.42189448780E+03  0.82048752968E+03  0.70370791351E+03 0.  0.
        4    1    3    3  502    0  0.35080654728E+03  0.65468714746E+01 -0.24160746474E+03  0.42600924293E+03  0.12699999809E+01 0.  1.
       -4    1    3    3    0  502 -0.35080654728E+03 -0.65468714746E+01 -0.18028702305E+03  0.39447828675E+03  0.12699999809E+01 0. -1.
</event>
<event>
 5   0  0.1257442E-02  0.6694196E+03  0.7818609E-02  0.9771007E-01
        1   -1    0    0  501    0  0.00000000000E+00  0.00000000000E+00  0.14440749963E+04  0.14440749963E+04  0.50400001928E-02 0.  1.
       -1   -1    0    0    0  501  0.00000000000E+00  0.00000000000E+00 -0.77579520289E+02  0.77579520453E+02  0.50400001928E-02 0. -1.
    10030    2    1    2    0    0  0.00000000000E+00  0.00000000000E+00  0.13664954760E+04  0.15216545168E+04  0.66941958623E+03 0.  0.
        1    1    3    3  502    0 -0.86034647280E+02  0.54986568671E+02  0.14078097012E+04  0.14115075763E+04  0.50400001928E-02 0.  1.
       -1    1    3    3    0  502  0.86034647280E+02 -0.54986568671E+02 -0.41314225148E+02  0.11014694046E+03  0.50400001928E-02 0. -1.
</event>
<event>
 5   0  0.2026361E-02  0.6873194E+03  0.7818609E-02  0.9739167E-01
       -2   -1    0    0    0  501  0.00000000000E+00  0.00000000000E+00  0.17172254999E+03  0.17172255001E+03  0.25500000920E-02 0.  1.
        2   -1    0    0  501    0  0.00000000000E+00  0.00000000000E+00 -0.68774889597E+03  0.68774889597E+03  0.25500000920E-02 0. -1.
    10030    2    1    2    0    0  0.00000000000E+00  0.00000000000E+00 -0.51602634598E+03  0.85947144598E+03  0.68731941388E+03 0.  0.
        2    1    3    3  502    0  0.17830265992E+03 -0.26870869261E+03 -0.40652861516E+03  0.51890434087E+03  0.25500000920E-02 0. -1.
       -2    1    3    3    0  502 -0.17830265992E+03  0.26870869261E+03 -0.10949773082E+03  0.34056710511E+03  0.25500000920E-02 0.  1.
</event>
<event>
 5   0  0.2006362E-02  0.7067399E+03  0.7818609E-02  0.9705775E-01
        2   -1    0    0  501    0  0.00000000000E+00  0.00000000000E+00  0.28903479273E+03  0.28903479275E+03  0.25500000920E-02 0. -1.
       -2   -1    0    0    0  501  0.00000000000E+00  0.00000000000E+00 -0.43202519366E+03  0.43202519367E+03  0.25500000920E-02 0.  1.
    10030    2    1    2    0    0  0.00000000000E+00  0.00000000000E+00 -0.14299040092E+03  0.72105998641E+03  0.70673987382E+03 0.  0.
        4    1    3    3  502    0  0.28548924087E+03 -0.19311839049E+03  0.79928516530E+01  0.34476704885E+03  0.12699999809E+01 0. -1.
       -4    1    3    3    0  502 -0.28548924087E+03  0.19311839049E+03 -0.15098325258E+03  0.37629293756E+03  0.12699999809E+01 0.  1.
</event>
<event>
 5   0  0.1237686E-02  0.6911824E+03  0.7818609E-02  0.9732431E-01
        1   -1    0    0  501    0  0.00000000000E+00  0.00000000000E+00  0.49035804030E+03  0.49035804033E+03  0.50400001928E-02 0.  1.
       -1   -1    0    0    0  501  0.00000000000E+00  0.00000000000E+00 -0.24356338938E+03  0.24356338943E+03  0.50400001928E-02 0. -1.
    10030    2    1    2    0    0  0.00000000000E+00  0.00000000000E+00  0.24679465092E+03  0.73392142976E+03  0.69118236764E+03 0.  0.
        5    1    3    3  502    0 -0.11843517137E+03  0.16915687600E+03  0.41760456911E+03  0.46589334043E+03  0.46999998093E+01 0.  1.
       -5    1    3    3    0  502  0.11843517137E+03 -0.16915687600E+03 -0.17080991819E+03  0.26802808933E+03  0.46999998093E+01 0. -1.
</event>
<event>
 5   0  0.7947250E-03  0.6991795E+03  0.7818609E-02  0.9718636E-01
       -3   -1    0    0    0  501  0.00000000000E+00  0.00000000000E+00  0.30369262286E+03  0.30369263966E+03  0.10100000352E+00 0. -1.
        3   -1    0    0  501    0  0.00000000000E+00  0.00000000000E+00 -0.40242327078E+03  0.40242328345E+03  0.10100000352E+00 0.  1.
    10030    2    1    2    0    0  0.00000000000E+00  0.00000000000E+00 -0.98730647916E+02  0.70611592311E+03  0.69917948771E+03 0.  0.
        2    1    3    3  502    0  0.19380972499E+02 -0.27758000941E+03 -0.26309355137E+03  0.38294190225E+03  0.25500000920E-02 0.  1.
       -2    1    3    3    0  502 -0.19380972499E+02  0.27758000941E+03  0.16436290346E+03  0.32317402086E+03  0.25500000920E-02 0. -1.
</event>
<event>
 5   0  0.1909053E-02  0.6987278E+03  0.7818609E-02  0.9719410E-01
       -2   -1    0    0    0  501  0.00000000000E+00  0.00000000000E+00  0.10887723654E+03  0.10887723657E+03  0.25500000920E-02 0.  1.
        2   -1    0    0  501    0  0.00000000000E+00  0.00000000000E+00 -0.11210344703E+04  0.11210344703E+04  0.25500000920E-02 0. -1.
    10030    2    1    2    0    0  0.00000000000E+00  0.00000000000E+00 -0.10121572337E+04  0.12299117068E+04  0.69872780168E+03 0.  0.
        1    1    3    3  502    0  0.12551735060E+03  0.31241584852E+03 -0.34192617867E+03  0.47986641828E+03  0.50400001928E-02 0.  1.
       -1    1    3    3    0  502 -0.12551735060E+03 -0.31241584852E+03 -0.67023105507E+03  0.75004528857E+03  0.50400001928E-02 0. -1.
</event>
<event>
 5   0  0.1237686E-02  0.7011909E+03  0.7818609E-02  0.9715198E-01
       -1   -1    0    0    0  501  0.00000000000E+00  0.00000000000E+00  0.30328681494E+03  0.30328681498E+03  0.50400001928E-02 0.  1.
        1   -1    0    0  501    0  0.00000000000E+00  0.00000000000E+00 -0.40528361171E+03  0.40528361175E+03  0.50400001928E-02 0. -1.
    10030    2    1    2    0    0  0.00000000000E+00  0.00000000000E+00 -0.10199679677E+03  0.70857042673E+03  0.70119091771E+03 0.  0.
        5    1    3    3  502    0 -0.85868781114E+02 -0.29752851015E+03 -0.21703962988E+03  0.37818639962E+03  0.46999998093E+01 0. -1.
       -5    1    3    3    0  502  0.85868781114E+02  0.29752851015E+03  0.11504283311E+03  0.33038402711E+03  0.46999998093E+01 0.  1.
</event>
<event>
 5   0  0.1226303E-02  0.6996070E+03  0.7818609E-02  0.9717905E-01
        1   -1    0    0  501    0  0.00000000000E+00  0.00000000000E+00  0.61771490983E+03  0.61771490985E+03  0.50400001928E-02 0.  1.
       -1   -1    0    0    0  501  0.00000000000E+00  0.00000000000E+00 -0.19808890979E+03  0.19808890985E+03  0.50400001928E-02 0. -1.
    10030    2    1    2    0    0  0.00000000000E+00  0.00000000000E+00  0.41962600004E+03  0.81580381970E+03  0.69960695561E+03 0.  0.
        4    1    3    3  502    0  0.14532528364E+03  0.11891767891E+03 -0.13433140442E+03  0.23088393521E+03  0.12699999809E+01 0. -1.
       -4    1    3    3    0  502 -0.14532528364E+03 -0.11891767891E+03  0.55395740446E+03  0.58491988450E+03  0.12699999809E+01 0.  1.
</event>
<event>
 5   0  0.1226303E-02  0.6998515E+03  0.7818609E-02  0.9717486E-01
        1   -1    0    0  501    0  0.00000000000E+00  0.00000000000E+00  0.54922548689E+03  0.54922548691E+03  0.50400001928E-02 0.  1.
       -1   -1    0    0    0  501  0.00000000000E+00  0.00000000000E+00 -0.22294674513E+03  0.22294674519E+03  0.50400001928E-02 0. -1.
    10030    2    1    2    0    0  0.00000000000E+00  0.00000000000E+00  0.32627874176E+03  0.77217223210E+03  0.69985151190E+03 0.  0.
        4    1    3    3  502    0  0.21092687262E+02  0.20146081832E+03 -0.15167941945E+03  0.25306051047E+03  0.12699999809E+01 0. -1.
       -4    1    3    3    0  502 -0.21092687262E+02 -0.20146081832E+03  0.47795816121E+03  0.51911172163E+03  0.12699999809E+01 0.  1.
</event>
<event>
 5   0  0.1257442E-02  0.6999123E+03  0.7818609E-02  0.9717382E-01
        1   -1    0    0  501    0  0.00000000000E+00  0.00000000000E+00  0.52672998344E+03  0.52672998347E+03  0.50400001928E-02 0. -1.
       -1   -1    0    0    0  501  0.00000000000E+00  0.00000000000E+00 -0.23250867624E+03  0.23250867629E+03  0.50400001928E-02 0.  1.
    10030    2    1    2    0    0  0.00000000000E+00  0.00000000000E+00  0.29422130720E+03  0.75923865976E+03  0.69991225512E+03 0.  0.
        1    1    3    3  502    0  0.18582953079E+03 -0.25888583834E+02 -0.17333795507E+03  0.25543860315E+03  0.50400001928E-02 0.  1.
       -1    1    3    3    0  502 -0.18582953079E+03  0.25888583834E+02  0.46755926227E+03  0.50380005661E+03  0.50400001928E-02 0. -1.
</event>
<event>
 5   0  0.1257442E-02  0.6963688E+03  0.7818609E-02  0.9723462E-01
        1   -1    0    0  501    0  0.00000000000E+00  0.00000000000E+00  0.50158102324E+03  0.50158102326E+03  0.50400001928E-02 0.  1.
       -1   -1    0    0    0  501  0.00000000000E+00  0.00000000000E+00 -0.24170048906E+03  0.24170048911E+03  0.50400001928E-02 0. -1.
    10030    2    1    2    0    0  0.00000000000E+00  0.00000000000E+00  0.25988053418E+03  0.74328151237E+03  0.69636880645E+03 0.  0.
        1    1    3    3  502    0  0.22557551475E+03  0.49325594174E+02 -0.14822124542E+03  0.27438451982E+03  0.50400001928E-02 0. -1.
       -1    1    3    3    0  502 -0.22557551475E+03 -0.49325594174E+02  0.40810177960E+03  0.46889699256E+03  0.50400001928E-02 0.  1.
</event>
<event>
 5   0  0.7947250E-03  0.6882887E+03  0.7818609E-02  0.9737472E-01
       -4   -1    0    0    0  501  0.00000000000E+00  0.00000000000E+00  0.40536435292E+03  0.40536634236E+03  0.12699999809E+01 0. -1.
        4   -1    0    0  501    0  0.00000000000E+00  0.00000000000E+00 -0.29216599148E+03  0.29216875171E+03  0.12699999809E+01 0.  1.
    10030    2    1    2    0    0  0.00000000000E+00  0.00000000000E+00  0.11319836144E+03  0.69753509408E+03  0.68828870282E+03 0.  0.
        4    1    3    3  502    0 -0.19191367497E+03 -0.28017389289E+03  0.11307439514E+03  0.35793253643E+03  0.12699999809E+01 0.  1.
       -4    1    3    3    0  502  0.19191367497E+03  0.28017389289E+03  0.12396630235E+00  0.33960255765E+03  0.12699999809E+01 0. -1.
</event>
<event>
 5   0  0.1237686E-02  0.6939355E+03  0.7818609E-02  0.9727660E-01
        1   -1    0    0  501    0  0.00000000000E+00  0.00000000000E+00  0.69457017172E+02  0.69457017355E+02  0.50400001928E-02 0. -1.
       -1   -1    0    0    0  501  0.00000000000E+00  0.00000000000E+00 -0.17332537278E+04  0.17332537278E+04  0.50400001928E-02 0.  1.
    10030    2    1    2    0    0  0.00000000000E+00  0.00000000000E+00 -0.16637967106E+04  0.18027107451E+04  0.69393554198E+03 0.  0.
        5    1    3    3  502    0  0.36742587772E+02 -0.13708051029E+03 -0.94822402945E+01  0.14231334068E+03  0.46999998093E+01 0. -1.
       -5    1    3    3    0  502 -0.36742587772E+02  0.13708051029E+03 -0.16543144703E+04  0.16603974045E+04  0.46999998093E+01 0.  1.
</event>
<event>
 5   0  0.1948138E-02  0.6994979E+03  0.7818609E-02  0.9718091E-01
       -2   -1    0    0    0  501  0.00000000000E+00  0.00000000000E+00  0.95591172998E+02  0.95591173032E+02  0.25500000920E-02 0. -1.
        2   -1    0    0  501    0  0.00000000000E+00  0.00000000000E+00 -0.12796612469E+04  0.12796612469E+04  0.25500000920E-02 0.  1.
    10030    2    1    2    0    0  0.00000000000E+00  0.00000000000E+00 -0.11840700739E+04  0.13752524199E+04  0.69949787607E+03 0.  0.
        3    1    3    3  502    0 -0.32528988819E+03 -0.12169039825E+03 -0.67315113659E+03  0.75746585882E+03  0.10100000352E+00 0.  1.
       -3    1    3    3    0  502  0.32528988819E+03  0.12169039825E+03 -0.51091893730E+03  0.61778656110E+03  0.10100000352E+00 0. -1.
</event>
<event>
 5   0  0.1197259E-02  0.7090587E+03  0.7818609E-02  0.9701865E-01
        1   -1    0    0  501    0  0.00000000000E+00  0.00000000000E+00  0.25038006706E+03  0.25038006711E+03  0.50400001928E-02 0.  1.
       -1   -1    0    0    0  501  0.00000000000E+00  0.00000000000E+00 -0.50200102998E+03  0.50200103001E+03  0.50400001928E-02 0. -1.
    10030    2    1    2    0    0  0.00000000000E+00  0.00000000000E+00 -0.25162096292E+03  0.75238109712E+03  0.70905867621E+03 0.  0.
        3    1    3    3  502    0  0.27628346721E+03 -0.16646647328E+03 -0.28193049320E+03  0.42840221075E+03  0.10100000352E+00 0. -1.
       -3    1    3    3    0  502 -0.27628346721E+03  0.16646647328E+03  0.30309530275E+02  0.32397888636E+03  0.10100000352E+00 0.  1.
</event>
<event>
 5   0  0.7947250E-03  0.6976965E+03  0.7818609E-02  0.9721180E-01
        3   -1    0    0  501    0  0.00000000000E+00  0.00000000000E+00  0.15198300048E+03  0.15198303404E+03  0.10100000352E+00 0. -1.
       -3   -1    0    0    0  501  0.00000000000E+00  0.00000000000E+00 -0.80071500992E+03  0.80071501629E+03  0.10100000352E+00 0.  1.
    10030    2    1    2    0    0  0.00000000000E+00  0.00000000000E+00 -0.64873200944E+03  0.95269805034E+03  0.69769646340E+03 0.  0.
        5    1    3    3  502    0 -0.11974893373E+03 -0.13527529029E+03  0.83076355693E+02  0.19890445486E+03  0.46999998093E+01 0. -1.
       -5    1    3    3    0  502  0.11974893373E+03  0.13527529029E+03 -0.73180836514E+03  0.75379359547E+03  0.46999998093E+01 0.  1.
</event>
<event>
 5   0  0.7947250E-03  0.7021120E+03  0.7818609E-02  0.9713627E-01
        4   -1    0    0  501    0  0.00000000000E+00  0.00000000000E+00  0.95391098221E+02  0.95399551990E+02  0.12699999809E+01 0.  1.
       -4   -1    0    0    0  501  0.00000000000E+00  0.00000000000E+00 -0.12918818817E+04  0.12918825060E+04  0.12699999809E+01 0. -1.
    10030    2    1    2    0    0  0.00000000000E+00  0.00000000000E+00 -0.11964907835E+04  0.13872820580E+04  0.70211203759E+03 0.  0.
        1    1    3    3  502    0  0.11679665985E+03  0.32990033459E+03 -0.65288231430E+03  0.74076379964E+03  0.50400001928E-02 0. -1.
       -1    1    3    3    0  502 -0.11679665985E+03 -0.32990033459E+03 -0.54360846921E+03  0.64651825832E+03  0.50400001928E-02 0.  1.
</event>
<event>
 5   0  0.1973067E-02  0.6980825E+03  0.7818609E-02  0.9720517E-01
       -2   -1    0    0    0  501  0.00000000000E+00  0.00000000000E+00  0.47182775906E+03  0.47182775906E+03  0.25500000920E-02 0. -1.
        2   -1    0    0  501    0  0.00000000000E+00  0.00000000000E+00 -0.25820822423E+03  0.25820822424E+03  0.25500000920E-02 0.  1.
    10030    2    1    2    0    0  0.00000000000E+00  0.00000000000E+00  0.21361953483E+03  0.73003598330E+03  0.69808253900E+03 0.  0.
        5    1    3    3  502    0 -0.20386464184E+03  0.25821328372E+03  0.22864492468E+03  0.40066879547E+03  0.46999998093E+01 0. -1.
       -5    1    3    3    0  502  0.20386464184E+03 -0.25821328372E+03 -0.15025389846E+02  0.32936718783E+03  0.46999998093E+01 0.  1.
</event>
<event>
 5   0  0.1948138E-02  0.6969198E+03  0.7818609E-02  0.9722514E-01
       -2   -1    0    0    0  501  0.00000000000E+00  0.00000000000E+00  0.36578441267E+03  0.36578441268E+03  0.25500000920E-02 0.  1.
        2   -1    0    0  501    0  0.00000000000E+00  0.00000000000E+00 -0.33195595607E+03  0.33195595608E+03  0.25500000920E-02 0. -1.
    10030    2    1    2    0    0  0.00000000000E+00  0.00000000000E+00  0.33828456602E+02  0.69774036875E+03  0.69691983593E+03 0.  0.
        3    1    3    3  502    0 -0.15084288657E+03 -0.28315093254E+03 -0.11924691438E+03  0.34226870120E+03  0.10100000352E+00 0. -1.
       -3    1    3    3    0  502  0.15084288657E+03  0.28315093254E+03  0.15307537098E+03  0.35547166755E+03  0.10100000352E+00 0.  1.
</event>
<event>
 5   0  0.1257442E-02  0.6599331E+03  0.7818609E-02  0.9788317E-01
        1   -1    0    0  501    0  0.00000000000E+00  0.00000000000E+00  0.23190885086E+03  0.23190885092E+03  0.50400001928E-02 0. -1.
       -1   -1    0    0    0  501  0.00000000000E+00  0.00000000000E+00 -0.46948589380E+03  0.46948589382E+03  0.50400001928E-02 0.  1.
    10030    2    1    2    0    0  0.00000000000E+00  0.00000000000E+00 -0.23757704293E+03  0.70139474474E+03  0.65993313042E+03 0.  0.
        1    1    3    3  502    0 -0.24737834401E+03  0.26076421070E+02  0.11163156009E+03  0.27264928031E+03  0.50400001928E-02 0. -1.
       -1    1    3    3    0  502  0.24737834401E+03 -0.26076421070E+02 -0.34920860302E+03  0.42874546443E+03  0.50400001928E-02 0.  1.
</event>
<event>
 5   0  0.2006362E-02  0.6368869E+03  0.7818609E-02  0.9831701E-01
        2   -1    0    0  501    0  0.00000000000E+00  0.00000000000E+00  0.69846316188E+03  0.69846316189E+03  0.25500000920E-02 0.  1.
       -2   -1    0    0    0  501  0.00000000000E+00  0.00000000000E+00 -0.14518481214E+03  0.14518481216E+03  0.25500000920E-02 0. -1.
    10030    2    1    2    0    0  0.00000000000E+00  0.00000000000E+00  0.55327834974E+03  0.84364797405E+03  0.63688693803E+03 0.  0.
        4    1    3    3  502    0 -0.70881319510E+02  0.28130798563E+03  0.10268024971E+03  0.30773883540E+03  0.12699999809E+01 0. -1.
       -4    1    3    3    0  502  0.70881319510E+02 -0.28130798563E+03  0.45059810003E+03  0.53590913865E+03  0.12699999809E+01 0.  1.
</event>
<event>
 5   0  0.1909053E-02  0.7013131E+03  0.7818609E-02  0.9714989E-01
       -2   -1    0    0    0  501  0.00000000000E+00  0.00000000000E+00  0.15459451670E+03  0.15459451672E+03  0.25500000920E-02 0. -1.
        2   -1    0    0  501    0  0.00000000000E+00  0.00000000000E+00 -0.79537119617E+03  0.79537119617E+03  0.25500000920E-02 0.  1.
    10030    2    1    2    0    0  0.00000000000E+00  0.00000000000E+00 -0.64077667947E+03  0.94996571289E+03  0.70131312743E+03 0.  0.
        1    1    3    3  502    0 -0.14259715968E+03  0.28047356407E+03 -0.53006269215E+03  0.61641368230E+03  0.50400001928E-02 0.  1.
       -1    1    3    3    0  502  0.14259715968E+03 -0.28047356407E+03 -0.11071398732E+03  0.33355203059E+03  0.50400001928E-02 0. -1.
</event>
<event>
 5   0  0.1948138E-02  0.7136296E+03  0.7818609E-02  0.9694204E-01
       -2   -1    0    0    0  501  0.00000000000E+00  0.00000000000E+00  0.22611441053E+03  0.22611441054E+03  0.25500000920E-02 0. -1.
        2   -1    0    0  501    0  0.00000000000E+00  0.00000000000E+00 -0.56306358662E+03  0.56306358663E+03  0.25500000920E-02 0.  1.
    10030    2    1    2    0    0  0.00000000000E+00  0.00000000000E+00 -0.33694917609E+03  0.78917799717E+03  0.71362957054E+03 0.  0.
        3    1    3    3  502    0  0.30641922741E+03 -0.13550909194E+03 -0.32757758901E+02  0.33664304225E+03  0.10100000352E+00 0. -1.
       -3    1    3    3    0  502 -0.30641922741E+03  0.13550909194E+03 -0.30419141719E+03  0.45253495492E+03  0.10100000352E+00 0.  1.
</event>
<event>
 5   0  0.1237686E-02  0.6990556E+03  0.7818609E-02  0.9718849E-01
       -1   -1    0    0    0  501  0.00000000000E+00  0.00000000000E+00  0.27429431721E+03  0.27429431726E+03  0.50400001928E-02 0.  1.
        1   -1    0    0  501    0  0.00000000000E+00  0.00000000000E+00 -0.44539630770E+03  0.44539630773E+03  0.50400001928E-02 0. -1.
    10030    2    1    2    0    0  0.00000000000E+00  0.00000000000E+00 -0.17110199049E+03  0.71969062498E+03  0.69905558044E+03 0.  0.
        5    1    3    3  502    0 -0.20318187102E+03 -0.75260165322E+02 -0.36787307963E+03  0.42696564020E+03  0.46999998093E+01 0. -1.
       -5    1    3    3    0  502  0.20318187102E+03  0.75260165322E+02  0.19677108915E+03  0.29272498478E+03  0.46999998093E+01 0.  1.
</event>
<event>
 5   0  0.1223742E-02  0.6999705E+03  0.7818609E-02  0.9717283E-01
        1   -1    0    0  501    0  0.00000000000E+00  0.00000000000E+00  0.10235468798E+04  0.10235468798E+04  0.50400001928E-02 0. -1.
       -1   -1    0    0    0  501  0.00000000000E+00  0.00000000000E+00 -0.11967176722E+03  0.11967176733E+03  0.50400001928E-02 0.  1.
    10030    2    1    2    0    0  0.00000000000E+00  0.00000000000E+00  0.90387511261E+03  0.11432186472E+04  0.69997046799E+03 0.  0.
        2    1    3    3  502    0 -0.13991969875E+03 -0.26419696323E+03  0.74913357527E+03  0.80658457156E+03  0.25500000920E-02 0. -1.
       -2    1    3    3    0  502  0.13991969875E+03  0.26419696323E+03  0.15474153733E+03  0.33663407561E+03  0.25500000920E-02 0.  1.
</event>
<event>
 5   0  0.1257442E-02  0.6989918E+03  0.7818609E-02  0.9718958E-01
       -1   -1    0    0    0  501  0.00000000000E+00  0.00000000000E+00  0.16723850918E+03  0.16723850926E+03  0.50400001928E-02 0. -1.
        1   -1    0    0  501    0  0.00000000000E+00  0.00000000000E+00 -0.73037837241E+03  0.73037837243E+03  0.50400001928E-02 0.  1.
    10030    2    1    2    0    0  0.00000000000E+00  0.00000000000E+00 -0.56313986323E+03  0.89761688169E+03  0.69899181736E+03 0.  0.
        1    1    3    3  502    0  0.56457233604E+02  0.20622854360E+03 -0.63658776106E+03  0.67153675177E+03  0.50400001928E-02 0.  1.
       -1    1    3    3    0  502 -0.56457233604E+02 -0.20622854360E+03  0.73447897828E+02  0.22608012992E+03  0.50400001928E-02 0. -1.
</event>
<event>
 5   0  0.2026361E-02  0.6344527E+03  0.7818609E-02  0.9836398E-01
        2   -1    0    0  501    0  0.00000000000E+00  0.00000000000E+00  0.96035300520E+02  0.96035300554E+02  0.25500000920E-02 0. -1.
       -2   -1    0    0    0  501  0.00000000000E+00  0.00000000000E+00 -0.10478705211E+04  0.10478705211E+04  0.25500000920E-02 0.  1.
    10030    2    1    2    0    0  0.00000000000E+00  0.00000000000E+00 -0.95183522056E+03  0.11439058216E+04  0.63445271035E+03 0.  0.
        2    1    3    3  502    0 -0.22005818579E+03  0.20622809823E+03 -0.29855595198E+03  0.42437164149E+03  0.25500000920E-02 0. -1.
       -2    1    3    3    0  502  0.22005818579E+03 -0.20622809823E+03 -0.65327926857E+03  0.71953418014E+03  0.25500000920E-02 0.  1.
</event>
<event>
 5   0  0.2006362E-02  0.6986473E+03  0.7818609E-02  0.9719548E-01
        2   -1    0    0  501    0  0.00000000000E+00  0.00000000000E+00  0.43870406490E+03  0.43870406490E+03  0.25500000920E-02 0.  1.
       -2   -1    0    0    0  501  0.00000000000E+00  0.00000000000E+00 -0.27815334079E+03  0.27815334080E+03  0.25500000920E-02 0. -1.
    10030    2    1    2    0    0  0.00000000000E+00  0.00000000000E+00  0.16055072411E+03  0.71685740570E+03  0.69864726801E+03 0.  0.
        4    1    3    3  502    0 -0.13666452857E+03  0.31886775413E+03  0.38325112731E+02  0.34903332958E+03  0.12699999809E+01 0. -1.
       -4    1    3    3    0  502  0.13666452857E+03 -0.31886775413E+03  0.12222561138E+03  0.36782407612E+03  0.12699999809E+01 0.  1.
</event>
<event>
 5   0  0.1223742E-02  0.7099473E+03  0.7818609E-02  0.9700371E-01
        1   -1    0    0  501    0  0.00000000000E+00  0.00000000000E+00  0.26436863289E+04  0.26436863289E+04  0.50400001928E-02 0.  1.
       -1   -1    0    0    0  501  0.00000000000E+00  0.00000000000E+00 -0.47663101896E+02  0.47663102163E+02  0.50400001928E-02 0. -1.
    10030    2    1    2    0    0  0.00000000000E+00  0.00000000000E+00  0.25960232270E+04  0.26913494310E+04  0.70994729731E+03 0.  0.
        2    1    3    3  502    0 -0.10162123497E+03  0.33107740617E+03  0.15932935980E+04  0.16304979649E+04  0.25500000920E-02 0.  1.
       -2    1    3    3    0  502  0.10162123497E+03 -0.33107740617E+03  0.10027296290E+04  0.10608514661E+04  0.25500000920E-02 0. -1.
</event>
<event>
 5   0  0.7947250E-03  0.7024249E+03  0.7818609E-02  0.9713094E-01
        3   -1    0    0  501    0  0.00000000000E+00  0.00000000000E+00  0.73877980638E+03  0.73877981328E+03  0.10100000352E+00 0. -1.
       -3   -1    0    0    0  501  0.00000000000E+00  0.00000000000E+00 -0.16696471140E+03  0.16696474195E+03  0.10100000352E+00 0.  1.
    10030    2    1    2    0    0  0.00000000000E+00  0.00000000000E+00  0.57181509497E+03  0.90574455523E+03  0.70242486893E+03 0.  0.
        3    1    3    3  502    0 -0.99012690258E+02  0.31655693934E+03  0.13698618778E+03  0.35885517207E+03  0.10100000352E+00 0. -1.
       -3    1    3    3    0  502  0.99012690258E+02 -0.31655693934E+03  0.43482890720E+03  0.54688938316E+03  0.10100000352E+00 0.  1.
</event>
<event>
 5   0  0.1237686E-02  0.6986406E+03  0.7818609E-02  0.9719560E-01
        1   -1    0    0  501    0  0.00000000000E+00  0.00000000000E+00  0.87346556637E+03  0.87346556638E+03  0.50400001928E-02 0. -1.
       -1   -1    0    0    0  501  0.00000000000E+00  0.00000000000E+00 -0.13970173930E+03  0.13970173940E+03  0.50400001928E-02 0.  1.
    10030    2    1    2    0    0  0.00000000000E+00  0.00000000000E+00  0.73376382707E+03  0.10131673058E+04  0.69864056251E+03 0.  0.
        5    1    3    3  502    0  0.21696973462E+02 -0.17688918575E+03 -0.68762138750E+02  0.19107816311E+03  0.46999998093E+01 0.  1.
       -5    1    3    3    0  502 -0.21696973462E+02  0.17688918575E+03  0.80252596581E+03  0.82208914267E+03  0.46999998093E+01 0. -1.
</event>
<event>
 5   0  0.7947250E-03  0.6984775E+03  0.7818609E-02  0.9719839E-01
        4   -1    0    0  501    0  0.00000000000E+00  0.00000000000E+00  0.87144376767E+02  0.87153630458E+02  0.12699999809E+01 0. -1.
       -4   -1    0    0    0  501  0.00000000000E+00  0.00000000000E+00 -0.13995213278E+04  0.13995219040E+04  0.12699999809E+01 0.  1.
    10030    2    1    2    0    0  0.00000000000E+00  0.00000000000E+00 -0.13123769510E+04  0.14866755345E+04  0.69847754670E+03 0.  0.
        5    1    3    3  502    0  0.29416372533E+03 -0.10074640636E+03 -0.99449506846E+03  0.10419811260E+04  0.46999998093E+01 0.  1.
       -5    1    3    3    0  502 -0.29416372533E+03  0.10074640636E+03 -0.31788188254E+03  0.44469440848E+03  0.46999998093E+01 0. -1.
</event>
<event>
 5   0  0.7947250E-03  0.6979045E+03  0.7818609E-02  0.9720822E-01
       -3   -1    0    0    0  501  0.00000000000E+00  0.00000000000E+00  0.20889714431E+03  0.20889716872E+03  0.10100000352E+00 0.  1.
        3   -1    0    0  501    0  0.00000000000E+00  0.00000000000E+00 -0.58290726844E+03  0.58290727719E+03  0.10100000352E+00 0. -1.
    10030    2    1    2    0    0  0.00000000000E+00  0.00000000000E+00 -0.37401012413E+03  0.79180444591E+03  0.69790451181E+03 0.  0.
        2    1    3    3  502    0  0.24910023370E+03 -0.21744388844E+03 -0.60489723924E+02  0.33614249621E+03  0.25500000920E-02 0.  1.
       -2    1    3    3    0  502 -0.24910023370E+03  0.21744388844E+03 -0.31352040021E+03  0.45566194970E+03  0.25500000920E-02 0. -1.
</event>
<event>
 5   0  0.2026361E-02  0.7015621E+03  0.7818609E-02  0.9714565E-01
       -2   -1    0    0    0  501  0.00000000000E+00  0.00000000000E+00  0.87999325627E+03  0.87999325628E+03  0.25500000920E-02 0. -1.
        2   -1    0    0  501    0  0.00000000000E+00  0.00000000000E+00 -0.13982758365E+03  0.13982758367E+03  0.25500000920E-02 0.  1.
    10030    2    1    2    0    0  0.00000000000E+00  0.00000000000E+00  0.74016567263E+03  0.10198208399E+04  0.70156205902E+03 0.  0.
        2    1    3    3  502    0 -0.99531590700E+02  0.14788360387E+03  0.80924482877E+03  0.82864545539E+03  0.25500000920E-02 0. -1.
       -2    1    3    3    0  502  0.99531590700E+02 -0.14788360387E+03 -0.69079156148E+02  0.19117538456E+03  0.25500000920E-02 0.  1.
</event>
<event>
 5   0  0.1948138E-02  0.6873581E+03  0.7818609E-02  0.9739099E-01
        2   -1    0    0  501    0  0.00000000000E+00  0.00000000000E+00  0.87881406188E+03  0.87881406188E+03  0.25500000920E-02 0. -1.
       -2   -1    0    0    0  501  0.00000000000E+00  0.00000000000E+00 -0.13440303827E+03  0.13440303829E+03  0.25500000920E-02 0.  1.
    10030    2    1    2    0    0  0.00000000000E+00  0.00000000000E+00  0.74441102361E+03  0.10132171002E+04  0.68735807263E+03 0.  0.
        3    1    3    3  502    0 -0.39857429778E+02  0.31833136786E+03  0.55389258280E+03  0.64009411648E+03  0.10100000352E+00 0. -1.
       -3    1    3    3    0  502  0.39857429778E+02 -0.31833136786E+03  0.19051844081E+03  0.37312298369E+03  0.10100000352E+00 0.  1.
</event>
<event>
 5   0  0.2026361E-02  0.6980943E+03  0.7818609E-02  0.9720497E-01
        2   -1    0    0  501    0  0.00000000000E+00  0.00000000000E+00  0.10330674952E+04  0.10330674952E+04  0.25500000920E-02 0. -1.
       -2   -1    0    0    0  501  0.00000000000E+00  0.00000000000E+00 -0.11793413843E+03  0.11793413845E+03  0.25500000920E-02 0.  1.
    10030    2    1    2    0    0  0.00000000000E+00  0.00000000000E+00  0.91513335677E+03  0.11510016337E+04  0.69809433460E+03 0.  0.
        2    1    3    3  502    0 -0.24888973917E+03 -0.71353698242E+01  0.86088356211E+03  0.89616824497E+03  0.25500000920E-02 0. -1.
       -2    1    3    3    0  502  0.24888973917E+03  0.71353698242E+01  0.54249794664E+02  0.25483338869E+03  0.25500000920E-02 0.  1.
</event>
<event>
 5   0  0.1197259E-02  0.6994909E+03  0.7818609E-02  0.9718103E-01
        1   -1    0    0  501    0  0.00000000000E+00  0.00000000000E+00  0.49616768586E+03  0.49616768589E+03  0.50400001928E-02 0. -1.
       -1   -1    0    0    0  501  0.00000000000E+00  0.00000000000E+00 -0.24653337916E+03  0.24653337921E+03  0.50400001928E-02 0.  1.
    10030    2    1    2    0    0  0.00000000000E+00  0.00000000000E+00  0.24963430670E+03  0.74270106510E+03  0.69949094706E+03 0.  0.
        3    1    3    3  502    0  0.15476170002E+03  0.27896310480E+03 -0.27392048751E+02  0.32019046233E+03  0.10100000352E+00 0.  1.
       -3    1    3    3    0  502 -0.15476170002E+03 -0.27896310480E+03  0.27702635545E+03  0.42251060276E+03  0.10100000352E+00 0. -1.
</event>
<event>
 5   0  0.1237686E-02  0.7002229E+03  0.7818609E-02  0.9716851E-01
       -1   -1    0    0    0  501  0.00000000000E+00  0.00000000000E+00  0.14992211729E+03  0.14992211737E+03  0.50400001928E-02 0. -1.
        1   -1    0    0  501    0  0.00000000000E+00  0.00000000000E+00 -0.81761131584E+03  0.81761131585E+03  0.50400001928E-02 0.  1.
    10030    2    1    2    0    0  0.00000000000E+00  0.00000000000E+00 -0.66768919855E+03  0.96753343323E+03  0.70022287777E+03 0.  0.
        5    1    3    3  502    0 -0.25567532068E+03  0.20936783914E+03 -0.49350209573E+03  0.59394542692E+03  0.46999998093E+01 0.  1.
       -5    1    3    3    0  502  0.25567532068E+03 -0.20936783914E+03 -0.17418710281E+03  0.37358800630E+03  0.46999998093E+01 0. -1.
</event>
<event>
 5   0  0.1973067E-02  0.6947106E+03  0.7818609E-02  0.9726321E-01
        2   -1    0    0  501    0  0.00000000000E+00  0.00000000000E+00  0.12589704711E+04  0.12589704711E+04  0.25500000920E-02 0. -1.
       -2   -1    0    0    0  501  0.00000000000E+00  0.00000000000E+00 -0.95836795245E+02  0.95836795278E+02  0.25500000920E-02 0.  1.
    10030    2    1    2    0    0  0.00000000000E+00  0.00000000000E+00  0.11631336759E+04  0.13548072664E+04  0.69471057365E+03 0.  0.
        5    1    3    3  502    0 -0.13359734081E+03  0.31962117470E+03  0.53270880174E+03  0.63545786818E+03  0.46999998093E+01 0. -1.
       -5    1    3    3    0  502  0.13359734081E+03 -0.31962117470E+03  0.63042487413E+03  0.71934939822E+03  0.46999998093E+01 0.  1.
</event>
<event>
 5   0  0.1237686E-02  0.7021268E+03  0.7818609E-02  0.9713602E-01
        1   -1    0    0  501    0  0.00000000000E+00  0.00000000000E+00  0.58463485997E+03  0.58463485999E+03  0.50400001928E-02 0. -1.
       -1   -1    0    0    0  501  0.00000000000E+00  0.00000000000E+00 -0.21080767957E+03  0.21080767963E+03  0.50400001928E-02 0.  1.
    10030    2    1    2    0    0  0.00000000000E+00  0.00000000000E+00  0.37382718040E+03  0.79544253961E+03  0.70212682118E+03 0.  0.
        5    1    3    3  502    0 -0.27669054743E+03 -0.21380711356E+03  0.22187406093E+03  0.41415133678E+03  0.46999998093E+01 0.  1.
       -5    1    3    3    0  502  0.27669054743E+03  0.21380711356E+03  0.15195311947E+03  0.38129120284E+03  0.46999998093E+01 0. -1.
</event>
<event>
 5   0  0.1223742E-02  0.6988110E+03  0.7818609E-02  0.9719268E-01
       -1   -1    0    0    0  501  0.00000000000E+00  0.00000000000E+00  0.14005485600E+03  0.14005485609E+03  0.50400001928E-02 0. -1.
        1   -1    0    0  501    0  0.00000000000E+00  0.00000000000E+00 -0.87168854331E+03  0.87168854333E+03  0.50400001928E-02 0.  1.
    10030    2    1    2    0    0  0.00000000000E+00  0.00000000000E+00 -0.73163368731E+03  0.10117433994E+04  0.69881102872E+03 0.  0.
        2    1    3    3  502    0 -0.30619391063E+03 -0.92343486928E+02 -0.56955255684E+03  0.65320145858E+03  0.25500000920E-02 0.  1.
       -2    1    3    3    0  502  0.30619391063E+03  0.92343486928E+02 -0.16208113047E+03  0.35854194084E+03  0.25500000920E-02 0. -1.
</event>
<event>
 5   0  0.1973067E-02  0.6913880E+03  0.7818609E-02  0.9732074E-01
       -2   -1    0    0    0  501  0.00000000000E+00  0.00000000000E+00  0.55682780798E+02  0.55682780857E+02  0.25500000920E-02 0. -1.
        2   -1    0    0  501    0  0.00000000000E+00  0.00000000000E+00 -0.21461633217E+04  0.21461633217E+04  0.25500000920E-02 0.  1.
    10030    2    1    2    0    0  0.00000000000E+00  0.00000000000E+00 -0.20904805409E+04  0.22018461026E+04  0.69138800066E+03 0.  0.
        5    1    3    3  502    0  0.40154389492E+01  0.10836722051E+03  0.61401398050E-02  0.10854339348E+03  0.46999998093E+01 0. -1.
       -5    1    3    3    0  502 -0.40154389492E+01 -0.10836722051E+03 -0.20904866810E+04  0.20933027091E+04  0.46999998093E+01 0.  1.
</event>
<event>
 5   0  0.1257442E-02  0.7005920E+03  0.7818609E-02  0.9716220E-01
        1   -1    0    0  501    0  0.00000000000E+00  0.00000000000E+00  0.11590473104E+04  0.11590473104E+04  0.50400001928E-02 0. -1.
       -1   -1    0    0    0  501  0.00000000000E+00  0.00000000000E+00 -0.10586908496E+03  0.10586908508E+03  0.50400001928E-02 0.  1.
    10030    2    1    2    0    0  0.00000000000E+00  0.00000000000E+00  0.10531782255E+04  0.12649163955E+04  0.70059197331E+03 0.  0.
        1    1    3    3  502    0 -0.14688867996E+03  0.42306549765E+02  0.10956533007E+04  0.11062650152E+04  0.50400001928E-02 0. -1.
       -1    1    3    3    0  502  0.14688867996E+03 -0.42306549765E+02 -0.42475075208E+02  0.15865138037E+03  0.50400001928E-02 0.  1.
</event>
<event>
 5   0  0.1948138E-02  0.6995024E+03  0.7818609E-02  0.9718083E-01
       -2   -1    0    0    0  501  0.00000000000E+00  0.00000000000E+00  0.64174364655E+02  0.64174364706E+02  0.25500000920E-02 0.  1.
        2   -1    0    0  501    0  0.00000000000E+00  0.00000000000E+00 -0.19061491334E+04  0.19061491334E+04  0.25500000920E-02 0. -1.
    10030    2    1    2    0    0  0.00000000000E+00  0.00000000000E+00 -0.18419747687E+04  0.19703234981E+04  0.69950242208E+03 0.  0.
        3    1    3    3  502    0  0.23059133668E+03 -0.25979965035E+03 -0.80630460456E+03  0.87794951359E+03  0.10100000352E+00 0. -1.
       -3    1    3    3    0  502 -0.23059133668E+03  0.25979965035E+03 -0.10356701642E+04  0.10923739845E+04  0.10100000352E+00 0.  1.
</event>
<event>
 5   0  0.1909053E-02  0.6975816E+03  0.7818609E-02  0.9721377E-01
        2   -1    0    0  501    0  0.00000000000E+00  0.00000000000E+00  0.10518301463E+04  0.10518301463E+04  0.25500000920E-02 0.  1.
       -2   -1    0    0    0  501  0.00000000000E+00  0.00000000000E+00 -0.11566032118E+03  0.11566032121E+03  0.25500000920E-02 0. -1.
    10030    2    1    2    0    0  0.00000000000E+00  0.00000000000E+00  0.93616982509E+03  0.11674904675E+04  0.69758157246E+03 0.  0.
        1    1    3    3  502    0  0.24885459733E+03 -0.20974517452E+03  0.67801231621E+03  0.75207868591E+03  0.50400001928E-02 0.  1.
       -1    1    3    3    0  502 -0.24885459733E+03  0.20974517452E+03  0.25815750888E+03  0.41541178156E+03  0.50400001928E-02 0. -1.
</event>
<event>
 5   0  0.1948138E-02  0.6930515E+03  0.7818609E-02  0.9729189E-01
        2   -1    0    0  501    0  0.00000000000E+00  0.00000000000E+00  0.15389931561E+03  0.15389931563E+03  0.25500000920E-02 0. -1.
       -2   -1    0    0    0  501  0.00000000000E+00  0.00000000000E+00 -0.78025102347E+03  0.78025102347E+03  0.25500000920E-02 0.  1.
    10030    2    1    2    0    0  0.00000000000E+00  0.00000000000E+00 -0.62635170786E+03  0.93415033910E+03  0.69305150899E+03 0.  0.
        3    1    3    3  502    0 -0.90867845752E+02 -0.13994660246E+03 -0.72253676374E+03  0.74155337104E+03  0.10100000352E+00 0.  1.
       -3    1    3    3    0  502  0.90867845752E+02  0.13994660246E+03  0.96185055887E+02  0.19259696807E+03  0.10100000352E+00 0. -1.
</event>
<event>
 5   0  0.7947250E-03  0.6954312E+03  0.7818609E-02  0.9725078E-01
        4   -1    0    0  501    0  0.00000000000E+00  0.00000000000E+00  0.13170194978E+03  0.13170807293E+03  0.12699999809E+01 0.  1.
       -4   -1    0    0    0  501  0.00000000000E+00  0.00000000000E+00 -0.91800051307E+03  0.91800139155E+03  0.12699999809E+01 0. -1.
    10030    2    1    2    0    0  0.00000000000E+00  0.00000000000E+00 -0.78629856329E+03  0.10497094645E+04  0.69543118221E+03 0.  0.
        4    1    3    3  502    0  0.20980424243E+03 -0.17121185732E+03 -0.63921760759E+02  0.27824256437E+03  0.12699999809E+01 0.  1.
       -4    1    3    3    0  502 -0.20980424243E+03  0.17121185732E+03 -0.72237680253E+03  0.77146690011E+03  0.12699999809E+01 0. -1.
</event>
<event>
 5   0  0.2006362E-02  0.7005094E+03  0.7818609E-02  0.9716361E-01
       -2   -1    0    0    0  501  0.00000000000E+00  0.00000000000E+00  0.82135753700E+02  0.82135753739E+02  0.25500000920E-02 0.  1.
        2   -1    0    0  501    0  0.00000000000E+00  0.00000000000E+00 -0.14936049843E+04  0.14936049843E+04  0.25500000920E-02 0. -1.
    10030    2    1    2    0    0  0.00000000000E+00  0.00000000000E+00 -0.14114692306E+04  0.15757407380E+04  0.70050944647E+03 0.  0.
        4    1    3    3  502    0 -0.21316357958E+03 -0.63439221022E+02 -0.13143828776E+04  0.13330668432E+04  0.12699999809E+01 0. -1.
       -4    1    3    3    0  502  0.21316357958E+03  0.63439221022E+02 -0.97086352972E+02  0.24267389488E+03  0.12699999809E+01 0.  1.
</event>
<event>
 5   0  0.1237686E-02  0.7109681E+03  0.7818609E-02  0.9698657E-01
        1   -1    0    0  501    0  0.00000000000E+00  0.00000000000E+00  0.13804904878E+04  0.13804904878E+04  0.50400001928E-02 0.  1.
       -1   -1    0    0    0  501  0.00000000000E+00  0.00000000000E+00 -0.91539141079E+02  0.91539141218E+02  0.50400001928E-02 0. -1.
    10030    2    1    2    0    0  0.00000000000E+00  0.00000000000E+00  0.12889513467E+04  0.14720296290E+04  0.71096811077E+03 0.  0.
        5    1    3    3  502    0 -0.18150839970E+03  0.30085929539E+03  0.53326280106E+03  0.63863363502E+03  0.46999998093E+01 0. -1.
       -5    1    3    3    0  502  0.18150839970E+03 -0.30085929539E+03  0.75568854568E+03  0.83339599403E+03  0.46999998093E+01 0.  1.
</event>
<event>
 5   0  0.7947250E-03  0.6977389E+03  0.7818609E-02  0.9721107E-01
       -4   -1    0    0    0  501  0.00000000000E+00  0.00000000000E+00  0.42912124491E+03  0.42912312421E+03  0.12699999809E+01 0.  1.
        4   -1    0    0  501    0  0.00000000000E+00  0.00000000000E+00 -0.28362196786E+03  0.28362481124E+03  0.12699999809E+01 0. -1.
    10030    2    1    2    0    0  0.00000000000E+00  0.00000000000E+00  0.14549927705E+03  0.71274793545E+03  0.69773890523E+03 0.  0.
        2    1    3    3  502    0  0.12775952745E+03  0.13428646645E+03 -0.22916611649E+03  0.29474134573E+03  0.25500000920E-02 0. -1.
       -2    1    3    3    0  502 -0.12775952745E+03 -0.13428646645E+03  0.37466539354E+03  0.41800658972E+03  0.25500000920E-02 0.  1.
</event>
<event>
 5   0  0.7947250E-03  0.6975293E+03  0.7818609E-02  0.9721467E-01
        3   -1    0    0  501    0  0.00000000000E+00  0.00000000000E+00  0.79402117969E+03  0.79402118612E+03  0.10100000352E+00 0. -1.
       -3   -1    0    0    0  501  0.00000000000E+00  0.00000000000E+00 -0.15319083318E+03  0.15319086647E+03  0.10100000352E+00 0.  1.
    10030    2    1    2    0    0  0.00000000000E+00  0.00000000000E+00  0.64083034652E+03  0.94721205259E+03  0.69752931089E+03 0.  0.
        1    1    3    3  502    0 -0.29188261235E+03 -0.99099938892E+02  0.98854292531E+02  0.32371040833E+03  0.50400001928E-02 0.  1.
       -1    1    3    3    0  502  0.29188261235E+03  0.99099938892E+02  0.54197605398E+03  0.62350164426E+03  0.50400001928E-02 0. -1.
</event>
<event>
 5   0  0.7947250E-03  0.7012586E+03  0.7818609E-02  0.9715082E-01
        3   -1    0    0  501    0  0.00000000000E+00  0.00000000000E+00  0.50976234354E+03  0.50976235354E+03  0.10100000352E+00 0.  1.
       -3   -1    0    0    0  501  0.00000000000E+00  0.00000000000E+00 -0.24117293340E+03  0.24117295455E+03  0.10100000352E+00 0. -1.
    10030    2    1    2    0    0  0.00000000000E+00  0.00000000000E+00  0.26858941014E+03  0.75093530809E+03  0.70125855838E+03 0.  0.
        1    1    3    3  502    0  0.71050516812E+02 -0.11799774926E+03  0.47957897904E+03  0.49896657396E+03  0.50400001928E-02 0.  1.
       -1    1    3    3    0  502 -0.71050516812E+02  0.11799774926E+03 -0.21098956890E+03  0.25196873413E+03  0.50400001928E-02 0. -1.
</event>
<event>
 5   0  0.7947250E-03  0.6993537E+03  0.7818609E-02  0.9718338E-01
        3   -1    0    0  501    0  0.00000000000E+00  0.00000000000E+00  0.31874443261E+03  0.31874444861E+03  0.10100000352E+00 0.  1.
       -3   -1    0    0    0  501  0.00000000000E+00  0.00000000000E+00 -0.38361102734E+03  0.38361104063E+03  0.10100000352E+00 0. -1.
    10030    2    1    2    0    0  0.00000000000E+00  0.00000000000E+00 -0.64866594730E+02  0.70235548924E+03  0.69935367173E+03 0.  0.
        2    1    3    3  502    0 -0.83341326448E+02  0.20139878821E+03  0.24217525353E+03  0.32581605549E+03  0.25500000920E-02 0.  1.
       -2    1    3    3    0  502  0.83341326448E+02 -0.20139878821E+03 -0.30704184826E+03  0.37653943376E+03  0.25500000920E-02 0. -1.
</event>
<event>
 5   0  0.7947250E-03  0.7151261E+03  0.7818609E-02  0.9691709E-01
       -4   -1    0    0    0  501  0.00000000000E+00  0.00000000000E+00  0.75449691992E+03  0.75449798878E+03  0.12699999809E+01 0.  1.
        4   -1    0    0  501    0  0.00000000000E+00  0.00000000000E+00 -0.16944884956E+03  0.16945360875E+03  0.12699999809E+01 0. -1.
    10030    2    1    2    0    0  0.00000000000E+00  0.00000000000E+00  0.58504807036E+03  0.92395159753E+03  0.71512607976E+03 0.  0.
        1    1    3    3  502    0 -0.67257979736E+02  0.24562059554E+03 -0.31763850520E+02  0.25663603608E+03  0.50400001928E-02 0. -1.
       -1    1    3    3    0  502  0.67257979736E+02 -0.24562059554E+03  0.61681192088E+03  0.66731556145E+03  0.50400001928E-02 0.  1.
</event>
<event>
 5   0  0.1197259E-02  0.7025018E+03  0.7818609E-02  0.9712963E-01
        1   -1    0    0  501    0  0.00000000000E+00  0.00000000000E+00  0.46724231226E+03  0.46724231229E+03  0.50400001928E-02 0. -1.
       -1   -1    0    0    0  501  0.00000000000E+00  0.00000000000E+00 -0.26405396000E+03  0.26405396005E+03  0.50400001928E-02 0.  1.
    10030    2    1    2    0    0  0.00000000000E+00  0.00000000000E+00  0.20318835226E+03  0.73129627234E+03  0.70250176615E+03 0.  0.
        3    1    3    3  502    0  0.32570938153E+03  0.37308691382E+02 -0.29663838600E+02  0.32917851265E+03  0.10100000352E+00 0.  1.
       -3    1    3    3    0  502 -0.32570938153E+03 -0.37308691382E+02  0.23285219086E+03  0.40211775969E+03  0.10100000352E+00 0. -1.
</event>
<event>
 5   0  0.1237686E-02  0.6985250E+03  0.7818609E-02  0.9719758E-01
       -1   -1    0    0    0  501  0.00000000000E+00  0.00000000000E+00  0.21019564142E+03  0.21019564148E+03  0.50400001928E-02 0.  1.
        1   -1    0    0  501    0  0.00000000000E+00  0.00000000000E+00 -0.58033692454E+03  0.58033692456E+03  0.50400001928E-02 0. -1.
    10030    2    1    2    0    0  0.00000000000E+00  0.00000000000E+00 -0.37014128313E+03  0.79053256604E+03  0.69852499490E+03 0.  0.
        5    1    3    3  502    0  0.34223285917E+03 -0.63942177885E+02 -0.21606956705E+03  0.40978052639E+03  0.46999998093E+01 0. -1.
       -5    1    3    3    0  502 -0.34223285917E+03  0.63942177885E+02 -0.15407171608E+03  0.38075203965E+03  0.46999998093E+01 0.  1.
</event>
<event>
 5   0  0.1973067E-02  0.6957254E+03  0.7818609E-02  0.9724570E-01
       -2   -1    0    0    0  501  0.00000000000E+00  0.00000000000E+00  0.25376744715E+03  0.25376744716E+03  0.25500000920E-02 0.  1.
        2   -1    0    0  501    0  0.00000000000E+00  0.00000000000E+00 -0.47684789056E+03  0.47684789057E+03  0.25500000920E-02 0. -1.
    10030    2    1    2    0    0  0.00000000000E+00  0.00000000000E+00 -0.22308044341E+03  0.73061533773E+03  0.69572543974E+03 0.  0.
        5    1    3    3  502    0  0.14425828274E+03  0.30592192046E+03 -0.19677524457E+03  0.39133267233E+03  0.46999998093E+01 0.  1.
       -5    1    3    3    0  502 -0.14425828274E+03 -0.30592192046E+03 -0.26305198847E+02  0.33928266540E+03  0.46999998093E+01 0. -1.
</event>
<event>
 5   0  0.1257442E-02  0.6993135E+03  0.7818609E-02  0.9718407E-01
        1   -1    0    0  501    0  0.00000000000E+00  0.00000000000E+00  0.10479061579E+04  0.10479061580E+04  0.50400001928E-02 0. -1.
       -1   -1    0    0    0  501  0.00000000000E+00  0.00000000000E+00 -0.11667060533E+03  0.11667060544E+03  0.50400001928E-02 0.  1.
    10030    2    1    2    0    0  0.00000000000E+00  0.00000000000E+00  0.93123555262E+03  0.11645767634E+04  0.69931350866E+03 0.  0.
        1    1    3    3  502    0 -0.25995132298E+03  0.23148370235E+03  0.41037422788E+03  0.53811374421E+03  0.50400001928E-02 0. -1.
       -1    1    3    3    0  502  0.25995132298E+03 -0.23148370235E+03  0.52086132473E+03  0.62646301918E+03  0.50400001928E-02 0.  1.
</event>
<event>
 5   0  0.1237686E-02  0.6941197E+03  0.7818609E-02  0.9727341E-01
       -1   -1    0    0    0  501  0.00000000000E+00  0.00000000000E+00  0.85318024837E+02  0.85318024986E+02  0.50400001928E-02 0.  1.
        1   -1    0    0  501    0  0.00000000000E+00  0.00000000000E+00 -0.14117829876E+04  0.14117829876E+04  0.50400001928E-02 0. -1.
    10030    2    1    2    0    0  0.00000000000E+00  0.00000000000E+00 -0.13264649628E+04  0.14971010126E+04  0.69411969032E+03 0.  0.
        5    1    3    3  502    0  0.31382486989E+03 -0.38004230005E+02 -0.35443532975E+03  0.47494932722E+03  0.46999998093E+01 0.  1.
       -5    1    3    3    0  502 -0.31382486989E+03  0.38004230005E+02 -0.97202963304E+03  0.10221516854E+04  0.46999998093E+01 0. -1.
</event>
<event>
 5   0  0.1226303E-02  0.6997073E+03  0.7818609E-02  0.9717733E-01
       -1   -1    0    0    0  501  0.00000000000E+00  0.00000000000E+00  0.11954552729E+03  0.11954552740E+03  0.50400001928E-02 0. -1.
        1   -1    0    0  501    0  0.00000000000E+00  0.00000000000E+00 -0.10238574842E+04  0.10238574842E+04  0.50400001928E-02 0.  1.
    10030    2    1    2    0    0  0.00000000000E+00  0.00000000000E+00 -0.90431195686E+03  0.11434030116E+04  0.69970731849E+03 0.  0.
        4    1    3    3  502    0 -0.25963441549E+03  0.21649300950E+03 -0.59937811644E+03  0.68813878850E+03  0.12699999809E+01 0.  1.
       -4    1    3    3    0  502  0.25963441549E+03 -0.21649300950E+03 -0.30493384042E+03  0.45526422307E+03  0.12699999809E+01 0. -1.
</event>
<event>
 5   0  0.1223742E-02  0.6985592E+03  0.7818609E-02  0.9719699E-01
        1   -1    0    0  501    0  0.00000000000E+00  0.00000000000E+00  0.11833785774E+04  0.11833785774E+04  0.50400001928E-02 0.  1.
       -1   -1    0    0    0  501  0.00000000000E+00  0.00000000000E+00 -0.10309148583E+03  0.10309148595E+03  0.50400001928E-02 0. -1.
    10030    2    1    2    0    0  0.00000000000E+00  0.00000000000E+00  0.10802870916E+04  0.12864700634E+04  0.69855924854E+03 0.  0.
        2    1    3    3  502    0  0.44416715017E+02  0.88600036413E+02  0.11569394290E+04  0.11611768398E+04  0.25500000920E-02 0.  1.
       -2    1    3    3    0  502 -0.44416715017E+02 -0.88600036413E+02 -0.76652337412E+02  0.12529322353E+03  0.25500000920E-02 0. -1.
</event>
<event>
 5   0  0.2026361E-02  0.6988554E+03  0.7818609E-02  0.9719192E-01
       -2   -1    0    0    0  501  0.00000000000E+00  0.00000000000E+00  0.43433803267E+03  0.43433803267E+03  0.25500000920E-02 0. -1.
        2   -1    0    0  501    0  0.00000000000E+00  0.00000000000E+00 -0.28111683911E+03  0.28111683912E+03  0.25500000920E-02 0.  1.
    10030    2    1    2    0    0  0.00000000000E+00  0.00000000000E+00  0.15322119356E+03  0.71545487179E+03  0.69885544958E+03 0.  0.
        2    1    3    3  502    0  0.32651809731E+03 -0.12406103531E+03  0.86564001528E+02  0.35985904841E+03  0.25500000920E-02 0. -1.
       -2    1    3    3    0  502 -0.32651809731E+03  0.12406103531E+03  0.66657192032E+02  0.35559582338E+03  0.25500000920E-02 0.  1.
</event>
<event>
 5   0  0.1948138E-02  0.6853925E+03  0.7818609E-02  0.9742544E-01
       -2   -1    0    0    0  501  0.00000000000E+00  0.00000000000E+00  0.85637221782E+02  0.85637221820E+02  0.25500000920E-02 0. -1.
        2   -1    0    0  501    0  0.00000000000E+00  0.00000000000E+00 -0.13713747547E+04  0.13713747547E+04  0.25500000920E-02 0.  1.
    10030    2    1    2    0    0  0.00000000000E+00  0.00000000000E+00 -0.12857375329E+04  0.14570119765E+04  0.68539251248E+03 0.  0.
        3    1    3    3  502    0  0.16114393999E+03 -0.29665048540E+03 -0.76812612212E+03  0.83903911087E+03  0.10100000352E+00 0.  1.
       -3    1    3    3    0  502 -0.16114393999E+03  0.29665048540E+03 -0.51761141075E+03  0.61797286561E+03  0.10100000352E+00 0. -1.
</event>
<event>
 5   0  0.2006362E-02  0.7011975E+03  0.7818609E-02  0.9715187E-01
        2   -1    0    0  501    0  0.00000000000E+00  0.00000000000E+00  0.17489829831E+04  0.17489829831E+04  0.25500000920E-02 0.  1.
       -2   -1    0    0    0  501  0.00000000000E+00  0.00000000000E+00 -0.70280540658E+02  0.70280540704E+02  0.25500000920E-02 0. -1.
    10030    2    1    2    0    0  0.00000000000E+00  0.00000000000E+00  0.16787024424E+04  0.18192635238E+04  0.70119746062E+03 0.  0.
        4    1    3    3  502    0 -0.48612200251E+02  0.15970880164E+03  0.39468466684E+02  0.17155005129E+03  0.12699999809E+01 0. -1.
       -4    1    3    3    0  502  0.48612200251E+02 -0.15970880164E+03  0.16392339757E+04  0.16477134725E+04  0.12699999809E+01 0.  1.
</event>
<event>
 5   0  0.1197259E-02  0.6924314E+03  0.7818609E-02  0.9730264E-01
       -1   -1    0    0    0  501  0.00000000000E+00  0.00000000000E+00  0.24100856002E+03  0.24100856007E+03  0.50400001928E-02 0.  1.
        1   -1    0    0  501    0  0.00000000000E+00  0.00000000000E+00 -0.49734880516E+03  0.49734880518E+03  0.50400001928E-02 0. -1.
    10030    2    1    2    0    0  0.00000000000E+00  0.00000000000E+00 -0.25634024513E+03  0.73835736526E+03  0.69243142444E+03 0.  0.
        3    1    3    3  502    0  0.19074005774E+03 -0.76070778129E+02 -0.42539923334E+03  0.47236961252E+03  0.10100000352E+00 0. -1.
       -3    1    3    3    0  502 -0.19074005774E+03  0.76070778129E+02  0.16905898820E+03  0.26598775273E+03  0.10100000352E+00 0.  1.
</event>
<event>
 5   0  0.1909053E-02  0.7008239E+03  0.7818609E-02  0.9715824E-01
       -2   -1    0    0    0  501  0.00000000000E+00  0.00000000000E+00  0.25417269138E+03  0.25417269139E+03  0.25500000920E-02 0. -1.
        2   -1    0    0  501    0  0.00000000000E+00  0.00000000000E+00 -0.48309100843E+03  0.48309100844E+03  0.25500000920E-02 0.  1.
    10030    2    1    2    0    0  0.00000000000E+00  0.00000000000E+00 -0.22891831705E+03  0.73726369983E+03  0.70082392026E+03 0.  0.
        1    1    3    3  502    0 -0.80772302878E+02 -0.18088194305E+03 -0.41853157419E+03  0.46304548464E+03  0.50400001928E-02 0.  1.
       -1    1    3    3    0  502  0.80772302878E+02  0.18088194305E+03  0.18961325714E+03  0.27421821518E+03  0.50400001928E-02 0. -1.
</event>
<event>
 5   0  0.1973067E-02  0.6962551E+03  0.7818609E-02  0.9723658E-01
       -2   -1    0    0    0  501  0.00000000000E+00  0.00000000000E+00  0.17487409896E+03  0.17487409898E+03  0.25500000920E-02 0.  1.
        2   -1    0    0  501    0  0.00000000000E+00  0.00000000000E+00 -0.69302888494E+03  0.69302888495E+03  0.25500000920E-02 0. -1.
    10030    2    1    2    0    0  0.00000000000E+00  0.00000000000E+00 -0.51815478598E+03  0.86790298393E+03  0.69625513088E+03 0.  0.
        5    1    3    3  502    0 -0.16595809601E+03 -0.29744154347E+03 -0.16955994929E+03  0.38050785513E+03  0.46999998093E+01 0. -1.
       -5    1    3    3    0  502  0.16595809601E+03  0.29744154347E+03 -0.34859483669E+03  0.48739512880E+03  0.46999998093E+01 0.  1.
</event>
<event>
 5   0  0.1226303E-02  0.7008419E+03  0.7818609E-02  0.9715794E-01
       -1   -1    0    0    0  501  0.00000000000E+00  0.00000000000E+00  0.29384938676E+03  0.29384938680E+03  0.50400001928E-02 0.  1.
        1   -1    0    0  501    0  0.00000000000E+00  0.00000000000E+00 -0.41788355067E+03  0.41788355070E+03  0.50400001928E-02 0. -1.
    10030    2    1    2    0    0  0.00000000000E+00  0.00000000000E+00 -0.12403416391E+03  0.71173293751E+03  0.70084185129E+03 0.  0.
        4    1    3    3  502    0 -0.79352571870E+02  0.10750082816E+03  0.26696138323E+03  0.29853517674E+03  0.12699999809E+01 0.  1.
       -4    1    3    3    0  502  0.79352571870E+02 -0.10750082816E+03 -0.39099554714E+03  0.41319776076E+03  0.12699999809E+01 0. -1.
</event>
<event>
 5   0  0.1223742E-02  0.6998359E+03  0.7818609E-02  0.9717513E-01
       -1   -1    0    0    0  501  0.00000000000E+00  0.00000000000E+00  0.10178348771E+04  0.10178348771E+04  0.50400001928E-02 0.  1.
        1   -1    0    0  501    0  0.00000000000E+00  0.00000000000E+00 -0.12029709988E+03  0.12029709998E+03  0.50400001928E-02 0. -1.
    10030    2    1    2    0    0  0.00000000000E+00  0.00000000000E+00  0.89753777720E+03  0.11381319771E+04  0.69983593486E+03 0.  0.
        2    1    3    3  502    0 -0.16632878620E+03 -0.21296089446E+03  0.81031993384E+03  0.85418733476E+03  0.25500000920E-02 0.  1.
       -2    1    3    3    0  502  0.16632878620E+03  0.21296089446E+03  0.87217843362E+02  0.28394464231E+03  0.25500000920E-02 0. -1.
</event>
<event>
 5   0  0.7947250E-03  0.7084417E+03  0.7818609E-02  0.9702904E-01
       -4   -1    0    0    0  501  0.00000000000E+00  0.00000000000E+00  0.39110278797E+03  0.39110484995E+03  0.12699999809E+01 0. -1.
        4   -1    0    0  501    0  0.00000000000E+00  0.00000000000E+00 -0.32081276287E+03  0.32081527663E+03  0.12699999809E+01 0.  1.
    10030    2    1    2    0    0  0.00000000000E+00  0.00000000000E+00  0.70290025102E+02  0.71192012658E+03  0.70844165533E+03 0.  0.
        5    1    3    3  502    0 -0.63014628307E+02  0.29033445558E+03  0.22892691167E+03  0.37509273569E+03  0.46999998093E+01 0. -1.
       -5    1    3    3    0  502  0.63014628307E+02 -0.29033445558E+03 -0.15863688656E+03  0.33682739090E+03  0.46999998093E+01 0.  1.
</event>
<event>
 5   0  0.1197259E-02  0.6921464E+03  0.7818609E-02  0.9730758E-01
        1   -1    0    0  501    0  0.00000000000E+00  0.00000000000E+00  0.45620374786E+03  0.45620374789E+03  0.50400001928E-02 0. -1.
       -1   -1    0    0    0  501  0.00000000000E+00  0.00000000000E+00 -0.26252885381E+03  0.26252885385E+03  0.50400001928E-02 0.  1.
    10030    2    1    2    0    0  0.00000000000E+00  0.00000000000E+00  0.19367489406E+03  0.71873260175E+03  0.69214636330E+03 0.  0.
        3    1    3    3  502    0  0.20723704994E+02  0.19097932453E+03 -0.20208086022E+03  0.27881760815E+03  0.10100000352E+00 0.  1.
       -3    1    3    3    0  502 -0.20723704994E+02 -0.19097932453E+03  0.39575575428E+03  0.43991499360E+03  0.10100000352E+00 0. -1.
</event>
<event>
 5   0  0.1223742E-02  0.7030951E+03  0.7818609E-02  0.9711954E-01
       -1   -1    0    0    0  501  0.00000000000E+00  0.00000000000E+00  0.16099139122E+03  0.16099139130E+03  0.50400001928E-02 0. -1.
        1   -1    0    0  501    0  0.00000000000E+00  0.00000000000E+00 -0.76765393576E+03  0.76765393578E+03  0.50400001928E-02 0.  1.
    10030    2    1    2    0    0  0.00000000000E+00  0.00000000000E+00 -0.60666254454E+03  0.92864532708E+03  0.70309508642E+03 0.  0.
        2    1    3    3  502    0 -0.16548799056E+03  0.29964910902E+03 -0.19758661195E+03  0.39524211919E+03  0.25500000920E-02 0. -1.
       -2    1    3    3    0  502  0.16548799056E+03 -0.29964910902E+03 -0.40907593260E+03  0.53340320789E+03  0.25500000920E-02 0.  1.
</event>
<event>
 5   0  0.2026361E-02  0.7010743E+03  0.7818609E-02  0.9715397E-01
        2   -1    0    0  501    0  0.00000000000E+00  0.00000000000E+00  0.13787522693E+04  0.13787522693E+04  0.25500000920E-02 0.  1.
       -2   -1    0    0    0  501  0.00000000000E+00  0.00000000000E+00 -0.89121371296E+02  0.89121371332E+02  0.25500000920E-02 0. -1.
    10030    2    1    2    0    0  0.00000000000E+00  0.00000000000E+00  0.12896308980E+04  0.14678736406E+04  0.70107429833E+03 0.  0.
        2    1    3    3  502    0 -0.26343212940E+03  0.16618849752E+03  0.30811098564E+03  0.43811811534E+03  0.25500000920E-02 0. -1.
       -2    1    3    3    0  502  0.26343212940E+03 -0.16618849752E+03  0.98151991235E+03  0.10297555253E+04  0.25500000920E-02 0.  1.
</event>
<event>
 5   0  0.2026361E-02  0.6865096E+03  0.7818609E-02  0.9740585E-01
       -2   -1    0    0    0  501  0.00000000000E+00  0.00000000000E+00  0.93016628747E+02  0.93016628782E+02  0.25500000920E-02 0.  1.
        2   -1    0    0  501    0  0.00000000000E+00  0.00000000000E+00 -0.12666968732E+04  0.12666968732E+04  0.25500000920E-02 0. -1.
    10030    2    1    2    0    0  0.00000000000E+00  0.00000000000E+00 -0.11736802445E+04  0.13597135020E+04  0.68650964397E+03 0.  0.
        2    1    3    3  502    0 -0.20428577022E+03 -0.22305493498E+03 -0.90827250827E+03  0.95731140661E+03  0.25500000920E-02 0. -1.
       -2    1    3    3    0  502  0.20428577022E+03  0.22305493498E+03 -0.26540773618E+03  0.40240209538E+03  0.25500000920E-02 0.  1.
</event>
<event>
 5   0  0.1948138E-02  0.7000552E+03  0.7818609E-02  0.9717138E-01
       -2   -1    0    0    0  501  0.00000000000E+00  0.00000000000E+00  0.32331254670E+03  0.32331254671E+03  0.25500000920E-02 0.  1.
        2   -1    0    0  501    0  0.00000000000E+00  0.00000000000E+00 -0.37895009537E+03  0.37895009538E+03  0.25500000920E-02 0. -1.
    10030    2    1    2    0    0  0.00000000000E+00  0.00000000000E+00 -0.55637548671E+02  0.70226264209E+03  0.70005519901E+03 0.  0.
        3    1    3    3  502    0 -0.21119159044E+03 -0.25920991891E+03 -0.13171969168E+03  0.35936298823E+03  0.10100000352E+00 0. -1.
       -3    1    3    3    0  502  0.21119159044E+03  0.25920991891E+03  0.76082143006E+02  0.34289965386E+03  0.10100000352E+00 0.  1.
</event>
<event>
 5   0  0.7947250E-03  0.7020062E+03  0.7818609E-02  0.9713808E-01
       -3   -1    0    0    0  501  0.00000000000E+00  0.00000000000E+00  0.86086804891E+03  0.86086805483E+03  0.10100000352E+00 0. -1.
        3   -1    0    0  501    0  0.00000000000E+00  0.00000000000E+00 -0.14311501668E+03  0.14311505232E+03  0.10100000352E+00 0.  1.
    10030    2    1    2    0    0  0.00000000000E+00  0.00000000000E+00  0.71775303223E+03  0.10039831071E+04  0.70200617103E+03 0.  0.
        1    1    3    3  502    0  0.33367256205E+03 -0.77129774493E+01  0.20347962223E+03  0.39089746146E+03  0.50400001928E-02 0. -1.
       -1    1    3    3    0  502 -0.33367256205E+03  0.77129774493E+01  0.51427341000E+03  0.61308564569E+03  0.50400001928E-02 0.  1.
</event>
<event>
 5   0  0.1226303E-02  0.7006530E+03  0.7818609E-02  0.9716116E-01
       -1   -1    0    0    0  501  0.00000000000E+00  0.00000000000E+00  0.39102070174E+03  0.39102070177E+03  0.50400001928E-02 0. -1.
        1   -1    0    0  501    0  0.00000000000E+00  0.00000000000E+00 -0.31386739460E+03  0.31386739464E+03  0.50400001928E-02 0.  1.
    10030    2    1    2    0    0  0.00000000000E+00  0.00000000000E+00  0.77153307136E+02  0.70488809642E+03  0.70065297806E+03 0.  0.
        4    1    3    3  502    0 -0.38608767133E+01 -0.99336633647E+02  0.37653030156E+03  0.38943465953E+03  0.12699999809E+01 0. -1.
       -4    1    3    3    0  502  0.38608767133E+01  0.99336633647E+02 -0.29937699442E+03  0.31545343688E+03  0.12699999809E+01 0.  1.
</event>
<event>
 5   0  0.1223742E-02  0.7004733E+03  0.7818609E-02  0.9716423E-01
       -1   -1    0    0    0  501  0.00000000000E+00  0.00000000000E+00  0.18197628214E+03  0.18197628221E+03  0.50400001928E-02 0.  1.
        1   -1    0    0  501    0  0.00000000000E+00  0.00000000000E+00 -0.67407520238E+03  0.67407520240E+03  0.50400001928E-02 0. -1.
    10030    2    1    2    0    0  0.00000000000E+00  0.00000000000E+00 -0.49209892023E+03  0.85605148461E+03  0.70047326645E+03 0.  0.
        2    1    3    3  502    0  0.30065998682E+03 -0.13119932982E+03 -0.39600524691E+03  0.51422742770E+03  0.25500000920E-02 0. -1.
       -2    1    3    3    0  502 -0.30065998682E+03  0.13119932982E+03 -0.96093673328E+02  0.34182405691E+03  0.25500000920E-02 0.  1.
</event>
<event>
 5   0  0.7947250E-03  0.7105158E+03  0.7818609E-02  0.9699416E-01
       -3   -1    0    0    0  501  0.00000000000E+00  0.00000000000E+00  0.13403582998E+04  0.13403583036E+04  0.10100000352E+00 0. -1.
        3   -1    0    0  501    0  0.00000000000E+00  0.00000000000E+00 -0.94159998062E+02  0.94160052231E+02  0.10100000352E+00 0.  1.
    10030    2    1    2    0    0  0.00000000000E+00  0.00000000000E+00  0.12461983018E+04  0.14345183559E+04  0.71051580277E+03 0.  0.
        5    1    3    3  502    0  0.18660290264E+03  0.13367638537E+03  0.75750038130E+02  0.24176471528E+03  0.46999998093E+01 0.  1.
       -5    1    3    3    0  502 -0.18660290264E+03 -0.13367638537E+03  0.11704482637E+04  0.11927536406E+04  0.46999998093E+01 0. -1.
</event>
<event>
 5   0  0.1223742E-02  0.6959385E+03  0.7818609E-02  0.9724203E-01
       -1   -1    0    0    0  501  0.00000000000E+00  0.00000000000E+00  0.21361785962E+03  0.21361785968E+03  0.50400001928E-02 0. -1.
        1   -1    0    0  501    0  0.00000000000E+00  0.00000000000E+00 -0.56681865796E+03  0.56681865798E+03  0.50400001928E-02 0.  1.
    10030    2    1    2    0    0  0.00000000000E+00  0.00000000000E+00 -0.35320079834E+03  0.78043651766E+03  0.69593847009E+03 0.  0.
        2    1    3    3  502    0  0.26839365723E+03 -0.42114127558E+02  0.67223992405E+02  0.27987107772E+03  0.25500000920E-02 0. -1.
       -2    1    3    3    0  502 -0.26839365723E+03  0.42114127558E+02 -0.42042479074E+03  0.50056543994E+03  0.25500000920E-02 0.  1.
</event>
<event>
 5   0  0.1948138E-02  0.6987211E+03  0.7818609E-02  0.9719422E-01
       -2   -1    0    0    0  501  0.00000000000E+00  0.00000000000E+00  0.70260539016E+03  0.70260539017E+03  0.25500000920E-02 0.  1.
        2   -1    0    0  501    0  0.00000000000E+00  0.00000000000E+00 -0.17371458508E+03  0.17371458509E+03  0.25500000920E-02 0. -1.
    10030    2    1    2    0    0  0.00000000000E+00  0.00000000000E+00  0.52889080508E+03  0.87631997526E+03  0.69872112845E+03 0.  0.
        3    1    3    3  502    0 -0.15438828518E+03  0.94897715705E+02  0.63904662847E+03  0.66424537831E+03  0.10100000352E+00 0.  1.
       -3    1    3    3    0  502  0.15438828518E+03 -0.94897715705E+02 -0.11015582338E+03  0.21207459695E+03  0.10100000352E+00 0. -1.
</event>
<event>
 5   0  0.2026361E-02  0.7521159E+03  0.7818609E-02  0.9632037E-01
        2   -1    0    0  501    0  0.00000000000E+00  0.00000000000E+00  0.62462012405E+03  0.62462012406E+03  0.25500000920E-02 0. -1.
       -2   -1    0    0    0  501  0.00000000000E+00  0.00000000000E+00 -0.22640892528E+03  0.22640892529E+03  0.25500000920E-02 0.  1.
    10030    2    1    2    0    0  0.00000000000E+00  0.00000000000E+00  0.39821119877E+03  0.85102904935E+03  0.75211587140E+03 0.  0.
        2    1    3    3  502    0 -0.15200160859E+03 -0.99531874963E+02 -0.17345015402E+03  0.25118924954E+03  0.25500000920E-02 0.  1.
       -2    1    3    3    0  502  0.15200160859E+03  0.99531874963E+02  0.57166135280E+03  0.59983979981E+03  0.25500000920E-02 0. -1.
</event>
<event>
 5   0  0.2026361E-02  0.6994583E+03  0.7818609E-02  0.9718159E-01
        2   -1    0    0  501    0  0.00000000000E+00  0.00000000000E+00  0.44572268174E+03  0.44572268175E+03  0.25500000920E-02 0.  1.
       -2   -1    0    0    0  501  0.00000000000E+00  0.00000000000E+00 -0.27440939819E+03  0.27440939821E+03  0.25500000920E-02 0. -1.
    10030    2    1    2    0    0  0.00000000000E+00  0.00000000000E+00  0.17131328355E+03  0.72013207996E+03  0.69945834148E+03 0.  0.
        2    1    3    3  502    0  0.15525979954E+03  0.31336963291E+03  0.87806586939E+02  0.36057749361E+03  0.25500000920E-02 0.  1.
       -2    1    3    3    0  502 -0.15525979954E+03 -0.31336963291E+03  0.83506696612E+02  0.35955458635E+03  0.25500000920E-02 0. -1.
</event>
<event>
 5   0  0.1223742E-02  0.7081931E+03  0.7818609E-02  0.9703323E-01
        1   -1    0    0  501    0  0.00000000000E+00  0.00000000000E+00  0.27931785410E+03  0.27931785415E+03  0.50400001928E-02 0. -1.
       -1   -1    0    0    0  501  0.00000000000E+00  0.00000000000E+00 -0.44889487712E+03  0.44889487715E+03  0.50400001928E-02 0.  1.
    10030    2    1    2    0    0  0.00000000000E+00  0.00000000000E+00 -0.16957702302E+03  0.72821273130E+03  0.70819306357E+03 0.  0.
        2    1    3    3  502    0 -0.26525495103E+03  0.55232167391E+02  0.14963322755E+03  0.30951717909E+03  0.25500000920E-02 0. -1.
       -2    1    3    3    0  502  0.26525495103E+03 -0.55232167391E+02 -0.31921025057E+03  0.41869555221E+03  0.25500000920E-02 0.  1.
</event>
<event>
 5   0  0.1237686E-02  0.6929964E+03  0.7818609E-02  0.9729285E-01
        1   -1    0    0  501    0  0.00000000000E+00  0.00000000000E+00  0.48674250982E+03  0.48674250985E+03  0.50400001928E-02 0. -1.
       -1   -1    0    0    0  501  0.00000000000E+00  0.00000000000E+00 -0.24666223764E+03  0.24666223770E+03  0.50400001928E-02 0.  1.
    10030    2    1    2    0    0  0.00000000000E+00  0.00000000000E+00  0.24008027218E+03  0.73340474754E+03  0.69299638284E+03 0.  0.
        5    1    3    3  502    0 -0.24048176298E+03 -0.10875209063E+03 -0.11750361092E+03  0.28894235432E+03  0.46999998093E+01 0.  1.
       -5    1    3    3    0  502  0.24048176298E+03  0.10875209063E+03  0.35758388309E+03  0.44446239322E+03  0.46999998093E+01 0. -1.
</event>
<event>
 5   0  0.1909053E-02  0.6950160E+03  0.7818609E-02  0.9725794E-01
        2   -1    0    0  501    0  0.00000000000E+00  0.00000000000E+00  0.33891558624E+03  0.33891558625E+03  0.25500000920E-02 0. -1.
       -2   -1    0    0    0  501  0.00000000000E+00  0.00000000000E+00 -0.35631824784E+03  0.35631824785E+03  0.25500000920E-02 0.  1.
    10030    2    1    2    0    0  0.00000000000E+00  0.00000000000E+00 -0.17402661601E+02  0.69523383410E+03  0.69501599366E+03 0.  0.
        1    1    3    3  502    0  0.29523961141E+03 -0.17733529753E+03  0.37655096904E+02  0.34645655174E+03  0.50400001928E-02 0.  1.
       -1    1    3    3    0  502 -0.29523961141E+03  0.17733529753E+03 -0.55057758505E+02  0.34877728236E+03  0.50400001928E-02 0. -1.
</event>
<event>
 5   0  0.1948138E-02  0.6890450E+03  0.7818609E-02  0.9736152E-01
        2   -1    0    0  501    0  0.00000000000E+00  0.00000000000E+00  0.35632929751E+03  0.35632929752E+03  0.25500000920E-02 0. -1.
       -2   -1    0    0    0  501  0.00000000000E+00  0.00000000000E+00 -0.33310694881E+03  0.33310694882E+03  0.25500000920E-02 0.  1.
    10030    2    1    2    0    0  0.00000000000E+00  0.00000000000E+00  0.23222348704E+02  0.68943624634E+03  0.68904503503E+03 0.  0.
        3    1    3    3  502    0  0.13286409359E+03  0.22694062967E+03 -0.21109290860E+03  0.33721675970E+03  0.10100000352E+00 0.  1.
       -3    1    3    3    0  502 -0.13286409359E+03 -0.22694062967E+03  0.23431525731E+03  0.35221948664E+03  0.10100000352E+00 0. -1.
</event>
<event>
 5   0  0.7947250E-03  0.6983033E+03  0.7818609E-02  0.9720138E-01
        4   -1    0    0  501    0  0.00000000000E+00  0.00000000000E+00  0.10293813717E+04  0.10293821551E+04  0.12699999809E+01 0. -1.
       -4   -1    0    0    0  501  0.00000000000E+00  0.00000000000E+00 -0.11842308893E+03  0.11842989864E+03  0.12699999809E+01 0.  1.
    10030    2    1    2    0    0  0.00000000000E+00  0.00000000000E+00  0.91095828276E+03  0.11478120538E+04  0.69830331362E+03 0.  0.
        4    1    3    3  502    0 -0.30688221696E+03  0.16651868883E+03  0.45599302077E+03  0.57431386602E+03  0.12699999809E+01 0.  1.
       -4    1    3    3    0  502  0.30688221696E+03 -0.16651868883E+03  0.45496526199E+03  0.57349818773E+03  0.12699999809E+01 0. -1.
</event>
<event>
 5   0  0.1948138E-02  0.6998909E+03  0.7818609E-02  0.9717419E-01
        2   -1    0    0  501    0  0.00000000000E+00  0.00000000000E+00  0.14979828315E+04  0.14979828315E+04  0.25500000920E-02 0.  1.
       -2   -1    0    0    0  501  0.00000000000E+00  0.00000000000E+00 -0.81751141175E+02  0.81751141214E+02  0.25500000920E-02 0. -1.
    10030    2    1    2    0    0  0.00000000000E+00  0.00000000000E+00  0.14162316903E+04  0.15797339727E+04  0.69989086569E+03 0.  0.
        3    1    3    3  502    0  0.34338564700E+03  0.30034831156E+02  0.84440524870E+03  0.91205045248E+03  0.10100000352E+00 0. -1.
       -3    1    3    3    0  502 -0.34338564700E+03 -0.30034831156E+02  0.57182644162E+03  0.66768352023E+03  0.10100000352E+00 0.  1.
</event>
<event>
 5   0  0.2026361E-02  0.7007743E+03  0.7818609E-02  0.9715909E-01
       -2   -1    0    0    0  501  0.00000000000E+00  0.00000000000E+00  0.28325710999E+03  0.28325711000E+03  0.25500000920E-02 0. -1.
        2   -1    0    0  501    0  0.00000000000E+00  0.00000000000E+00 -0.43342657550E+03  0.43342657551E+03  0.25500000920E-02 0.  1.
    10030    2    1    2    0    0  0.00000000000E+00  0.00000000000E+00 -0.15016946551E+03  0.71668368550E+03  0.70077431224E+03 0.  0.
        2    1    3    3  502    0 -0.20611491175E+03  0.40106391188E+02 -0.36195103295E+03  0.41845003252E+03  0.25500000920E-02 0.  1.
       -2    1    3    3    0  502  0.20611491175E+03 -0.40106391188E+02  0.21178156743E+03  0.29823365298E+03  0.25500000920E-02 0. -1.
</event>
<event>
 5   0  0.1948138E-02  0.6986140E+03  0.7818609E-02  0.9719605E-01
        2   -1    0    0  501    0  0.00000000000E+00  0.00000000000E+00  0.10731373951E+04  0.10731373951E+04  0.25500000920E-02 0. -1.
       -2   -1    0    0    0  501  0.00000000000E+00  0.00000000000E+00 -0.11369967357E+03  0.11369967360E+03  0.25500000920E-02 0.  1.
    10030    2    1    2    0    0  0.00000000000E+00  0.00000000000E+00  0.95943772152E+03  0.11868370687E+04  0.69861397506E+03 0.  0.
        3    1    3    3  502    0 -0.15026292352E+03 -0.48294925923E+02  0.10091048310E+04  0.10213735439E+04  0.10100000352E+00 0. -1.
       -3    1    3    3    0  502  0.15026292352E+03  0.48294925923E+02 -0.49667109515E+02  0.16546352475E+03  0.10100000352E+00 0.  1.
</event>
<event>
 5   0  0.1197259E-02  0.7047613E+03  0.7818609E-02  0.9709124E-01
        1   -1    0    0  501    0  0.00000000000E+00  0.00000000000E+00  0.27496141085E+03  0.27496141089E+03  0.50400001928E-02 0.  1.
       -1   -1    0    0    0  501  0.00000000000E+00  0.00000000000E+00 -0.45159836559E+03  0.45159836562E+03  0.50400001928E-02 0. -1.
    10030    2    1    2    0    0  0.00000000000E+00  0.00000000000E+00 -0.17663695474E+03  0.72655977651E+03  0.70476130360E+03 0.  0.
        3    1    3    3  502    0 -0.24804130413E+03  0.67090815931E+02 -0.33691262118E+03  0.42371663957E+03  0.10100000352E+00 0. -1.
       -3    1    3    3    0  502  0.24804130413E+03 -0.67090815931E+02  0.16027566644E+03  0.30284313694E+03  0.10100000352E+00 0.  1.
</event>
<event>
 5   0  0.1237686E-02  0.6997365E+03  0.7818609E-02  0.9717683E-01
       -1   -1    0    0    0  501  0.00000000000E+00  0.00000000000E+00  0.16261568093E+03  0.16261568101E+03  0.50400001928E-02 0. -1.
        1   -1    0    0  501    0  0.00000000000E+00  0.00000000000E+00 -0.75274286007E+03  0.75274286008E+03  0.50400001928E-02 0.  1.
    10030    2    1    2    0    0  0.00000000000E+00  0.00000000000E+00 -0.59012717914E+03  0.91535854109E+03  0.69973650125E+03 0.  0.
        5    1    3    3  502    0 -0.19225677557E+03  0.27578718790E+03 -0.16847396095E+03  0.37606755547E+03  0.46999998093E+01 0. -1.
       -5    1    3    3    0  502  0.19225677557E+03 -0.27578718790E+03 -0.42165321819E+03  0.53929098562E+03  0.46999998093E+01 0.  1.
</event>
<event>
 5   0  0.1909053E-02  0.7013386E+03  0.7818609E-02  0.9714946E-01
       -2   -1    0    0    0  501  0.00000000000E+00  0.00000000000E+00  0.11543837428E+03  0.11543837431E+03  0.25500000920E-02 0. -1.
        2   -1    0    0  501    0  0.00000000000E+00  0.00000000000E+00 -0.10652347076E+04  0.10652347076E+04  0.25500000920E-02 0.  1.
    10030    2    1    2    0    0  0.00000000000E+00  0.00000000000E+00 -0.94979633336E+03  0.11806730820E+04  0.70133861408E+03 0.  0.
        1    1    3    3  502    0  0.20789133979E+03  0.51535993380E+02 -0.94232404245E+03  0.96635881989E+03  0.50400001928E-02 0.  1.
       -1    1    3    3    0  502 -0.20789133979E+03 -0.51535993380E+02 -0.74722909153E+01  0.21431426207E+03  0.50400001928E-02 0. -1.
</event>
<event>
 5   0  0.1223742E-02  0.7314741E+03  0.7818609E-02  0.9664871E-01
        1   -1    0    0  501    0  0.00000000000E+00  0.00000000000E+00  0.33774159583E+03  0.33774159587E+03  0.50400001928E-02 0. -1.
       -1   -1    0    0    0  501  0.00000000000E+00  0.00000000000E+00 -0.39605301537E+03  0.39605301541E+03  0.50400001928E-02 0.  1.
    10030    2    1    2    0    0  0.00000000000E+00  0.00000000000E+00 -0.58311419545E+02  0.73379461127E+03  0.73147406645E+03 0.  0.
        2    1    3    3  502    0 -0.10635918264E+03 -0.12013559003E+02  0.32167790589E+03  0.33901810642E+03  0.25500000920E-02 0. -1.
       -2    1    3    3    0  502  0.10635918264E+03  0.12013559003E+02 -0.37998932544E+03  0.39477650486E+03  0.25500000920E-02 0.  1.
</event>
<event>
 5   0  0.2026361E-02  0.6954860E+03  0.7818609E-02  0.9724983E-01
       -2   -1    0    0    0  501  0.00000000000E+00  0.00000000000E+00  0.51295305218E+02  0.51295305282E+02  0.25500000920E-02 0. -1.
        2   -1    0    0  501    0  0.00000000000E+00  0.00000000000E+00 -0.23574322263E+04  0.23574322263E+04  0.25500000920E-02 0.  1.
    10030    2    1    2    0    0  0.00000000000E+00  0.00000000000E+00 -0.23061369211E+04  0.24087275316E+04  0.69548603338E+03 0.  0.
        2    1    3    3  502    0  0.25683609994E+03 -0.14737508330E+03 -0.52162225534E+03  0.59981161599E+03  0.25500000920E-02 0. -1.
       -2    1    3    3    0  502 -0.25683609994E+03  0.14737508330E+03 -0.17845146658E+04  0.18089159156E+04  0.25500000920E-02 0.  1.
</event>
<event>
 5   0  0.1257442E-02  0.6999595E+03  0.7818609E-02  0.9717301E-01
       -1   -1    0    0    0  501  0.00000000000E+00  0.00000000000E+00  0.59660429331E+03  0.59660429333E+03  0.50400001928E-02 0.  1.
        1   -1    0    0  501    0  0.00000000000E+00  0.00000000000E+00 -0.20530499148E+03  0.20530499154E+03  0.50400001928E-02 0. -1.
    10030    2    1    2    0    0  0.00000000000E+00  0.00000000000E+00  0.39129930184E+03  0.80190928487E+03  0.69995953994E+03 0.  0.
        1    1    3    3  502    0 -0.31941973778E+03 -0.36034479510E+02  0.37075726928E+02  0.32357698025E+03  0.50400001928E-02 0. -1.
       -1    1    3    3    0  502  0.31941973778E+03  0.36034479510E+02  0.35422357491E+03  0.47833230462E+03  0.50400001928E-02 0.  1.
</event>
<event>
 5   0  0.2006362E-02  0.7037480E+03  0.7818609E-02  0.9710844E-01
        2   -1    0    0  501    0  0.00000000000E+00  0.00000000000E+00  0.19927924206E+04  0.19927924206E+04  0.25500000920E-02 0.  1.
       -2   -1    0    0    0  501  0.00000000000E+00  0.00000000000E+00 -0.62131566676E+02  0.62131566728E+02  0.25500000920E-02 0. -1.
    10030    2    1    2    0    0  0.00000000000E+00  0.00000000000E+00  0.19306608539E+04  0.20549239873E+04  0.70374800946E+03 0.  0.
        4    1    3    3  502    0  0.15691666704E+03 -0.11529168305E+03  0.10953127474E+03  0.22341379908E+03  0.12699999809E+01 0. -1.
       -4    1    3    3    0  502 -0.15691666704E+03  0.11529168305E+03  0.18211295792E+04  0.18315101882E+04  0.12699999809E+01 0.  1.
</event>
<event>
 5   0  0.1226303E-02  0.6982878E+03  0.7818609E-02  0.9720165E-01
       -1   -1    0    0    0  501  0.00000000000E+00  0.00000000000E+00  0.21623059240E+03  0.21623059246E+03  0.50400001928E-02 0. -1.
        1   -1    0    0  501    0  0.00000000000E+00  0.00000000000E+00 -0.56375670560E+03  0.56375670562E+03  0.50400001928E-02 0.  1.
    10030    2    1    2    0    0  0.00000000000E+00  0.00000000000E+00 -0.34752611320E+03  0.77998729808E+03  0.69828775287E+03 0.  0.
        4    1    3    3  502    0  0.94803073424E+02 -0.27909880215E+03  0.35256442570E+02  0.29686426821E+03  0.12699999809E+01 0. -1.
       -4    1    3    3    0  502 -0.94803073424E+02  0.27909880215E+03 -0.38278255577E+03  0.48312302988E+03  0.12699999809E+01 0.  1.
</event>
<event>
 5   0  0.1973067E-02  0.6990431E+03  0.7818609E-02  0.9718870E-01
        2   -1    0    0  501    0  0.00000000000E+00  0.00000000000E+00  0.32182876014E+03  0.32182876015E+03  0.25500000920E-02 0. -1.
       -2   -1    0    0    0  501  0.00000000000E+00  0.00000000000E+00 -0.37959729461E+03  0.37959729461E+03  0.25500000920E-02 0.  1.
    10030    2    1    2    0    0  0.00000000000E+00  0.00000000000E+00 -0.57768534461E+02  0.70142605477E+03  0.69904313653E+03 0.  0.
        5    1    3    3  502    0  0.23218251680E+03 -0.24639969582E+02 -0.28982340507E+03  0.37220363423E+03  0.46999998093E+01 0.  1.
       -5    1    3    3    0  502 -0.23218251680E+03  0.24639969582E+02  0.23205487061E+03  0.32922242053E+03  0.46999998093E+01 0. -1.
</event>
<event>
 5   0  0.1223742E-02  0.6991255E+03  0.7818609E-02  0.9718729E-01
       -1   -1    0    0    0  501  0.00000000000E+00  0.00000000000E+00  0.21948400745E+03  0.21948400751E+03  0.50400001928E-02 0. -1.
        1   -1    0    0  501    0  0.00000000000E+00  0.00000000000E+00 -0.55673362711E+03  0.55673362714E+03  0.50400001928E-02 0.  1.
    10030    2    1    2    0    0  0.00000000000E+00  0.00000000000E+00 -0.33724961966E+03  0.77621763464E+03  0.69912553262E+03 0.  0.
        2    1    3    3  502    0 -0.75453722102E+02  0.33811037781E+03 -0.11675923662E+03  0.36557435784E+03  0.25500000920E-02 0. -1.
       -2    1    3    3    0  502  0.75453722102E+02 -0.33811037781E+03 -0.22049038304E+03  0.41064327680E+03  0.25500000920E-02 0.  1.
</event>
<event>
 5   0  0.1197259E-02  0.7005355E+03  0.7818609E-02  0.9716317E-01
       -1   -1    0    0    0  501  0.00000000000E+00  0.00000000000E+00  0.23744880411E+03  0.23744880417E+03  0.50400001928E-02 0.  1.
        1   -1    0    0  501    0  0.00000000000E+00  0.00000000000E+00 -0.51669031741E+03  0.51669031743E+03  0.50400001928E-02 0. -1.
    10030    2    1    2    0    0  0.00000000000E+00  0.00000000000E+00 -0.27924151329E+03  0.75413912160E+03  0.70053550373E+03 0.  0.
        3    1    3    3  502    0  0.20119381168E+03 -0.77572553982E+02 -0.43676906481E+03  0.48709719478E+03  0.10100000352E+00 0. -1.
       -3    1    3    3    0  502 -0.20119381168E+03  0.77572553982E+02  0.15752755152E+03  0.26704192682E+03  0.10100000352E+00 0.  1.
</event>
<event>
 5   0  0.1909053E-02  0.6989628E+03  0.7818609E-02  0.9719008E-01
        2   -1    0    0  501    0  0.00000000000E+00  0.00000000000E+00  0.85256804044E+03  0.85256804044E+03  0.25500000920E-02 0.  1.
       -2   -1    0    0    0  501  0.00000000000E+00  0.00000000000E+00 -0.14325807440E+03  0.14325807442E+03  0.25500000920E-02 0. -1.
    10030    2    1    2    0    0  0.00000000000E+00  0.00000000000E+00  0.70930996604E+03  0.99582611486E+03  0.69896281955E+03 0.  0.
        1    1    3    3  502    0 -0.59624004357E+02  0.34430695820E+03  0.34623196176E+03  0.49191348297E+03  0.50400001928E-02 0.  1.
       -1    1    3    3    0  502  0.59624004357E+02 -0.34430695820E+03  0.36307800428E+03  0.50391263189E+03  0.50400001928E-02 0. -1.
</event>
<event>
 5   0  0.1197259E-02  0.6989829E+03  0.7818609E-02  0.9718973E-01
        1   -1    0    0  501    0  0.00000000000E+00  0.00000000000E+00  0.14042644165E+04  0.14042644165E+04  0.50400001928E-02 0. -1.
       -1   -1    0    0    0  501  0.00000000000E+00  0.00000000000E+00 -0.86980975692E+02  0.86980975838E+02  0.50400001928E-02 0.  1.
    10030    2    1    2    0    0  0.00000000000E+00  0.00000000000E+00  0.13172834408E+04  0.14912453924E+04  0.69898294455E+03 0.  0.
        3    1    3    3  502    0  0.16946762406E+03 -0.29658762160E+03  0.50098586014E+03  0.60635825644E+03  0.10100000352E+00 0.  1.
       -3    1    3    3    0  502 -0.16946762406E+03  0.29658762160E+03  0.81629758068E+03  0.88488713592E+03  0.10100000352E+00 0. -1.
</event>
<event>
 5   0  0.1909053E-02  0.7033038E+03  0.7818609E-02  0.9711599E-01
        2   -1    0    0  501    0  0.00000000000E+00  0.00000000000E+00  0.59717309011E+03  0.59717309012E+03  0.25500000920E-02 0. -1.
       -2   -1    0    0    0  501  0.00000000000E+00  0.00000000000E+00 -0.20707403749E+03  0.20707403750E+03  0.25500000920E-02 0.  1.
    10030    2    1    2    0    0  0.00000000000E+00  0.00000000000E+00  0.39009905263E+03  0.80424712762E+03  0.70330375473E+03 0.  0.
        1    1    3    3  502    0  0.24282634837E+03 -0.47086709775E+02 -0.90780291284E+02  0.26348217209E+03  0.50400001928E-02 0. -1.
       -1    1    3    3    0  502 -0.24282634837E+03  0.47086709775E+02  0.48087934391E+03  0.54076495553E+03  0.50400001928E-02 0.  1.
</event>
<event>
 5   0  0.1197259E-02  0.7024425E+03  0.7818609E-02  0.9713064E-01
        1   -1    0    0  501    0  0.00000000000E+00  0.00000000000E+00  0.12378681008E+04  0.12378681008E+04  0.50400001928E-02 0.  1.
       -1   -1    0    0    0  501  0.00000000000E+00  0.00000000000E+00 -0.99652277813E+02  0.99652277941E+02  0.50400001928E-02 0. -1.
    10030    2    1    2    0    0  0.00000000000E+00  0.00000000000E+00  0.11382158230E+04  0.13375203787E+04  0.70244252709E+03 0.  0.
        3    1    3    3  502    0  0.14914379196E+03  0.31713756191E+03  0.52501405485E+03  0.63123677954E+03  0.10100000352E+00 0. -1.
       -3    1    3    3    0  502 -0.14914379196E+03 -0.31713756191E+03  0.61320176810E+03  0.70628359917E+03  0.10100000352E+00 0.  1.
</event>
<event>
 5   0  0.1237686E-02  0.7037069E+03  0.7818609E-02  0.9710914E-01
       -1   -1    0    0    0  501  0.00000000000E+00  0.00000000000E+00  0.21425334436E+03  0.21425334442E+03  0.50400001928E-02 0. -1.
        1   -1    0    0  501    0  0.00000000000E+00  0.00000000000E+00 -0.57782463752E+03  0.57782463754E+03  0.50400001928E-02 0.  1.
    10030    2    1    2    0    0  0.00000000000E+00  0.00000000000E+00 -0.36357129316E+03  0.79207798196E+03  0.70370693069E+03 0.  0.
        5    1    3    3  502    0 -0.30994415725E+03  0.14315719173E+03 -0.27742286439E+03  0.43993737945E+03  0.46999998093E+01 0.  1.
       -5    1    3    3    0  502  0.30994415725E+03 -0.14315719173E+03 -0.86148428774E+02  0.35214060251E+03  0.46999998093E+01 0. -1.
</event>
<event>
 5   0  0.2006362E-02  0.6948778E+03  0.7818609E-02  0.9726032E-01
       -2   -1    0    0    0  501  0.00000000000E+00  0.00000000000E+00  0.96825729293E+02  0.96825729327E+02  0.25500000920E-02 0.  1.
        2   -1    0    0  501    0  0.00000000000E+00  0.00000000000E+00 -0.12467118987E+04  0.12467118987E+04  0.25500000920E-02 0. -1.
    10030    2    1    2    0    0  0.00000000000E+00  0.00000000000E+00 -0.11498861694E+04  0.13435376280E+04  0.69487779884E+03 0.  0.
        4    1    3    3  502    0  0.17410833398E+03 -0.23869339760E+03 -0.92842738336E+03  0.97430347895E+03  0.12699999809E+01 0. -1.
       -4    1    3    3    0  502 -0.17410833398E+03  0.23869339760E+03 -0.22145878601E+03  0.36923414904E+03  0.12699999809E+01 0.  1.
</event>
<event>
 5   0  0.2026361E-02  0.6959547E+03  0.7818609E-02  0.9724175E-01
       -2   -1    0    0    0  501  0.00000000000E+00  0.00000000000E+00  0.50973801884E+03  0.50973801885E+03  0.25500000920E-02 0.  1.
        2   -1    0    0  501    0  0.00000000000E+00  0.00000000000E+00 -0.23754996818E+03  0.23754996819E+03  0.25500000920E-02 0. -1.
    10030    2    1    2    0    0  0.00000000000E+00  0.00000000000E+00  0.27218805066E+03  0.74728798704E+03  0.69595474037E+03 0.  0.
        2    1    3    3  502    0 -0.26228951353E+02  0.27577652320E+03  0.36221563679E+03  0.45600528087E+03  0.25500000920E-02 0.  1.
       -2    1    3    3    0  502  0.26228951353E+02 -0.27577652320E+03 -0.90027586131E+02  0.29128270616E+03  0.25500000920E-02 0. -1.
</event>
<event>
 5   0  0.1226303E-02  0.6874144E+03  0.7818609E-02  0.9739001E-01
        1   -1    0    0  501    0  0.00000000000E+00  0.00000000000E+00  0.25095733482E+03  0.25095733487E+03  0.50400001928E-02 0. -1.
       -1   -1    0    0    0  501  0.00000000000E+00  0.00000000000E+00 -0.47073590004E+03  0.47073590007E+03  0.50400001928E-02 0.  1.
    10030    2    1    2    0    0  0.00000000000E+00  0.00000000000E+00 -0.21977856522E+03  0.72169323493E+03  0.68741436384E+03 0.  0.
        4    1    3    3  502    0 -0.27747941126E+02  0.27937733063E+03  0.98268732112E+02  0.29745587525E+03  0.12699999809E+01 0. -1.
       -4    1    3    3    0  502  0.27747941126E+02 -0.27937733063E+03 -0.31804729734E+03  0.42423735968E+03  0.12699999809E+01 0.  1.
</event>
<event>
 5   0  0.7947250E-03  0.6900424E+03  0.7818609E-02  0.9734414E-01
        3   -1    0    0  501    0  0.00000000000E+00  0.00000000000E+00  0.30999451524E+03  0.30999453169E+03  0.10100000352E+00 0.  1.
       -3   -1    0    0    0  501  0.00000000000E+00  0.00000000000E+00 -0.38400552234E+03  0.38400553562E+03  0.10100000352E+00 0. -1.
    10030    2    1    2    0    0  0.00000000000E+00  0.00000000000E+00 -0.74011007102E+02  0.69400006731E+03  0.69004236411E+03 0.  0.
        4    1    3    3  502    0 -0.12607520836E+03  0.13532867934E+03  0.25591948884E+03  0.31576131379E+03  0.12699999809E+01 0.  1.
       -4    1    3    3    0  502  0.12607520836E+03 -0.13532867934E+03 -0.32993049594E+03  0.37823875353E+03  0.12699999809E+01 0. -1.
</event>
<event>
 5   0  0.1973067E-02  0.6999707E+03  0.7818609E-02  0.9717282E-01
        2   -1    0    0  501    0  0.00000000000E+00  0.00000000000E+00  0.68315022099E+03  0.68315022099E+03  0.25500000920E-02 0. -1.
       -2   -1    0    0    0  501  0.00000000000E+00  0.00000000000E+00 -0.17930134596E+03  0.17930134598E+03  0.25500000920E-02 0.  1.
    10030    2    1    2    0    0  0.00000000000E+00  0.00000000000E+00  0.50384887502E+03  0.86245156697E+03  0.69997072547E+03 0.  0.
        5    1    3    3  502    0 -0.24061079064E+03  0.93444779547E+02 -0.39238464267E+02  0.26112683981E+03  0.46999998093E+01 0.  1.
       -5    1    3    3    0  502  0.24061079064E+03 -0.93444779547E+02  0.54308733929E+03  0.60132472716E+03  0.46999998093E+01 0. -1.
</event>
<event>
 5   0  0.1226303E-02  0.6744512E+03  0.7818609E-02  0.9761950E-01
        1   -1    0    0  501    0  0.00000000000E+00  0.00000000000E+00  0.52485726128E+03  0.52485726131E+03  0.50400001928E-02 0. -1.
       -1   -1    0    0    0  501  0.00000000000E+00  0.00000000000E+00 -0.21667055763E+03  0.21667055769E+03  0.50400001928E-02 0.  1.
    10030    2    1    2    0    0  0.00000000000E+00  0.00000000000E+00  0.30818670365E+03  0.74152781900E+03  0.67445123029E+03 0.  0.
        4    1    3    3  502    0 -0.10920857904E+03  0.16527409829E+03 -0.14595367634E+03  0.24606123189E+03  0.12699999809E+01 0.  1.
       -4    1    3    3    0  502  0.10920857904E+03 -0.16527409829E+03  0.45414037999E+03  0.49546658711E+03  0.12699999809E+01 0. -1.
</event>
<event>
 5   0  0.2006362E-02  0.7077578E+03  0.7818609E-02  0.9704057E-01
       -2   -1    0    0    0  501  0.00000000000E+00  0.00000000000E+00  0.11555987676E+04  0.11555987676E+04  0.25500000920E-02 0.  1.
        2   -1    0    0  501    0  0.00000000000E+00  0.00000000000E+00 -0.10836830793E+03  0.10836830796E+03  0.25500000920E-02 0. -1.
    10030    2    1    2    0    0  0.00000000000E+00  0.00000000000E+00  0.10472304597E+04  0.12639670756E+04  0.70775782050E+03 0.  0.
        4    1    3    3  502    0 -0.88333943724E+02 -0.11061468315E+03 -0.55598271168E+02  0.15208969195E+03  0.12699999809E+01 0. -1.
       -4    1    3    3    0  502  0.88333943724E+02  0.11061468315E+03  0.11028287309E+04  0.11118773836E+04  0.12699999809E+01 0.  1.
</event>
<event>
 5   0  0.1223742E-02  0.6997807E+03  0.7818609E-02  0.9717607E-01
        1   -1    0    0  501    0  0.00000000000E+00  0.00000000000E+00  0.35645059385E+03  0.35645059389E+03  0.50400001928E-02 0. -1.
       -1   -1    0    0    0  501  0.00000000000E+00  0.00000000000E+00 -0.34345087536E+03  0.34345087540E+03  0.50400001928E-02 0.  1.
    10030    2    1    2    0    0  0.00000000000E+00  0.00000000000E+00  0.12999718497E+02  0.69990146929E+03  0.69978073282E+03 0.  0.
        2    1    3    3  502    0 -0.28771009607E+03 -0.41874918922E+02  0.20119381656E+03  0.35356691027E+03  0.25500000920E-02 0. -1.
       -2    1    3    3    0  502  0.28771009607E+03  0.41874918922E+02 -0.18819409806E+03  0.34633455901E+03  0.25500000920E-02 0.  1.
</event>
<event>
 5   0  0.1223742E-02  0.7003613E+03  0.7818609E-02  0.9716615E-01
       -1   -1    0    0    0  501  0.00000000000E+00  0.00000000000E+00  0.29031337470E+03  0.29031337474E+03  0.50400001928E-02 0. -1.
        1   -1    0    0  501    0  0.00000000000E+00  0.00000000000E+00 -0.42239345865E+03  0.42239345868E+03  0.50400001928E-02 0.  1.
    10030    2    1    2    0    0  0.00000000000E+00  0.00000000000E+00 -0.13208008395E+03  0.71270683343E+03  0.70036125095E+03 0.  0.
        2    1    3    3  502    0 -0.31728595993E+03 -0.12004436588E+03 -0.15443573538E+03  0.37273506209E+03  0.25500000920E-02 0.  1.
       -2    1    3    3    0  502  0.31728595993E+03  0.12004436588E+03  0.22355651423E+02  0.33997177133E+03  0.25500000920E-02 0. -1.
</event>
<event>
 5   0  0.2026361E-02  0.7031975E+03  0.7818609E-02  0.9711780E-01
       -2   -1    0    0    0  501  0.00000000000E+00  0.00000000000E+00  0.11008664191E+04  0.11008664191E+04  0.25500000920E-02 0. -1.
        2   -1    0    0  501    0  0.00000000000E+00  0.00000000000E+00 -0.11229489002E+03  0.11229489005E+03  0.25500000920E-02 0.  1.
    10030    2    1    2    0    0  0.00000000000E+00  0.00000000000E+00  0.98857152907E+03  0.12131613091E+04  0.70319747861E+03 0.  0.
        2    1    3    3  502    0  0.23995756100E+03  0.15177894574E+03  0.13651759258E+03  0.31504528649E+03  0.25500000920E-02 0.  1.
       -2    1    3    3    0  502 -0.23995756100E+03 -0.15177894574E+03  0.85205393649E+03  0.89811602265E+03  0.25500000920E-02 0. -1.
</event>
<event>
 5   0  0.1237686E-02  0.7016347E+03  0.7818609E-02  0.9714441E-01
       -1   -1    0    0    0  501  0.00000000000E+00  0.00000000000E+00  0.30401077493E+03  0.30401077497E+03  0.50400001928E-02 0. -1.
        1   -1    0    0  501    0  0.00000000000E+00  0.00000000000E+00 -0.40483048446E+03  0.40483048450E+03  0.50400001928E-02 0.  1.
    10030    2    1    2    0    0  0.00000000000E+00  0.00000000000E+00 -0.10081970953E+03  0.70884125947E+03  0.70163474636E+03 0.  0.
        5    1    3    3  502    0 -0.33981839289E+03  0.24971623093E+02 -0.13463651620E+03  0.36640033242E+03  0.46999998093E+01 0. -1.
       -5    1    3    3    0  502  0.33981839289E+03 -0.24971623093E+02  0.33816806667E+02  0.34244092705E+03  0.46999998093E+01 0.  1.
</event>
<event>
 5   0  0.1226303E-02  0.7002424E+03  0.7818609E-02  0.9716818E-01
       -1   -1    0    0    0  501  0.00000000000E+00  0.00000000000E+00  0.34607929300E+03  0.34607929303E+03  0.50400001928E-02 0.  1.
        1   -1    0    0  501    0  0.00000000000E+00  0.00000000000E+00 -0.35421032588E+03  0.35421032592E+03  0.50400001928E-02 0. -1.
    10030    2    1    2    0    0  0.00000000000E+00  0.00000000000E+00 -0.81310328835E+01  0.70028961895E+03  0.70024241282E+03 0.  0.
        4    1    3    3  502    0  0.61558046973E+02 -0.14817682858E+03  0.30714267343E+03  0.34653138446E+03  0.12699999809E+01 0.  1.
       -4    1    3    3    0  502 -0.61558046973E+02  0.14817682858E+03 -0.31527370632E+03  0.35375823449E+03  0.12699999809E+01 0. -1.
</event>
<event>
 5   0  0.1237686E-02  0.7041963E+03  0.7818609E-02  0.9710083E-01
        1   -1    0    0  501    0  0.00000000000E+00  0.00000000000E+00  0.17221154763E+03  0.17221154771E+03  0.50400001928E-02 0.  1.
       -1   -1    0    0    0  501  0.00000000000E+00  0.00000000000E+00 -0.71988848397E+03  0.71988848398E+03  0.50400001928E-02 0. -1.
    10030    2    1    2    0    0  0.00000000000E+00  0.00000000000E+00 -0.54767693633E+03  0.89210003169E+03  0.70419630783E+03 0.  0.
        5    1    3    3  502    0 -0.15567318385E+01 -0.10120322011E+02  0.17198313702E+03  0.17235177327E+03  0.46999998093E+01 0.  1.
       -5    1    3    3    0  502  0.15567318385E+01  0.10120322011E+02 -0.71966007335E+03  0.71974825842E+03  0.46999998093E+01 0. -1.
</event>
<event>
 5   0  0.2026361E-02  0.6997893E+03  0.7818609E-02  0.9717593E-01
       -2   -1    0    0    0  501  0.00000000000E+00  0.00000000000E+00  0.55597159399E+02  0.55597159457E+02  0.25500000920E-02 0. -1.
        2   -1    0    0  501    0  0.00000000000E+00  0.00000000000E+00 -0.22020236201E+04  0.22020236201E+04  0.25500000920E-02 0.  1.
    10030    2    1    2    0    0  0.00000000000E+00  0.00000000000E+00 -0.21464264607E+04  0.22576207795E+04  0.69978927763E+03 0.  0.
        2    1    3    3  502    0  0.14845667140E+03 -0.18469621822E+03 -0.24268213379E+03  0.33918533927E+03  0.25500000920E-02 0. -1.
       -2    1    3    3    0  502 -0.14845667140E+03  0.18469621822E+03 -0.19037443269E+04  0.19184354402E+04  0.25500000920E-02 0.  1.
</event>
<event>
 5   0  0.2026361E-02  0.6995390E+03  0.7818609E-02  0.9718021E-01
       -2   -1    0    0    0  501  0.00000000000E+00  0.00000000000E+00  0.16395400089E+03  0.16395400091E+03  0.25500000920E-02 0. -1.
        2   -1    0    0  501    0  0.00000000000E+00  0.00000000000E+00 -0.74617691589E+03  0.74617691589E+03  0.25500000920E-02 0.  1.
    10030    2    1    2    0    0  0.00000000000E+00  0.00000000000E+00 -0.58222291500E+03  0.91013091680E+03  0.69953896458E+03 0.  0.
        2    1    3    3  502    0 -0.16594620793E+03  0.28613048321E+03 -0.43905275710E+03  0.54970548558E+03  0.25500000920E-02 0.  1.
       -2    1    3    3    0  502  0.16594620793E+03 -0.28613048321E+03 -0.14317015789E+03  0.36042543122E+03  0.25500000920E-02 0. -1.
</event>
<event>
 5   0  0.1226303E-02  0.6960962E+03  0.7818609E-02  0.9723932E-01
       -1   -1    0    0    0  501  0.00000000000E+00  0.00000000000E+00  0.26470893812E+03  0.26470893817E+03  0.50400001928E-02 0.  1.
        1   -1    0    0  501    0  0.00000000000E+00  0.00000000000E+00 -0.45762521252E+03  0.45762521254E+03  0.50400001928E-02 0. -1.
    10030    2    1    2    0    0  0.00000000000E+00  0.00000000000E+00 -0.19291627439E+03  0.72233415071E+03  0.69609621200E+03 0.  0.
        4    1    3    3  502    0 -0.32258323020E+03 -0.47367461748E+02 -0.22283642285E+03  0.39491936024E+03  0.12699999809E+01 0. -1.
       -4    1    3    3    0  502  0.32258323020E+03  0.47367461748E+02  0.29920148461E+02  0.32741479048E+03  0.12699999809E+01 0.  1.
</event>
<event>
 5   0  0.1948138E-02  0.6984941E+03  0.7818609E-02  0.9719811E-01
        2   -1    0    0  501    0  0.00000000000E+00  0.00000000000E+00  0.18064029385E+03  0.18064029387E+03  0.25500000920E-02 0. -1.
       -2   -1    0    0    0  501  0.00000000000E+00  0.00000000000E+00 -0.67522872116E+03  0.67522872116E+03  0.25500000920E-02 0.  1.
    10030    2    1    2    0    0  0.00000000000E+00  0.00000000000E+00 -0.49458842731E+03  0.85586901503E+03  0.69849413631E+03 0.  0.
        3    1    3    3  502    0  0.25109804682E+03  0.20494718636E+03 -0.40667786436E+03  0.52003891573E+03  0.10100000352E+00 0.  1.
       -3    1    3    3    0  502 -0.25109804682E+03 -0.20494718636E+03 -0.87910562946E+02  0.33583009929E+03  0.10100000352E+00 0. -1.
</event>
<event>
 5   0  0.1948138E-02  0.7017155E+03  0.7818609E-02  0.9714303E-01
        2   -1    0    0  501    0  0.00000000000E+00  0.00000000000E+00  0.11350340114E+04  0.11350340114E+04  0.25500000920E-02 0.  1.
       -2   -1    0    0    0  501  0.00000000000E+00  0.00000000000E+00 -0.10845591517E+03  0.10845591520E+03  0.25500000920E-02 0. -1.
    10030    2    1    2    0    0  0.00000000000E+00  0.00000000000E+00  0.10265780963E+04  0.12434899266E+04  0.70171547647E+03 0.  0.
        3    1    3    3  502    0  0.99471772269E+02  0.33465965992E+03  0.45166220265E+03  0.57086817827E+03  0.10100000352E+00 0.  1.
       -3    1    3    3    0  502 -0.99471772269E+02 -0.33465965992E+03  0.57491589360E+03  0.67262174836E+03  0.10100000352E+00 0. -1.
</event>
<event>
 5   0  0.2006362E-02  0.6934853E+03  0.7818609E-02  0.9728438E-01
        2   -1    0    0  501    0  0.00000000000E+00  0.00000000000E+00  0.87904915336E+03  0.87904915337E+03  0.25500000920E-02 0. -1.
       -2   -1    0    0    0  501  0.00000000000E+00  0.00000000000E+00 -0.13677331640E+03  0.13677331643E+03  0.25500000920E-02 0.  1.
    10030    2    1    2    0    0  0.00000000000E+00  0.00000000000E+00  0.74227583696E+03  0.10158224698E+04  0.69348530771E+03 0.  0.
        4    1    3    3  502    0  0.81611795165E+02  0.32936322892E+02  0.86241340424E+03  0.86689317634E+03  0.12699999809E+01 0. -1.
       -4    1    3    3    0  502 -0.81611795165E+02 -0.32936322892E+02 -0.12013756728E+03  0.14892929345E+03  0.12699999809E+01 0.  1.
</event>
<event>
 5   0  0.1226303E-02  0.7039130E+03  0.7818609E-02  0.9710564E-01
       -1   -1    0    0    0  501  0.00000000000E+00  0.00000000000E+00  0.14555800818E+03  0.14555800827E+03  0.50400001928E-02 0.  1.
        1   -1    0    0  501    0  0.00000000000E+00  0.00000000000E+00 -0.85102402964E+03  0.85102402965E+03  0.50400001928E-02 0. -1.
    10030    2    1    2    0    0  0.00000000000E+00  0.00000000000E+00 -0.70546602146E+03  0.99658203792E+03  0.70391295688E+03 0.  0.
        4    1    3    3  502    0  0.20028503963E+03 -0.24150870900E+03 -0.57850886291E+03  0.65811448167E+03  0.12699999809E+01 0. -1.
       -4    1    3    3    0  502 -0.20028503963E+03  0.24150870900E+03 -0.12695715855E+03  0.33846755624E+03  0.12699999809E+01 0.  1.
</event>
<event>
 5   0  0.1226303E-02  0.7006875E+03  0.7818609E-02  0.9716057E-01
        1   -1    0    0  501    0  0.00000000000E+00  0.00000000000E+00  0.11747272784E+04  0.11747272784E+04  0.50400001928E-02 0.  1.
       -1   -1    0    0    0  501  0.00000000000E+00  0.00000000000E+00 -0.10448446195E+03  0.10448446207E+03  0.50400001928E-02 0. -1.
    10030    2    1    2    0    0  0.00000000000E+00  0.00000000000E+00  0.10702428164E+04  0.12792117405E+04  0.70068751295E+03 0.  0.
        4    1    3    3  502    0  0.10686736918E+02  0.23016340737E+03  0.10169336064E+04  0.10427103975E+04  0.12699999809E+01 0.  1.
       -4    1    3    3    0  502 -0.10686736918E+02 -0.23016340737E+03  0.53309210082E+02  0.23650134296E+03  0.12699999809E+01 0. -1.
</event>
<event>
 5   0  0.1973067E-02  0.7017620E+03  0.7818609E-02  0.9714224E-01
        2   -1    0    0  501    0  0.00000000000E+00  0.00000000000E+00  0.77423579710E+03  0.77423579710E+03  0.25500000920E-02 0.  1.
       -2   -1    0    0    0  501  0.00000000000E+00  0.00000000000E+00 -0.15901807866E+03  0.15901807868E+03  0.25500000920E-02 0. -1.
    10030    2    1    2    0    0  0.00000000000E+00  0.00000000000E+00  0.61521771844E+03  0.93325387579E+03  0.70176203630E+03 0.  0.
        5    1    3    3  502    0  0.77949131154E+02  0.30163470174E+03  0.52219205899E+03  0.60808403762E+03  0.46999998093E+01 0.  1.
       -5    1    3    3    0  502 -0.77949131154E+02 -0.30163470174E+03  0.93025659445E+02  0.32516983817E+03  0.46999998093E+01 0. -1.
</event>
<event>
 5   0  0.1226303E-02  0.6998383E+03  0.7818609E-02  0.9717509E-01
        1   -1    0    0  501    0  0.00000000000E+00  0.00000000000E+00  0.45444167206E+03  0.45444167209E+03  0.50400001928E-02 0. -1.
       -1   -1    0    0    0  501  0.00000000000E+00  0.00000000000E+00 -0.26943698814E+03  0.26943698819E+03  0.50400001928E-02 0.  1.
    10030    2    1    2    0    0  0.00000000000E+00  0.00000000000E+00  0.18500468392E+03  0.72387866027E+03  0.69983825398E+03 0.  0.
        4    1    3    3  502    0  0.78850341729E+02  0.14117826294E+03  0.41347326397E+03  0.44397120541E+03  0.12699999809E+01 0. -1.
       -4    1    3    3    0  502 -0.78850341729E+02 -0.14117826294E+03 -0.22846858005E+03  0.27990745486E+03  0.12699999809E+01 0.  1.
</event>
<event>
 5   0  0.1948138E-02  0.6998286E+03  0.7818609E-02  0.9717525E-01
        2   -1    0    0  501    0  0.00000000000E+00  0.00000000000E+00  0.80259082938E+03  0.80259082938E+03  0.25500000920E-02 0.  1.
       -2   -1    0    0    0  501  0.00000000000E+00  0.00000000000E+00 -0.15255595279E+03  0.15255595281E+03  0.25500000920E-02 0. -1.
    10030    2    1    2    0    0  0.00000000000E+00  0.00000000000E+00  0.65003487659E+03  0.95514678220E+03  0.69982857527E+03 0.  0.
        3    1    3    3  502    0  0.17134504382E+03  0.29845786551E+03  0.41137758742E+03  0.53634667069E+03  0.10100000352E+00 0.  1.
       -3    1    3    3    0  502 -0.17134504382E+03 -0.29845786551E+03  0.23865728917E+03  0.41880011151E+03  0.10100000352E+00 0. -1.
</event>
<event>
 5   0  0.1948138E-02  0.6930162E+03  0.7818609E-02  0.9729250E-01
        2   -1    0    0  501    0  0.00000000000E+00  0.00000000000E+00  0.40486303451E+03  0.40486303451E+03  0.25500000920E-02 0. -1.
       -2   -1    0    0    0  501  0.00000000000E+00  0.00000000000E+00 -0.29656418054E+03  0.29656418055E+03  0.25500000920E-02 0.  1.
    10030    2    1    2    0    0  0.00000000000E+00  0.00000000000E+00  0.10829885396E+03  0.70142721507E+03  0.69301623088E+03 0.  0.
        3    1    3    3  502    0 -0.16299890020E+03 -0.21665180732E+03  0.27254878967E+03  0.38443399958E+03  0.10100000352E+00 0. -1.
       -3    1    3    3    0  502  0.16299890020E+03  0.21665180732E+03 -0.16424993571E+03  0.31699321549E+03  0.10100000352E+00 0.  1.
</event>
<event>
 5   0  0.1226303E-02  0.7020180E+03  0.7818609E-02  0.9713787E-01
       -1   -1    0    0    0  501  0.00000000000E+00  0.00000000000E+00  0.99124199995E+02  0.99124200123E+02  0.50400001928E-02 0.  1.
        1   -1    0    0  501    0  0.00000000000E+00  0.00000000000E+00 -0.12429589205E+04  0.12429589205E+04  0.50400001928E-02 0. -1.
    10030    2    1    2    0    0  0.00000000000E+00  0.00000000000E+00 -0.11438347205E+04  0.13420831207E+04  0.70201797332E+03 0.  0.
        4    1    3    3  502    0  0.28351164258E+02  0.21292165388E+03 -0.41199905331E+02  0.21872005922E+03  0.12699999809E+01 0.  1.
       -4    1    3    3    0  502 -0.28351164258E+02 -0.21292165388E+03 -0.11026348152E+04  0.11233630614E+04  0.12699999809E+01 0. -1.
</event>
<event>
 5   0  0.1197259E-02  0.6999473E+03  0.7818609E-02  0.9717322E-01
        1   -1    0    0  501    0  0.00000000000E+00  0.00000000000E+00  0.32235454551E+03  0.32235454555E+03  0.50400001928E-02 0.  1.
       -1   -1    0    0    0  501  0.00000000000E+00  0.00000000000E+00 -0.37995911482E+03  0.37995911486E+03  0.50400001928E-02 0. -1.
    10030    2    1    2    0    0  0.00000000000E+00  0.00000000000E+00 -0.57604569307E+02  0.70231366041E+03  0.69994727744E+03 0.  0.
        3    1    3    3  502    0  0.16620447888E+03 -0.93187876586E+02 -0.32334818143E+03  0.37531582138E+03  0.10100000352E+00 0. -1.
       -3    1    3    3    0  502 -0.16620447888E+03  0.93187876586E+02  0.26574361213E+03  0.32699783903E+03  0.10100000352E+00 0.  1.
</event>
<event>
 5   0  0.1226303E-02  0.7021726E+03  0.7818609E-02  0.9713524E-01
       -1   -1    0    0    0  501  0.00000000000E+00  0.00000000000E+00  0.56331775555E+03  0.56331775557E+03  0.50400001928E-02 0. -1.
        1   -1    0    0  501    0  0.00000000000E+00  0.00000000000E+00 -0.21881363361E+03  0.21881363366E+03  0.50400001928E-02 0.  1.
    10030    2    1    2    0    0  0.00000000000E+00  0.00000000000E+00  0.34450412194E+03  0.78213138923E+03  0.70217264258E+03 0.  0.
        4    1    3    3  502    0  0.25592280147E+02 -0.34770654239E+03  0.12625586628E+03  0.37080582667E+03  0.12699999809E+01 0. -1.
       -4    1    3    3    0  502 -0.25592280147E+02  0.34770654239E+03  0.21824825566E+03  0.41132556257E+03  0.12699999809E+01 0.  1.
</event>
<event>
 5   0  0.1973067E-02  0.6993458E+03  0.7818609E-02  0.9718352E-01
       -2   -1    0    0    0  501  0.00000000000E+00  0.00000000000E+00  0.39185374265E+03  0.39185374266E+03  0.25500000920E-02 0. -1.
        2   -1    0    0  501    0  0.00000000000E+00  0.00000000000E+00 -0.31203256614E+03  0.31203256615E+03  0.25500000920E-02 0.  1.
    10030    2    1    2    0    0  0.00000000000E+00  0.00000000000E+00  0.79821176514E+02  0.70388630881E+03  0.69934577679E+03 0.  0.
        5    1    3    3  502    0  0.32695410294E+03  0.63672128871E+02 -0.67061688535E+02  0.33981242693E+03  0.46999998093E+01 0.  1.
       -5    1    3    3    0  502 -0.32695410294E+03 -0.63672128871E+02  0.14688286505E+03  0.36407388188E+03  0.46999998093E+01 0. -1.
</event>
<event>
 5   0  0.1226303E-02  0.6967949E+03  0.7818609E-02  0.9722729E-01
        1   -1    0    0  501    0  0.00000000000E+00  0.00000000000E+00  0.14501631298E+03  0.14501631307E+03  0.50400001928E-02 0.  1.
       -1   -1    0    0    0  501  0.00000000000E+00  0.00000000000E+00 -0.83701458331E+03  0.83701458332E+03  0.50400001928E-02 0. -1.
    10030    2    1    2    0    0  0.00000000000E+00  0.00000000000E+00 -0.69199827032E+03  0.98203089639E+03  0.69679485886E+03 0.  0.
        4    1    3    3  502    0 -0.35660202599E+01 -0.31640620697E+03 -0.55146324507E+03  0.63579786715E+03  0.12699999809E+01 0. -1.
       -4    1    3    3    0  502  0.35660202599E+01  0.31640620697E+03 -0.14053502525E+03  0.34623302924E+03  0.12699999809E+01 0.  1.
</event>
<event>
 5   0  0.7947250E-03  0.6968978E+03  0.7818609E-02  0.9722552E-01
        3   -1    0    0  501    0  0.00000000000E+00  0.00000000000E+00  0.10959026678E+03  0.10959031333E+03  0.10100000352E+00 0. -1.
       -3   -1    0    0    0  501  0.00000000000E+00  0.00000000000E+00 -0.11079141180E+04  0.11079141226E+04  0.10100000352E+00 0.  1.
    10030    2    1    2    0    0  0.00000000000E+00  0.00000000000E+00 -0.99832385119E+03  0.12175044359E+04  0.69689779709E+03 0.  0.
        2    1    3    3  502    0 -0.31738312400E+03 -0.14378376288E+03 -0.49341606192E+03  0.60404075031E+03  0.25500000920E-02 0.  1.
       -2    1    3    3    0  502  0.31738312400E+03  0.14378376288E+03 -0.50490778927E+03  0.61346368560E+03  0.25500000920E-02 0. -1.
</event>
<event>
 5   0  0.1223742E-02  0.7050830E+03  0.7818609E-02  0.9708579E-01
       -1   -1    0    0    0  501  0.00000000000E+00  0.00000000000E+00  0.28532729827E+03  0.28532729832E+03  0.50400001928E-02 0.  1.
        1   -1    0    0  501    0  0.00000000000E+00  0.00000000000E+00 -0.43558925918E+03  0.43558925921E+03  0.50400001928E-02 0. -1.
    10030    2    1    2    0    0  0.00000000000E+00  0.00000000000E+00 -0.15026196091E+03  0.72091655753E+03  0.70508299230E+03 0.  0.
        2    1    3    3  502    0  0.66942328103E+02 -0.18207459323E+03 -0.37611036338E+03  0.42319196382E+03  0.25500000920E-02 0. -1.
       -2    1    3    3    0  502 -0.66942328103E+02  0.18207459323E+03  0.22584840247E+03  0.29772459371E+03  0.25500000920E-02 0.  1.
</event>
<event>
 5   0  0.1237686E-02  0.7007994E+03  0.7818609E-02  0.9715866E-01
        1   -1    0    0  501    0  0.00000000000E+00  0.00000000000E+00  0.46326222192E+03  0.46326222195E+03  0.50400001928E-02 0.  1.
       -1   -1    0    0    0  501  0.00000000000E+00  0.00000000000E+00 -0.26503340723E+03  0.26503340728E+03  0.50400001928E-02 0. -1.
    10030    2    1    2    0    0  0.00000000000E+00  0.00000000000E+00  0.19822881469E+03  0.72829562923E+03  0.70079944391E+03 0.  0.
        5    1    3    3  502    0  0.54243818895E+01 -0.26157228570E+03  0.34129950789E+03  0.43006619101E+03  0.46999998093E+01 0.  1.
       -5    1    3    3    0  502 -0.54243818895E+01  0.26157228570E+03 -0.14307069320E+03  0.29822943822E+03  0.46999998093E+01 0. -1.
</event>
<event>
 5   0  0.2026361E-02  0.7026665E+03  0.7818609E-02  0.9712683E-01
       -2   -1    0    0    0  501  0.00000000000E+00  0.00000000000E+00  0.36297002298E+03  0.36297002298E+03  0.25500000920E-02 0. -1.
        2   -1    0    0  501    0  0.00000000000E+00  0.00000000000E+00 -0.34006958039E+03  0.34006958040E+03  0.25500000920E-02 0.  1.
    10030    2    1    2    0    0  0.00000000000E+00  0.00000000000E+00  0.22900442583E+02  0.70303960339E+03  0.70266653091E+03 0.  0.
        2    1    3    3  502    0 -0.99647239768E+02  0.14141852996E+03  0.31740055856E+03  0.36148566720E+03  0.25500000920E-02 0. -1.
       -2    1    3    3    0  502  0.99647239768E+02 -0.14141852996E+03 -0.29450011598E+03  0.34155393619E+03  0.25500000920E-02 0.  1.
</event>
<event>
 5   0  0.2006362E-02  0.7048819E+03  0.7818609E-02  0.9708920E-01
        2   -1    0    0  501    0  0.00000000000E+00  0.00000000000E+00  0.52577420943E+03  0.52577420944E+03  0.25500000920E-02 0. -1.
       -2   -1    0    0    0  501  0.00000000000E+00  0.00000000000E+00 -0.23625086594E+03  0.23625086595E+03  0.25500000920E-02 0.  1.
    10030    2    1    2    0    0  0.00000000000E+00  0.00000000000E+00  0.28952334349E+03  0.76202507539E+03  0.70488186889E+03 0.  0.
        4    1    3    3  502    0 -0.20793417453E+03 -0.27910638535E+03  0.84803776750E+02  0.35823217155E+03  0.12699999809E+01 0.  1.
       -4    1    3    3    0  502  0.20793417453E+03  0.27910638535E+03  0.20471956674E+03  0.40379290384E+03  0.12699999809E+01 0. -1.
</event>
<event>
 5   0  0.1948138E-02  0.7056026E+03  0.7818609E-02  0.9707699E-01
       -2   -1    0    0    0  501  0.00000000000E+00  0.00000000000E+00  0.24416128189E+03  0.24416128190E+03  0.25500000920E-02 0. -1.
        2   -1    0    0  501    0  0.00000000000E+00  0.00000000000E+00 -0.50978084204E+03  0.50978084205E+03  0.25500000920E-02 0.  1.
    10030    2    1    2    0    0  0.00000000000E+00  0.00000000000E+00 -0.26561956015E+03  0.75394212395E+03  0.70560256202E+03 0.  0.
        3    1    3    3  502    0 -0.17422474214E+02  0.15916294733E+03 -0.46872324655E+03  0.49531593803E+03  0.10100000352E+00 0.  1.
       -3    1    3    3    0  502  0.17422474214E+02 -0.15916294733E+03  0.20310368640E+03  0.25862618591E+03  0.10100000352E+00 0. -1.
</event>
<event>
 5   0  0.1226303E-02  0.6977748E+03  0.7818609E-02  0.9721045E-01
        1   -1    0    0  501    0  0.00000000000E+00  0.00000000000E+00  0.16084636610E+03  0.16084636618E+03  0.50400001928E-02 0.  1.
       -1   -1    0    0    0  501  0.00000000000E+00  0.00000000000E+00 -0.75676208214E+03  0.75676208215E+03  0.50400001928E-02 0. -1.
    10030    2    1    2    0    0  0.00000000000E+00  0.00000000000E+00 -0.59591571603E+03  0.91760844834E+03  0.69777483750E+03 0.  0.
        4    1    3    3  502    0 -0.85270127566E+02  0.27671909606E+03 -0.42024881670E+02  0.29259555081E+03  0.12699999809E+01 0.  1.
       -4    1    3    3    0  502  0.85270127566E+02 -0.27671909606E+03 -0.55389083436E+03  0.62501289752E+03  0.12699999809E+01 0. -1.
</event>
<event>
 5   0  0.1197259E-02  0.7013064E+03  0.7818609E-02  0.9715001E-01
       -1   -1    0    0    0  501  0.00000000000E+00  0.00000000000E+00  0.18223098411E+03  0.18223098418E+03  0.50400001928E-02 0.  1.
        1   -1    0    0  501    0  0.00000000000E+00  0.00000000000E+00 -0.67473527623E+03  0.67473527625E+03  0.50400001928E-02 0. -1.
    10030    2    1    2    0    0  0.00000000000E+00  0.00000000000E+00 -0.49250429212E+03  0.85696626043E+03  0.70130641930E+03 0.  0.
        3    1    3    3  502    0 -0.16351691742E+03  0.11079198572E+03 -0.60029299205E+03  0.63195279324E+03  0.10100000352E+00 0. -1.
       -3    1    3    3    0  502  0.16351691742E+03 -0.11079198572E+03  0.10778869992E+03  0.22501346719E+03  0.10100000352E+00 0.  1.
</event>
<event>
 5   0  0.1237686E-02  0.7060532E+03  0.7818609E-02  0.9706936E-01
        1   -1    0    0  501    0  0.00000000000E+00  0.00000000000E+00  0.17725915615E+03  0.17725915622E+03  0.50400001928E-02 0. -1.
       -1   -1    0    0    0  501  0.00000000000E+00  0.00000000000E+00 -0.70308237967E+03  0.70308237969E+03  0.50400001928E-02 0.  1.
    10030    2    1    2    0    0  0.00000000000E+00  0.00000000000E+00 -0.52582322352E+03  0.88034153591E+03  0.70605322565E+03 0.  0.
        5    1    3    3  502    0 -0.29226878321E+03  0.13515794457E+03 -0.44323967676E+03  0.54787974289E+03  0.46999998093E+01 0.  1.
       -5    1    3    3    0  502  0.29226878321E+03 -0.13515794457E+03 -0.82583546761E+02  0.33246179302E+03  0.46999998093E+01 0. -1.
</event>
<event>
 5   0  0.1237686E-02  0.7013334E+03  0.7818609E-02  0.9714955E-01
       -1   -1    0    0    0  501  0.00000000000E+00  0.00000000000E+00  0.42416111440E+03  0.42416111443E+03  0.50400001928E-02 0. -1.
        1   -1    0    0  501    0  0.00000000000E+00  0.00000000000E+00 -0.28990662611E+03  0.28990662615E+03  0.50400001928E-02 0.  1.
    10030    2    1    2    0    0  0.00000000000E+00  0.00000000000E+00  0.13425448829E+03  0.71406774058E+03  0.70133335192E+03 0.  0.
        5    1    3    3  502    0 -0.16258826549E+03  0.29936368397E+03 -0.17394957610E+02  0.34114254192E+03  0.46999998093E+01 0.  1.
       -5    1    3    3    0  502  0.16258826549E+03 -0.29936368397E+03  0.15164944590E+03  0.37292519866E+03  0.46999998093E+01 0. -1.
</event>
<event>
 5   0  0.2026361E-02  0.7816273E+03  0.7818609E-02  0.9586998E-01
        2   -1    0    0  501    0  0.00000000000E+00  0.00000000000E+00  0.18909666136E+04  0.18909666136E+04  0.25500000920E-02 0. -1.
       -2   -1    0    0    0  501  0.00000000000E+00  0.00000000000E+00 -0.80771031307E+02  0.80771031347E+02  0.25500000920E-02 0.  1.
    10030    2    1    2    0    0  0.00000000000E+00  0.00000000000E+00  0.18101955823E+04  0.19717376449E+04  0.78162733726E+03 0.  0.
        2    1    3    3  502    0  0.18156951981E+03 -0.24531498987E+02  0.34283316798E+02  0.18639911691E+03  0.25500000920E-02 0.  1.
       -2    1    3    3    0  502 -0.18156951981E+03  0.24531498987E+02  0.17759122655E+04  0.17853385280E+04  0.25500000920E-02 0. -1.
</event>
<event>
 5   0  0.2026361E-02  0.7032977E+03  0.7818609E-02  0.9711609E-01
       -2   -1    0    0    0  501  0.00000000000E+00  0.00000000000E+00  0.16545711301E+03  0.16545711303E+03  0.25500000920E-02 0. -1.
        2   -1    0    0  501    0  0.00000000000E+00  0.00000000000E+00 -0.74736542479E+03  0.74736542480E+03  0.25500000920E-02 0.  1.
    10030    2    1    2    0    0  0.00000000000E+00  0.00000000000E+00 -0.58190831178E+03  0.91282253783E+03  0.70329773371E+03 0.  0.
        2    1    3    3  502    0  0.34386629773E+03  0.57483434311E+02 -0.35055316639E+03  0.49440458979E+03  0.25500000920E-02 0.  1.
       -2    1    3    3    0  502 -0.34386629773E+03 -0.57483434311E+02 -0.23135514539E+03  0.41841794803E+03  0.25500000920E-02 0. -1.
</event>
<event>
 5   0  0.1197259E-02  0.6989302E+03  0.7818609E-02  0.9719063E-01
       -1   -1    0    0    0  501  0.00000000000E+00  0.00000000000E+00  0.25100371827E+03  0.25100371832E+03  0.50400001928E-02 0.  1.
        1   -1    0    0  501    0  0.00000000000E+00  0.00000000000E+00 -0.48654996989E+03  0.48654996992E+03  0.50400001928E-02 0. -1.
    10030    2    1    2    0    0  0.00000000000E+00  0.00000000000E+00 -0.23554625161E+03  0.73755368824E+03  0.69893018706E+03 0.  0.
        3    1    3    3  502    0  0.24287842714E+03 -0.25118843173E+03 -0.12447073223E+03  0.37091580175E+03  0.10100000352E+00 0. -1.
       -3    1    3    3    0  502 -0.24287842714E+03  0.25118843173E+03 -0.11107551938E+03  0.36663788649E+03  0.10100000352E+00 0.  1.
</event>
<event>
 5   0  0.1226303E-02  0.6995882E+03  0.7818609E-02  0.9717937E-01
        1   -1    0    0  501    0  0.00000000000E+00  0.00000000000E+00  0.11548241182E+04  0.11548241182E+04  0.50400001928E-02 0.  1.
       -1   -1    0    0    0  501  0.00000000000E+00  0.00000000000E+00 -0.10595199749E+03  0.10595199761E+03  0.50400001928E-02 0. -1.
    10030    2    1    2    0    0  0.00000000000E+00  0.00000000000E+00  0.10488721207E+04  0.12607761158E+04  0.69958822791E+03 0.  0.
        4    1    3    3  502    0  0.11697061757E+03  0.14082496446E+03  0.10615927757E+04  0.10772625633E+04  0.12699999809E+01 0.  1.
       -4    1    3    3    0  502 -0.11697061757E+03 -0.14082496446E+03 -0.12720654998E+02  0.18351355251E+03  0.12699999809E+01 0. -1.
</event>
<event>
 5   0  0.1909053E-02  0.6994582E+03  0.7818609E-02  0.9718159E-01
        2   -1    0    0  501    0  0.00000000000E+00  0.00000000000E+00  0.20055932173E+04  0.20055932173E+04  0.25500000920E-02 0. -1.
       -2   -1    0    0    0  501  0.00000000000E+00  0.00000000000E+00 -0.60984669147E+02  0.60984669200E+02  0.25500000920E-02 0.  1.
    10030    2    1    2    0    0  0.00000000000E+00  0.00000000000E+00  0.19446085481E+04  0.20665778865E+04  0.69945818704E+03 0.  0.
        1    1    3    3  502    0 -0.25680106250E+03  0.23646057547E+03  0.90962555624E+03  0.97430952066E+03  0.50400001928E-02 0.  1.
       -1    1    3    3    0  502  0.25680106250E+03 -0.23646057547E+03  0.10349829919E+04  0.10922683658E+04  0.50400001928E-02 0. -1.
</event>
<event>
 5   0  0.1973067E-02  0.6986260E+03  0.7818609E-02  0.9719585E-01
       -2   -1    0    0    0  501  0.00000000000E+00  0.00000000000E+00  0.88126667822E+03  0.88126667822E+03  0.25500000920E-02 0. -1.
        2   -1    0    0  501    0  0.00000000000E+00  0.00000000000E+00 -0.13845930357E+03  0.13845930360E+03  0.25500000920E-02 0.  1.
    10030    2    1    2    0    0  0.00000000000E+00  0.00000000000E+00  0.74280737464E+03  0.10197259818E+04  0.69862599592E+03 0.  0.
        5    1    3    3  502    0 -0.95661959120E+02  0.54150194174E+02  0.85531447327E+03  0.86236210035E+03  0.46999998093E+01 0. -1.
       -5    1    3    3    0  502  0.95661959120E+02 -0.54150194174E+02 -0.11250709862E+03  0.15736388147E+03  0.46999998093E+01 0.  1.
</event>
<event>
 5   0  0.1223742E-02  0.7005992E+03  0.7818609E-02  0.9716208E-01
       -1   -1    0    0    0  501  0.00000000000E+00  0.00000000000E+00  0.73100786062E+02  0.73100786236E+02  0.50400001928E-02 0.  1.
        1   -1    0    0  501    0  0.00000000000E+00  0.00000000000E+00 -0.16786385191E+04  0.16786385191E+04  0.50400001928E-02 0. -1.
    10030    2    1    2    0    0  0.00000000000E+00  0.00000000000E+00 -0.16055377330E+04  0.17517393053E+04  0.70059915905E+03 0.  0.
        2    1    3    3  502    0  0.21462232752E+02 -0.26345403354E+03 -0.13775280949E+04  0.14026590132E+04  0.25500000920E-02 0. -1.
       -2    1    3    3    0  502 -0.21462232752E+02  0.26345403354E+03 -0.22800963810E+03  0.34908029205E+03  0.25500000920E-02 0.  1.
</event>
<event>
 5   0  0.1223742E-02  0.7016054E+03  0.7818609E-02  0.9714491E-01
       -1   -1    0    0    0  501  0.00000000000E+00  0.00000000000E+00  0.21718909957E+03  0.21718909963E+03  0.50400001928E-02 0. -1.
        1   -1    0    0  501    0  0.00000000000E+00  0.00000000000E+00 -0.56661465067E+03  0.56661465069E+03  0.50400001928E-02 0.  1.
    10030    2    1    2    0    0  0.00000000000E+00  0.00000000000E+00 -0.34942555109E+03  0.78380375032E+03  0.70160537573E+03 0.  0.
        2    1    3    3  502    0  0.22655289333E+02  0.13269069159E+03 -0.53661396991E+03  0.55324012371E+03  0.25500000920E-02 0.  1.
       -2    1    3    3    0  502 -0.22655289333E+02 -0.13269069159E+03  0.18718841882E+03  0.23056362661E+03  0.25500000920E-02 0. -1.
</event>
<event>
 5   0  0.1197259E-02  0.7020563E+03  0.7818609E-02  0.9713722E-01
       -1   -1    0    0    0  501  0.00000000000E+00  0.00000000000E+00  0.25922617792E+03  0.25922617797E+03  0.50400001928E-02 0.  1.
        1   -1    0    0  501    0  0.00000000000E+00  0.00000000000E+00 -0.47534072588E+03  0.47534072591E+03  0.50400001928E-02 0. -1.
    10030    2    1    2    0    0  0.00000000000E+00  0.00000000000E+00 -0.21611454796E+03  0.73456690388E+03  0.70205629293E+03 0.  0.
        3    1    3    3  502    0  0.33426732773E+03  0.23362417099E+02  0.13822123387E+01  0.33508561538E+03  0.10100000352E+00 0.  1.
       -3    1    3    3    0  502 -0.33426732773E+03 -0.23362417099E+02 -0.21749676030E+03  0.39948128850E+03  0.10100000352E+00 0. -1.
</event>
<event>
 5   0  0.1948138E-02  0.7233212E+03  0.7818609E-02  0.9678161E-01
       -2   -1    0    0    0  501  0.00000000000E+00  0.00000000000E+00  0.17213819592E+03  0.17213819594E+03  0.25500000920E-02 0. -1.
        2   -1    0    0  501    0  0.00000000000E+00  0.00000000000E+00 -0.75984527271E+03  0.75984527271E+03  0.25500000920E-02 0.  1.
    10030    2    1    2    0    0  0.00000000000E+00  0.00000000000E+00 -0.58770707679E+03  0.93198346866E+03  0.72332121340E+03 0.  0.
        3    1    3    3  502    0  0.11638574927E+03  0.28572493717E+03 -0.53701088492E+03  0.61932631389E+03  0.10100000352E+00 0.  1.
       -3    1    3    3    0  502 -0.11638574927E+03 -0.28572493717E+03 -0.50696191863E+02  0.31265715476E+03  0.10100000352E+00 0. -1.
</event>
<event>
 5   0  0.1237686E-02  0.6995820E+03  0.7818609E-02  0.9717947E-01
        1   -1    0    0  501    0  0.00000000000E+00  0.00000000000E+00  0.30657805348E+03  0.30657805352E+03  0.50400001928E-02 0.  1.
       -1   -1    0    0    0  501  0.00000000000E+00  0.00000000000E+00 -0.39909490576E+03  0.39909490579E+03  0.50400001928E-02 0. -1.
    10030    2    1    2    0    0  0.00000000000E+00  0.00000000000E+00 -0.92516852285E+02  0.70567295931E+03  0.69958198772E+03 0.  0.
        5    1    3    3  502    0 -0.25071402051E+03 -0.24381451289E+03 -0.51654074491E+02  0.35354387307E+03  0.46999998093E+01 0.  1.
       -5    1    3    3    0  502  0.25071402051E+03  0.24381451289E+03 -0.40862777794E+02  0.35212908624E+03  0.46999998093E+01 0. -1.
</event>
<event>
 5   0  0.1223742E-02  0.6962345E+03  0.7818609E-02  0.9723693E-01
        1   -1    0    0  501    0  0.00000000000E+00  0.00000000000E+00  0.31357782330E+03  0.31357782334E+03  0.50400001928E-02 0.  1.
       -1   -1    0    0    0  501  0.00000000000E+00  0.00000000000E+00 -0.38646110973E+03  0.38646110976E+03  0.50400001928E-02 0. -1.
    10030    2    1    2    0    0  0.00000000000E+00  0.00000000000E+00 -0.72883286422E+02  0.70003893310E+03  0.69623453981E+03 0.  0.
        2    1    3    3  502    0 -0.14351161873E+03 -0.96091863811E+02  0.26746215260E+03  0.31837907293E+03  0.25500000920E-02 0.  1.
       -2    1    3    3    0  502  0.14351161873E+03  0.96091863811E+02 -0.34034543902E+03  0.38165986017E+03  0.25500000920E-02 0. -1.
</event>
<event>
 5   0  0.1948138E-02  0.7011949E+03  0.7818609E-02  0.9715191E-01
        2   -1    0    0  501    0  0.00000000000E+00  0.00000000000E+00  0.14723914569E+04  0.14723914569E+04  0.25500000920E-02 0.  1.
       -2   -1    0    0    0  501  0.00000000000E+00  0.00000000000E+00 -0.83482272472E+02  0.83482272511E+02  0.25500000920E-02 0. -1.
    10030    2    1    2    0    0  0.00000000000E+00  0.00000000000E+00  0.13889091844E+04  0.15558737294E+04  0.70119493673E+03 0.  0.
        3    1    3    3  502    0  0.14619157529E+03 -0.99223508900E+02  0.13663834704E+04  0.13777594420E+04  0.10100000352E+00 0.  1.
       -3    1    3    3    0  502 -0.14619157529E+03  0.99223508900E+02  0.22525713986E+02  0.17811428746E+03  0.10100000352E+00 0. -1.
</event>
<event>
 5   0  0.1973067E-02  0.7008240E+03  0.7818609E-02  0.9715824E-01
        2   -1    0    0  501    0  0.00000000000E+00  0.00000000000E+00  0.72928289204E+03  0.72928289204E+03  0.25500000920E-02 0. -1.
       -2   -1    0    0    0  501  0.00000000000E+00  0.00000000000E+00 -0.16836890961E+03  0.16836890963E+03  0.25500000920E-02 0.  1.
    10030    2    1    2    0    0  0.00000000000E+00  0.00000000000E+00  0.56091398243E+03  0.89765180168E+03  0.70082398744E+03 0.  0.
        5    1    3    3  502    0  0.33094952669E+03 -0.96554425320E+02  0.36061140604E+03  0.49891183833E+03  0.46999998093E+01 0. -1.
       -5    1    3    3    0  502 -0.33094952669E+03  0.96554425320E+02  0.20030257639E+03  0.39873996335E+03  0.46999998093E+01 0.  1.
</event>
<event>
 5   0  0.1973067E-02  0.6986849E+03  0.7818609E-02  0.9719484E-01
       -2   -1    0    0    0  501  0.00000000000E+00  0.00000000000E+00  0.16772311259E+03  0.16772311261E+03  0.25500000920E-02 0. -1.
        2   -1    0    0  501    0  0.00000000000E+00  0.00000000000E+00 -0.72762870188E+03  0.72762870189E+03  0.25500000920E-02 0.  1.
    10030    2    1    2    0    0  0.00000000000E+00  0.00000000000E+00 -0.55990558929E+03  0.89535181450E+03  0.69868490952E+03 0.  0.
        5    1    3    3  502    0  0.24983621046E+03 -0.22082870158E+03 -0.41334150098E+03  0.53109013729E+03  0.46999998093E+01 0.  1.
       -5    1    3    3    0  502 -0.24983621046E+03  0.22082870158E+03 -0.14656408831E+03  0.36426167720E+03  0.46999998093E+01 0. -1.
</event>
<event>
 5   0  0.1973067E-02  0.7025629E+03  0.7818609E-02  0.9712859E-01
        2   -1    0    0  501    0  0.00000000000E+00  0.00000000000E+00  0.10188972936E+04  0.10188972936E+04  0.25500000920E-02 0.  1.
       -2   -1    0    0    0  501  0.00000000000E+00  0.00000000000E+00 -0.12111001805E+03  0.12111001808E+03  0.25500000920E-02 0. -1.
    10030    2    1    2    0    0  0.00000000000E+00  0.00000000000E+00  0.89778727558E+03  0.11400073117E+04  0.70256293566E+03 0.  0.
        5    1    3    3  502    0 -0.18434802587E+03 -0.90592981304E+02 -0.13445962852E+02  0.20589843812E+03  0.46999998093E+01 0. -1.
       -5    1    3    3    0  502  0.18434802587E+03  0.90592981304E+02  0.91123323843E+03  0.93410887359E+03  0.46999998093E+01 0.  1.
</event>
<event>
 5   0  0.2026361E-02  0.7063137E+03  0.7818609E-02  0.9706495E-01
        2   -1    0    0  501    0  0.00000000000E+00  0.00000000000E+00  0.91212980938E+03  0.91212980939E+03  0.25500000920E-02 0. -1.
       -2   -1    0    0    0  501  0.00000000000E+00  0.00000000000E+00 -0.13673466967E+03  0.13673466969E+03  0.25500000920E-02 0.  1.
    10030    2    1    2    0    0  0.00000000000E+00  0.00000000000E+00  0.77539513971E+03  0.10488644791E+04  0.70631372122E+03 0.  0.
        2    1    3    3  502    0 -0.24405311145E+03  0.86590764290E+02  0.74427892104E+03  0.78804250772E+03  0.25500000920E-02 0. -1.
       -2    1    3    3    0  502  0.24405311145E+03 -0.86590764290E+02  0.31116218675E+02  0.26082197136E+03  0.25500000920E-02 0.  1.
</event>
<event>
 5   0  0.2006362E-02  0.7088511E+03  0.7818609E-02  0.9702214E-01
        2   -1    0    0  501    0  0.00000000000E+00  0.00000000000E+00  0.14288635356E+04  0.14288635356E+04  0.25500000920E-02 0.  1.
       -2   -1    0    0    0  501  0.00000000000E+00  0.00000000000E+00 -0.87914253645E+02  0.87914253682E+02  0.25500000920E-02 0. -1.
    10030    2    1    2    0    0  0.00000000000E+00  0.00000000000E+00  0.13409492820E+04  0.15167777893E+04  0.70885110234E+03 0.  0.
        4    1    3    3  502    0  0.80561503281E+02 -0.33200716905E+03  0.46864389346E+03  0.57995484987E+03  0.12699999809E+01 0.  1.
       -4    1    3    3    0  502 -0.80561503281E+02  0.33200716905E+03  0.87230538851E+03  0.93682293943E+03  0.12699999809E+01 0. -1.
</event>
<event>
 5   0  0.1948138E-02  0.7003462E+03  0.7818609E-02  0.9716640E-01
        2   -1    0    0  501    0  0.00000000000E+00  0.00000000000E+00  0.11974319025E+03  0.11974319028E+03  0.25500000920E-02 0.  1.
       -2   -1    0    0    0  501  0.00000000000E+00  0.00000000000E+00 -0.10240349885E+04  0.10240349885E+04  0.25500000920E-02 0. -1.
    10030    2    1    2    0    0  0.00000000000E+00  0.00000000000E+00 -0.90429179822E+03  0.11437781787E+04  0.70034624712E+03 0.  0.
        3    1    3    3  502    0 -0.27702975951E+03 -0.97218913889E+02 -0.76383672535E+03  0.81831751665E+03  0.10100000352E+00 0. -1.
       -3    1    3    3    0  502  0.27702975951E+03  0.97218913889E+02 -0.14045507287E+03  0.32546066209E+03  0.10100000352E+00 0.  1.
</event>
<event>
 5   0  0.1973067E-02  0.6999413E+03  0.7818609E-02  0.9717333E-01
       -2   -1    0    0    0  501  0.00000000000E+00  0.00000000000E+00  0.85669276437E+02  0.85669276475E+02  0.25500000920E-02 0. -1.
        2   -1    0    0  501    0  0.00000000000E+00  0.00000000000E+00 -0.14296778399E+04  0.14296778399E+04  0.25500000920E-02 0.  1.
    10030    2    1    2    0    0  0.00000000000E+00  0.00000000000E+00 -0.13440085634E+04  0.15153471164E+04  0.69994132929E+03 0.  0.
        5    1    3    3  502    0  0.16852305920E+03 -0.13481903802E+03 -0.75631888224E+02  0.22873230425E+03  0.46999998093E+01 0. -1.
       -5    1    3    3    0  502 -0.16852305920E+03  0.13481903802E+03 -0.12683766752E+04  0.12866148121E+04  0.46999998093E+01 0.  1.
</event>
<event>
 5   0  0.1909053E-02  0.7010590E+03  0.7818609E-02  0.9715423E-01
        2   -1    0    0  501    0  0.00000000000E+00  0.00000000000E+00  0.10847993787E+04  0.10847993787E+04  0.25500000920E-02 0. -1.
       -2   -1    0    0    0  501  0.00000000000E+00  0.00000000000E+00 -0.11326602613E+03  0.11326602616E+03  0.25500000920E-02 0.  1.
    10030    2    1    2    0    0  0.00000000000E+00  0.00000000000E+00  0.97153335254E+03  0.11980654048E+04  0.70105895554E+03 0.  0.
        1    1    3    3  502    0 -0.17473415601E+03  0.14570462953E+03  0.30056815767E+02  0.22948916433E+03  0.50400001928E-02 0.  1.
       -1    1    3    3    0  502  0.17473415601E+03 -0.14570462953E+03  0.94147653677E+03  0.96857624050E+03  0.50400001928E-02 0. -1.
</event>
<event>
 5   0  0.1237686E-02  0.7277675E+03  0.7818609E-02  0.9670890E-01
        1   -1    0    0  501    0  0.00000000000E+00  0.00000000000E+00  0.12808854200E+04  0.12808854201E+04  0.50400001928E-02 0.  1.
       -1   -1    0    0    0  501  0.00000000000E+00  0.00000000000E+00 -0.10337488537E+03  0.10337488549E+03  0.50400001928E-02 0. -1.
    10030    2    1    2    0    0  0.00000000000E+00  0.00000000000E+00  0.11775105347E+04  0.13842603055E+04  0.72776750013E+03 0.  0.
        5    1    3    3  502    0  0.26168039562E+03 -0.70194383685E+01  0.10694297831E+04  0.11010122856E+04  0.46999998093E+01 0.  1.
       -5    1    3    3    0  502 -0.26168039562E+03  0.70194383685E+01  0.10808075157E+03  0.28324801998E+03  0.46999998093E+01 0. -1.
</event>
<event>
 5   0  0.1909053E-02  0.7074237E+03  0.7818609E-02  0.9704620E-01
        2   -1    0    0  501    0  0.00000000000E+00  0.00000000000E+00  0.49593767040E+03  0.49593767041E+03  0.25500000920E-02 0. -1.
       -2   -1    0    0    0  501  0.00000000000E+00  0.00000000000E+00 -0.25227381819E+03  0.25227381820E+03  0.25500000920E-02 0.  1.
    10030    2    1    2    0    0  0.00000000000E+00  0.00000000000E+00  0.24366385222E+03  0.74821148861E+03  0.70742374770E+03 0.  0.
        1    1    3    3  502    0 -0.21476646281E+03  0.21943043920E+03 -0.63899758683E+02  0.31362004142E+03  0.50400001928E-02 0.  1.
       -1    1    3    3    0  502  0.21476646281E+03 -0.21943043920E+03  0.30756361090E+03  0.43459144719E+03  0.50400001928E-02 0. -1.
</event>
<event>
 5   0  0.1223742E-02  0.6901100E+03  0.7818609E-02  0.9734296E-01
       -1   -1    0    0    0  501  0.00000000000E+00  0.00000000000E+00  0.46750281009E+03  0.46750281011E+03  0.50400001928E-02 0. -1.
        1   -1    0    0  501    0  0.00000000000E+00  0.00000000000E+00 -0.25467859828E+03  0.25467859833E+03  0.50400001928E-02 0.  1.
    10030    2    1    2    0    0  0.00000000000E+00  0.00000000000E+00  0.21282421181E+03  0.72218140845E+03  0.69011002136E+03 0.  0.
        2    1    3    3  502    0 -0.34081918961E+03 -0.38810809723E+02  0.67271202932E+02  0.34955602370E+03  0.25500000920E-02 0.  1.
       -2    1    3    3    0  502  0.34081918961E+03  0.38810809723E+02  0.14555300887E+03  0.37262538474E+03  0.25500000920E-02 0. -1.
</event>
<event>
 5   0  0.1948138E-02  0.6927968E+03  0.7818609E-02  0.9729631E-01
       -2   -1    0    0    0  501  0.00000000000E+00  0.00000000000E+00  0.26030577552E+03  0.26030577553E+03  0.25500000920E-02 0.  1.
        2   -1    0    0  501    0  0.00000000000E+00  0.00000000000E+00 -0.46096499660E+03  0.46096499660E+03  0.25500000920E-02 0. -1.
    10030    2    1    2    0    0  0.00000000000E+00  0.00000000000E+00 -0.20065922107E+03  0.72127077214E+03  0.69279679830E+03 0.  0.
        3    1    3    3  502    0  0.51275055106E+02 -0.38036276507E+02  0.25412780235E+03  0.26202450216E+03  0.10100000352E+00 0.  1.
       -3    1    3    3    0  502 -0.51275055106E+02  0.38036276507E+02 -0.45478702342E+03  0.45924626997E+03  0.10100000352E+00 0. -1.
</event>
<event>
 5   0  0.1226303E-02  0.6983674E+03  0.7818609E-02  0.9720028E-01
        1   -1    0    0  501    0  0.00000000000E+00  0.00000000000E+00  0.38604657042E+03  0.38604657045E+03  0.50400001928E-02 0. -1.
       -1   -1    0    0    0  501  0.00000000000E+00  0.00000000000E+00 -0.31584081971E+03  0.31584081976E+03  0.50400001928E-02 0.  1.
    10030    2    1    2    0    0  0.00000000000E+00  0.00000000000E+00  0.70205750707E+02  0.70188739021E+03  0.69836742557E+03 0.  0.
        4    1    3    3  502    0  0.32746173831E+02 -0.32937673000E+03  0.14686728651E+03  0.36212284506E+03  0.12699999809E+01 0. -1.
       -4    1    3    3    0  502 -0.32746173831E+02  0.32937673000E+03 -0.76661535807E+02  0.33976454515E+03  0.12699999809E+01 0.  1.
</event>
<event>
 5   0  0.1257442E-02  0.7004320E+03  0.7818609E-02  0.9716494E-01
       -1   -1    0    0    0  501  0.00000000000E+00  0.00000000000E+00  0.96888539100E+03  0.96888539101E+03  0.50400001928E-02 0. -1.
        1   -1    0    0  501    0  0.00000000000E+00  0.00000000000E+00 -0.12659005926E+03  0.12659005936E+03  0.50400001928E-02 0.  1.
    10030    2    1    2    0    0  0.00000000000E+00  0.00000000000E+00  0.84229533174E+03  0.10954754504E+04  0.70043203560E+03 0.  0.
        1    1    3    3  502    0 -0.26180118099E+03  0.93903078861E+02  0.75400269911E+03  0.80366517709E+03  0.50400001928E-02 0. -1.
       -1    1    3    3    0  502  0.26180118099E+03 -0.93903078861E+02  0.88292632629E+02  0.29181027328E+03  0.50400001928E-02 0.  1.
</event>
<event>
 5   0  0.1237686E-02  0.6934049E+03  0.7818609E-02  0.9728578E-01
       -1   -1    0    0    0  501  0.00000000000E+00  0.00000000000E+00  0.12809961137E+03  0.12809961147E+03  0.50400001928E-02 0. -1.
        1   -1    0    0  501    0  0.00000000000E+00  0.00000000000E+00 -0.93835245664E+03  0.93835245665E+03  0.50400001928E-02 0.  1.
    10030    2    1    2    0    0  0.00000000000E+00  0.00000000000E+00 -0.81025284527E+03  0.10664520681E+04  0.69340488918E+03 0.  0.
        5    1    3    3  502    0 -0.27419553732E+03 -0.19856569353E+03 -0.29035287844E+03  0.44602512412E+03  0.46999998093E+01 0.  1.
       -5    1    3    3    0  502  0.27419553732E+03  0.19856569353E+03 -0.51989996683E+03  0.62042694400E+03  0.46999998093E+01 0. -1.
</event>
<event>
 5   0  0.2006362E-02  0.7067520E+03  0.7818609E-02  0.9705754E-01
       -2   -1    0    0    0  501  0.00000000000E+00  0.00000000000E+00  0.12000586180E+03  0.12000586183E+03  0.25500000920E-02 0.  1.
        2   -1    0    0  501    0  0.00000000000E+00  0.00000000000E+00 -0.10405709108E+04  0.10405709108E+04  0.25500000920E-02 0. -1.
    10030    2    1    2    0    0  0.00000000000E+00  0.00000000000E+00 -0.92056504897E+03  0.11605767726E+04  0.70675203271E+03 0.  0.
        4    1    3    3  502    0 -0.20074537531E+03 -0.11521395988E+02 -0.93746545588E+03  0.95878805903E+03  0.12699999809E+01 0. -1.
       -4    1    3    3    0  502  0.20074537531E+03  0.11521395988E+02  0.16900406909E+02  0.20178871358E+03  0.12699999809E+01 0.  1.
</event>
<event>
 5   0  0.1223742E-02  0.6998454E+03  0.7818609E-02  0.9717497E-01
       -1   -1    0    0    0  501  0.00000000000E+00  0.00000000000E+00  0.16700792022E+03  0.16700792030E+03  0.50400001928E-02 0. -1.
        1   -1    0    0  501    0  0.00000000000E+00  0.00000000000E+00 -0.73317415992E+03  0.73317415994E+03  0.50400001928E-02 0.  1.
    10030    2    1    2    0    0  0.00000000000E+00  0.00000000000E+00 -0.56616623970E+03  0.90018208024E+03  0.69984538764E+03 0.  0.
        2    1    3    3  502    0 -0.46498899264E+02 -0.19651952749E+03 -0.65065569619E+03  0.68127447282E+03  0.25500000920E-02 0.  1.
       -2    1    3    3    0  502  0.46498899264E+02  0.19651952749E+03  0.84489456497E+02  0.21890760742E+03  0.25500000920E-02 0. -1.
</event>
<event>
 5   0  0.2026361E-02  0.6942328E+03  0.7818609E-02  0.9727146E-01
        2   -1    0    0  501    0  0.00000000000E+00  0.00000000000E+00  0.97573880953E+03  0.97573880953E+03  0.25500000920E-02 0.  1.
       -2   -1    0    0    0  501  0.00000000000E+00  0.00000000000E+00 -0.12348571029E+03  0.12348571032E+03  0.25500000920E-02 0. -1.
    10030    2    1    2    0    0  0.00000000000E+00  0.00000000000E+00  0.85225309923E+03  0.10992245199E+04  0.69423281390E+03 0.  0.
        2    1    3    3  502    0  0.33672079717E+03  0.21128943913E+02  0.29688594440E+03  0.44940915823E+03  0.25500000920E-02 0. -1.
       -2    1    3    3    0  502 -0.33672079717E+03 -0.21128943913E+02  0.55536715484E+03  0.64981536162E+03  0.25500000920E-02 0.  1.
</event>
<event>
 5   0  0.7947250E-03  0.6979575E+03  0.7818609E-02  0.9720732E-01
       -3   -1    0    0    0  501  0.00000000000E+00  0.00000000000E+00  0.31347795620E+03  0.31347797247E+03  0.10100000352E+00 0. -1.
        3   -1    0    0  501    0  0.00000000000E+00  0.00000000000E+00 -0.38849988836E+03  0.38849990149E+03  0.10100000352E+00 0.  1.
    10030    2    1    2    0    0  0.00000000000E+00  0.00000000000E+00 -0.75021932168E+02  0.70197787396E+03  0.69795748095E+03 0.  0.
        3    1    3    3  502    0 -0.30321152211E+03 -0.15070035721E+03  0.47464323871E+02  0.34190743929E+03  0.10100000352E+00 0. -1.
       -3    1    3    3    0  502  0.30321152211E+03  0.15070035721E+03 -0.12248625604E+03  0.36007043467E+03  0.10100000352E+00 0.  1.
</event>
<event>
 5   0  0.1909053E-02  0.6947544E+03  0.7818609E-02  0.9726245E-01
       -2   -1    0    0    0  501  0.00000000000E+00  0.00000000000E+00  0.75943029126E+03  0.75943029126E+03  0.25500000920E-02 0. -1.
        2   -1    0    0  501    0  0.00000000000E+00  0.00000000000E+00 -0.15889663933E+03  0.15889663935E+03  0.25500000920E-02 0.  1.
    10030    2    1    2    0    0  0.00000000000E+00  0.00000000000E+00  0.60053365193E+03  0.91832693061E+03  0.69475440580E+03 0.  0.
        1    1    3    3  502    0  0.21416384225E+03 -0.64269684595E+02 -0.51128833011E+02  0.22937066350E+03  0.50400001928E-02 0.  1.
       -1    1    3    3    0  502 -0.21416384225E+03  0.64269684595E+02  0.65166248494E+03  0.68895626711E+03  0.50400001928E-02 0. -1.
</event>
<event>
 5   0  0.1973067E-02  0.6970054E+03  0.7818609E-02  0.9722367E-01
        2   -1    0    0  501    0  0.00000000000E+00  0.00000000000E+00  0.12565004894E+04  0.12565004894E+04  0.25500000920E-02 0.  1.
       -2   -1    0    0    0  501  0.00000000000E+00  0.00000000000E+00 -0.96660639540E+02  0.96660639574E+02  0.25500000920E-02 0. -1.
    10030    2    1    2    0    0  0.00000000000E+00  0.00000000000E+00  0.11598398498E+04  0.13531611289E+04  0.69700542583E+03 0.  0.
        5    1    3    3  502    0 -0.82582683898E+02 -0.56848006549E+02 -0.67994798986E+02  0.12123109426E+03  0.46999998093E+01 0. -1.
       -5    1    3    3    0  502  0.82582683898E+02  0.56848006549E+02  0.12278346488E+04  0.12319300347E+04  0.46999998093E+01 0.  1.
</event>
<event>
 5   0  0.1223742E-02  0.7003954E+03  0.7818609E-02  0.9716556E-01
       -1   -1    0    0    0  501  0.00000000000E+00  0.00000000000E+00  0.48882415385E+03  0.48882415388E+03  0.50400001928E-02 0.  1.
        1   -1    0    0  501    0  0.00000000000E+00  0.00000000000E+00 -0.25088452808E+03  0.25088452813E+03  0.50400001928E-02 0. -1.
    10030    2    1    2    0    0  0.00000000000E+00  0.00000000000E+00  0.23793962577E+03  0.73970868201E+03  0.70039536601E+03 0.  0.
        2    1    3    3  502    0  0.91473756438E+02 -0.46642359836E+02  0.47256916655E+03  0.48359546630E+03  0.25500000920E-02 0.  1.
       -2    1    3    3    0  502 -0.91473756438E+02  0.46642359836E+02 -0.23462954078E+03  0.25611321571E+03  0.25500000920E-02 0. -1.
</event>
<event>
 5   0  0.1226303E-02  0.7017634E+03  0.7818609E-02  0.9714221E-01
       -1   -1    0    0    0  501  0.00000000000E+00  0.00000000000E+00  0.13519125849E+03  0.13519125858E+03  0.50400001928E-02 0. -1.
        1   -1    0    0  501    0  0.00000000000E+00  0.00000000000E+00 -0.91069483791E+03  0.91069483792E+03  0.50400001928E-02 0.  1.
    10030    2    1    2    0    0  0.00000000000E+00  0.00000000000E+00 -0.77550357942E+03  0.10458860965E+04  0.70176343961E+03 0.  0.
        4    1    3    3  502    0 -0.27915694246E+03 -0.16968441092E+02 -0.70355464832E+03  0.75710453875E+03  0.12699999809E+01 0.  1.
       -4    1    3    3    0  502  0.27915694246E+03  0.16968441092E+02 -0.71948931101E+02  0.28878155776E+03  0.12699999809E+01 0. -1.
</event>
<event>
 5   0  0.2006362E-02  0.7017541E+03  0.7818609E-02  0.9714237E-01
        2   -1    0    0  501    0  0.00000000000E+00  0.00000000000E+00  0.16656868324E+03  0.16656868326E+03  0.25500000920E-02 0. -1.
       -2   -1    0    0    0  501  0.00000000000E+00  0.00000000000E+00 -0.73912273955E+03  0.73912273955E+03  0.25500000920E-02 0.  1.
    10030    2    1    2    0    0  0.00000000000E+00  0.00000000000E+00 -0.57255405631E+03  0.90569142281E+03  0.70175409223E+03 0.  0.
        4    1    3    3  502    0 -0.66471634470E+01 -0.62507845163E+02  0.15923927088E+03  0.17120214304E+03  0.12699999809E+01 0. -1.
       -4    1    3    3    0  502  0.66471634470E+01  0.62507845163E+02 -0.73179332719E+03  0.73448927978E+03  0.12699999809E+01 0.  1.
</event>
<event>
 5   0  0.1948138E-02  0.7134978E+03  0.7818609E-02  0.9694424E-01
        2   -1    0    0  501    0  0.00000000000E+00  0.00000000000E+00  0.82366601463E+03  0.82366601463E+03  0.25500000920E-02 0.  1.
       -2   -1    0    0    0  501  0.00000000000E+00  0.00000000000E+00 -0.15451625235E+03  0.15451625237E+03  0.25500000920E-02 0. -1.
    10030    2    1    2    0    0  0.00000000000E+00  0.00000000000E+00  0.66914976228E+03  0.97818226700E+03  0.71349782279E+03 0.  0.
        3    1    3    3  502    0  0.30346534388E+03  0.29403640638E+01  0.59168122463E+03  0.66497108393E+03  0.10100000352E+00 0.  1.
       -3    1    3    3    0  502 -0.30346534388E+03 -0.29403640638E+01  0.77468537648E+02  0.31321118308E+03  0.10100000352E+00 0. -1.
</event>
<event>
 5   0  0.1257442E-02  0.6933263E+03  0.7818609E-02  0.9728714E-01
        1   -1    0    0  501    0  0.00000000000E+00  0.00000000000E+00  0.88222823629E+03  0.88222823630E+03  0.50400001928E-02 0.  1.
       -1   -1    0    0    0  501  0.00000000000E+00  0.00000000000E+00 -0.13621795186E+03  0.13621795196E+03  0.50400001928E-02 0. -1.
    10030    2    1    2    0    0  0.00000000000E+00  0.00000000000E+00  0.74601028442E+03  0.10184461883E+04  0.69332625359E+03 0.  0.
        1    1    3    3  502    0 -0.78086123069E+02  0.33175474048E+03  0.27990857222E+03  0.44102999816E+03  0.50400001928E-02 0. -1.
       -1    1    3    3    0  502  0.78086123069E+02 -0.33175474048E+03  0.46610171220E+03  0.57741619010E+03  0.50400001928E-02 0.  1.
</event>
<event>
 5   0  0.1257442E-02  0.6963047E+03  0.7818609E-02  0.9723573E-01
       -1   -1    0    0    0  501  0.00000000000E+00  0.00000000000E+00  0.45512146807E+03  0.45512146810E+03  0.50400001928E-02 0. -1.
        1   -1    0    0  501    0  0.00000000000E+00  0.00000000000E+00 -0.26632459770E+03  0.26632459775E+03  0.50400001928E-02 0.  1.
    10030    2    1    2    0    0  0.00000000000E+00  0.00000000000E+00  0.18879687037E+03  0.72144606584E+03  0.69630465147E+03 0.  0.
        1    1    3    3  502    0 -0.87118044618E+02  0.35697408551E+01 -0.25482915181E+03  0.26933286726E+03  0.50400001928E-02 0.  1.
       -1    1    3    3    0  502  0.87118044618E+02 -0.35697408551E+01  0.44362602219E+03  0.45211319858E+03  0.50400001928E-02 0. -1.
</event>
<event>
 5   0  0.1223742E-02  0.7167571E+03  0.7818609E-02  0.9688997E-01
        1   -1    0    0  501    0  0.00000000000E+00  0.00000000000E+00  0.10637639450E+04  0.10637639450E+04  0.50400001928E-02 0. -1.
       -1   -1    0    0    0  501  0.00000000000E+00  0.00000000000E+00 -0.12073654710E+03  0.12073654721E+03  0.50400001928E-02 0.  1.
    10030    2    1    2    0    0  0.00000000000E+00  0.00000000000E+00  0.94302739786E+03  0.11845004922E+04  0.71675710172E+03 0.  0.
        2    1    3    3  502    0 -0.14452202270E+03  0.29753491122E+03  0.69943565386E+03  0.77370787274E+03  0.25500000920E-02 0. -1.
       -2    1    3    3    0  502  0.14452202270E+03 -0.29753491122E+03  0.24359174400E+03  0.41079261944E+03  0.25500000920E-02 0.  1.
</event>
<event>
 5   0  0.1223742E-02  0.6905519E+03  0.7818609E-02  0.9733528E-01
       -1   -1    0    0    0  501  0.00000000000E+00  0.00000000000E+00  0.68520437800E+02  0.68520437985E+02  0.50400001928E-02 0.  1.
        1   -1    0    0  501    0  0.00000000000E+00  0.00000000000E+00 -0.17398527055E+04  0.17398527056E+04  0.50400001928E-02 0. -1.
    10030    2    1    2    0    0  0.00000000000E+00  0.00000000000E+00 -0.16713322677E+04  0.18083731435E+04  0.69055186414E+03 0.  0.
        2    1    3    3  502    0  0.27467418455E+03 -0.43120440958E+02 -0.13717732318E+04  0.13996667745E+04  0.25500000920E-02 0. -1.
       -2    1    3    3    0  502 -0.27467418455E+03  0.43120440958E+02 -0.29955903595E+03  0.40870636906E+03  0.25500000920E-02 0.  1.
</event>
<event>
 5   0  0.1973067E-02  0.6994915E+03  0.7818609E-02  0.9718102E-01
        2   -1    0    0  501    0  0.00000000000E+00  0.00000000000E+00  0.22516384699E+03  0.22516384700E+03  0.25500000920E-02 0.  1.
       -2   -1    0    0    0  501  0.00000000000E+00  0.00000000000E+00 -0.54325815043E+03  0.54325815043E+03  0.25500000920E-02 0. -1.
    10030    2    1    2    0    0  0.00000000000E+00  0.00000000000E+00 -0.31809430344E+03  0.76842199744E+03  0.69949151550E+03 0.  0.
        5    1    3    3  502    0  0.28000876984E+03  0.48862649747E+02  0.64763530420E+02  0.29156281416E+03  0.46999998093E+01 0.  1.
       -5    1    3    3    0  502 -0.28000876984E+03 -0.48862649747E+02 -0.38285783386E+03  0.47685918328E+03  0.46999998093E+01 0. -1.
</event>
<event>
 5   0  0.1237686E-02  0.7048794E+03  0.7818609E-02  0.9708924E-01
        1   -1    0    0  501    0  0.00000000000E+00  0.00000000000E+00  0.10470321490E+04  0.10470321490E+04  0.50400001928E-02 0.  1.
       -1   -1    0    0    0  501  0.00000000000E+00  0.00000000000E+00 -0.11863411238E+03  0.11863411248E+03  0.50400001928E-02 0. -1.
    10030    2    1    2    0    0  0.00000000000E+00  0.00000000000E+00  0.92839803664E+03  0.11656662615E+04  0.70487936471E+03 0.  0.
        5    1    3    3  502    0  0.29799963506E+03  0.18000040192E+03  0.55459077625E+03  0.65482589005E+03  0.46999998093E+01 0.  1.
       -5    1    3    3    0  502 -0.29799963506E+03 -0.18000040192E+03  0.37380726040E+03  0.51084037146E+03  0.46999998093E+01 0. -1.
</event>
<event>
 5   0  0.1197259E-02  0.6997093E+03  0.7818609E-02  0.9717730E-01
       -1   -1    0    0    0  501  0.00000000000E+00  0.00000000000E+00  0.15843580105E+03  0.15843580113E+03  0.50400001928E-02 0.  1.
        1   -1    0    0  501    0  0.00000000000E+00  0.00000000000E+00 -0.77254167923E+03  0.77254167924E+03  0.50400001928E-02 0. -1.
    10030    2    1    2    0    0  0.00000000000E+00  0.00000000000E+00 -0.61410587818E+03  0.93097748037E+03  0.69970925343E+03 0.  0.
        3    1    3    3  502    0  0.98754030557E+01 -0.20011220119E+03  0.74544024973E+02  0.21377380221E+03  0.10100000352E+00 0.  1.
       -3    1    3    3    0  502 -0.98754030557E+01  0.20011220119E+03 -0.68864990315E+03  0.71720367816E+03  0.10100000352E+00 0. -1.
</event>
<event>
 5   0  0.1197259E-02  0.6983250E+03  0.7818609E-02  0.9720101E-01
       -1   -1    0    0    0  501  0.00000000000E+00  0.00000000000E+00  0.81211915962E+02  0.81211916118E+02  0.50400001928E-02 0.  1.
        1   -1    0    0  501    0  0.00000000000E+00  0.00000000000E+00 -0.15011891313E+04  0.15011891313E+04  0.50400001928E-02 0. -1.
    10030    2    1    2    0    0  0.00000000000E+00  0.00000000000E+00 -0.14199772154E+04  0.15824010475E+04  0.69832498368E+03 0.  0.
        3    1    3    3  502    0 -0.33369704522E+03 -0.41942218530E+02 -0.49740048258E+03  0.60043327519E+03  0.10100000352E+00 0.  1.
       -3    1    3    3    0  502  0.33369704522E+03  0.41942218530E+02 -0.92257673279E+03  0.98196777227E+03  0.10100000352E+00 0. -1.
</event>
<event>
 5   0  0.1226303E-02  0.6965535E+03  0.7818609E-02  0.9723144E-01
        1   -1    0    0  501    0  0.00000000000E+00  0.00000000000E+00  0.84739947084E+03  0.84739947086E+03  0.50400001928E-02 0. -1.
       -1   -1    0    0    0  501  0.00000000000E+00  0.00000000000E+00 -0.14313990324E+03  0.14313990332E+03  0.50400001928E-02 0.  1.
    10030    2    1    2    0    0  0.00000000000E+00  0.00000000000E+00  0.70425956761E+03  0.99053937418E+03  0.69655345325E+03 0.  0.
        4    1    3    3  502    0 -0.67153941342E+01  0.32390398589E+03  0.17037221432E+03  0.36604261078E+03  0.12699999809E+01 0. -1.
       -4    1    3    3    0  502  0.67153941342E+01 -0.32390398589E+03  0.53388735329E+03  0.62449676340E+03  0.12699999809E+01 0.  1.
</event>
<event>
 5   0  0.2026361E-02  0.7009667E+03  0.7818609E-02  0.9715580E-01
        2   -1    0    0  501    0  0.00000000000E+00  0.00000000000E+00  0.68250151452E+03  0.68250151453E+03  0.25500000920E-02 0. -1.
       -2   -1    0    0    0  501  0.00000000000E+00  0.00000000000E+00 -0.17998285987E+03  0.17998285989E+03  0.25500000920E-02 0.  1.
    10030    2    1    2    0    0  0.00000000000E+00  0.00000000000E+00  0.50251865465E+03  0.86248437442E+03  0.70096668812E+03 0.  0.
        2    1    3    3  502    0  0.32604012837E+03 -0.57014427195E+02  0.10943617740E+03  0.34861022237E+03  0.25500000920E-02 0.  1.
       -2    1    3    3    0  502 -0.32604012837E+03  0.57014427195E+02  0.39308247725E+03  0.51387415205E+03  0.25500000920E-02 0. -1.
</event>
<event>
 5   0  0.1909053E-02  0.6999093E+03  0.7818609E-02  0.9717387E-01
       -2   -1    0    0    0  501  0.00000000000E+00  0.00000000000E+00  0.29530381287E+03  0.29530381288E+03  0.25500000920E-02 0.  1.
        2   -1    0    0  501    0  0.00000000000E+00  0.00000000000E+00 -0.41471948233E+03  0.41471948234E+03  0.25500000920E-02 0. -1.
    10030    2    1    2    0    0  0.00000000000E+00  0.00000000000E+00 -0.11941566946E+03  0.71002329522E+03  0.69990926386E+03 0.  0.
        1    1    3    3  502    0 -0.24492682892E+03  0.22267247122E+03  0.55494010690E+02  0.33563636008E+03  0.50400001928E-02 0.  1.
       -1    1    3    3    0  502  0.24492682892E+03 -0.22267247122E+03 -0.17490968015E+03  0.37438693513E+03  0.50400001928E-02 0. -1.
</event>
<event>
 5   0  0.1237686E-02  0.7040012E+03  0.7818609E-02  0.9710414E-01
       -1   -1    0    0    0  501  0.00000000000E+00  0.00000000000E+00  0.18316200157E+03  0.18316200164E+03  0.50400001928E-02 0.  1.
        1   -1    0    0  501    0  0.00000000000E+00  0.00000000000E+00 -0.67647445712E+03  0.67647445714E+03  0.50400001928E-02 0. -1.
    10030    2    1    2    0    0  0.00000000000E+00  0.00000000000E+00 -0.49331245555E+03  0.85963645878E+03  0.70400118073E+03 0.  0.
        5    1    3    3  502    0  0.18441394769E+03 -0.10123256148E+03 -0.59121897072E+03  0.62754959720E+03  0.46999998093E+01 0. -1.
       -5    1    3    3    0  502 -0.18441394769E+03  0.10123256148E+03  0.97906515173E+02  0.23208686158E+03  0.46999998093E+01 0.  1.
</event>
<event>
 5   0  0.1223742E-02  0.7016331E+03  0.7818609E-02  0.9714444E-01
       -1   -1    0    0    0  501  0.00000000000E+00  0.00000000000E+00  0.13403340619E+03  0.13403340629E+03  0.50400001928E-02 0. -1.
        1   -1    0    0  501    0  0.00000000000E+00  0.00000000000E+00 -0.91822060809E+03  0.91822060811E+03  0.50400001928E-02 0.  1.
    10030    2    1    2    0    0  0.00000000000E+00  0.00000000000E+00 -0.78418720190E+03  0.10522540144E+04  0.70163305451E+03 0.  0.
        2    1    3    3  502    0 -0.13688782539E+03 -0.14348176569E+03 -0.82609889716E+03  0.84956734973E+03  0.25500000920E-02 0.  1.
       -2    1    3    3    0  502  0.13688782539E+03  0.14348176569E+03  0.41911695263E+02  0.20268666466E+03  0.25500000920E-02 0. -1.
</event>
<event>
 5   0  0.1197259E-02  0.6980259E+03  0.7818609E-02  0.9720614E-01
       -1   -1    0    0    0  501  0.00000000000E+00  0.00000000000E+00  0.13447774390E+03  0.13447774399E+03  0.50400001928E-02 0.  1.
        1   -1    0    0  501    0  0.00000000000E+00  0.00000000000E+00 -0.90580085861E+03  0.90580085863E+03  0.50400001928E-02 0. -1.
    10030    2    1    2    0    0  0.00000000000E+00  0.00000000000E+00 -0.77132311472E+03  0.10402786026E+04  0.69802594777E+03 0.  0.
        3    1    3    3  502    0  0.80637438053E+02  0.16725126720E+03  0.54762894884E+02  0.19358297356E+03  0.10100000352E+00 0.  1.
       -3    1    3    3    0  502 -0.80637438053E+02 -0.16725126720E+03 -0.82608600960E+03  0.84669562905E+03  0.10100000352E+00 0. -1.
</event>
<event>
 5   0  0.2026361E-02  0.7008853E+03  0.7818609E-02  0.9715719E-01
        2   -1    0    0  501    0  0.00000000000E+00  0.00000000000E+00  0.11069195096E+04  0.11069195096E+04  0.25500000920E-02 0. -1.
       -2   -1    0    0    0  501  0.00000000000E+00  0.00000000000E+00 -0.11094759136E+03  0.11094759138E+03  0.25500000920E-02 0.  1.
    10030    2    1    2    0    0  0.00000000000E+00  0.00000000000E+00  0.99597191825E+03  0.12178671010E+04  0.70088530712E+03 0.  0.
        2    1    3    3  502    0  0.18778432888E+03 -0.13506762198E+03  0.40548651235E+02  0.23484124383E+03  0.25500000920E-02 0.  1.
       -2    1    3    3    0  502 -0.18778432888E+03  0.13506762198E+03  0.95542326702E+03  0.98302585716E+03  0.25500000920E-02 0. -1.
</event>
<event>
 5   0  0.1909053E-02  0.6980687E+03  0.7818609E-02  0.9720541E-01
       -2   -1    0    0    0  501  0.00000000000E+00  0.00000000000E+00  0.78757953012E+03  0.78757953013E+03  0.25500000920E-02 0. -1.
        2   -1    0    0  501    0  0.00000000000E+00  0.00000000000E+00 -0.15468274500E+03  0.15468274502E+03  0.25500000920E-02 0.  1.
    10030    2    1    2    0    0  0.00000000000E+00  0.00000000000E+00  0.63289678512E+03  0.94226227515E+03  0.69806866035E+03 0.  0.
        1    1    3    3  502    0 -0.10847150604E+03  0.15021853745E+02 -0.13089451931E+03  0.17066077148E+03  0.50400001928E-02 0.  1.
       -1    1    3    3    0  502  0.10847150604E+03 -0.15021853745E+02  0.76379130443E+03  0.77160150367E+03  0.50400001928E-02 0. -1.
</event>
<event>
 5   0  0.1257442E-02  0.7001266E+03  0.7818609E-02  0.9717016E-01
       -1   -1    0    0    0  501  0.00000000000E+00  0.00000000000E+00  0.61026495002E+03  0.61026495004E+03  0.50400001928E-02 0.  1.
        1   -1    0    0  501    0  0.00000000000E+00  0.00000000000E+00 -0.20080511528E+03  0.20080511535E+03  0.50400001928E-02 0. -1.
    10030    2    1    2    0    0  0.00000000000E+00  0.00000000000E+00  0.40945983473E+03  0.81107006538E+03  0.70012662762E+03 0.  0.
        1    1    3    3  502    0  0.24651388296E+03 -0.24005143837E+03  0.27936342880E+03  0.44321294310E+03  0.50400001928E-02 0.  1.
       -1    1    3    3    0  502 -0.24651388296E+03  0.24005143837E+03  0.13009640593E+03  0.36785712228E+03  0.50400001928E-02 0. -1.
</event>
<event>
 5   0  0.2026361E-02  0.6974019E+03  0.7818609E-02  0.9721686E-01
       -2   -1    0    0    0  501  0.00000000000E+00  0.00000000000E+00  0.68425262033E+03  0.68425262033E+03  0.25500000920E-02 0.  1.
        2   -1    0    0  501    0  0.00000000000E+00  0.00000000000E+00 -0.17770094298E+03  0.17770094300E+03  0.25500000920E-02 0. -1.
    10030    2    1    2    0    0  0.00000000000E+00  0.00000000000E+00  0.50655167734E+03  0.86195356333E+03  0.69740185225E+03 0.  0.
        2    1    3    3  502    0 -0.28611814595E+03  0.32970542750E+01  0.49959248228E+03  0.57573180593E+03  0.25500000920E-02 0.  1.
       -2    1    3    3    0  502  0.28611814595E+03 -0.32970542750E+01  0.69591950641E+01  0.28622175740E+03  0.25500000920E-02 0. -1.
</event>
<event>
 5   0  0.1223742E-02  0.7019347E+03  0.7818609E-02  0.9713929E-01
       -1   -1    0    0    0  501  0.00000000000E+00  0.00000000000E+00  0.57607614231E+03  0.57607614233E+03  0.50400001928E-02 0. -1.
        1   -1    0    0  501    0  0.00000000000E+00  0.00000000000E+00 -0.21382254601E+03  0.21382254607E+03  0.50400001928E-02 0.  1.
    10030    2    1    2    0    0  0.00000000000E+00  0.00000000000E+00  0.36225359630E+03  0.78989868840E+03  0.70193466214E+03 0.  0.
        2    1    3    3  502    0 -0.16278467649E+03 -0.27997056984E+03  0.28914697821E+02  0.32514370766E+03  0.25500000920E-02 0.  1.
       -2    1    3    3    0  502  0.16278467649E+03  0.27997056984E+03  0.33333889848E+03  0.46475498074E+03  0.25500000920E-02 0. -1.
</event>
<event>
 5   0  0.7947250E-03  0.6978147E+03  0.7818609E-02  0.9720977E-01
       -3   -1    0    0    0  501  0.00000000000E+00  0.00000000000E+00  0.14138786373E+03  0.14138789980E+03  0.10100000352E+00 0.  1.
        3   -1    0    0  501    0  0.00000000000E+00  0.00000000000E+00 -0.86100958595E+03  0.86100959188E+03  0.10100000352E+00 0. -1.
    10030    2    1    2    0    0  0.00000000000E+00  0.00000000000E+00 -0.71962172222E+03  0.10023974917E+04  0.69781466610E+03 0.  0.
        4    1    3    3  502    0  0.33657037386E+03 -0.42565331799E+02 -0.24272849566E+03  0.41714524993E+03  0.12699999809E+01 0.  1.
       -4    1    3    3    0  502 -0.33657037386E+03  0.42565331799E+02 -0.47689322657E+03  0.58525224175E+03  0.12699999809E+01 0. -1.
</event>
<event>
 5   0  0.1197259E-02  0.7297009E+03  0.7818609E-02  0.9667746E-01
        1   -1    0    0  501    0  0.00000000000E+00  0.00000000000E+00  0.34509050148E+03  0.34509050152E+03  0.50400001928E-02 0.  1.
       -1   -1    0    0    0  501  0.00000000000E+00  0.00000000000E+00 -0.38574186153E+03  0.38574186157E+03  0.50400001928E-02 0. -1.
    10030    2    1    2    0    0  0.00000000000E+00  0.00000000000E+00 -0.40651360053E+02  0.73083236308E+03  0.72970090438E+03 0.  0.
        3    1    3    3  502    0  0.12797995412E+03  0.18315420105E+03 -0.30920230117E+03  0.38148447316E+03  0.10100000352E+00 0. -1.
       -3    1    3    3    0  502 -0.12797995412E+03 -0.18315420105E+03  0.26855094111E+03  0.34934788992E+03  0.10100000352E+00 0.  1.
</event>
<event>
 5   0  0.1973067E-02  0.7001270E+03  0.7818609E-02  0.9717015E-01
        2   -1    0    0  501    0  0.00000000000E+00  0.00000000000E+00  0.65402223835E+03  0.65402223836E+03  0.25500000920E-02 0.  1.
       -2   -1    0    0    0  501  0.00000000000E+00  0.00000000000E+00 -0.18737049090E+03  0.18737049091E+03  0.25500000920E-02 0. -1.
    10030    2    1    2    0    0  0.00000000000E+00  0.00000000000E+00  0.46665174746E+03  0.84139272927E+03  0.70012703952E+03 0.  0.
        5    1    3    3  502    0  0.14732965652E+03  0.13629109410E+02 -0.14790400400E+03  0.20925932408E+03  0.46999998093E+01 0. -1.
       -5    1    3    3    0  502 -0.14732965652E+03 -0.13629109410E+02  0.61455575146E+03  0.63213340520E+03  0.46999998093E+01 0.  1.
</event>
<event>
 5   0  0.2026361E-02  0.7048102E+03  0.7818609E-02  0.9709041E-01
        2   -1    0    0  501    0  0.00000000000E+00  0.00000000000E+00  0.20370032923E+03  0.20370032924E+03  0.25500000920E-02 0.  1.
       -2   -1    0    0    0  501  0.00000000000E+00  0.00000000000E+00 -0.60966684973E+03  0.60966684973E+03  0.25500000920E-02 0. -1.
    10030    2    1    2    0    0  0.00000000000E+00  0.00000000000E+00 -0.40596652050E+03  0.81336717898E+03  0.70481015321E+03 0.  0.
        2    1    3    3  502    0 -0.28387873878E+03 -0.11983744672E+03 -0.56446869666E+01  0.30818827762E+03  0.25500000920E-02 0.  1.
       -2    1    3    3    0  502  0.28387873878E+03  0.11983744672E+03 -0.40032183353E+03  0.50517890136E+03  0.25500000920E-02 0. -1.
</event>
<event>
 5   0  0.1237686E-02  0.6628092E+03  0.7818609E-02  0.9783036E-01
        1   -1    0    0  501    0  0.00000000000E+00  0.00000000000E+00  0.34586753785E+03  0.34586753789E+03  0.50400001928E-02 0. -1.
       -1   -1    0    0    0  501  0.00000000000E+00  0.00000000000E+00 -0.31754648501E+03  0.31754648505E+03  0.50400001928E-02 0.  1.
    10030    2    1    2    0    0  0.00000000000E+00  0.00000000000E+00  0.28321052846E+02  0.66341402293E+03  0.66280923635E+03 0.  0.
        5    1    3    3  502    0 -0.24181121211E+03 -0.19221425915E+03  0.13421974532E+03  0.33683232291E+03  0.46999998093E+01 0. -1.
       -5    1    3    3    0  502  0.24181121211E+03  0.19221425915E+03 -0.10589869248E+03  0.32658170002E+03  0.46999998093E+01 0.  1.
</event>
<event>
 5   0  0.1237686E-02  0.6961999E+03  0.7818609E-02  0.9723753E-01
       -1   -1    0    0    0  501  0.00000000000E+00  0.00000000000E+00  0.84135721939E+02  0.84135722090E+02  0.50400001928E-02 0. -1.
        1   -1    0    0  501    0  0.00000000000E+00  0.00000000000E+00 -0.14402153739E+04  0.14402153739E+04  0.50400001928E-02 0.  1.
    10030    2    1    2    0    0  0.00000000000E+00  0.00000000000E+00 -0.13560796519E+04  0.15243510960E+04  0.69619985737E+03 0.  0.
        5    1    3    3  502    0  0.19843161215E+03  0.19432506254E+02 -0.53356480494E+02  0.20645031124E+03  0.46999998093E+01 0. -1.
       -5    1    3    3    0  502 -0.19843161215E+03 -0.19432506254E+02 -0.13027231714E+04  0.13179007847E+04  0.46999998093E+01 0.  1.
</event>
<event>
 5   0  0.1223742E-02  0.6947215E+03  0.7818609E-02  0.9726302E-01
       -1   -1    0    0    0  501  0.00000000000E+00  0.00000000000E+00  0.32163583730E+03  0.32163583734E+03  0.50400001928E-02 0. -1.
        1   -1    0    0  501    0  0.00000000000E+00  0.00000000000E+00 -0.37514318684E+03  0.37514318688E+03  0.50400001928E-02 0.  1.
    10030    2    1    2    0    0  0.00000000000E+00  0.00000000000E+00 -0.53507349540E+02  0.69677902422E+03  0.69472150689E+03 0.  0.
        2    1    3    3  502    0  0.32575925857E+03  0.10034412011E+03  0.40313313996E+02  0.34323927554E+03  0.25500000920E-02 0.  1.
       -2    1    3    3    0  502 -0.32575925857E+03 -0.10034412011E+03 -0.93820663535E+02  0.35353974868E+03  0.25500000920E-02 0. -1.
</event>
<event>
 5   0  0.1257442E-02  0.6949988E+03  0.7818609E-02  0.9725823E-01
       -1   -1    0    0    0  501  0.00000000000E+00  0.00000000000E+00  0.82517500845E+03  0.82517500847E+03  0.50400001928E-02 0.  1.
        1   -1    0    0  501    0  0.00000000000E+00  0.00000000000E+00 -0.14633965362E+03  0.14633965371E+03  0.50400001928E-02 0. -1.
    10030    2    1    2    0    0  0.00000000000E+00  0.00000000000E+00  0.67883535483E+03  0.97151466217E+03  0.69499877687E+03 0.  0.
        1    1    3    3  502    0 -0.18802475258E+03  0.55743657279E+02 -0.61589800579E+02  0.20555769621E+03  0.50400001928E-02 0. -1.
       -1    1    3    3    0  502  0.18802475258E+03 -0.55743657279E+02  0.74042515541E+03  0.76595696596E+03  0.50400001928E-02 0.  1.
</event>
<event>
 5   0  0.2026361E-02  0.6981950E+03  0.7818609E-02  0.9720324E-01
       -2   -1    0    0    0  501  0.00000000000E+00  0.00000000000E+00  0.12941728762E+03  0.12941728764E+03  0.25500000920E-02 0. -1.
        2   -1    0    0  501    0  0.00000000000E+00  0.00000000000E+00 -0.94167537344E+03  0.94167537344E+03  0.25500000920E-02 0.  1.
    10030    2    1    2    0    0  0.00000000000E+00  0.00000000000E+00 -0.81225808582E+03  0.10710926611E+04  0.69819502336E+03 0.  0.
        2    1    3    3  502    0  0.29326448791E+03  0.13024690196E+03 -0.19522257542E+03  0.37560640210E+03  0.25500000920E-02 0. -1.
       -2    1    3    3    0  502 -0.29326448791E+03 -0.13024690196E+03 -0.61703551040E+03  0.69548625899E+03  0.25500000920E-02 0.  1.
</event>
<event>
 5   0  0.1257442E-02  0.7063163E+03  0.7818609E-02  0.9706491E-01
       -1   -1    0    0    0  501  0.00000000000E+00  0.00000000000E+00  0.80296499987E+02  0.80296500145E+02  0.50400001928E-02 0.  1.
        1   -1    0    0  501    0  0.00000000000E+00  0.00000000000E+00 -0.15532517522E+04  0.15532517522E+04  0.50400001928E-02 0. -1.
    10030    2    1    2    0    0  0.00000000000E+00  0.00000000000E+00 -0.14729552522E+04  0.16335482524E+04  0.70631630149E+03 0.  0.
        1    1    3    3  502    0  0.25421631003E+03 -0.24487088797E+03 -0.70980590936E+03  0.79272448748E+03  0.50400001928E-02 0. -1.
       -1    1    3    3    0  502 -0.25421631003E+03  0.24487088797E+03 -0.76314934287E+03  0.84082376489E+03  0.50400001928E-02 0.  1.
</event>
<event>
 5   0  0.7947250E-03  0.7004922E+03  0.7818609E-02  0.9716391E-01
        3   -1    0    0  501    0  0.00000000000E+00  0.00000000000E+00  0.14191107216E+03  0.14191110810E+03  0.10100000352E+00 0.  1.
       -3   -1    0    0    0  501  0.00000000000E+00  0.00000000000E+00 -0.86443088884E+03  0.86443089475E+03  0.10100000352E+00 0. -1.
    10030    2    1    2    0    0  0.00000000000E+00  0.00000000000E+00 -0.72251981668E+03  0.10063420028E+04  0.70049221351E+03 0.  0.
        3    1    3    3  502    0 -0.23057942445E+02  0.18762336709E+03  0.62331781197E+02  0.19904637082E+03  0.10100000352E+00 0.  1.
       -3    1    3    3    0  502  0.23057942445E+02 -0.18762336709E+03 -0.78485159788E+03  0.80729563203E+03  0.10100000352E+00 0. -1.
</event>
<event>
 5   0  0.1973067E-02  0.6992508E+03  0.7818609E-02  0.9718514E-01
        2   -1    0    0  501    0  0.00000000000E+00  0.00000000000E+00  0.10954539873E+03  0.10954539876E+03  0.25500000920E-02 0.  1.
       -2   -1    0    0    0  501  0.00000000000E+00  0.00000000000E+00 -0.11158654653E+04  0.11158654653E+04  0.25500000920E-02 0. -1.
    10030    2    1    2    0    0  0.00000000000E+00  0.00000000000E+00 -0.10063200666E+04  0.12254108641E+04  0.69925082008E+03 0.  0.
        5    1    3    3  502    0 -0.33392540808E+03  0.99966053793E+02 -0.45625268750E+03  0.57418463487E+03  0.46999998093E+01 0.  1.
       -5    1    3    3    0  502  0.33392540808E+03 -0.99966053793E+02 -0.55006737909E+03  0.65122622921E+03  0.46999998093E+01 0. -1.
</event>
<event>
 5   0  0.1197259E-02  0.7022980E+03  0.7818609E-02  0.9713310E-01
       -1   -1    0    0    0  501  0.00000000000E+00  0.00000000000E+00  0.36024050851E+03  0.36024050854E+03  0.50400001928E-02 0.  1.
        1   -1    0    0  501    0  0.00000000000E+00  0.00000000000E+00 -0.34228698434E+03  0.34228698438E+03  0.50400001928E-02 0. -1.
    10030    2    1    2    0    0  0.00000000000E+00  0.00000000000E+00  0.17953524163E+02  0.70252749292E+03  0.70229804875E+03 0.  0.
        3    1    3    3  502    0 -0.16926054759E+03 -0.30432546289E+03 -0.36232104273E+02  0.35010840595E+03  0.10100000352E+00 0.  1.
       -3    1    3    3    0  502  0.16926054759E+03  0.30432546289E+03  0.54185628435E+02  0.35241908697E+03  0.10100000352E+00 0. -1.
</event>
<event>
 5   0  0.1237686E-02  0.7088346E+03  0.7818609E-02  0.9702242E-01
       -1   -1    0    0    0  501  0.00000000000E+00  0.00000000000E+00  0.29747615200E+03  0.29747615204E+03  0.50400001928E-02 0. -1.
        1   -1    0    0  501    0  0.00000000000E+00  0.00000000000E+00 -0.42225782415E+03  0.42225782418E+03  0.50400001928E-02 0.  1.
    10030    2    1    2    0    0  0.00000000000E+00  0.00000000000E+00 -0.12478167215E+03  0.71973397623E+03  0.70883462869E+03 0.  0.
        5    1    3    3  502    0 -0.13158746559E+03  0.32810790870E+03 -0.37118733606E+02  0.35548551481E+03  0.46999998093E+01 0. -1.
       -5    1    3    3    0  502  0.13158746559E+03 -0.32810790870E+03 -0.87662938548E+02  0.36424846142E+03  0.46999998093E+01 0.  1.
</event>
<event>
 5   0  0.1237686E-02  0.6553328E+03  0.7818609E-02  0.9796824E-01
        1   -1    0    0  501    0  0.00000000000E+00  0.00000000000E+00  0.13201677513E+03  0.13201677523E+03  0.50400001928E-02 0.  1.
       -1   -1    0    0    0  501  0.00000000000E+00  0.00000000000E+00 -0.81326984038E+03  0.81326984039E+03  0.50400001928E-02 0. -1.
    10030    2    1    2    0    0  0.00000000000E+00  0.00000000000E+00 -0.68125306525E+03  0.94528661562E+03  0.65533277559E+03 0.  0.
        5    1    3    3  502    0  0.27410891014E+03  0.15162772131E+02 -0.59856987984E+03  0.65853898542E+03  0.46999998093E+01 0. -1.
       -5    1    3    3    0  502 -0.27410891014E+03 -0.15162772131E+02 -0.82683185413E+02  0.28674763020E+03  0.46999998093E+01 0.  1.
</event>
<event>
 5   0  0.2026361E-02  0.6955261E+03  0.7818609E-02  0.9724914E-01
        2   -1    0    0  501    0  0.00000000000E+00  0.00000000000E+00  0.59406469130E+03  0.59406469131E+03  0.25500000920E-02 0. -1.
       -2   -1    0    0    0  501  0.00000000000E+00  0.00000000000E+00 -0.20357906973E+03  0.20357906975E+03  0.25500000920E-02 0.  1.
    10030    2    1    2    0    0  0.00000000000E+00  0.00000000000E+00  0.39048562157E+03  0.79764376106E+03  0.69552609505E+03 0.  0.
        2    1    3    3  502    0 -0.20433632780E+03 -0.27803123714E+03  0.14545925006E+03  0.37445039340E+03  0.25500000920E-02 0. -1.
       -2    1    3    3    0  502  0.20433632780E+03  0.27803123714E+03  0.24502637151E+03  0.42319336766E+03  0.25500000920E-02 0.  1.
</event>
<event>
 5   0  0.1237686E-02  0.6908650E+03  0.7818609E-02  0.9732983E-01
       -1   -1    0    0    0  501  0.00000000000E+00  0.00000000000E+00  0.30494728122E+03  0.30494728126E+03  0.50400001928E-02 0. -1.
        1   -1    0    0  501    0  0.00000000000E+00  0.00000000000E+00 -0.39129258888E+03  0.39129258891E+03  0.50400001928E-02 0.  1.
    10030    2    1    2    0    0  0.00000000000E+00  0.00000000000E+00 -0.86345307653E+02  0.69623987017E+03  0.69086499742E+03 0.  0.
        5    1    3    3  502    0  0.27796062258E+03 -0.59149814898E+02 -0.24101787808E+03  0.37265602888E+03  0.46999998093E+01 0.  1.
       -5    1    3    3    0  502 -0.27796062258E+03  0.59149814898E+02  0.15467257043E+03  0.32358384129E+03  0.46999998093E+01 0. -1.
</event>
<event>
 5   0  0.1257442E-02  0.7008980E+03  0.7818609E-02  0.9715698E-01
       -1   -1    0    0    0  501  0.00000000000E+00  0.00000000000E+00  0.26741871434E+03  0.26741871439E+03  0.50400001928E-02 0.  1.
        1   -1    0    0  501    0  0.00000000000E+00  0.00000000000E+00 -0.45925920793E+03  0.45925920796E+03  0.50400001928E-02 0. -1.
    10030    2    1    2    0    0  0.00000000000E+00  0.00000000000E+00 -0.19184049359E+03  0.72667792234E+03  0.70089801529E+03 0.  0.
        1    1    3    3  502    0  0.30126994316E+03 -0.95112175132E+02 -0.25317163991E+03  0.40485279274E+03  0.50400001928E-02 0. -1.
       -1    1    3    3    0  502 -0.30126994316E+03  0.95112175132E+02  0.61331146319E+02  0.32182512960E+03  0.50400001928E-02 0.  1.
</event>
<event>
 5   0  0.2026361E-02  0.7025110E+03  0.7818609E-02  0.9712948E-01
       -2   -1    0    0    0  501  0.00000000000E+00  0.00000000000E+00  0.22938154560E+03  0.22938154561E+03  0.25500000920E-02 0. -1.
        2   -1    0    0  501    0  0.00000000000E+00  0.00000000000E+00 -0.53788292307E+03  0.53788292308E+03  0.25500000920E-02 0.  1.
    10030    2    1    2    0    0  0.00000000000E+00  0.00000000000E+00 -0.30850137748E+03  0.76726446869E+03  0.70251097145E+03 0.  0.
        2    1    3    3  502    0 -0.22741739223E+03 -0.11509715964E+03  0.10971768564E+03  0.27749594050E+03  0.25500000920E-02 0. -1.
       -2    1    3    3    0  502  0.22741739223E+03  0.11509715964E+03 -0.41821906311E+03  0.48976852819E+03  0.25500000920E-02 0.  1.
</event>
<event>
 5   0  0.7947250E-03  0.7201403E+03  0.7818609E-02  0.9683396E-01
       -4   -1    0    0    0  501  0.00000000000E+00  0.00000000000E+00  0.14338691583E+03  0.14339254001E+03  0.12699999809E+01 0.  1.
        4   -1    0    0  501    0  0.00000000000E+00  0.00000000000E+00 -0.90417655373E+03  0.90417744565E+03  0.12699999809E+01 0. -1.
    10030    2    1    2    0    0  0.00000000000E+00  0.00000000000E+00 -0.76078963790E+03  0.10475699857E+04  0.72014026530E+03 0.  0.
        4    1    3    3  502    0  0.89045497968E+02 -0.22100482012E+02  0.12609816405E+03  0.15594836290E+03  0.12699999809E+01 0.  1.
       -4    1    3    3    0  502 -0.89045497968E+02  0.22100482012E+02 -0.88688780195E+03  0.89162162276E+03  0.12699999809E+01 0. -1.
</event>
<event>
 5   0  0.1223742E-02  0.7025666E+03  0.7818609E-02  0.9712853E-01
       -1   -1    0    0    0  501  0.00000000000E+00  0.00000000000E+00  0.36307936924E+03  0.36307936928E+03  0.50400001928E-02 0. -1.
        1   -1    0    0  501    0  0.00000000000E+00  0.00000000000E+00 -0.33987043881E+03  0.33987043884E+03  0.50400001928E-02 0.  1.
    10030    2    1    2    0    0  0.00000000000E+00  0.00000000000E+00  0.23208930437E+02  0.70294980812E+03  0.70256656502E+03 0.  0.
        2    1    3    3  502    0  0.33689093827E+03  0.15734705951E+02 -0.86718459980E+02  0.34822862687E+03  0.25500000920E-02 0.  1.
       -2    1    3    3    0  502 -0.33689093827E+03 -0.15734705951E+02  0.10992739042E+03  0.35472118126E+03  0.25500000920E-02 0. -1.
</event>
<event>
 5   0  0.1223742E-02  0.7162040E+03  0.7818609E-02  0.9689916E-01
        1   -1    0    0  501    0  0.00000000000E+00  0.00000000000E+00  0.17431863487E+03  0.17431863495E+03  0.50400001928E-02 0.  1.
       -1   -1    0    0    0  501  0.00000000000E+00  0.00000000000E+00 -0.73564725651E+03  0.73564725653E+03  0.50400001928E-02 0. -1.
    10030    2    1    2    0    0  0.00000000000E+00  0.00000000000E+00 -0.56132862164E+03  0.90996589148E+03  0.71620395292E+03 0.  0.
        2    1    3    3  502    0 -0.26744015773E+03  0.16110315020E+03 -0.57835461250E+02  0.31752701232E+03  0.25500000920E-02 0.  1.
       -2    1    3    3    0  502  0.26744015773E+03 -0.16110315020E+03 -0.50349316039E+03  0.59243887916E+03  0.25500000920E-02 0. -1.
</event>
<event>
 5   0  0.1226303E-02  0.6985016E+03  0.7818609E-02  0.9719798E-01
        1   -1    0    0  501    0  0.00000000000E+00  0.00000000000E+00  0.92031553884E+03  0.92031553885E+03  0.50400001928E-02 0.  1.
       -1   -1    0    0    0  501  0.00000000000E+00  0.00000000000E+00 -0.13253726503E+03  0.13253726512E+03  0.50400001928E-02 0. -1.
    10030    2    1    2    0    0  0.00000000000E+00  0.00000000000E+00  0.78777827382E+03  0.10528528040E+04  0.69850155200E+03 0.  0.
        4    1    3    3  502    0 -0.10344390100E+03 -0.18142495030E+03 -0.28044624594E+02  0.21072201383E+03  0.12699999809E+01 0. -1.
       -4    1    3    3    0  502  0.10344390100E+03  0.18142495030E+03  0.81582289841E+03  0.84213079015E+03  0.12699999809E+01 0.  1.
</event>
<event>
 5   0  0.1237686E-02  0.6983979E+03  0.7818609E-02  0.9719976E-01
        1   -1    0    0  501    0  0.00000000000E+00  0.00000000000E+00  0.10938366301E+04  0.10938366301E+04  0.50400001928E-02 0.  1.
       -1   -1    0    0    0  501  0.00000000000E+00  0.00000000000E+00 -0.11147908621E+03  0.11147908632E+03  0.50400001928E-02 0. -1.
    10030    2    1    2    0    0  0.00000000000E+00  0.00000000000E+00  0.98235754391E+03  0.12053157164E+04  0.69839790394E+03 0.  0.
        5    1    3    3  502    0  0.70967955600E+02 -0.21984240716E+03  0.94303865588E+03  0.97093312395E+03  0.46999998093E+01 0.  1.
       -5    1    3    3    0  502 -0.70967955600E+02  0.21984240716E+03  0.39318888030E+02  0.23438259249E+03  0.46999998093E+01 0. -1.
</event>
<event>
 5   0  0.1197259E-02  0.7027005E+03  0.7818609E-02  0.9712625E-01
        1   -1    0    0  501    0  0.00000000000E+00  0.00000000000E+00  0.63562111333E+03  0.63562111335E+03  0.50400001928E-02 0.  1.
       -1   -1    0    0    0  501  0.00000000000E+00  0.00000000000E+00 -0.19421476218E+03  0.19421476225E+03  0.50400001928E-02 0. -1.
    10030    2    1    2    0    0  0.00000000000E+00  0.00000000000E+00  0.44140635115E+03  0.82983587560E+03  0.70270051487E+03 0.  0.
        3    1    3    3  502    0 -0.14986290778E+03 -0.28482696619E+03  0.38713261825E+03  0.50344509742E+03  0.10100000352E+00 0.  1.
       -3    1    3    3    0  502  0.14986290778E+03  0.28482696619E+03  0.54273732893E+02  0.32639077818E+03  0.10100000352E+00 0. -1.
</event>
<event>
 5   0  0.1973067E-02  0.6933386E+03  0.7818609E-02  0.9728692E-01
       -2   -1    0    0    0  501  0.00000000000E+00  0.00000000000E+00  0.13663012781E+03  0.13663012784E+03  0.25500000920E-02 0. -1.
        2   -1    0    0  501    0  0.00000000000E+00  0.00000000000E+00 -0.87959803150E+03  0.87959803150E+03  0.25500000920E-02 0.  1.
    10030    2    1    2    0    0  0.00000000000E+00  0.00000000000E+00 -0.74296790368E+03  0.10162281593E+04  0.69333856515E+03 0.  0.
        5    1    3    3  502    0  0.89296701553E+02  0.14081261172E+03 -0.81691146128E+03  0.83376766434E+03  0.46999998093E+01 0.  1.
       -5    1    3    3    0  502 -0.89296701553E+02 -0.14081261172E+03  0.73943557598E+02  0.18246049500E+03  0.46999998093E+01 0. -1.
</event>
<event>
 5   0  0.1237686E-02  0.7052570E+03  0.7818609E-02  0.9708284E-01
       -1   -1    0    0    0  501  0.00000000000E+00  0.00000000000E+00  0.31044679379E+03  0.31044679383E+03  0.50400001928E-02 0.  1.
        1   -1    0    0  501    0  0.00000000000E+00  0.00000000000E+00 -0.40054162101E+03  0.40054162105E+03  0.50400001928E-02 0. -1.
    10030    2    1    2    0    0  0.00000000000E+00  0.00000000000E+00 -0.90094827222E+02  0.71098841488E+03  0.70525700862E+03 0.  0.
        5    1    3    3  502    0  0.14765042866E+03  0.21840729618E+03 -0.28109199770E+03  0.38540523774E+03  0.46999998093E+01 0. -1.
       -5    1    3    3    0  502 -0.14765042866E+03 -0.21840729618E+03  0.19099717047E+03  0.32558317714E+03  0.46999998093E+01 0.  1.
</event>
<event>
 5   0  0.1909053E-02  0.6941745E+03  0.7818609E-02  0.9727247E-01
        2   -1    0    0  501    0  0.00000000000E+00  0.00000000000E+00  0.14006599223E+04  0.14006599223E+04  0.25500000920E-02 0. -1.
       -2   -1    0    0    0  501  0.00000000000E+00  0.00000000000E+00 -0.86009138004E+02  0.86009138042E+02  0.25500000920E-02 0.  1.
    10030    2    1    2    0    0  0.00000000000E+00  0.00000000000E+00  0.13146507843E+04  0.14866690603E+04  0.69417448118E+03 0.  0.
        1    1    3    3  502    0  0.54338059814E+02 -0.34279722484E+03  0.65166302105E+03  0.73832733603E+03  0.50400001928E-02 0. -1.
       -1    1    3    3    0  502 -0.54338059814E+02  0.34279722484E+03  0.66298776321E+03  0.74834172427E+03  0.50400001928E-02 0.  1.
</event>
<event>
 5   0  0.1197259E-02  0.6979107E+03  0.7818609E-02  0.9720812E-01
       -1   -1    0    0    0  501  0.00000000000E+00  0.00000000000E+00  0.12933366217E+03  0.12933366227E+03  0.50400001928E-02 0. -1.
        1   -1    0    0  501    0  0.00000000000E+00  0.00000000000E+00 -0.94151699932E+03  0.94151699933E+03  0.50400001928E-02 0.  1.
    10030    2    1    2    0    0  0.00000000000E+00  0.00000000000E+00 -0.81218333715E+03  0.10708506616E+04  0.69791071513E+03 0.  0.
        3    1    3    3  502    0 -0.66039899505E+02  0.10456732649E+03 -0.90676137188E+03  0.91515670234E+03  0.10100000352E+00 0.  1.
       -3    1    3    3    0  502  0.66039899505E+02 -0.10456732649E+03  0.94578034731E+02  0.15569395926E+03  0.10100000352E+00 0. -1.
</event>
<event>
 5   0  0.1223742E-02  0.7007364E+03  0.7818609E-02  0.9715974E-01
       -1   -1    0    0    0  501  0.00000000000E+00  0.00000000000E+00  0.38820026626E+03  0.38820026630E+03  0.50400001928E-02 0. -1.
        1   -1    0    0  501    0  0.00000000000E+00  0.00000000000E+00 -0.31622309525E+03  0.31622309529E+03  0.50400001928E-02 0.  1.
    10030    2    1    2    0    0  0.00000000000E+00  0.00000000000E+00  0.71977171013E+02  0.70442336159E+03  0.70073644061E+03 0.  0.
        2    1    3    3  502    0  0.19398833127E+03  0.28907875803E+03  0.75691817828E+02  0.35626851153E+03  0.25500000920E-02 0.  1.
       -2    1    3    3    0  502 -0.19398833127E+03 -0.28907875803E+03 -0.37146468149E+01  0.34815485006E+03  0.25500000920E-02 0. -1.
</event>
<event>
 5   0  0.7947250E-03  0.6925545E+03  0.7818609E-02  0.9730050E-01
       -3   -1    0    0    0  501  0.00000000000E+00  0.00000000000E+00  0.13032049782E+03  0.13032053696E+03  0.10100000352E+00 0.  1.
        3   -1    0    0  501    0  0.00000000000E+00  0.00000000000E+00 -0.92010009151E+03  0.92010009705E+03  0.10100000352E+00 0. -1.
    10030    2    1    2    0    0  0.00000000000E+00  0.00000000000E+00 -0.78977959369E+03  0.10504206340E+04  0.69255447566E+03 0.  0.
        4    1    3    3  502    0 -0.82411127434E+02  0.13188379342E+03  0.74370474986E+02  0.17238767166E+03  0.12699999809E+01 0.  1.
       -4    1    3    3    0  502  0.82411127434E+02 -0.13188379342E+03 -0.86415006867E+03  0.87803296235E+03  0.12699999809E+01 0. -1.
</event>
<event>
 5   0  0.1909053E-02  0.7008782E+03  0.7818609E-02  0.9715732E-01
       -2   -1    0    0    0  501  0.00000000000E+00  0.00000000000E+00  0.90801318444E+02  0.90801318479E+02  0.25500000920E-02 0.  1.
        2   -1    0    0  501    0  0.00000000000E+00  0.00000000000E+00 -0.13524864419E+04  0.13524864419E+04  0.25500000920E-02 0. -1.
    10030    2    1    2    0    0  0.00000000000E+00  0.00000000000E+00 -0.12616851234E+04  0.14432877604E+04  0.70087816952E+03 0.  0.
        1    1    3    3  502    0 -0.18996053976E+03 -0.88870249771E+01 -0.12369903925E+04  0.12515227593E+04  0.50400001928E-02 0. -1.
       -1    1    3    3    0  502  0.18996053976E+03  0.88870249771E+01 -0.24694730958E+02  0.19176500108E+03  0.50400001928E-02 0.  1.
</event>
<event>
 5   0  0.1948138E-02  0.7005549E+03  0.7818609E-02  0.9716284E-01
        2   -1    0    0  501    0  0.00000000000E+00  0.00000000000E+00  0.85291635738E+03  0.85291635739E+03  0.25500000920E-02 0. -1.
       -2   -1    0    0    0  501  0.00000000000E+00  0.00000000000E+00 -0.14385266566E+03  0.14385266568E+03  0.25500000920E-02 0.  1.
    10030    2    1    2    0    0  0.00000000000E+00  0.00000000000E+00  0.70906369173E+03  0.99676902307E+03  0.70055489894E+03 0.  0.
        3    1    3    3  502    0  0.29686508618E+03  0.21038773701E+02  0.91702102726E+02  0.31141739714E+03  0.10100000352E+00 0.  1.
       -3    1    3    3    0  502 -0.29686508618E+03 -0.21038773701E+02  0.61736158900E+03  0.68535162593E+03  0.10100000352E+00 0. -1.
</event>
<event>
 5   0  0.1909053E-02  0.6959363E+03  0.7818609E-02  0.9724207E-01
       -2   -1    0    0    0  501  0.00000000000E+00  0.00000000000E+00  0.40958406126E+02  0.40958406206E+02  0.25500000920E-02 0.  1.
        2   -1    0    0  501    0  0.00000000000E+00  0.00000000000E+00 -0.29562146573E+04  0.29562146573E+04  0.25500000920E-02 0. -1.
    10030    2    1    2    0    0  0.00000000000E+00  0.00000000000E+00 -0.29152562512E+04  0.29971730635E+04  0.69593632080E+03 0.  0.
        1    1    3    3  502    0 -0.16134225843E+03 -0.21902285928E+03 -0.52317342178E+03  0.58967174472E+03  0.50400001928E-02 0.  1.
       -1    1    3    3    0  502  0.16134225843E+03  0.21902285928E+03 -0.23920828294E+04  0.24075013188E+04  0.50400001928E-02 0. -1.
</event>
<event>
 5   0  0.1948138E-02  0.6865678E+03  0.7818609E-02  0.9740483E-01
        2   -1    0    0  501    0  0.00000000000E+00  0.00000000000E+00  0.93258060838E+03  0.93258060838E+03  0.25500000920E-02 0. -1.
       -2   -1    0    0    0  501  0.00000000000E+00  0.00000000000E+00 -0.12636317823E+03  0.12636317825E+03  0.25500000920E-02 0.  1.
    10030    2    1    2    0    0  0.00000000000E+00  0.00000000000E+00  0.80621743016E+03  0.10589437866E+04  0.68656783974E+03 0.  0.
        3    1    3    3  502    0 -0.20436356298E+03 -0.64938920986E+01 -0.22198271042E+02  0.20566820354E+03  0.10100000352E+00 0.  1.
       -3    1    3    3    0  502  0.20436356298E+03  0.64938920986E+01  0.82841570120E+03  0.85327558309E+03  0.10100000352E+00 0. -1.
</event>
<event>
 5   0  0.2026361E-02  0.7061886E+03  0.7818609E-02  0.9706707E-01
        2   -1    0    0  501    0  0.00000000000E+00  0.00000000000E+00  0.34911581396E+03  0.34911581397E+03  0.25500000920E-02 0. -1.
       -2   -1    0    0    0  501  0.00000000000E+00  0.00000000000E+00 -0.35711809499E+03  0.35711809500E+03  0.25500000920E-02 0.  1.
    10030    2    1    2    0    0  0.00000000000E+00  0.00000000000E+00 -0.80022810324E+01  0.70623390896E+03  0.70618857090E+03 0.  0.
        2    1    3    3  502    0  0.28607687451E+03 -0.14797232170E+02  0.20245008967E+03  0.35077767179E+03  0.25500000920E-02 0. -1.
       -2    1    3    3    0  502 -0.28607687451E+03  0.14797232170E+02 -0.21045237070E+03  0.35545623718E+03  0.25500000920E-02 0.  1.
</event>
<event>
 5   0  0.1909053E-02  0.6991381E+03  0.7818609E-02  0.9718707E-01
       -2   -1    0    0    0  501  0.00000000000E+00  0.00000000000E+00  0.26888494330E+03  0.26888494331E+03  0.25500000920E-02 0. -1.
        2   -1    0    0  501    0  0.00000000000E+00  0.00000000000E+00 -0.45446392013E+03  0.45446392014E+03  0.25500000920E-02 0.  1.
    10030    2    1    2    0    0  0.00000000000E+00  0.00000000000E+00 -0.18557897684E+03  0.72334886345E+03  0.69913805619E+03 0.  0.
        1    1    3    3  502    0  0.27715206620E+03 -0.14132469702E+03 -0.25772308678E+03  0.40398901875E+03  0.50400001928E-02 0.  1.
       -1    1    3    3    0  502 -0.27715206620E+03  0.14132469702E+03  0.72144109940E+02  0.31935984470E+03  0.50400001928E-02 0. -1.
</event>
<event>
 5   0  0.1237686E-02  0.7084769E+03  0.7818609E-02  0.9702844E-01
        1   -1    0    0  501    0  0.00000000000E+00  0.00000000000E+00  0.55168571890E+03  0.55168571892E+03  0.50400001928E-02 0. -1.
       -1   -1    0    0    0  501  0.00000000000E+00  0.00000000000E+00 -0.22745720375E+03  0.22745720380E+03  0.50400001928E-02 0.  1.
    10030    2    1    2    0    0  0.00000000000E+00  0.00000000000E+00  0.32422851515E+03  0.77914292273E+03  0.70847693258E+03 0.  0.
        5    1    3    3  502    0  0.28322380512E+03  0.56579178098E+01  0.39596190020E+03  0.48688361261E+03  0.46999998093E+01 0. -1.
       -5    1    3    3    0  502 -0.28322380512E+03 -0.56579178098E+01 -0.71733385048E+02  0.29225931012E+03  0.46999998093E+01 0.  1.
</event>
<event>
 5   0  0.1197259E-02  0.6947935E+03  0.7818609E-02  0.9726178E-01
        1   -1    0    0  501    0  0.00000000000E+00  0.00000000000E+00  0.19375006963E+03  0.19375006970E+03  0.50400001928E-02 0. -1.
       -1   -1    0    0    0  501  0.00000000000E+00  0.00000000000E+00 -0.62288745434E+03  0.62288745436E+03  0.50400001928E-02 0.  1.
    10030    2    1    2    0    0  0.00000000000E+00  0.00000000000E+00 -0.42913738471E+03  0.81663752405E+03  0.69479345905E+03 0.  0.
        3    1    3    3  502    0  0.11197272040E+03  0.27144969553E+03  0.36247254292E+01  0.29365962635E+03  0.10100000352E+00 0. -1.
       -3    1    3    3    0  502 -0.11197272040E+03 -0.27144969553E+03 -0.43276211013E+03  0.52297789770E+03  0.10100000352E+00 0.  1.
</event>
<event>
 5   0  0.2026361E-02  0.7005429E+03  0.7818609E-02  0.9716304E-01
        2   -1    0    0  501    0  0.00000000000E+00  0.00000000000E+00  0.21601811477E+04  0.21601811477E+04  0.25500000920E-02 0. -1.
       -2   -1    0    0    0  501  0.00000000000E+00  0.00000000000E+00 -0.56796204135E+02  0.56796204192E+02  0.25500000920E-02 0.  1.
    10030    2    1    2    0    0  0.00000000000E+00  0.00000000000E+00  0.21033849436E+04  0.22169773519E+04  0.70054290232E+03 0.  0.
        2    1    3    3  502    0  0.10857541868E+03  0.74507976724E+02  0.24518869744E+02  0.13394489583E+03  0.25500000920E-02 0.  1.
       -2    1    3    3    0  502 -0.10857541868E+03 -0.74507976724E+02  0.20788660738E+04  0.20830324561E+04  0.25500000920E-02 0. -1.
</event>
<event>
 5   0  0.1197259E-02  0.6946540E+03  0.7818609E-02  0.9726418E-01
        1   -1    0    0  501    0  0.00000000000E+00  0.00000000000E+00  0.16852410173E+03  0.16852410181E+03  0.50400001928E-02 0.  1.
       -1   -1    0    0    0  501  0.00000000000E+00  0.00000000000E+00 -0.71583851941E+03  0.71583851943E+03  0.50400001928E-02 0. -1.
    10030    2    1    2    0    0  0.00000000000E+00  0.00000000000E+00 -0.54731441768E+03  0.88436262124E+03  0.69465399592E+03 0.  0.
        3    1    3    3  502    0  0.85545971139E+02 -0.30118038915E+03 -0.82233498634E+02  0.32371298782E+03  0.10100000352E+00 0.  1.
       -3    1    3    3    0  502 -0.85545971139E+02  0.30118038915E+03 -0.46508091904E+03  0.56064963341E+03  0.10100000352E+00 0. -1.
</event>
<event>
 5   0  0.1197259E-02  0.6970406E+03  0.7818609E-02  0.9722307E-01
       -1   -1    0    0    0  501  0.00000000000E+00  0.00000000000E+00  0.54890707465E+03  0.54890707467E+03  0.50400001928E-02 0. -1.
        1   -1    0    0  501    0  0.00000000000E+00  0.00000000000E+00 -0.22128771500E+03  0.22128771506E+03  0.50400001928E-02 0.  1.
    10030    2    1    2    0    0  0.00000000000E+00  0.00000000000E+00  0.32761935964E+03  0.77019478973E+03  0.69704057939E+03 0.  0.
        3    1    3    3  502    0  0.17006152245E+03  0.51610901212E+02 -0.16745744316E+03  0.24418560976E+03  0.10100000352E+00 0.  1.
       -3    1    3    3    0  502 -0.17006152245E+03 -0.51610901212E+02  0.49507680280E+03  0.52600917997E+03  0.10100000352E+00 0. -1.
</event>
<event>
 5   0  0.1973067E-02  0.7019729E+03  0.7818609E-02  0.9713864E-01
        2   -1    0    0  501    0  0.00000000000E+00  0.00000000000E+00  0.86545424514E+03  0.86545424514E+03  0.25500000920E-02 0.  1.
       -2   -1    0    0    0  501  0.00000000000E+00  0.00000000000E+00 -0.14234316963E+03  0.14234316966E+03  0.25500000920E-02 0. -1.
    10030    2    1    2    0    0  0.00000000000E+00  0.00000000000E+00  0.72311107550E+03  0.10077974148E+04  0.70197293520E+03 0.  0.
        5    1    3    3  502    0  0.20101995151E+02 -0.18156975094E+03  0.79177057798E+03  0.81258501267E+03  0.46999998093E+01 0.  1.
       -5    1    3    3    0  502 -0.20101995151E+02  0.18156975094E+03 -0.68659502475E+02  0.19521240213E+03  0.46999998093E+01 0. -1.
</event>
<event>
 5   0  0.1948138E-02  0.6960252E+03  0.7818609E-02  0.9724054E-01
        2   -1    0    0  501    0  0.00000000000E+00  0.00000000000E+00  0.17482395214E+03  0.17482395216E+03  0.25500000920E-02 0.  1.
       -2   -1    0    0    0  501  0.00000000000E+00  0.00000000000E+00 -0.69276991176E+03  0.69276991177E+03  0.25500000920E-02 0. -1.
    10030    2    1    2    0    0  0.00000000000E+00  0.00000000000E+00 -0.51794595962E+03  0.86759386393E+03  0.69602521193E+03 0.  0.
        3    1    3    3  502    0  0.57131195882E+02 -0.25788240830E+03  0.23477617994E+02  0.26517639187E+03  0.10100000352E+00 0.  1.
       -3    1    3    3    0  502 -0.57131195882E+02  0.25788240830E+03 -0.54142357761E+03  0.60241747206E+03  0.10100000352E+00 0. -1.
</event>
<event>
 5   0  0.1237686E-02  0.7008696E+03  0.7818609E-02  0.9715746E-01
        1   -1    0    0  501    0  0.00000000000E+00  0.00000000000E+00  0.28108121904E+03  0.28108121909E+03  0.50400001928E-02 0.  1.
       -1   -1    0    0    0  501  0.00000000000E+00  0.00000000000E+00 -0.43690052851E+03  0.43690052854E+03  0.50400001928E-02 0. -1.
    10030    2    1    2    0    0  0.00000000000E+00  0.00000000000E+00 -0.15581930947E+03  0.71798174763E+03  0.70086955471E+03 0.  0.
        5    1    3    3  502    0 -0.26269525520E+03  0.11335396155E+03  0.12932769760E+03  0.31401538350E+03  0.46999998093E+01 0.  1.
       -5    1    3    3    0  502  0.26269525520E+03 -0.11335396155E+03 -0.28514700708E+03  0.40396636413E+03  0.46999998093E+01 0. -1.
</event>
<event>
 5   0  0.2026361E-02  0.7150470E+03  0.7818609E-02  0.9691840E-01
        2   -1    0    0  501    0  0.00000000000E+00  0.00000000000E+00  0.12430022707E+04  0.12430022707E+04  0.25500000920E-02 0. -1.
       -2   -1    0    0    0  501  0.00000000000E+00  0.00000000000E+00 -0.10283412726E+03  0.10283412729E+03  0.25500000920E-02 0.  1.
    10030    2    1    2    0    0  0.00000000000E+00  0.00000000000E+00  0.11401681435E+04  0.13458363980E+04  0.71504700185E+03 0.  0.
        2    1    3    3  502    0  0.15551675788E+03 -0.36468667493E+02 -0.31936992911E+02  0.16289689136E+03  0.25500000920E-02 0.  1.
       -2    1    3    3    0  502 -0.15551675788E+03  0.36468667493E+02  0.11721051364E+04  0.11829395067E+04  0.25500000920E-02 0. -1.
</event>
<event>
 5   0  0.1257442E-02  0.7029038E+03  0.7818609E-02  0.9712279E-01
       -1   -1    0    0    0  501  0.00000000000E+00  0.00000000000E+00  0.23918216826E+03  0.23918216831E+03  0.50400001928E-02 0. -1.
        1   -1    0    0  501    0  0.00000000000E+00  0.00000000000E+00 -0.51641990342E+03  0.51641990344E+03  0.50400001928E-02 0.  1.
    10030    2    1    2    0    0  0.00000000000E+00  0.00000000000E+00 -0.27723773516E+03  0.75560207176E+03  0.70290378364E+03 0.  0.
        1    1    3    3  502    0  0.17360052512E+03 -0.63865525581E+02  0.18262069799E+03  0.25993512083E+03  0.50400001928E-02 0. -1.
       -1    1    3    3    0  502 -0.17360052512E+03  0.63865525581E+02 -0.45985843315E+03  0.49566695093E+03  0.50400001928E-02 0.  1.
</event>
<event>
 5   0  0.7947250E-03  0.7078514E+03  0.7818609E-02  0.9703899E-01
       -3   -1    0    0    0  501  0.00000000000E+00  0.00000000000E+00  0.59379781936E+03  0.59379782795E+03  0.10100000352E+00 0. -1.
        3   -1    0    0  501    0  0.00000000000E+00  0.00000000000E+00 -0.21095291422E+03  0.21095293840E+03  0.10100000352E+00 0.  1.
    10030    2    1    2    0    0  0.00000000000E+00  0.00000000000E+00  0.38284490514E+03  0.80475076635E+03  0.70785137885E+03 0.  0.
        2    1    3    3  502    0  0.18808586911E+03 -0.20397498512E+03  0.44123187556E+03  0.52121747547E+03  0.25500000920E-02 0. -1.
       -2    1    3    3    0  502 -0.18808586911E+03  0.20397498512E+03 -0.58386970425E+02  0.28353329088E+03  0.25500000920E-02 0.  1.
</event>
<event>
 5   0  0.1909053E-02  0.6957091E+03  0.7818609E-02  0.9724598E-01
        2   -1    0    0  501    0  0.00000000000E+00  0.00000000000E+00  0.70120098144E+03  0.70120098145E+03  0.25500000920E-02 0.  1.
       -2   -1    0    0    0  501  0.00000000000E+00  0.00000000000E+00 -0.17256504857E+03  0.17256504859E+03  0.25500000920E-02 0. -1.
    10030    2    1    2    0    0  0.00000000000E+00  0.00000000000E+00  0.52863593287E+03  0.87376603004E+03  0.69570908125E+03 0.  0.
        1    1    3    3  502    0  0.34436147920E+03  0.19472813294E+02  0.20760912008E+03  0.40257367720E+03  0.50400001928E-02 0. -1.
       -1    1    3    3    0  502 -0.34436147920E+03 -0.19472813294E+02  0.32102681279E+03  0.47119235284E+03  0.50400001928E-02 0.  1.
</event>
<event>
 5   0  0.1223742E-02  0.7053218E+03  0.7818609E-02  0.9708174E-01
        1   -1    0    0  501    0  0.00000000000E+00  0.00000000000E+00  0.41930542872E+03  0.41930542875E+03  0.50400001928E-02 0. -1.
       -1   -1    0    0    0  501  0.00000000000E+00  0.00000000000E+00 -0.29660885591E+03  0.29660885596E+03  0.50400001928E-02 0.  1.
    10030    2    1    2    0    0  0.00000000000E+00  0.00000000000E+00  0.12269657281E+03  0.71591428471E+03  0.70532178052E+03 0.  0.
        2    1    3    3  502    0 -0.32196068505E+03  0.74497901637E+02  0.18632780626E+03  0.37937668808E+03  0.25500000920E-02 0. -1.
       -2    1    3    3    0  502  0.32196068505E+03 -0.74497901637E+02 -0.63631233449E+02  0.33653759663E+03  0.25500000920E-02 0.  1.
</event>
<event>
 5   0  0.1197259E-02  0.7045862E+03  0.7818609E-02  0.9709421E-01
       -1   -1    0    0    0  501  0.00000000000E+00  0.00000000000E+00  0.23782655693E+03  0.23782655698E+03  0.50400001928E-02 0. -1.
        1   -1    0    0  501    0  0.00000000000E+00  0.00000000000E+00 -0.52185267862E+03  0.52185267865E+03  0.50400001928E-02 0.  1.
    10030    2    1    2    0    0  0.00000000000E+00  0.00000000000E+00 -0.28402612169E+03  0.75967923563E+03  0.70458619291E+03 0.  0.
        3    1    3    3  502    0 -0.91181620594E+02 -0.33896737702E+02  0.22305859591E+03  0.24334794877E+03  0.10100000352E+00 0. -1.
       -3    1    3    3    0  502  0.91181620594E+02  0.33896737702E+02 -0.50708471760E+03  0.51633128686E+03  0.10100000352E+00 0.  1.
</event>
<event>
 5   0  0.1237686E-02  0.6832865E+03  0.7818609E-02  0.9746249E-01
        1   -1    0    0  501    0  0.00000000000E+00  0.00000000000E+00  0.74649034817E+03  0.74649034819E+03  0.50400001928E-02 0. -1.
       -1   -1    0    0    0  501  0.00000000000E+00  0.00000000000E+00 -0.15635849956E+03  0.15635849964E+03  0.50400001928E-02 0.  1.
    10030    2    1    2    0    0  0.00000000000E+00  0.00000000000E+00  0.59013184861E+03  0.90284884783E+03  0.68328650161E+03 0.  0.
        5    1    3    3  502    0 -0.32605752477E+02 -0.13844766423E+03  0.70546075885E+03  0.71967205247E+03  0.46999998093E+01 0. -1.
       -5    1    3    3    0  502  0.32605752477E+02  0.13844766423E+03 -0.11532891024E+03  0.18317679536E+03  0.46999998093E+01 0.  1.
</event>
<event>
 5   0  0.1223742E-02  0.7207535E+03  0.7818609E-02  0.9682385E-01
        1   -1    0    0  501    0  0.00000000000E+00  0.00000000000E+00  0.82216531222E+03  0.82216531224E+03  0.50400001928E-02 0. -1.
       -1   -1    0    0    0  501  0.00000000000E+00  0.00000000000E+00 -0.15796265688E+03  0.15796265696E+03  0.50400001928E-02 0.  1.
    10030    2    1    2    0    0  0.00000000000E+00  0.00000000000E+00  0.66420265534E+03  0.98012796920E+03  0.72075354223E+03 0.  0.
        2    1    3    3  502    0 -0.21410437777E+03  0.80593582869E+02  0.71075836489E+03  0.74666824189E+03  0.25500000920E-02 0. -1.
       -2    1    3    3    0  502  0.21410437777E+03 -0.80593582869E+02 -0.46555709544E+02  0.23345972731E+03  0.25500000920E-02 0.  1.
</event>
<event>
 5   0  0.7947250E-03  0.7016264E+03  0.7818609E-02  0.9714455E-01
        3   -1    0    0  501    0  0.00000000000E+00  0.00000000000E+00  0.44884955543E+03  0.44884956680E+03  0.10100000352E+00 0. -1.
       -3   -1    0    0    0  501  0.00000000000E+00  0.00000000000E+00 -0.27418959735E+03  0.27418961595E+03  0.10100000352E+00 0.  1.
    10030    2    1    2    0    0  0.00000000000E+00  0.00000000000E+00  0.17465995809E+03  0.72303918275E+03  0.70162636697E+03 0.  0.
        5    1    3    3  502    0 -0.32641312873E+02  0.75797839585E+02 -0.26401049883E+03  0.27664851578E+03  0.46999998093E+01 0.  1.
       -5    1    3    3    0  502  0.32641312873E+02 -0.75797839585E+02  0.43867045691E+03  0.44639066697E+03  0.46999998093E+01 0. -1.
</event>
<event>
 5   0  0.2006362E-02  0.6980279E+03  0.7818609E-02  0.9720611E-01
        2   -1    0    0  501    0  0.00000000000E+00  0.00000000000E+00  0.55905114899E+03  0.55905114900E+03  0.25500000920E-02 0.  1.
       -2   -1    0    0    0  501  0.00000000000E+00  0.00000000000E+00 -0.21788837843E+03  0.21788837844E+03  0.25500000920E-02 0. -1.
    10030    2    1    2    0    0  0.00000000000E+00  0.00000000000E+00  0.34116277056E+03  0.77693952744E+03  0.69802793159E+03 0.  0.
        4    1    3    3  502    0 -0.11976799272E+03  0.13041614671E+03  0.50534176090E+03  0.53546676051E+03  0.12699999809E+01 0.  1.
       -4    1    3    3    0  502  0.11976799272E+03 -0.13041614671E+03 -0.16417899033E+03  0.24147276693E+03  0.12699999809E+01 0. -1.
</event>
<event>
 5   0  0.1226303E-02  0.7091231E+03  0.7818609E-02  0.9701756E-01
       -1   -1    0    0    0  501  0.00000000000E+00  0.00000000000E+00  0.11784173650E+03  0.11784173660E+03  0.50400001928E-02 0.  1.
        1   -1    0    0  501    0  0.00000000000E+00  0.00000000000E+00 -0.10668028155E+04  0.10668028155E+04  0.50400001928E-02 0. -1.
    10030    2    1    2    0    0  0.00000000000E+00  0.00000000000E+00 -0.94896107897E+03  0.11846445521E+04  0.70912311017E+03 0.  0.
        4    1    3    3  502    0  0.31939117851E+03 -0.14173769404E+03 -0.57488184708E+03  0.67274887575E+03  0.12699999809E+01 0. -1.
       -4    1    3    3    0  502 -0.31939117851E+03  0.14173769404E+03 -0.37407923189E+03  0.51189567633E+03  0.12699999809E+01 0.  1.
</event>
<event>
 5   0  0.1197259E-02  0.7011100E+03  0.7818609E-02  0.9715336E-01
       -1   -1    0    0    0  501  0.00000000000E+00  0.00000000000E+00  0.16424440539E+03  0.16424440547E+03  0.50400001928E-02 0. -1.
        1   -1    0    0  501    0  0.00000000000E+00  0.00000000000E+00 -0.74820705292E+03  0.74820705293E+03  0.50400001928E-02 0.  1.
    10030    2    1    2    0    0  0.00000000000E+00  0.00000000000E+00 -0.58396264753E+03  0.91245145840E+03  0.70111004146E+03 0.  0.
        3    1    3    3  502    0 -0.16801541139E+03 -0.35715121421E+02 -0.68968533153E+03  0.71075355440E+03  0.10100000352E+00 0.  1.
       -3    1    3    3    0  502  0.16801541139E+03  0.35715121421E+02  0.10572268401E+03  0.20169790400E+03  0.10100000352E+00 0. -1.
</event>
<event>
 5   0  0.7947250E-03  0.6688610E+03  0.7818609E-02  0.9772018E-01
       -4   -1    0    0    0  501  0.00000000000E+00  0.00000000000E+00  0.13722281608E+03  0.13722869289E+03  0.12699999809E+01 0.  1.
        4   -1    0    0  501    0  0.00000000000E+00  0.00000000000E+00 -0.81502828895E+03  0.81502927842E+03  0.12699999809E+01 0. -1.
    10030    2    1    2    0    0  0.00000000000E+00  0.00000000000E+00 -0.67780547287E+03  0.95225797131E+03  0.66886096079E+03 0.  0.
        2    1    3    3  502    0  0.12507712525E+03  0.10007848107E+03 -0.75685961642E+03  0.77362553513E+03  0.25500000920E-02 0. -1.
       -2    1    3    3    0  502 -0.12507712525E+03 -0.10007848107E+03  0.79054143548E+02  0.17863243618E+03  0.25500000920E-02 0.  1.
</event>
<event>
 5   0  0.1909053E-02  0.7003795E+03  0.7818609E-02  0.9716583E-01
       -2   -1    0    0    0  501  0.00000000000E+00  0.00000000000E+00  0.15473487993E+03  0.15473487996E+03  0.25500000920E-02 0. -1.
        2   -1    0    0  501    0  0.00000000000E+00  0.00000000000E+00 -0.79253531736E+03  0.79253531737E+03  0.25500000920E-02 0.  1.
    10030    2    1    2    0    0  0.00000000000E+00  0.00000000000E+00 -0.63780043743E+03  0.94727019732E+03  0.70037948910E+03 0.  0.
        1    1    3    3  502    0 -0.92195510906E+02  0.17181209660E+03  0.74523149567E+02  0.20874172706E+03  0.50400001928E-02 0. -1.
       -1    1    3    3    0  502  0.92195510906E+02 -0.17181209660E+03 -0.71232358700E+03  0.73852847026E+03  0.50400001928E-02 0.  1.
</event>
<event>
 5   0  0.1948138E-02  0.6904107E+03  0.7818609E-02  0.9733773E-01
        2   -1    0    0  501    0  0.00000000000E+00  0.00000000000E+00  0.51697617890E+03  0.51697617890E+03  0.25500000920E-02 0. -1.
       -2   -1    0    0    0  501  0.00000000000E+00  0.00000000000E+00 -0.23050722459E+03  0.23050722460E+03  0.25500000920E-02 0.  1.
    10030    2    1    2    0    0  0.00000000000E+00  0.00000000000E+00  0.28646895431E+03  0.74748340351E+03  0.69041073046E+03 0.  0.
        3    1    3    3  502    0 -0.33783911616E+03  0.67699753886E+02  0.12031344026E+03  0.36495733886E+03  0.10100000352E+00 0.  1.
       -3    1    3    3    0  502  0.33783911616E+03 -0.67699753886E+02  0.16615551406E+03  0.38252606465E+03  0.10100000352E+00 0. -1.
</event>
<event>
 5   0  0.1948138E-02  0.7044576E+03  0.7818609E-02  0.9709639E-01
        2   -1    0    0  501    0  0.00000000000E+00  0.00000000000E+00  0.85790322099E+03  0.85790322099E+03  0.25500000920E-02 0. -1.
       -2   -1    0    0    0  501  0.00000000000E+00  0.00000000000E+00 -0.14461434470E+03  0.14461434472E+03  0.25500000920E-02 0.  1.
    10030    2    1    2    0    0  0.00000000000E+00  0.00000000000E+00  0.71328887629E+03  0.10025175657E+04  0.70445755623E+03 0.  0.
        3    1    3    3  502    0  0.11666743689E+02 -0.11633031100E+03  0.82948455423E+03  0.83768340682E+03  0.10100000352E+00 0. -1.
       -3    1    3    3    0  502 -0.11666743689E+02  0.11633031100E+03 -0.11619567794E+03  0.16483415889E+03  0.10100000352E+00 0.  1.
</event>
<event>
 5   0  0.1226303E-02  0.7009247E+03  0.7818609E-02  0.9715652E-01
        1   -1    0    0  501    0  0.00000000000E+00  0.00000000000E+00  0.33041996166E+03  0.33041996170E+03  0.50400001928E-02 0.  1.
       -1   -1    0    0    0  501  0.00000000000E+00  0.00000000000E+00 -0.37172050684E+03  0.37172050688E+03  0.50400001928E-02 0. -1.
    10030    2    1    2    0    0  0.00000000000E+00  0.00000000000E+00 -0.41300545184E+02  0.70214046857E+03  0.70092474815E+03 0.  0.
        4    1    3    3  502    0 -0.24536734642E+03  0.20782700881E+03  0.11896528736E+03  0.34285791923E+03  0.12699999809E+01 0. -1.
       -4    1    3    3    0  502  0.24536734642E+03 -0.20782700881E+03 -0.16026583255E+03  0.35928254934E+03  0.12699999809E+01 0.  1.
</event>
<event>
 5   0  0.1909053E-02  0.7023774E+03  0.7818609E-02  0.9713175E-01
       -2   -1    0    0    0  501  0.00000000000E+00  0.00000000000E+00  0.11687161607E+03  0.11687161610E+03  0.25500000920E-02 0.  1.
        2   -1    0    0  501    0  0.00000000000E+00  0.00000000000E+00 -0.10552903668E+04  0.10552903668E+04  0.25500000920E-02 0. -1.
    10030    2    1    2    0    0  0.00000000000E+00  0.00000000000E+00 -0.93841875076E+03  0.11721619829E+04  0.70237736470E+03 0.  0.
        1    1    3    3  502    0  0.92101676770E+02  0.76566554285E+02  0.81734211824E+02  0.14500219828E+03  0.50400001928E-02 0.  1.
       -1    1    3    3    0  502 -0.92101676770E+02 -0.76566554285E+02 -0.10201529626E+04  0.10271597846E+04  0.50400001928E-02 0. -1.
</event>
<event>
 5   0  0.1223742E-02  0.6991958E+03  0.7818609E-02  0.9718608E-01
        1   -1    0    0  501    0  0.00000000000E+00  0.00000000000E+00  0.39498857130E+03  0.39498857133E+03  0.50400001928E-02 0.  1.
       -1   -1    0    0    0  501  0.00000000000E+00  0.00000000000E+00 -0.30942338499E+03  0.30942338503E+03  0.50400001928E-02 0. -1.
    10030    2    1    2    0    0  0.00000000000E+00  0.00000000000E+00  0.85565186312E+02  0.70441195636E+03  0.69919582604E+03 0.  0.
        2    1    3    3  502    0 -0.15548403024E+03 -0.31248115405E+03  0.62905219873E+02  0.35465028125E+03  0.25500000920E-02 0. -1.
       -2    1    3    3    0  502  0.15548403024E+03  0.31248115405E+03  0.22659966438E+02  0.34976167512E+03  0.25500000920E-02 0.  1.
</event>
<event>
 5   0  0.1257442E-02  0.7006422E+03  0.7818609E-02  0.9716135E-01
       -1   -1    0    0    0  501  0.00000000000E+00  0.00000000000E+00  0.36265791884E+03  0.36265791887E+03  0.50400001928E-02 0.  1.
        1   -1    0    0  501    0  0.00000000000E+00  0.00000000000E+00 -0.33840394814E+03  0.33840394817E+03  0.50400001928E-02 0. -1.
    10030    2    1    2    0    0  0.00000000000E+00  0.00000000000E+00  0.24253970702E+02  0.70106186705E+03  0.70064219566E+03 0.  0.
        1    1    3    3  502    0 -0.87211306657E+02 -0.17097277635E+03 -0.28111402461E+03  0.34038595318E+03  0.50400001928E-02 0. -1.
       -1    1    3    3    0  502  0.87211306657E+02  0.17097277635E+03  0.30536799531E+03  0.36067591387E+03  0.50400001928E-02 0.  1.
</event>
<event>
 5   0  0.1237686E-02  0.7021482E+03  0.7818609E-02  0.9713566E-01
       -1   -1    0    0    0  501  0.00000000000E+00  0.00000000000E+00  0.10368993375E+03  0.10368993387E+03  0.50400001928E-02 0.  1.
        1   -1    0    0  501    0  0.00000000000E+00  0.00000000000E+00 -0.11886691418E+04  0.11886691418E+04  0.50400001928E-02 0. -1.
    10030    2    1    2    0    0  0.00000000000E+00  0.00000000000E+00 -0.10849792080E+04  0.12923590757E+04  0.70214820273E+03 0.  0.
        5    1    3    3  502    0 -0.19569884302E+02 -0.10633389176E+03 -0.11572017407E+04  0.11622511930E+04  0.46999998093E+01 0. -1.
       -5    1    3    3    0  502  0.19569884302E+02  0.10633389176E+03  0.72222532683E+02  0.13010788267E+03  0.46999998093E+01 0.  1.
</event>
<event>
 5   0  0.2026361E-02  0.6992752E+03  0.7818609E-02  0.9718473E-01
       -2   -1    0    0    0  501  0.00000000000E+00  0.00000000000E+00  0.65831901673E+02  0.65831901723E+02  0.25500000920E-02 0. -1.
        2   -1    0    0  501    0  0.00000000000E+00  0.00000000000E+00 -0.18569483679E+04  0.18569483679E+04  0.25500000920E-02 0.  1.
    10030    2    1    2    0    0  0.00000000000E+00  0.00000000000E+00 -0.17911164663E+04  0.19227802697E+04  0.69927517450E+03 0.  0.
        2    1    3    3  502    0 -0.12046670659E+03 -0.23025061304E+03 -0.15387642637E+04  0.15605521560E+04  0.25500000920E-02 0.  1.
       -2    1    3    3    0  502  0.12046670659E+03  0.23025061304E+03 -0.25235220251E+03  0.36222811365E+03  0.25500000920E-02 0. -1.
</event>
<event>
 5   0  0.1909053E-02  0.7055419E+03  0.7818609E-02  0.9707801E-01
       -2   -1    0    0    0  501  0.00000000000E+00  0.00000000000E+00  0.41068028632E+03  0.41068028633E+03  0.25500000920E-02 0. -1.
        2   -1    0    0  501    0  0.00000000000E+00  0.00000000000E+00 -0.30302730413E+03  0.30302730414E+03  0.25500000920E-02 0.  1.
    10030    2    1    2    0    0  0.00000000000E+00  0.00000000000E+00  0.10765298219E+03  0.71370759047E+03  0.70554189112E+03 0.  0.
        1    1    3    3  502    0 -0.21345087416E+03 -0.43507596369E+02  0.33451430909E+03  0.39919169534E+03  0.50400001928E-02 0. -1.
       -1    1    3    3    0  502  0.21345087416E+03  0.43507596369E+02 -0.22686132689E+03  0.31451589513E+03  0.50400001928E-02 0.  1.
</event>
<event>
 5   0  0.1948138E-02  0.6980269E+03  0.7818609E-02  0.9720612E-01
        2   -1    0    0  501    0  0.00000000000E+00  0.00000000000E+00  0.11987685952E+04  0.11987685952E+04  0.25500000920E-02 0. -1.
       -2   -1    0    0    0  501  0.00000000000E+00  0.00000000000E+00 -0.10161292074E+03  0.10161292077E+03  0.25500000920E-02 0.  1.
    10030    2    1    2    0    0  0.00000000000E+00  0.00000000000E+00  0.10971556745E+04  0.13003815160E+04  0.69802687130E+03 0.  0.
        3    1    3    3  502    0 -0.54128769818E+02 -0.34119281307E+03  0.64112501645E+03  0.72827450616E+03  0.10100000352E+00 0. -1.
       -3    1    3    3    0  502  0.54128769818E+02  0.34119281307E+03  0.45603065801E+03  0.57210700980E+03  0.10100000352E+00 0.  1.
</event>
<event>
 5   0  0.1237686E-02  0.7003013E+03  0.7818609E-02  0.9716717E-01
       -1   -1    0    0    0  501  0.00000000000E+00  0.00000000000E+00  0.25253329064E+03  0.25253329069E+03  0.50400001928E-02 0. -1.
        1   -1    0    0  501    0  0.00000000000E+00  0.00000000000E+00 -0.48550217721E+03  0.48550217724E+03  0.50400001928E-02 0.  1.
    10030    2    1    2    0    0  0.00000000000E+00  0.00000000000E+00 -0.23296888658E+03  0.73803546793E+03  0.70030125646E+03 0.  0.
        5    1    3    3  502    0  0.18104680624E+03  0.37603983642E+02  0.19684214694E+03  0.27011280319E+03  0.46999998093E+01 0. -1.
       -5    1    3    3    0  502 -0.18104680624E+03 -0.37603983642E+02 -0.42981103352E+03  0.46792266473E+03  0.46999998093E+01 0.  1.
</event>
<event>
 5   0  0.1973067E-02  0.7095360E+03  0.7818609E-02  0.9701062E-01
       -2   -1    0    0    0  501  0.00000000000E+00  0.00000000000E+00  0.12412248985E+03  0.12412248987E+03  0.25500000920E-02 0. -1.
        2   -1    0    0  501    0  0.00000000000E+00  0.00000000000E+00 -0.10140011220E+04  0.10140011220E+04  0.25500000920E-02 0.  1.
    10030    2    1    2    0    0  0.00000000000E+00  0.00000000000E+00 -0.88987863211E+03  0.11381236118E+04  0.70953602863E+03 0.  0.
        5    1    3    3  502    0  0.34736094629E+03  0.69304874318E+02 -0.47602050429E+03  0.59336363481E+03  0.46999998093E+01 0.  1.
       -5    1    3    3    0  502 -0.34736094629E+03 -0.69304874318E+02 -0.41385812782E+03  0.54475997703E+03  0.46999998093E+01 0. -1.
</event>
<event>
 5   0  0.2006362E-02  0.7014500E+03  0.7818609E-02  0.9714756E-01
       -2   -1    0    0    0  501  0.00000000000E+00  0.00000000000E+00  0.12010646199E+03  0.12010646202E+03  0.25500000920E-02 0. -1.
        2   -1    0    0  501    0  0.00000000000E+00  0.00000000000E+00 -0.10241582102E+04  0.10241582102E+04  0.25500000920E-02 0.  1.
    10030    2    1    2    0    0  0.00000000000E+00  0.00000000000E+00 -0.90405174824E+03  0.11442646723E+04  0.70144998159E+03 0.  0.
        4    1    3    3  502    0 -0.43885299696E+02 -0.16620043258E+02  0.11495826230E+03  0.12417391166E+03  0.12699999809E+01 0. -1.
       -4    1    3    3    0  502  0.43885299696E+02  0.16620043258E+02 -0.10190100105E+04  0.10200907606E+04  0.12699999809E+01 0.  1.
</event>
<event>
 5   0  0.1909053E-02  0.7028946E+03  0.7818609E-02  0.9712295E-01
       -2   -1    0    0    0  501  0.00000000000E+00  0.00000000000E+00  0.47052101900E+03  0.47052101901E+03  0.25500000920E-02 0.  1.
        2   -1    0    0  501    0  0.00000000000E+00  0.00000000000E+00 -0.26250730710E+03  0.26250730711E+03  0.25500000920E-02 0. -1.
    10030    2    1    2    0    0  0.00000000000E+00  0.00000000000E+00  0.20801371190E+03  0.73302832612E+03  0.70289460273E+03 0.  0.
        1    1    3    3  502    0  0.24166353528E+03  0.45232640372E+02  0.36590649782E+03  0.44083423325E+03  0.50400001928E-02 0.  1.
       -1    1    3    3    0  502 -0.24166353528E+03 -0.45232640372E+02 -0.15789278591E+03  0.29219409287E+03  0.50400001928E-02 0. -1.
</event>
<event>
 5   0  0.1226303E-02  0.7081042E+03  0.7818609E-02  0.9703472E-01
        1   -1    0    0  501    0  0.00000000000E+00  0.00000000000E+00  0.20145437208E+03  0.20145437214E+03  0.50400001928E-02 0.  1.
       -1   -1    0    0    0  501  0.00000000000E+00  0.00000000000E+00 -0.62223962636E+03  0.62223962638E+03  0.50400001928E-02 0. -1.
    10030    2    1    2    0    0  0.00000000000E+00  0.00000000000E+00 -0.42078525428E+03  0.82369399853E+03  0.70810421054E+03 0.  0.
        4    1    3    3  502    0  0.20906057296E+03  0.27925945775E+03 -0.14002764166E+03  0.37590094604E+03  0.12699999809E+01 0.  1.
       -4    1    3    3    0  502 -0.20906057296E+03 -0.27925945775E+03 -0.28075761262E+03  0.44779305249E+03  0.12699999809E+01 0. -1.
</event>
<event>
 5   0  0.1237686E-02  0.7001056E+03  0.7818609E-02  0.9717052E-01
        1   -1    0    0  501    0  0.00000000000E+00  0.00000000000E+00  0.44235536542E+03  0.44235536544E+03  0.50400001928E-02 0.  1.
       -1   -1    0    0    0  501  0.00000000000E+00  0.00000000000E+00 -0.27701024678E+03  0.27701024683E+03  0.50400001928E-02 0. -1.
    10030    2    1    2    0    0  0.00000000000E+00  0.00000000000E+00  0.16534511863E+03  0.71936561227E+03  0.70010561765E+03 0.  0.
        5    1    3    3  502    0  0.13940449752E+03  0.18723302650E+03  0.35066378440E+03  0.42128019159E+03  0.46999998093E+01 0.  1.
       -5    1    3    3    0  502 -0.13940449752E+03 -0.18723302650E+03 -0.18531866577E+03  0.29808542068E+03  0.46999998093E+01 0. -1.
</event>
<event>
 5   0  0.1973067E-02  0.6995014E+03  0.7818609E-02  0.9718085E-01
       -2   -1    0    0    0  501  0.00000000000E+00  0.00000000000E+00  0.19457427628E+03  0.19457427629E+03  0.25500000920E-02 0.  1.
        2   -1    0    0  501    0  0.00000000000E+00  0.00000000000E+00 -0.62868307267E+03  0.62868307268E+03  0.25500000920E-02 0. -1.
    10030    2    1    2    0    0  0.00000000000E+00  0.00000000000E+00 -0.43410879639E+03  0.82325734897E+03  0.69950140495E+03 0.  0.
        5    1    3    3  502    0 -0.21620937615E+03  0.27361167350E+02  0.10484637705E+03  0.24188836390E+03  0.46999998093E+01 0.  1.
       -5    1    3    3    0  502  0.21620937615E+03 -0.27361167350E+02 -0.53895517345E+03  0.58136898507E+03  0.46999998093E+01 0. -1.
</event>
<event>
 5   0  0.1973067E-02  0.6860338E+03  0.7818609E-02  0.9741419E-01
        2   -1    0    0  501    0  0.00000000000E+00  0.00000000000E+00  0.12317022304E+04  0.12317022304E+04  0.25500000920E-02 0.  1.
       -2   -1    0    0    0  501  0.00000000000E+00  0.00000000000E+00 -0.95526818394E+02  0.95526818428E+02  0.25500000920E-02 0. -1.
    10030    2    1    2    0    0  0.00000000000E+00  0.00000000000E+00  0.11361754120E+04  0.13272290489E+04  0.68603380472E+03 0.  0.
        5    1    3    3  502    0 -0.16354536651E+03  0.23734423506E+03  0.92773912503E+03  0.97149438853E+03  0.46999998093E+01 0.  1.
       -5    1    3    3    0  502  0.16354536651E+03 -0.23734423506E+03  0.20843628701E+03  0.35573466033E+03  0.46999998093E+01 0. -1.
</event>
<event>
 5   0  0.1973067E-02  0.7295092E+03  0.7818609E-02  0.9668057E-01
        2   -1    0    0  501    0  0.00000000000E+00  0.00000000000E+00  0.54004512165E+03  0.54004512166E+03  0.25500000920E-02 0. -1.
       -2   -1    0    0    0  501  0.00000000000E+00  0.00000000000E+00 -0.24636074373E+03  0.24636074375E+03  0.25500000920E-02 0.  1.
    10030    2    1    2    0    0  0.00000000000E+00  0.00000000000E+00  0.29368437792E+03  0.78640586540E+03  0.72950919892E+03 0.  0.
        5    1    3    3  502    0 -0.24666579105E+03  0.15784347713E+03 -0.87519684295E+02  0.30568016109E+03  0.46999998093E+01 0.  1.
       -5    1    3    3    0  502  0.24666579105E+03 -0.15784347713E+03  0.38120406221E+03  0.48072570432E+03  0.46999998093E+01 0. -1.
</event>
<event>
 5   0  0.2006362E-02  0.6986159E+03  0.7818609E-02  0.9719602E-01
        2   -1    0    0  501    0  0.00000000000E+00  0.00000000000E+00  0.48508265238E+03  0.48508265238E+03  0.25500000920E-02 0. -1.
       -2   -1    0    0    0  501  0.00000000000E+00  0.00000000000E+00 -0.25153657379E+03  0.25153657380E+03  0.25500000920E-02 0.  1.
    10030    2    1    2    0    0  0.00000000000E+00  0.00000000000E+00  0.23354607859E+03  0.73661922618E+03  0.69861585550E+03 0.  0.
        4    1    3    3  502    0 -0.22793649165E+03 -0.21269139435E+02  0.39495633920E+03  0.45650798820E+03  0.12699999809E+01 0. -1.
       -4    1    3    3    0  502  0.22793649165E+03  0.21269139435E+02 -0.16141026060E+03  0.28011123798E+03  0.12699999809E+01 0.  1.
</event>
<event>
 5   0  0.2006362E-02  0.7003483E+03  0.7818609E-02  0.9716637E-01
        2   -1    0    0  501    0  0.00000000000E+00  0.00000000000E+00  0.71206628272E+03  0.71206628273E+03  0.25500000920E-02 0. -1.
       -2   -1    0    0    0  501  0.00000000000E+00  0.00000000000E+00 -0.17220577800E+03  0.17220577802E+03  0.25500000920E-02 0.  1.
    10030    2    1    2    0    0  0.00000000000E+00  0.00000000000E+00  0.53986050472E+03  0.88427206075E+03  0.70034827969E+03 0.  0.
        4    1    3    3  502    0 -0.26513886220E+03 -0.13818435874E+03  0.39777602958E+02  0.30162460750E+03  0.12699999809E+01 0.  1.
       -4    1    3    3    0  502  0.26513886220E+03  0.13818435874E+03  0.50008290176E+03  0.58264745325E+03  0.12699999809E+01 0. -1.
</event>
<event>
 5   0  0.1237686E-02  0.6993524E+03  0.7818609E-02  0.9718340E-01
       -1   -1    0    0    0  501  0.00000000000E+00  0.00000000000E+00  0.12895566309E+03  0.12895566318E+03  0.50400001928E-02 0. -1.
        1   -1    0    0  501    0  0.00000000000E+00  0.00000000000E+00 -0.94818216417E+03  0.94818216418E+03  0.50400001928E-02 0.  1.
    10030    2    1    2    0    0  0.00000000000E+00  0.00000000000E+00 -0.81922650108E+03  0.10771378274E+04  0.69935244267E+03 0.  0.
        5    1    3    3  502    0  0.34636656801E+03  0.47282152702E+02 -0.39917074452E+03  0.53062677531E+03  0.46999998093E+01 0. -1.
       -5    1    3    3    0  502 -0.34636656801E+03 -0.47282152702E+02 -0.42005575656E+03  0.54651105206E+03  0.46999998093E+01 0.  1.
</event>
<event>
 5   0  0.1948138E-02  0.7023953E+03  0.7818609E-02  0.9713145E-01
        2   -1    0    0  501    0  0.00000000000E+00  0.00000000000E+00  0.13141764969E+04  0.13141764969E+04  0.25500000920E-02 0.  1.
       -2   -1    0    0    0  501  0.00000000000E+00  0.00000000000E+00 -0.93853299739E+02  0.93853299773E+02  0.25500000920E-02 0. -1.
    10030    2    1    2    0    0  0.00000000000E+00  0.00000000000E+00  0.12203231972E+04  0.14080297967E+04  0.70239533228E+03 0.  0.
        3    1    3    3  502    0  0.32448182601E+03 -0.93265820489E+02  0.80402755807E+03  0.87203629111E+03  0.10100000352E+00 0. -1.
       -3    1    3    3    0  502 -0.32448182601E+03  0.93265820489E+02  0.41629563911E+03  0.53599350558E+03  0.10100000352E+00 0.  1.
</event>
<event>
 5   0  0.2026361E-02  0.6901790E+03  0.7818609E-02  0.9734176E-01
       -2   -1    0    0    0  501  0.00000000000E+00  0.00000000000E+00  0.48181336102E+03  0.48181336103E+03  0.25500000920E-02 0.  1.
        2   -1    0    0  501    0  0.00000000000E+00  0.00000000000E+00 -0.24716364796E+03  0.24716364797E+03  0.25500000920E-02 0. -1.
    10030    2    1    2    0    0  0.00000000000E+00  0.00000000000E+00  0.23464971306E+03  0.72897700900E+03  0.69017895637E+03 0.  0.
        2    1    3    3  502    0  0.58992136633E+02 -0.20714234678E+03  0.40210880812E+03  0.45615733863E+03  0.25500000920E-02 0.  1.
       -2    1    3    3    0  502 -0.58992136633E+02  0.20714234678E+03 -0.16745909506E+03  0.27281967037E+03  0.25500000920E-02 0. -1.
</event>
<event>
 5   0  0.1257442E-02  0.7132990E+03  0.7818609E-02  0.9694756E-01
        1   -1    0    0  501    0  0.00000000000E+00  0.00000000000E+00  0.14562309556E+04  0.14562309556E+04  0.50400001928E-02 0.  1.
       -1   -1    0    0    0  501  0.00000000000E+00  0.00000000000E+00 -0.87347998062E+02  0.87347998208E+02  0.50400001928E-02 0. -1.
    10030    2    1    2    0    0  0.00000000000E+00  0.00000000000E+00  0.13688829576E+04  0.15435789538E+04  0.71329898026E+03 0.  0.
        1    1    3    3  502    0  0.13208122126E+03 -0.27007633855E+03  0.26924561301E+03  0.40358379279E+03  0.50400001928E-02 0. -1.
       -1    1    3    3    0  502 -0.13208122126E+03  0.27007633855E+03  0.10996373446E+04  0.11399951611E+04  0.50400001928E-02 0.  1.
</event>
<event>
 5   0  0.1973067E-02  0.7022176E+03  0.7818609E-02  0.9713447E-01
        2   -1    0    0  501    0  0.00000000000E+00  0.00000000000E+00  0.20751000641E+04  0.20751000641E+04  0.25500000920E-02 0.  1.
       -2   -1    0    0    0  501  0.00000000000E+00  0.00000000000E+00 -0.59407927608E+02  0.59407927662E+02  0.25500000920E-02 0. -1.
    10030    2    1    2    0    0  0.00000000000E+00  0.00000000000E+00  0.20156921365E+04  0.21345079918E+04  0.70221761427E+03 0.  0.
        5    1    3    3  502    0  0.25908074466E+03  0.23381597301E+03  0.89159864057E+03  0.95747739783E+03  0.46999998093E+01 0. -1.
       -5    1    3    3    0  502 -0.25908074466E+03 -0.23381597301E+03  0.11240934959E+04  0.11770305940E+04  0.46999998093E+01 0.  1.
</event>
<event>
 5   0  0.2026361E-02  0.7012875E+03  0.7818609E-02  0.9715033E-01
        2   -1    0    0  501    0  0.00000000000E+00  0.00000000000E+00  0.11468199883E+04  0.11468199883E+04  0.25500000920E-02 0.  1.
       -2   -1    0    0    0  501  0.00000000000E+00  0.00000000000E+00 -0.10721041142E+03  0.10721041145E+03  0.25500000920E-02 0. -1.
    10030    2    1    2    0    0  0.00000000000E+00  0.00000000000E+00  0.10396095768E+04  0.12540303997E+04  0.70128750963E+03 0.  0.
        2    1    3    3  502    0  0.37113688131E+02 -0.26506736546E+03  0.92487030915E+03  0.96282045202E+03  0.25500000920E-02 0.  1.
       -2    1    3    3    0  502 -0.37113688131E+02  0.26506736546E+03  0.11473926769E+03  0.29120994770E+03  0.25500000920E-02 0. -1.
</event>
<event>
 5   0  0.1257442E-02  0.7123394E+03  0.7818609E-02  0.9696360E-01
        1   -1    0    0  501    0  0.00000000000E+00  0.00000000000E+00  0.52665971526E+03  0.52665971528E+03  0.50400001928E-02 0.  1.
       -1   -1    0    0    0  501  0.00000000000E+00  0.00000000000E+00 -0.24087065245E+03  0.24087065250E+03  0.50400001928E-02 0. -1.
    10030    2    1    2    0    0  0.00000000000E+00  0.00000000000E+00  0.28578906281E+03  0.76753036778E+03  0.71233943949E+03 0.  0.
        1    1    3    3  502    0  0.60420600270E+02  0.33921900930E+03  0.24008693068E+03  0.41995466364E+03  0.50400001928E-02 0.  1.
       -1    1    3    3    0  502 -0.60420600270E+02 -0.33921900930E+03  0.45702132129E+02  0.34757570414E+03  0.50400001928E-02 0. -1.
</event>
<event>
 5   0  0.1973067E-02  0.7008037E+03  0.7818609E-02  0.9715859E-01
        2   -1    0    0  501    0  0.00000000000E+00  0.00000000000E+00  0.13679450337E+04  0.13679450337E+04  0.25500000920E-02 0.  1.
       -2   -1    0    0    0  501  0.00000000000E+00  0.00000000000E+00 -0.89756143692E+02  0.89756143728E+02  0.25500000920E-02 0. -1.
    10030    2    1    2    0    0  0.00000000000E+00  0.00000000000E+00  0.12781888900E+04  0.14577011775E+04  0.70080374154E+03 0.  0.
        5    1    3    3  502    0  0.22611814906E+03  0.26735542802E+03  0.61353117691E+03  0.70643537374E+03  0.46999998093E+01 0.  1.
       -5    1    3    3    0  502 -0.22611814906E+03 -0.26735542802E+03  0.66465771313E+03  0.75126580372E+03  0.46999998093E+01 0. -1.
</event>
<event>
 5   0  0.1973067E-02  0.6956212E+03  0.7818609E-02  0.9724750E-01
       -2   -1    0    0    0  501  0.00000000000E+00  0.00000000000E+00  0.76985799439E+02  0.76985799481E+02  0.25500000920E-02 0. -1.
        2   -1    0    0  501    0  0.00000000000E+00  0.00000000000E+00 -0.15713575835E+04  0.15713575835E+04  0.25500000920E-02 0.  1.
    10030    2    1    2    0    0  0.00000000000E+00  0.00000000000E+00 -0.14943717841E+04  0.16483433830E+04  0.69562121822E+03 0.  0.
        5    1    3    3  502    0 -0.11866842575E+03 -0.22415228790E+03 -0.18332244973E+03  0.31297867981E+03  0.46999998093E+01 0. -1.
       -5    1    3    3    0  502  0.11866842575E+03  0.22415228790E+03 -0.13110493344E+04  0.13353647032E+04  0.46999998093E+01 0.  1.
</event>
<event>
 5   0  0.1948138E-02  0.6989002E+03  0.7818609E-02  0.9719115E-01
        2   -1    0    0  501    0  0.00000000000E+00  0.00000000000E+00  0.14384140809E+04  0.14384140809E+04  0.25500000920E-02 0. -1.
       -2   -1    0    0    0  501  0.00000000000E+00  0.00000000000E+00 -0.84895840712E+02  0.84895840750E+02  0.25500000920E-02 0.  1.
    10030    2    1    2    0    0  0.00000000000E+00  0.00000000000E+00  0.13535182402E+04  0.15233099217E+04  0.69890020095E+03 0.  0.
        3    1    3    3  502    0 -0.25018445140E+03 -0.10593221551E+02  0.14550033886E+03  0.28961152407E+03  0.10100000352E+00 0.  1.
       -3    1    3    3    0  502  0.25018445140E+03  0.10593221551E+02  0.12080179013E+04  0.12336983976E+04  0.10100000352E+00 0. -1.
</event>
<event>
 5   0  0.7947250E-03  0.7019190E+03  0.7818609E-02  0.9713956E-01
        4   -1    0    0  501    0  0.00000000000E+00  0.00000000000E+00  0.88777898922E+03  0.88777989761E+03  0.12699999809E+01 0.  1.
       -4   -1    0    0    0  501  0.00000000000E+00  0.00000000000E+00 -0.13873849562E+03  0.13874430823E+03  0.12699999809E+01 0. -1.
    10030    2    1    2    0    0  0.00000000000E+00  0.00000000000E+00  0.74904049360E+03  0.10265242058E+04  0.70191900111E+03 0.  0.
        4    1    3    3  502    0 -0.34485304674E+03  0.18018852635E+02  0.28292514173E+03  0.44642642352E+03  0.12699999809E+01 0. -1.
       -4    1    3    3    0  502  0.34485304674E+03 -0.18018852635E+02  0.46611535187E+03  0.58009778232E+03  0.12699999809E+01 0.  1.
</event>
<event>
 5   0  0.1237686E-02  0.6969614E+03  0.7818609E-02  0.9722443E-01
       -1   -1    0    0    0  501  0.00000000000E+00  0.00000000000E+00  0.32286360593E+03  0.32286360597E+03  0.50400001928E-02 0.  1.
        1   -1    0    0  501    0  0.00000000000E+00  0.00000000000E+00 -0.37613037809E+03  0.37613037812E+03  0.50400001928E-02 0. -1.
    10030    2    1    2    0    0  0.00000000000E+00  0.00000000000E+00 -0.53266772163E+02  0.69899398409E+03  0.69696143421E+03 0.  0.
        5    1    3    3  502    0 -0.21020937920E+03  0.33377679768E+01  0.25205754084E+03  0.32825937563E+03  0.46999998093E+01 0.  1.
       -5    1    3    3    0  502  0.21020937920E+03 -0.33377679768E+01 -0.30532431300E+03  0.37073460846E+03  0.46999998093E+01 0. -1.
</event>
<event>
 5   0  0.2026361E-02  0.6990524E+03  0.7818609E-02  0.9718854E-01
       -2   -1    0    0    0  501  0.00000000000E+00  0.00000000000E+00  0.17764747303E+03  0.17764747304E+03  0.25500000920E-02 0.  1.
        2   -1    0    0  501    0  0.00000000000E+00  0.00000000000E+00 -0.68770228065E+03  0.68770228065E+03  0.25500000920E-02 0. -1.
    10030    2    1    2    0    0  0.00000000000E+00  0.00000000000E+00 -0.51005480762E+03  0.86534975370E+03  0.69905242253E+03 0.  0.
        2    1    3    3  502    0 -0.65676315619E+02  0.30743487892E+03 -0.44414108582E+03  0.54414234106E+03  0.25500000920E-02 0. -1.
       -2    1    3    3    0  502  0.65676315619E+02 -0.30743487892E+03 -0.65913721798E+02  0.32120741264E+03  0.25500000920E-02 0.  1.
</event>
<event>
 5   0  0.1909053E-02  0.7012281E+03  0.7818609E-02  0.9715134E-01
       -2   -1    0    0    0  501  0.00000000000E+00  0.00000000000E+00  0.53114781218E+02  0.53114781279E+02  0.25500000920E-02 0. -1.
        2   -1    0    0  501    0  0.00000000000E+00  0.00000000000E+00 -0.23144258758E+04  0.23144258758E+04  0.25500000920E-02 0.  1.
    10030    2    1    2    0    0  0.00000000000E+00  0.00000000000E+00 -0.22613110946E+04  0.23675406571E+04  0.70122813438E+03 0.  0.
        1    1    3    3  502    0 -0.17234472229E+03  0.20022190486E+03 -0.35236166741E+03  0.44039784192E+03  0.50400001928E-02 0. -1.
       -1    1    3    3    0  502  0.17234472229E+03 -0.20022190486E+03 -0.19089494272E+04  0.19271428152E+04  0.50400001928E-02 0.  1.
</event>
<event>
 5   0  0.1223742E-02  0.7148324E+03  0.7818609E-02  0.9692198E-01
       -1   -1    0    0    0  501  0.00000000000E+00  0.00000000000E+00  0.16614229574E+03  0.16614229582E+03  0.50400001928E-02 0.  1.
        1   -1    0    0  501    0  0.00000000000E+00  0.00000000000E+00 -0.76889707508E+03  0.76889707509E+03  0.50400001928E-02 0. -1.
    10030    2    1    2    0    0  0.00000000000E+00  0.00000000000E+00 -0.60275477933E+03  0.93503937092E+03  0.71483235877E+03 0.  0.
        2    1    3    3  502    0  0.27749653641E+02 -0.12804906795E+03  0.13359674559E+03  0.18712214599E+03  0.25500000920E-02 0.  1.
       -2    1    3    3    0  502 -0.27749653641E+02  0.12804906795E+03 -0.73635152492E+03  0.74791722493E+03  0.25500000920E-02 0. -1.
</event>
<event>
 5   0  0.1197259E-02  0.7231949E+03  0.7818609E-02  0.9678368E-01
       -1   -1    0    0    0  501  0.00000000000E+00  0.00000000000E+00  0.11610932307E+03  0.11610932318E+03  0.50400001928E-02 0. -1.
        1   -1    0    0  501    0  0.00000000000E+00  0.00000000000E+00 -0.11261174017E+04  0.11261174017E+04  0.50400001928E-02 0.  1.
    10030    2    1    2    0    0  0.00000000000E+00  0.00000000000E+00 -0.10100080786E+04  0.12422267249E+04  0.72319493717E+03 0.  0.
        3    1    3    3  502    0 -0.12445525960E+03 -0.33783648341E+03 -0.56274810669E+03  0.66806290344E+03  0.10100000352E+00 0.  1.
       -3    1    3    3    0  502  0.12445525960E+03  0.33783648341E+03 -0.44725997191E+03  0.57416382143E+03  0.10100000352E+00 0. -1.
</event>
<event>
 5   0  0.2026361E-02  0.7010611E+03  0.7818609E-02  0.9715419E-01
        2   -1    0    0  501    0  0.00000000000E+00  0.00000000000E+00  0.34523393982E+03  0.34523393983E+03  0.25500000920E-02 0. -1.
       -2   -1    0    0    0  501  0.00000000000E+00  0.00000000000E+00 -0.35590841279E+03  0.35590841280E+03  0.25500000920E-02 0.  1.
    10030    2    1    2    0    0  0.00000000000E+00  0.00000000000E+00 -0.10674472971E+02  0.70114235262E+03  0.70106109168E+03 0.  0.
        2    1    3    3  502    0  0.16488829790E+03  0.24588487821E+03 -0.19303994204E+03  0.35342883774E+03  0.25500000920E-02 0.  1.
       -2    1    3    3    0  502 -0.16488829790E+03 -0.24588487821E+03  0.18236546907E+03  0.34771351488E+03  0.25500000920E-02 0. -1.
</event>
<event>
 5   0  0.1257442E-02  0.7022642E+03  0.7818609E-02  0.9713368E-01
       -1   -1    0    0    0  501  0.00000000000E+00  0.00000000000E+00  0.13483819612E+03  0.13483819622E+03  0.50400001928E-02 0.  1.
        1   -1    0    0  501    0  0.00000000000E+00  0.00000000000E+00 -0.91438302756E+03  0.91438302758E+03  0.50400001928E-02 0. -1.
    10030    2    1    2    0    0  0.00000000000E+00  0.00000000000E+00 -0.77954483144E+03  0.10492212238E+04  0.70226421825E+03 0.  0.
        1    1    3    3  502    0  0.20826828178E+03 -0.28236817142E+03 -0.36937998479E+03  0.50945955150E+03  0.50400001928E-02 0. -1.
       -1    1    3    3    0  502 -0.20826828178E+03  0.28236817142E+03 -0.41016484665E+03  0.53976167229E+03  0.50400001928E-02 0.  1.
</event>
<event>
 5   0  0.1257442E-02  0.6630273E+03  0.7818609E-02  0.9782637E-01
        1   -1    0    0  501    0  0.00000000000E+00  0.00000000000E+00  0.40339202995E+03  0.40339202998E+03  0.50400001928E-02 0. -1.
       -1   -1    0    0    0  501  0.00000000000E+00  0.00000000000E+00 -0.27244289815E+03  0.27244289819E+03  0.50400001928E-02 0.  1.
    10030    2    1    2    0    0  0.00000000000E+00  0.00000000000E+00  0.13094913180E+03  0.67583492817E+03  0.66302728075E+03 0.  0.
        1    1    3    3  502    0  0.13408791000E+03 -0.25258986333E+03 -0.10545514787E+03  0.30479828559E+03  0.50400001928E-02 0.  1.
       -1    1    3    3    0  502 -0.13408791000E+03  0.25258986333E+03  0.23640427968E+03  0.37103664258E+03  0.50400001928E-02 0. -1.
</event>
<event>
 5   0  0.1223742E-02  0.7011642E+03  0.7818609E-02  0.9715243E-01
        1   -1    0    0  501    0  0.00000000000E+00  0.00000000000E+00  0.11828431216E+04  0.11828431216E+04  0.50400001928E-02 0. -1.
       -1   -1    0    0    0  501  0.00000000000E+00  0.00000000000E+00 -0.10390880020E+03  0.10390880032E+03  0.50400001928E-02 0.  1.
    10030    2    1    2    0    0  0.00000000000E+00  0.00000000000E+00  0.10789343214E+04  0.12867519219E+04  0.70116420238E+03 0.  0.
        2    1    3    3  502    0  0.87203312187E+02  0.18457905771E+03  0.10625180105E+04  0.10819511859E+04  0.25500000920E-02 0. -1.
       -2    1    3    3    0  502 -0.87203312187E+02 -0.18457905771E+03  0.16416310971E+02  0.20480073602E+03  0.25500000920E-02 0.  1.
</event>
<event>
 5   0  0.2006362E-02  0.6999798E+03  0.7818609E-02  0.9717267E-01
        2   -1    0    0  501    0  0.00000000000E+00  0.00000000000E+00  0.93077922851E+03  0.93077922851E+03  0.25500000920E-02 0. -1.
       -2   -1    0    0    0  501  0.00000000000E+00  0.00000000000E+00 -0.13160256431E+03  0.13160256433E+03  0.25500000920E-02 0.  1.
    10030    2    1    2    0    0  0.00000000000E+00  0.00000000000E+00  0.79917666420E+03  0.10623817928E+04  0.69997980911E+03 0.  0.
        4    1    3    3  502    0 -0.19134520718E+03  0.26836405641E+03  0.57826262694E+03  0.66559862807E+03  0.12699999809E+01 0. -1.
       -4    1    3    3    0  502  0.19134520718E+03 -0.26836405641E+03  0.22091403727E+03  0.39678316477E+03  0.12699999809E+01 0.  1.
</event>
<event>
 5   0  0.1973067E-02  0.7014937E+03  0.7818609E-02  0.9714681E-01
       -2   -1    0    0    0  501  0.00000000000E+00  0.00000000000E+00  0.14318634407E+03  0.14318634409E+03  0.25500000920E-02 0.  1.
        2   -1    0    0  501    0  0.00000000000E+00  0.00000000000E+00 -0.85918343904E+03  0.85918343904E+03  0.25500000920E-02 0. -1.
    10030    2    1    2    0    0  0.00000000000E+00  0.00000000000E+00 -0.71599709497E+03  0.10023697831E+04  0.70149365082E+03 0.  0.
        5    1    3    3  502    0 -0.15619704675E+03  0.16940597055E+03  0.19799243385E+02  0.23132228667E+03  0.46999998093E+01 0.  1.
       -5    1    3    3    0  502  0.15619704675E+03 -0.16940597055E+03 -0.73579633836E+03  0.77104749647E+03  0.46999998093E+01 0. -1.
</event>
<event>
 5   0  0.2006362E-02  0.7014732E+03  0.7818609E-02  0.9714716E-01
       -2   -1    0    0    0  501  0.00000000000E+00  0.00000000000E+00  0.25032652522E+03  0.25032652523E+03  0.25500000920E-02 0. -1.
        2   -1    0    0  501    0  0.00000000000E+00  0.00000000000E+00 -0.49142283838E+03  0.49142283838E+03  0.25500000920E-02 0.  1.
    10030    2    1    2    0    0  0.00000000000E+00  0.00000000000E+00 -0.24109631316E+03  0.74174936361E+03  0.70147322558E+03 0.  0.
        4    1    3    3  502    0 -0.15971546428E+03 -0.29099453892E+03 -0.24031058853E+03  0.40980195592E+03  0.12699999809E+01 0.  1.
       -4    1    3    3    0  502  0.15971546428E+03  0.29099453892E+03 -0.78572462899E+00  0.33194740770E+03  0.12699999809E+01 0. -1.
</event>
<event>
 5   0  0.1909053E-02  0.7021631E+03  0.7818609E-02  0.9713540E-01
       -2   -1    0    0    0  501  0.00000000000E+00  0.00000000000E+00  0.24164905660E+03  0.24164905661E+03  0.25500000920E-02 0. -1.
        2   -1    0    0  501    0  0.00000000000E+00  0.00000000000E+00 -0.51007131376E+03  0.51007131377E+03  0.25500000920E-02 0.  1.
    10030    2    1    2    0    0  0.00000000000E+00  0.00000000000E+00 -0.26842225716E+03  0.75172037038E+03  0.70216309153E+03 0.  0.
        1    1    3    3  502    0 -0.18628008761E+03 -0.22963069618E+03 -0.33685241418E+03  0.44821878211E+03  0.50400001928E-02 0.  1.
       -1    1    3    3    0  502  0.18628008761E+03  0.22963069618E+03  0.68430157016E+02  0.30350158827E+03  0.50400001928E-02 0. -1.
</event>
<event>
 5   0  0.1973067E-02  0.6990392E+03  0.7818609E-02  0.9718877E-01
        2   -1    0    0  501    0  0.00000000000E+00  0.00000000000E+00  0.28128375105E+03  0.28128375106E+03  0.25500000920E-02 0. -1.
       -2   -1    0    0    0  501  0.00000000000E+00  0.00000000000E+00 -0.43430860945E+03  0.43430860946E+03  0.25500000920E-02 0.  1.
    10030    2    1    2    0    0  0.00000000000E+00  0.00000000000E+00 -0.15302485840E+03  0.71559236052E+03  0.69903921145E+03 0.  0.
        5    1    3    3  502    0  0.12445787190E+03 -0.29925574193E+03  0.57343660246E+02  0.32917190998E+03  0.46999998093E+01 0. -1.
       -5    1    3    3    0  502 -0.12445787190E+03  0.29925574193E+03 -0.21036851865E+03  0.38642045053E+03  0.46999998093E+01 0.  1.
</event>
<event>
 5   0  0.1948138E-02  0.6998697E+03  0.7818609E-02  0.9717455E-01
        2   -1    0    0  501    0  0.00000000000E+00  0.00000000000E+00  0.17662605208E+04  0.17662605208E+04  0.25500000920E-02 0.  1.
       -2   -1    0    0    0  501  0.00000000000E+00  0.00000000000E+00 -0.69329746565E+02  0.69329746612E+02  0.25500000920E-02 0. -1.
    10030    2    1    2    0    0  0.00000000000E+00  0.00000000000E+00  0.16969307742E+04  0.18355902674E+04  0.69986968593E+03 0.  0.
        3    1    3    3  502    0  0.23537893582E+03 -0.22211662714E+03  0.11975521381E+04  0.12405120609E+04  0.10100000352E+00 0.  1.
       -3    1    3    3    0  502 -0.23537893582E+03  0.22211662714E+03  0.49937863611E+03  0.59507820653E+03  0.10100000352E+00 0. -1.
</event>
<event>
 5   0  0.2006362E-02  0.7015188E+03  0.7818609E-02  0.9714638E-01
       -2   -1    0    0    0  501  0.00000000000E+00  0.00000000000E+00  0.92242853434E+02  0.92242853469E+02  0.25500000920E-02 0. -1.
        2   -1    0    0  501    0  0.00000000000E+00  0.00000000000E+00 -0.13337853180E+04  0.13337853180E+04  0.25500000920E-02 0.  1.
    10030    2    1    2    0    0  0.00000000000E+00  0.00000000000E+00 -0.12415424646E+04  0.14260281715E+04  0.70151881979E+03 0.  0.
        4    1    3    3  502    0 -0.92855374155E+02  0.18442387301E+03 -0.11971483303E+04  0.12148250998E+04  0.12699999809E+01 0.  1.
       -4    1    3    3    0  502  0.92855374155E+02 -0.18442387301E+03 -0.44394134322E+02  0.21120307173E+03  0.12699999809E+01 0. -1.
</event>
<event>
 5   0  0.1197259E-02  0.6977488E+03  0.7818609E-02  0.9721090E-01
        1   -1    0    0  501    0  0.00000000000E+00  0.00000000000E+00  0.43339785791E+03  0.43339785794E+03  0.50400001928E-02 0.  1.
       -1   -1    0    0    0  501  0.00000000000E+00  0.00000000000E+00 -0.28083517105E+03  0.28083517109E+03  0.50400001928E-02 0. -1.
    10030    2    1    2    0    0  0.00000000000E+00  0.00000000000E+00  0.15256268686E+03  0.71423302903E+03  0.69774884187E+03 0.  0.
        3    1    3    3  502    0  0.14480060772E+03  0.47920797332E+02 -0.24489834755E+03  0.28851140298E+03  0.10100000352E+00 0. -1.
       -3    1    3    3    0  502 -0.14480060772E+03 -0.47920797332E+02  0.39746103441E+03  0.42572162605E+03  0.10100000352E+00 0.  1.
</event>
<event>
 5   0  0.1223742E-02  0.7094317E+03  0.7818609E-02  0.9701237E-01
       -1   -1    0    0    0  501  0.00000000000E+00  0.00000000000E+00  0.56914256255E+03  0.56914256258E+03  0.50400001928E-02 0.  1.
        1   -1    0    0  501    0  0.00000000000E+00  0.00000000000E+00 -0.22107524289E+03  0.22107524295E+03  0.50400001928E-02 0. -1.
    10030    2    1    2    0    0  0.00000000000E+00  0.00000000000E+00  0.34806731966E+03  0.79021780553E+03  0.70943168886E+03 0.  0.
        2    1    3    3  502    0 -0.26601513962E+03 -0.10351293971E+03  0.40859441976E+03  0.49842590528E+03  0.25500000920E-02 0.  1.
       -2    1    3    3    0  502  0.26601513962E+03  0.10351293971E+03 -0.60527100098E+02  0.29179190024E+03  0.25500000920E-02 0. -1.
</event>
<event>
 5   0  0.1197259E-02  0.6996721E+03  0.7818609E-02  0.9717793E-01
        1   -1    0    0  501    0  0.00000000000E+00  0.00000000000E+00  0.34185048383E+03  0.34185048386E+03  0.50400001928E-02 0.  1.
       -1   -1    0    0    0  501  0.00000000000E+00  0.00000000000E+00 -0.35800812420E+03  0.35800812424E+03  0.50400001928E-02 0. -1.
    10030    2    1    2    0    0  0.00000000000E+00  0.00000000000E+00 -0.16157640377E+02  0.69985860810E+03  0.69967206747E+03 0.  0.
        3    1    3    3  502    0  0.24069970789E+03  0.20590311871E+03  0.14046261259E+03  0.34649992700E+03  0.10100000352E+00 0.  1.
       -3    1    3    3    0  502 -0.24069970789E+03 -0.20590311871E+03 -0.15662025297E+03  0.35335868111E+03  0.10100000352E+00 0. -1.
</event>
<event>
 5   0  0.2006362E-02  0.6948816E+03  0.7818609E-02  0.9726026E-01
        2   -1    0    0  501    0  0.00000000000E+00  0.00000000000E+00  0.24368907754E+03  0.24368907756E+03  0.25500000920E-02 0.  1.
       -2   -1    0    0    0  501  0.00000000000E+00  0.00000000000E+00 -0.49536524399E+03  0.49536524400E+03  0.25500000920E-02 0. -1.
    10030    2    1    2    0    0  0.00000000000E+00  0.00000000000E+00 -0.25167616645E+03  0.73905432155E+03  0.69488157081E+03 0.  0.
        4    1    3    3  502    0 -0.37304416795E+02  0.26823898096E+03 -0.35731940725E+03  0.44835537480E+03  0.12699999809E+01 0. -1.
       -4    1    3    3    0  502  0.37304416795E+02 -0.26823898096E+03  0.10564324080E+03  0.29069894675E+03  0.12699999809E+01 0.  1.
</event>
<event>
 5   0  0.1257442E-02  0.6998040E+03  0.7818609E-02  0.9717567E-01
       -1   -1    0    0    0  501  0.00000000000E+00  0.00000000000E+00  0.82209542318E+02  0.82209542473E+02  0.50400001928E-02 0. -1.
        1   -1    0    0  501    0  0.00000000000E+00  0.00000000000E+00 -0.14892605184E+04  0.14892605184E+04  0.50400001928E-02 0.  1.
    10030    2    1    2    0    0  0.00000000000E+00  0.00000000000E+00 -0.14070509761E+04  0.15714700609E+04  0.69980404611E+03 0.  0.
        1    1    3    3  502    0  0.10119703008E+02 -0.22293055272E+03 -0.98337036290E+02  0.24386597232E+03  0.50400001928E-02 0. -1.
       -1    1    3    3    0  502 -0.10119703008E+02  0.22293055272E+03 -0.13087139398E+04  0.13276040886E+04  0.50400001928E-02 0.  1.
</event>
<event>
 5   0  0.1237686E-02  0.6966738E+03  0.7818609E-02  0.9722937E-01
       -1   -1    0    0    0  501  0.00000000000E+00  0.00000000000E+00  0.59407471710E+03  0.59407471712E+03  0.50400001928E-02 0.  1.
        1   -1    0    0  501    0  0.00000000000E+00  0.00000000000E+00 -0.20424805063E+03  0.20424805069E+03  0.50400001928E-02 0. -1.
    10030    2    1    2    0    0  0.00000000000E+00  0.00000000000E+00  0.38982666647E+03  0.79832276781E+03  0.69667382017E+03 0.  0.
        5    1    3    3  502    0  0.22063143330E+03  0.40261284819E+02 -0.11046002229E+03  0.25004540975E+03  0.46999998093E+01 0. -1.
       -5    1    3    3    0  502 -0.22063143330E+03 -0.40261284819E+02  0.50028668876E+03  0.54827735806E+03  0.46999998093E+01 0.  1.
</event>
<event>
 5   0  0.1257442E-02  0.6980354E+03  0.7818609E-02  0.9720598E-01
       -1   -1    0    0    0  501  0.00000000000E+00  0.00000000000E+00  0.18723830502E+03  0.18723830509E+03  0.50400001928E-02 0.  1.
        1   -1    0    0  501    0  0.00000000000E+00  0.00000000000E+00 -0.65057916635E+03  0.65057916637E+03  0.50400001928E-02 0. -1.
    10030    2    1    2    0    0  0.00000000000E+00  0.00000000000E+00 -0.46334086133E+03  0.83781747146E+03  0.69803535849E+03 0.  0.
        1    1    3    3  502    0 -0.15254217142E+03 -0.15191970223E+03  0.98048372963E+02  0.23656329692E+03  0.50400001928E-02 0.  1.
       -1    1    3    3    0  502  0.15254217142E+03  0.15191970223E+03 -0.56138923430E+03  0.60125417453E+03  0.50400001928E-02 0. -1.
</event>
<event>
 5   0  0.1223742E-02  0.7112661E+03  0.7818609E-02  0.9698157E-01
       -1   -1    0    0    0  501  0.00000000000E+00  0.00000000000E+00  0.83553588453E+02  0.83553588605E+02  0.50400001928E-02 0. -1.
        1   -1    0    0  501    0  0.00000000000E+00  0.00000000000E+00 -0.15136974228E+04  0.15136974229E+04  0.50400001928E-02 0.  1.
    10030    2    1    2    0    0  0.00000000000E+00  0.00000000000E+00 -0.14301438344E+04  0.15972510115E+04  0.71126605891E+03 0.  0.
        2    1    3    3  502    0 -0.24111792569E+03  0.19191681791E+03 -0.11136655564E+04  0.11555175856E+04  0.25500000920E-02 0.  1.
       -2    1    3    3    0  502  0.24111792569E+03 -0.19191681791E+03 -0.31647827801E+03  0.44173342588E+03  0.25500000920E-02 0. -1.
</event>
<event>
 5   0  0.1973067E-02  0.6983645E+03  0.7818609E-02  0.9720033E-01
        2   -1    0    0  501    0  0.00000000000E+00  0.00000000000E+00  0.34384536949E+03  0.34384536950E+03  0.25500000920E-02 0. -1.
       -2   -1    0    0    0  501  0.00000000000E+00  0.00000000000E+00 -0.35460199949E+03  0.35460199949E+03  0.25500000920E-02 0.  1.
    10030    2    1    2    0    0  0.00000000000E+00  0.00000000000E+00 -0.10756629999E+02  0.69844736899E+03  0.69836453387E+03 0.  0.
        5    1    3    3  502    0  0.22961840571E+03 -0.22467963418E+03  0.13138809835E+03  0.34711737589E+03  0.46999998093E+01 0. -1.
       -5    1    3    3    0  502 -0.22961840571E+03  0.22467963418E+03 -0.14214472835E+03  0.35132999310E+03  0.46999998093E+01 0.  1.
</event>
<event>
 5   0  0.2006362E-02  0.6970154E+03  0.7818609E-02  0.9722350E-01
        2   -1    0    0  501    0  0.00000000000E+00  0.00000000000E+00  0.91997647388E+03  0.91997647389E+03  0.25500000920E-02 0. -1.
       -2   -1    0    0    0  501  0.00000000000E+00  0.00000000000E+00 -0.13202253463E+03  0.13202253465E+03  0.25500000920E-02 0.  1.
    10030    2    1    2    0    0  0.00000000000E+00  0.00000000000E+00  0.78795393925E+03  0.10519990085E+04  0.69701542564E+03 0.  0.
        4    1    3    3  502    0  0.19237018570E+03  0.60755295674E+02  0.82288789918E+03  0.84725651477E+03  0.12699999809E+01 0. -1.
       -4    1    3    3    0  502 -0.19237018570E+03 -0.60755295674E+02 -0.34933959928E+02  0.20474249377E+03  0.12699999809E+01 0.  1.
</event>
<event>
 5   0  0.1197259E-02  0.7034255E+03  0.7818609E-02  0.9711392E-01
       -1   -1    0    0    0  501  0.00000000000E+00  0.00000000000E+00  0.12995643881E+04  0.12995643881E+04  0.50400001928E-02 0. -1.
        1   -1    0    0  501    0  0.00000000000E+00  0.00000000000E+00 -0.95187174643E+02  0.95187174777E+02  0.50400001928E-02 0.  1.
    10030    2    1    2    0    0  0.00000000000E+00  0.00000000000E+00  0.12043772135E+04  0.13947515629E+04  0.70342551125E+03 0.  0.
        3    1    3    3  502    0  0.29885563039E+03  0.79778743764E+01  0.23484317872E+03  0.38017057105E+03  0.10100000352E+00 0.  1.
       -3    1    3    3    0  502 -0.29885563039E+03 -0.79778743764E+01  0.96953403474E+03  0.10145809919E+04  0.10100000352E+00 0. -1.
</event>
<event>
 5   0  0.7947250E-03  0.6981448E+03  0.7818609E-02  0.9720410E-01
        4   -1    0    0  501    0  0.00000000000E+00  0.00000000000E+00  0.13511274947E+03  0.13511871806E+03  0.12699999809E+01 0. -1.
       -4   -1    0    0    0  501  0.00000000000E+00  0.00000000000E+00 -0.90182435987E+03  0.90182525411E+03  0.12699999809E+01 0.  1.
    10030    2    1    2    0    0  0.00000000000E+00  0.00000000000E+00 -0.76671161040E+03  0.10369439722E+04  0.69814476142E+03 0.  0.
        3    1    3    3  502    0  0.87537316886E+02  0.32013947114E+03 -0.22270141284E+03  0.39968486625E+03  0.10100000352E+00 0. -1.
       -3    1    3    3    0  502 -0.87537316886E+02 -0.32013947114E+03 -0.54401019756E+03  0.63725910592E+03  0.10100000352E+00 0.  1.
</event>
<event>
 5   0  0.2006362E-02  0.7155140E+03  0.7818609E-02  0.9691063E-01
       -2   -1    0    0    0  501  0.00000000000E+00  0.00000000000E+00  0.13692608863E+03  0.13692608866E+03  0.25500000920E-02 0. -1.
        2   -1    0    0  501    0  0.00000000000E+00  0.00000000000E+00 -0.93473836518E+03  0.93473836518E+03  0.25500000920E-02 0.  1.
    10030    2    1    2    0    0  0.00000000000E+00  0.00000000000E+00 -0.79781227655E+03  0.10716644538E+04  0.71551399219E+03 0.  0.
        4    1    3    3  502    0 -0.22451392407E+03 -0.65380776405E+02  0.66157762621E+01  0.23393702020E+03  0.12699999809E+01 0. -1.
       -4    1    3    3    0  502  0.22451392407E+03  0.65380776405E+02 -0.80442805281E+03  0.83772743364E+03  0.12699999809E+01 0.  1.
</event>
<event>
 5   0  0.1226303E-02  0.7087509E+03  0.7818609E-02  0.9702383E-01
        1   -1    0    0  501    0  0.00000000000E+00  0.00000000000E+00  0.84510726187E+03  0.84510726189E+03  0.50400001928E-02 0. -1.
       -1   -1    0    0    0  501  0.00000000000E+00  0.00000000000E+00 -0.14859885319E+03  0.14859885327E+03  0.50400001928E-02 0.  1.
    10030    2    1    2    0    0  0.00000000000E+00  0.00000000000E+00  0.69650840868E+03  0.99370611516E+03  0.70875092941E+03 0.  0.
        4    1    3    3  502    0 -0.20454577709E+03  0.21062390907E+03  0.62647935931E+03  0.69186661037E+03  0.12699999809E+01 0. -1.
       -4    1    3    3    0  502  0.20454577709E+03 -0.21062390907E+03  0.70029049374E+02  0.30183950479E+03  0.12699999809E+01 0.  1.
</event>
<event>
 5   0  0.1909053E-02  0.7059106E+03  0.7818609E-02  0.9707177E-01
       -2   -1    0    0    0  501  0.00000000000E+00  0.00000000000E+00  0.12156402253E+03  0.12156402256E+03  0.25500000920E-02 0. -1.
        2   -1    0    0  501    0  0.00000000000E+00  0.00000000000E+00 -0.10247887980E+04  0.10247887980E+04  0.25500000920E-02 0.  1.
    10030    2    1    2    0    0  0.00000000000E+00  0.00000000000E+00 -0.90322477551E+03  0.11463528206E+04  0.70591061346E+03 0.  0.
        1    1    3    3  502    0 -0.24431854102E+03  0.19365540976E+03 -0.18288438633E+03  0.36144247952E+03  0.50400001928E-02 0. -1.
       -1    1    3    3    0  502  0.24431854102E+03 -0.19365540976E+03 -0.72034038917E+03  0.78491034107E+03  0.50400001928E-02 0.  1.
</event>
<event>
 5   0  0.1226303E-02  0.7081728E+03  0.7818609E-02  0.9703357E-01
        1   -1    0    0  501    0  0.00000000000E+00  0.00000000000E+00  0.31005337670E+03  0.31005337674E+03  0.50400001928E-02 0. -1.
       -1   -1    0    0    0  501  0.00000000000E+00  0.00000000000E+00 -0.40437290972E+03  0.40437290975E+03  0.50400001928E-02 0.  1.
    10030    2    1    2    0    0  0.00000000000E+00  0.00000000000E+00 -0.94319533015E+02  0.71442628649E+03  0.70817282108E+03 0.  0.
        4    1    3    3  502    0  0.16630806122E+03 -0.31237206738E+03 -0.35185092721E+02  0.35563223047E+03  0.12699999809E+01 0.  1.
       -4    1    3    3    0  502 -0.16630806122E+03  0.31237206738E+03 -0.59134440294E+02  0.35879405601E+03  0.12699999809E+01 0. -1.
</event>
<event>
 5   0  0.1257442E-02  0.6905302E+03  0.7818609E-02  0.9733565E-01
        1   -1    0    0  501    0  0.00000000000E+00  0.00000000000E+00  0.24222176307E+03  0.24222176312E+03  0.50400001928E-02 0. -1.
       -1   -1    0    0    0  501  0.00000000000E+00  0.00000000000E+00 -0.49214404747E+03  0.49214404750E+03  0.50400001928E-02 0.  1.
    10030    2    1    2    0    0  0.00000000000E+00  0.00000000000E+00 -0.24992228440E+03  0.73436581062E+03  0.69053022785E+03 0.  0.
        1    1    3    3  502    0 -0.20006821575E+02 -0.27919381371E+03 -0.33992783686E+03  0.44034122317E+03  0.50400001928E-02 0.  1.
       -1    1    3    3    0  502  0.20006821575E+02  0.27919381371E+03  0.90005552460E+02  0.29402458745E+03  0.50400001928E-02 0. -1.
</event>
<event>
 5   0  0.1948138E-02  0.7008722E+03  0.7818609E-02  0.9715742E-01
       -2   -1    0    0    0  501  0.00000000000E+00  0.00000000000E+00  0.81977364501E+02  0.81977364541E+02  0.25500000920E-02 0.  1.
        2   -1    0    0  501    0  0.00000000000E+00  0.00000000000E+00 -0.14980409810E+04  0.14980409810E+04  0.25500000920E-02 0. -1.
    10030    2    1    2    0    0  0.00000000000E+00  0.00000000000E+00 -0.14160636165E+04  0.15800183455E+04  0.70087217541E+03 0.  0.
        3    1    3    3  502    0 -0.11559756222E+03  0.28925552839E+03 -0.10699523620E+04  0.11143740953E+04  0.10100000352E+00 0. -1.
       -3    1    3    3    0  502  0.11559756222E+03 -0.28925552839E+03 -0.34611125446E+03  0.46564425021E+03  0.10100000352E+00 0.  1.
</event>
<event>
 5   0  0.1237686E-02  0.7022242E+03  0.7818609E-02  0.9713436E-01
       -1   -1    0    0    0  501  0.00000000000E+00  0.00000000000E+00  0.33065165767E+03  0.33065165771E+03  0.50400001928E-02 0.  1.
        1   -1    0    0  501    0  0.00000000000E+00  0.00000000000E+00 -0.37283857819E+03  0.37283857822E+03  0.50400001928E-02 0. -1.
    10030    2    1    2    0    0  0.00000000000E+00  0.00000000000E+00 -0.42186920516E+02  0.70349023593E+03  0.70222416349E+03 0.  0.
        5    1    3    3  502    0 -0.85162642151E+02 -0.32862903787E+03  0.68554659614E+02  0.34636909721E+03  0.46999998093E+01 0. -1.
       -5    1    3    3    0  502  0.85162642151E+02  0.32862903787E+03 -0.11074158013E+03  0.35712113872E+03  0.46999998093E+01 0.  1.
</event>
<event>
 5   0  0.1948138E-02  0.7047087E+03  0.7818609E-02  0.9709213E-01
       -2   -1    0    0    0  501  0.00000000000E+00  0.00000000000E+00  0.21722858031E+03  0.21722858033E+03  0.25500000920E-02 0. -1.
        2   -1    0    0  501    0  0.00000000000E+00  0.00000000000E+00 -0.57153437249E+03  0.57153437250E+03  0.25500000920E-02 0.  1.
    10030    2    1    2    0    0  0.00000000000E+00  0.00000000000E+00 -0.35430579218E+03  0.78876295283E+03  0.70470873514E+03 0.  0.
        3    1    3    3  502    0 -0.15682639035E+03 -0.24090656466E+02  0.17498093537E+03  0.23620587288E+03  0.10100000352E+00 0. -1.
       -3    1    3    3    0  502  0.15682639035E+03  0.24090656466E+02 -0.52928672755E+03  0.55255707995E+03  0.10100000352E+00 0.  1.
</event>
<event>
 5   0  0.2006362E-02  0.6966616E+03  0.7818609E-02  0.9722958E-01
       -2   -1    0    0    0  501  0.00000000000E+00  0.00000000000E+00  0.93843492001E+02  0.93843492036E+02  0.25500000920E-02 0. -1.
        2   -1    0    0  501    0  0.00000000000E+00  0.00000000000E+00 -0.12929436590E+04  0.12929436590E+04  0.25500000920E-02 0.  1.
    10030    2    1    2    0    0  0.00000000000E+00  0.00000000000E+00 -0.11991001670E+04  0.13867871510E+04  0.69666160494E+03 0.  0.
        4    1    3    3  502    0  0.22855163424E+02 -0.12536166314E+03 -0.12448752604E+04  0.12513808101E+04  0.12699999809E+01 0.  1.
       -4    1    3    3    0  502 -0.22855163424E+02  0.12536166314E+03  0.45775093411E+02  0.13540634091E+03  0.12699999809E+01 0. -1.
</event>
<event>
 5   0  0.1948138E-02  0.6786571E+03  0.7818609E-02  0.9754444E-01
       -2   -1    0    0    0  501  0.00000000000E+00  0.00000000000E+00  0.16596456579E+03  0.16596456581E+03  0.25500000920E-02 0.  1.
        2   -1    0    0  501    0  0.00000000000E+00  0.00000000000E+00 -0.69378576004E+03  0.69378576004E+03  0.25500000920E-02 0. -1.
    10030    2    1    2    0    0  0.00000000000E+00  0.00000000000E+00 -0.52782119425E+03  0.85975032585E+03  0.67865706340E+03 0.  0.
        3    1    3    3  502    0  0.30948164320E+03  0.33952589055E+01 -0.44014914854E+03  0.53807220558E+03  0.10100000352E+00 0.  1.
       -3    1    3    3    0  502 -0.30948164320E+03 -0.33952589055E+01 -0.87672045704E+02  0.32167812027E+03  0.10100000352E+00 0. -1.
</event>
<event>
 5   0  0.1909053E-02  0.6930628E+03  0.7818609E-02  0.9729170E-01
        2   -1    0    0  501    0  0.00000000000E+00  0.00000000000E+00  0.15255455917E+04  0.15255455917E+04  0.25500000920E-02 0. -1.
       -2   -1    0    0    0  501  0.00000000000E+00  0.00000000000E+00 -0.78715462928E+02  0.78715462969E+02  0.25500000920E-02 0.  1.
    10030    2    1    2    0    0  0.00000000000E+00  0.00000000000E+00  0.14468301288E+04  0.16042610547E+04  0.69306284709E+03 0.  0.
        1    1    3    3  502    0  0.20334095002E+03 -0.80042292880E+02  0.10088431938E+03  0.24069058254E+03  0.50400001928E-02 0.  1.
       -1    1    3    3    0  502 -0.20334095002E+03  0.80042292880E+02  0.13459458094E+04  0.13635704721E+04  0.50400001928E-02 0. -1.
</event>
<event>
 5   0  0.7947250E-03  0.6999888E+03  0.7818609E-02  0.9717251E-01
        4   -1    0    0  501    0  0.00000000000E+00  0.00000000000E+00  0.50919261322E+03  0.50919419700E+03  0.12699999809E+01 0. -1.
       -4   -1    0    0    0  501  0.00000000000E+00  0.00000000000E+00 -0.24056557896E+03  0.24056893125E+03  0.12699999809E+01 0.  1.
    10030    2    1    2    0    0  0.00000000000E+00  0.00000000000E+00  0.26862703426E+03  0.74976312825E+03  0.69998876059E+03 0.  0.
        3    1    3    3  502    0 -0.27032792777E+02  0.10064020359E+03  0.49219297192E+03  0.50310352242E+03  0.10100000352E+00 0. -1.
       -3    1    3    3    0  502  0.27032792777E+02 -0.10064020359E+03 -0.22356593766E+03  0.24665960583E+03  0.10100000352E+00 0.  1.
</event>
<event>
 5   0  0.1226303E-02  0.7009712E+03  0.7818609E-02  0.9715573E-01
       -1   -1    0    0    0  501  0.00000000000E+00  0.00000000000E+00  0.13047971227E+03  0.13047971237E+03  0.50400001928E-02 0.  1.
        1   -1    0    0  501    0  0.00000000000E+00  0.00000000000E+00 -0.94145028980E+03  0.94145028981E+03  0.50400001928E-02 0. -1.
    10030    2    1    2    0    0  0.00000000000E+00  0.00000000000E+00 -0.81097057753E+03  0.10719300022E+04  0.70097122050E+03 0.  0.
        4    1    3    3  502    0  0.13572704747E+03  0.12156471032E+02  0.88306331738E+02  0.16238605952E+03  0.12699999809E+01 0.  1.
       -4    1    3    3    0  502 -0.13572704747E+03 -0.12156471032E+02 -0.89927690926E+03  0.90954394266E+03  0.12699999809E+01 0. -1.
</event>
<event>
 5   0  0.1973067E-02  0.6545021E+03  0.7818609E-02  0.9798368E-01
       -2   -1    0    0    0  501  0.00000000000E+00  0.00000000000E+00  0.12507123808E+03  0.12507123811E+03  0.25500000920E-02 0. -1.
        2   -1    0    0  501    0  0.00000000000E+00  0.00000000000E+00 -0.85625806996E+03  0.85625806996E+03  0.25500000920E-02 0.  1.
    10030    2    1    2    0    0  0.00000000000E+00  0.00000000000E+00 -0.73118683188E+03  0.98132930808E+03  0.65450212206E+03 0.  0.
        5    1    3    3  502    0  0.89018729380E+02  0.16814033735E+03  0.33571412867E+02  0.19324760538E+03  0.46999998093E+01 0. -1.
       -5    1    3    3    0  502 -0.89018729380E+02 -0.16814033735E+03 -0.76475824474E+03  0.78808170270E+03  0.46999998093E+01 0.  1.
</event>
<event>
 5   0  0.1257442E-02  0.6991074E+03  0.7818609E-02  0.9718760E-01
        1   -1    0    0  501    0  0.00000000000E+00  0.00000000000E+00  0.10190361415E+04  0.10190361415E+04  0.50400001928E-02 0.  1.
       -1   -1    0    0    0  501  0.00000000000E+00  0.00000000000E+00 -0.11990525330E+03  0.11990525341E+03  0.50400001928E-02 0. -1.
    10030    2    1    2    0    0  0.00000000000E+00  0.00000000000E+00  0.89913088819E+03  0.11389413949E+04  0.69910739300E+03 0.  0.
        1    1    3    3  502    0  0.31394137140E+03  0.10147666275E+03  0.26146479421E+03  0.42097569573E+03  0.50400001928E-02 0. -1.
       -1    1    3    3    0  502 -0.31394137140E+03 -0.10147666275E+03  0.63766609399E+03  0.71796569919E+03  0.50400001928E-02 0.  1.
</event>
<event>
 5   0  0.1226303E-02  0.7042250E+03  0.7818609E-02  0.9710034E-01
       -1   -1    0    0    0  501  0.00000000000E+00  0.00000000000E+00  0.10259560359E+03  0.10259560371E+03  0.50400001928E-02 0. -1.
        1   -1    0    0  501    0  0.00000000000E+00  0.00000000000E+00 -0.12084653119E+04  0.12084653119E+04  0.50400001928E-02 0.  1.
    10030    2    1    2    0    0  0.00000000000E+00  0.00000000000E+00 -0.11058697083E+04  0.13110609156E+04  0.70422504410E+03 0.  0.
        4    1    3    3  502    0  0.23781673215E+03  0.10080528802E+02 -0.69882969589E+02  0.24807994173E+03  0.12699999809E+01 0. -1.
       -4    1    3    3    0  502 -0.23781673215E+03 -0.10080528802E+02 -0.10359867387E+04  0.10629809739E+04  0.12699999809E+01 0.  1.
</event>
<event>
 5   0  0.1237686E-02  0.6948438E+03  0.7818609E-02  0.9726091E-01
       -1   -1    0    0    0  501  0.00000000000E+00  0.00000000000E+00  0.22218829468E+03  0.22218829474E+03  0.50400001928E-02 0.  1.
        1   -1    0    0  501    0  0.00000000000E+00  0.00000000000E+00 -0.54324176820E+03  0.54324176822E+03  0.50400001928E-02 0. -1.
    10030    2    1    2    0    0  0.00000000000E+00  0.00000000000E+00 -0.32105347351E+03  0.76543006296E+03  0.69484375828E+03 0.  0.
        5    1    3    3  502    0  0.63158848694E+02 -0.26437065736E+03 -0.39883361817E+03  0.48267093306E+03  0.46999998093E+01 0. -1.
       -5    1    3    3    0  502 -0.63158848694E+02  0.26437065736E+03  0.77780144655E+02  0.28275912990E+03  0.46999998093E+01 0.  1.
</event>
<event>
 5   0  0.2006362E-02  0.6987836E+03  0.7818609E-02  0.9719315E-01
       -2   -1    0    0    0  501  0.00000000000E+00  0.00000000000E+00  0.16024031637E+03  0.16024031639E+03  0.25500000920E-02 0.  1.
        2   -1    0    0  501    0  0.00000000000E+00  0.00000000000E+00 -0.76182229954E+03  0.76182229955E+03  0.25500000920E-02 0. -1.
    10030    2    1    2    0    0  0.00000000000E+00  0.00000000000E+00 -0.60158198317E+03  0.92206261594E+03  0.69878364694E+03 0.  0.
        4    1    3    3  502    0 -0.39086959694E+02  0.75799797962E+02 -0.74787376091E+03  0.75272184434E+03  0.12699999809E+01 0. -1.
       -4    1    3    3    0  502  0.39086959694E+02 -0.75799797962E+02  0.14629177774E+03  0.16934077159E+03  0.12699999809E+01 0.  1.
</event>
<event>
 5   0  0.1257442E-02  0.7060626E+03  0.7818609E-02  0.9706920E-01
       -1   -1    0    0    0  501  0.00000000000E+00  0.00000000000E+00  0.62628132426E+02  0.62628132629E+02  0.50400001928E-02 0.  1.
        1   -1    0    0  501    0  0.00000000000E+00  0.00000000000E+00 -0.19900178041E+04  0.19900178041E+04  0.50400001928E-02 0. -1.
    10030    2    1    2    0    0  0.00000000000E+00  0.00000000000E+00 -0.19273896716E+04  0.20526459367E+04  0.70606260000E+03 0.  0.
        1    1    3    3  502    0 -0.17261649792E+03  0.23917654248E+03 -0.39975409207E+03  0.49679493554E+03  0.50400001928E-02 0.  1.
       -1    1    3    3    0  502  0.17261649792E+03 -0.23917654248E+03 -0.15276355796E+04  0.15558510012E+04  0.50400001928E-02 0. -1.
</event>
<event>
 5   0  0.2026361E-02  0.7033851E+03  0.7818609E-02  0.9711461E-01
        2   -1    0    0  501    0  0.00000000000E+00  0.00000000000E+00  0.51478171918E+03  0.51478171919E+03  0.25500000920E-02 0. -1.
       -2   -1    0    0    0  501  0.00000000000E+00  0.00000000000E+00 -0.24027202951E+03  0.24027202953E+03  0.25500000920E-02 0.  1.
    10030    2    1    2    0    0  0.00000000000E+00  0.00000000000E+00  0.27450968967E+03  0.75505374871E+03  0.70338509632E+03 0.  0.
        2    1    3    3  502    0  0.34419506510E+02 -0.34998711464E+03  0.14096807335E+03  0.37887686727E+03  0.25500000920E-02 0.  1.
       -2    1    3    3    0  502 -0.34419506510E+02  0.34998711464E+03  0.13354161632E+03  0.37617688145E+03  0.25500000920E-02 0. -1.
</event>
<event>
 5   0  0.1973067E-02  0.6801907E+03  0.7818609E-02  0.9751721E-01
        2   -1    0    0  501    0  0.00000000000E+00  0.00000000000E+00  0.10635528859E+04  0.10635528859E+04  0.25500000920E-02 0. -1.
       -2   -1    0    0    0  501  0.00000000000E+00  0.00000000000E+00 -0.10875327764E+03  0.10875327767E+03  0.25500000920E-02 0.  1.
    10030    2    1    2    0    0  0.00000000000E+00  0.00000000000E+00  0.95479960829E+03  0.11723061636E+04  0.68019074474E+03 0.  0.
        5    1    3    3  502    0 -0.20748776287E+03 -0.86313431427E+00  0.13043562319E+02  0.20795225716E+03  0.46999998093E+01 0.  1.
       -5    1    3    3    0  502  0.20748776287E+03  0.86313431427E+00  0.94175604598E+03  0.96435390644E+03  0.46999998093E+01 0. -1.
</event>
<event>
 5   0  0.1197259E-02  0.6979629E+03  0.7818609E-02  0.9720722E-01
       -1   -1    0    0    0  501  0.00000000000E+00  0.00000000000E+00  0.29545311044E+03  0.29545311048E+03  0.50400001928E-02 0.  1.
        1   -1    0    0  501    0  0.00000000000E+00  0.00000000000E+00 -0.41220769131E+03  0.41220769135E+03  0.50400001928E-02 0. -1.
    10030    2    1    2    0    0  0.00000000000E+00  0.00000000000E+00 -0.11675458088E+03  0.70766080183E+03  0.69796287744E+03 0.  0.
        3    1    3    3  502    0  0.71113256006E+02  0.33913044671E+03 -0.16310079535E+02  0.34688987296E+03  0.10100000352E+00 0. -1.
       -3    1    3    3    0  502 -0.71113256006E+02 -0.33913044671E+03 -0.10044450134E+03  0.36077092887E+03  0.10100000352E+00 0.  1.
</event>
<event>
 5   0  0.7947250E-03  0.7017714E+03  0.7818609E-02  0.9714208E-01
        3   -1    0    0  501    0  0.00000000000E+00  0.00000000000E+00  0.98721783126E+03  0.98721783643E+03  0.10100000352E+00 0.  1.
       -3   -1    0    0    0  501  0.00000000000E+00  0.00000000000E+00 -0.12471486233E+03  0.12471490323E+03  0.10100000352E+00 0. -1.
    10030    2    1    2    0    0  0.00000000000E+00  0.00000000000E+00  0.86250296893E+03  0.11119327397E+04  0.70177136312E+03 0.  0.
        4    1    3    3  502    0  0.11997169968E+03 -0.23851480517E+03  0.70505716193E+02  0.27614342275E+03  0.12699999809E+01 0. -1.
       -4    1    3    3    0  502 -0.11997169968E+03  0.23851480517E+03  0.79199725274E+03  0.83578931691E+03  0.12699999809E+01 0.  1.
</event>
<event>
 5   0  0.1237686E-02  0.7018168E+03  0.7818609E-02  0.9714130E-01
        1   -1    0    0  501    0  0.00000000000E+00  0.00000000000E+00  0.57756407467E+03  0.57756407469E+03  0.50400001928E-02 0. -1.
       -1   -1    0    0    0  501  0.00000000000E+00  0.00000000000E+00 -0.21320006057E+03  0.21320006063E+03  0.50400001928E-02 0.  1.
    10030    2    1    2    0    0  0.00000000000E+00  0.00000000000E+00  0.36436401410E+03  0.79076413531E+03  0.70181677304E+03 0.  0.
        5    1    3    3  502    0 -0.22467075912E+03 -0.49008874680E+02  0.48079069807E+03  0.53297336252E+03  0.46999998093E+01 0. -1.
       -5    1    3    3    0  502  0.22467075912E+03  0.49008874680E+02 -0.11642668397E+03  0.25779077280E+03  0.46999998093E+01 0.  1.
</event>
<event>
 5   0  0.2026361E-02  0.6996441E+03  0.7818609E-02  0.9717841E-01
       -2   -1    0    0    0  501  0.00000000000E+00  0.00000000000E+00  0.19735474299E+03  0.19735474300E+03  0.25500000920E-02 0.  1.
        2   -1    0    0  501    0  0.00000000000E+00  0.00000000000E+00 -0.62007868700E+03  0.62007868701E+03  0.25500000920E-02 0. -1.
    10030    2    1    2    0    0  0.00000000000E+00  0.00000000000E+00 -0.42272394401E+03  0.81743343001E+03  0.69964410928E+03 0.  0.
        2    1    3    3  502    0  0.17295632263E+03 -0.56097231169E+02 -0.56053174346E+03  0.58928484141E+03  0.25500000920E-02 0. -1.
       -2    1    3    3    0  502 -0.17295632263E+03  0.56097231169E+02  0.13780779945E+03  0.22814858860E+03  0.25500000920E-02 0.  1.
</event>
<event>
 5   0  0.1226303E-02  0.7061715E+03  0.7818609E-02  0.9706736E-01
       -1   -1    0    0    0  501  0.00000000000E+00  0.00000000000E+00  0.21499997296E+03  0.21499997302E+03  0.50400001928E-02 0.  1.
        1   -1    0    0  501    0  0.00000000000E+00  0.00000000000E+00 -0.57985842555E+03  0.57985842557E+03  0.50400001928E-02 0. -1.
    10030    2    1    2    0    0  0.00000000000E+00  0.00000000000E+00 -0.36485845259E+03  0.79485839859E+03  0.70617149714E+03 0.  0.
        4    1    3    3  502    0  0.34513423850E+03 -0.43146327768E+02 -0.25079131973E+03  0.42880898678E+03  0.12699999809E+01 0. -1.
       -4    1    3    3    0  502 -0.34513423850E+03  0.43146327768E+02 -0.11406713286E+03  0.36604941181E+03  0.12699999809E+01 0.  1.
</event>
<event>
 5   0  0.1948138E-02  0.6700835E+03  0.7818609E-02  0.9769807E-01
       -2   -1    0    0    0  501  0.00000000000E+00  0.00000000000E+00  0.23684243103E+03  0.23684243104E+03  0.25500000920E-02 0. -1.
        2   -1    0    0  501    0  0.00000000000E+00  0.00000000000E+00 -0.47395630579E+03  0.47395630580E+03  0.25500000920E-02 0.  1.
    10030    2    1    2    0    0  0.00000000000E+00  0.00000000000E+00 -0.23711387476E+03  0.71079873684E+03  0.67008346845E+03 0.  0.
        3    1    3    3  502    0  0.13813643701E+01 -0.82022303247E+02 -0.46313855469E+03  0.47034763467E+03  0.10100000352E+00 0.  1.
       -3    1    3    3    0  502 -0.13813643701E+01  0.82022303247E+02  0.22602467993E+03  0.24045110217E+03  0.10100000352E+00 0. -1.
</event>
<event>
 5   0  0.1973067E-02  0.6981398E+03  0.7818609E-02  0.9720419E-01
       -2   -1    0    0    0  501  0.00000000000E+00  0.00000000000E+00  0.13343548608E+04  0.13343548608E+04  0.25500000920E-02 0.  1.
        2   -1    0    0  501    0  0.00000000000E+00  0.00000000000E+00 -0.91317377854E+02  0.91317377890E+02  0.25500000920E-02 0. -1.
    10030    2    1    2    0    0  0.00000000000E+00  0.00000000000E+00  0.12430374830E+04  0.14256722387E+04  0.69813977696E+03 0.  0.
        5    1    3    3  502    0  0.11292753495E+03  0.32118214072E+03  0.46443479084E+03  0.57587529952E+03  0.46999998093E+01 0. -1.
       -5    1    3    3    0  502 -0.11292753495E+03 -0.32118214072E+03  0.77860269212E+03  0.84979693918E+03  0.46999998093E+01 0.  1.
</event>
<event>
 5   0  0.1909053E-02  0.7099165E+03  0.7818609E-02  0.9700422E-01
        2   -1    0    0  501    0  0.00000000000E+00  0.00000000000E+00  0.11412098263E+04  0.11412098263E+04  0.25500000920E-02 0.  1.
       -2   -1    0    0    0  501  0.00000000000E+00  0.00000000000E+00 -0.11040507912E+03  0.11040507914E+03  0.25500000920E-02 0. -1.
    10030    2    1    2    0    0  0.00000000000E+00  0.00000000000E+00  0.10308047472E+04  0.12516149054E+04  0.70991650545E+03 0.  0.
        1    1    3    3  502    0  0.32876596761E+03 -0.12658429833E+03  0.59194199489E+03  0.68884393833E+03  0.50400001928E-02 0. -1.
       -1    1    3    3    0  502 -0.32876596761E+03  0.12658429833E+03  0.43886275229E+03  0.56277096710E+03  0.50400001928E-02 0.  1.
</event>
<event>
 5   0  0.1226303E-02  0.6815963E+03  0.7818609E-02  0.9749233E-01
       -1   -1    0    0    0  501  0.00000000000E+00  0.00000000000E+00  0.68225744004E+02  0.68225744190E+02  0.50400001928E-02 0. -1.
        1   -1    0    0  501    0  0.00000000000E+00  0.00000000000E+00 -0.17023394764E+04  0.17023394764E+04  0.50400001928E-02 0.  1.
    10030    2    1    2    0    0  0.00000000000E+00  0.00000000000E+00 -0.16341137324E+04  0.17705652206E+04  0.68159629547E+03 0.  0.
        4    1    3    3  502    0 -0.10055319238E+03  0.36849146157E+02 -0.16574876694E+04  0.16609442468E+04  0.12699999809E+01 0.  1.
       -4    1    3    3    0  502  0.10055319238E+03 -0.36849146157E+02  0.23373936937E+02  0.10962097380E+03  0.12699999809E+01 0. -1.
</event>
<event>
 5   0  0.1909053E-02  0.7016469E+03  0.7818609E-02  0.9714420E-01
        2   -1    0    0  501    0  0.00000000000E+00  0.00000000000E+00  0.17312936618E+04  0.17312936618E+04  0.25500000920E-02 0.  1.
       -2   -1    0    0    0  501  0.00000000000E+00  0.00000000000E+00 -0.71089662188E+02  0.71089662233E+02  0.25500000920E-02 0. -1.
    10030    2    1    2    0    0  0.00000000000E+00  0.00000000000E+00  0.16602039996E+04  0.18023833240E+04  0.70164686732E+03 0.  0.
        1    1    3    3  502    0 -0.14814009302E+03 -0.21040366545E+02  0.14986103887E+02  0.15037542193E+03  0.50400001928E-02 0. -1.
       -1    1    3    3    0  502  0.14814009302E+03  0.21040366545E+02  0.16452178957E+04  0.16520079021E+04  0.50400001928E-02 0.  1.
</event>
<event>
 5   0  0.1226303E-02  0.7002234E+03  0.7818609E-02  0.9716850E-01
        1   -1    0    0  501    0  0.00000000000E+00  0.00000000000E+00  0.52131432771E+03  0.52131432774E+03  0.50400001928E-02 0. -1.
       -1   -1    0    0    0  501  0.00000000000E+00  0.00000000000E+00 -0.23513302070E+03  0.23513302076E+03  0.50400001928E-02 0.  1.
    10030    2    1    2    0    0  0.00000000000E+00  0.00000000000E+00  0.28618130701E+03  0.75644734850E+03  0.70022342903E+03 0.  0.
        4    1    3    3  502    0  0.33563976907E+03 -0.18399215237E+01  0.35498769704E+02  0.33751920752E+03  0.12699999809E+01 0.  1.
       -4    1    3    3    0  502 -0.33563976907E+03  0.18399215237E+01  0.25068253730E+03  0.41892814098E+03  0.12699999809E+01 0. -1.
</event>
<event>
 5   0  0.2006362E-02  0.7006342E+03  0.7818609E-02  0.9716148E-01
        2   -1    0    0  501    0  0.00000000000E+00  0.00000000000E+00  0.18938361677E+03  0.18938361679E+03  0.25500000920E-02 0. -1.
       -2   -1    0    0    0  501  0.00000000000E+00  0.00000000000E+00 -0.64800788341E+03  0.64800788341E+03  0.25500000920E-02 0.  1.
    10030    2    1    2    0    0  0.00000000000E+00  0.00000000000E+00 -0.45862426664E+03  0.83739150020E+03  0.70063421745E+03 0.  0.
        4    1    3    3  502    0  0.19114941298E+02  0.20747775656E+03 -0.56589800099E+03  0.60303777732E+03  0.12699999809E+01 0. -1.
       -4    1    3    3    0  502 -0.19114941298E+02 -0.20747775656E+03  0.10727373435E+03  0.23435372289E+03  0.12699999809E+01 0.  1.
</event>
<event>
 5   0  0.1257442E-02  0.7005719E+03  0.7818609E-02  0.9716255E-01
       -1   -1    0    0    0  501  0.00000000000E+00  0.00000000000E+00  0.16232211519E+03  0.16232211527E+03  0.50400001928E-02 0.  1.
        1   -1    0    0  501    0  0.00000000000E+00  0.00000000000E+00 -0.75590587837E+03  0.75590587838E+03  0.50400001928E-02 0. -1.
    10030    2    1    2    0    0  0.00000000000E+00  0.00000000000E+00 -0.59358376318E+03  0.91822799366E+03  0.70057188384E+03 0.  0.
        1    1    3    3  502    0 -0.11763695248E+03 -0.26357915989E+03 -0.36668872304E+02  0.29095881554E+03  0.50400001928E-02 0. -1.
       -1    1    3    3    0  502  0.11763695248E+03  0.26357915989E+03 -0.55691489087E+03  0.62726917812E+03  0.50400001928E-02 0.  1.
</event>
<event>
 5   0  0.1973067E-02  0.7012160E+03  0.7818609E-02  0.9715155E-01
        2   -1    0    0  501    0  0.00000000000E+00  0.00000000000E+00  0.11789799873E+04  0.11789799873E+04  0.25500000920E-02 0.  1.
       -2   -1    0    0    0  501  0.00000000000E+00  0.00000000000E+00 -0.10426467623E+03  0.10426467626E+03  0.25500000920E-02 0. -1.
    10030    2    1    2    0    0  0.00000000000E+00  0.00000000000E+00  0.10747153111E+04  0.12832446636E+04  0.70121599150E+03 0.  0.
        5    1    3    3  502    0  0.95353566045E+02  0.32975402265E+03  0.40700291235E+03  0.53245044715E+03  0.46999998093E+01 0. -1.
       -5    1    3    3    0  502 -0.95353566045E+02 -0.32975402265E+03  0.66771239874E+03  0.75079421644E+03  0.46999998093E+01 0.  1.
</event>
<event>
 5   0  0.1973067E-02  0.6993848E+03  0.7818609E-02  0.9718285E-01
        2   -1    0    0  501    0  0.00000000000E+00  0.00000000000E+00  0.14595255555E+04  0.14595255555E+04  0.25500000920E-02 0. -1.
       -2   -1    0    0    0  501  0.00000000000E+00  0.00000000000E+00 -0.83783924528E+02  0.83783924567E+02  0.25500000920E-02 0.  1.
    10030    2    1    2    0    0  0.00000000000E+00  0.00000000000E+00  0.13757416309E+04  0.15433094800E+04  0.69938481258E+03 0.  0.
        5    1    3    3  502    0  0.12362589886E+02  0.28745130494E+03  0.24940654077E+03  0.38079758260E+03  0.46999998093E+01 0.  1.
       -5    1    3    3    0  502 -0.12362589886E+02 -0.28745130494E+03  0.11263350902E+04  0.11625118974E+04  0.46999998093E+01 0. -1.
</event>
<event>
 5   0  0.2026361E-02  0.6967336E+03  0.7818609E-02  0.9722835E-01
        2   -1    0    0  501    0  0.00000000000E+00  0.00000000000E+00  0.17898507492E+04  0.17898507492E+04  0.25500000920E-02 0. -1.
       -2   -1    0    0    0  501  0.00000000000E+00  0.00000000000E+00 -0.67804206914E+02  0.67804206962E+02  0.25500000920E-02 0.  1.
    10030    2    1    2    0    0  0.00000000000E+00  0.00000000000E+00  0.17220465423E+04  0.18576549561E+04  0.69673355191E+03 0.  0.
        2    1    3    3  502    0 -0.26846847381E+03  0.89427942023E+01  0.26959913981E+03  0.38057718165E+03  0.25500000920E-02 0.  1.
       -2    1    3    3    0  502  0.26846847381E+03 -0.89427942023E+01  0.14524474024E+04  0.14770777745E+04  0.25500000920E-02 0. -1.
</event>
<event>
 5   0  0.2026361E-02  0.7043865E+03  0.7818609E-02  0.9709760E-01
       -2   -1    0    0    0  501  0.00000000000E+00  0.00000000000E+00  0.75177503427E+02  0.75177503470E+02  0.25500000920E-02 0.  1.
        2   -1    0    0  501    0  0.00000000000E+00  0.00000000000E+00 -0.16499626087E+04  0.16499626087E+04  0.25500000920E-02 0. -1.
    10030    2    1    2    0    0  0.00000000000E+00  0.00000000000E+00 -0.15747851052E+04  0.17251401121E+04  0.70438645560E+03 0.  0.
        2    1    3    3  502    0  0.24101563460E+03 -0.25678303056E+03 -0.79655926736E+03  0.87093784355E+03  0.25500000920E-02 0. -1.
       -2    1    3    3    0  502 -0.24101563460E+03  0.25678303056E+03 -0.77822583789E+03  0.85420226859E+03  0.25500000920E-02 0.  1.
</event>
<event>
 5   0  0.1909053E-02  0.7131838E+03  0.7818609E-02  0.9694948E-01
       -2   -1    0    0    0  501  0.00000000000E+00  0.00000000000E+00  0.16635789966E+03  0.16635789968E+03  0.25500000920E-02 0. -1.
        2   -1    0    0  501    0  0.00000000000E+00  0.00000000000E+00 -0.76436277941E+03  0.76436277941E+03  0.25500000920E-02 0.  1.
    10030    2    1    2    0    0  0.00000000000E+00  0.00000000000E+00 -0.59800487974E+03  0.93072067909E+03  0.71318380962E+03 0.  0.
        1    1    3    3  502    0 -0.18900888794E+03 -0.27941396028E+03 -0.44985117985E+03  0.56228338492E+03  0.50400001928E-02 0.  1.
       -1    1    3    3    0  502  0.18900888794E+03  0.27941396028E+03 -0.14815369989E+03  0.36843729417E+03  0.50400001928E-02 0. -1.
</event>
<event>
 5   0  0.1197259E-02  0.7000257E+03  0.7818609E-02  0.9717188E-01
       -1   -1    0    0    0  501  0.00000000000E+00  0.00000000000E+00  0.12540728255E+03  0.12540728265E+03  0.50400001928E-02 0.  1.
        1   -1    0    0  501    0  0.00000000000E+00  0.00000000000E+00 -0.97688911939E+03  0.97688911940E+03  0.50400001928E-02 0. -1.
    10030    2    1    2    0    0  0.00000000000E+00  0.00000000000E+00 -0.85148183684E+03  0.11022964020E+04  0.70002574203E+03 0.  0.
        3    1    3    3  502    0  0.53212591408E+02  0.23469352763E+03 -0.82595137250E+03  0.86029547931E+03  0.10100000352E+00 0. -1.
       -3    1    3    3    0  502 -0.53212591408E+02 -0.23469352763E+03 -0.25530464340E+02  0.24200092274E+03  0.10100000352E+00 0.  1.
</event>
<event>
 5   0  0.1197259E-02  0.7002707E+03  0.7818609E-02  0.9716769E-01
       -1   -1    0    0    0  501  0.00000000000E+00  0.00000000000E+00  0.25398746220E+03  0.25398746225E+03  0.50400001928E-02 0.  1.
        1   -1    0    0  501    0  0.00000000000E+00  0.00000000000E+00 -0.48268041527E+03  0.48268041530E+03  0.50400001928E-02 0. -1.
    10030    2    1    2    0    0  0.00000000000E+00  0.00000000000E+00 -0.22869295307E+03  0.73666787755E+03  0.70027072981E+03 0.  0.
        3    1    3    3  502    0  0.64625671243E+01 -0.39520721926E+02 -0.48026339661E+03  0.48193007019E+03  0.10100000352E+00 0. -1.
       -3    1    3    3    0  502 -0.64625671243E+01  0.39520721926E+02  0.25157044353E+03  0.25473780736E+03  0.10100000352E+00 0.  1.
</event>
<event>
 5   0  0.7947250E-03  0.6993014E+03  0.7818609E-02  0.9718428E-01
       -3   -1    0    0    0  501  0.00000000000E+00  0.00000000000E+00  0.14378005993E+04  0.14378006029E+04  0.10100000352E+00 0. -1.
        3   -1    0    0  501    0  0.00000000000E+00  0.00000000000E+00 -0.85029569200E+02  0.85029629185E+02  0.10100000352E+00 0.  1.
    10030    2    1    2    0    0  0.00000000000E+00  0.00000000000E+00  0.13527710301E+04  0.15228302320E+04  0.69930140549E+03 0.  0.
        2    1    3    3  502    0  0.25004895390E+03  0.45030272260E+02  0.11994892551E+04  0.12261022298E+04  0.25500000920E-02 0. -1.
       -2    1    3    3    0  502 -0.25004895390E+03 -0.45030272260E+02  0.15328177500E+03  0.29672800225E+03  0.25500000920E-02 0.  1.
</event>
<event>
 5   0  0.1948138E-02  0.7060721E+03  0.7818609E-02  0.9706904E-01
        2   -1    0    0  501    0  0.00000000000E+00  0.00000000000E+00  0.61479891599E+03  0.61479891599E+03  0.25500000920E-02 0. -1.
       -2   -1    0    0    0  501  0.00000000000E+00  0.00000000000E+00 -0.20272394600E+03  0.20272394602E+03  0.25500000920E-02 0.  1.
    10030    2    1    2    0    0  0.00000000000E+00  0.00000000000E+00  0.41207496999E+03  0.81752286201E+03  0.70607212735E+03 0.  0.
        3    1    3    3  502    0  0.18532968799E+03 -0.58977850250E+02 -0.13510290795E+03  0.23680854294E+03  0.10100000352E+00 0.  1.
       -3    1    3    3    0  502 -0.18532968799E+03  0.58977850250E+02  0.54717787794E+03  0.58071431907E+03  0.10100000352E+00 0. -1.
</event>
<event>
 5   0  0.1226303E-02  0.6879612E+03  0.7818609E-02  0.9738044E-01
       -1   -1    0    0    0  501  0.00000000000E+00  0.00000000000E+00  0.11186913321E+03  0.11186913332E+03  0.50400001928E-02 0.  1.
        1   -1    0    0  501    0  0.00000000000E+00  0.00000000000E+00 -0.10576882683E+04  0.10576882683E+04  0.50400001928E-02 0. -1.
    10030    2    1    2    0    0  0.00000000000E+00  0.00000000000E+00 -0.94581913506E+03  0.11695574016E+04  0.68796124847E+03 0.  0.
        4    1    3    3  502    0  0.52798955331E+02  0.13394271356E+03 -0.10039971911E+04  0.10142683830E+04  0.12699999809E+01 0. -1.
       -4    1    3    3    0  502 -0.52798955331E+02 -0.13394271356E+03  0.58178055999E+02  0.15528901860E+03  0.12699999809E+01 0.  1.
</event>
<event>
 5   0  0.2026361E-02  0.6970338E+03  0.7818609E-02  0.9722318E-01
       -2   -1    0    0    0  501  0.00000000000E+00  0.00000000000E+00  0.14174976612E+03  0.14174976615E+03  0.25500000920E-02 0.  1.
        2   -1    0    0  501    0  0.00000000000E+00  0.00000000000E+00 -0.85689049616E+03  0.85689049616E+03  0.25500000920E-02 0. -1.
    10030    2    1    2    0    0  0.00000000000E+00  0.00000000000E+00 -0.71514073003E+03  0.99864026231E+03  0.69703379384E+03 0.  0.
        2    1    3    3  502    0 -0.25040722565E+03 -0.10306967203E+03 -0.43234266756E+02  0.27421950656E+03  0.25500000920E-02 0.  1.
       -2    1    3    3    0  502  0.25040722565E+03  0.10306967203E+03 -0.67190646328E+03  0.72442075574E+03  0.25500000920E-02 0. -1.
</event>
<event>
 5   0  0.1226303E-02  0.7068189E+03  0.7818609E-02  0.9705642E-01
       -1   -1    0    0    0  501  0.00000000000E+00  0.00000000000E+00  0.10697192018E+03  0.10697192029E+03  0.50400001928E-02 0. -1.
        1   -1    0    0  501    0  0.00000000000E+00  0.00000000000E+00 -0.11675796567E+04  0.11675796567E+04  0.50400001928E-02 0.  1.
    10030    2    1    2    0    0  0.00000000000E+00  0.00000000000E+00 -0.10606077365E+04  0.12745515770E+04  0.70681889595E+03 0.  0.
        4    1    3    3  502    0 -0.23578228279E+03 -0.31500124284E+02 -0.59006682499E+02  0.24508966560E+03  0.12699999809E+01 0. -1.
       -4    1    3    3    0  502  0.23578228279E+03  0.31500124284E+02 -0.10016010540E+04  0.10294619114E+04  0.12699999809E+01 0.  1.
</event>
<event>
 5   0  0.1257442E-02  0.7035808E+03  0.7818609E-02  0.9711128E-01
       -1   -1    0    0    0  501  0.00000000000E+00  0.00000000000E+00  0.28599328017E+03  0.28599328021E+03  0.50400001928E-02 0. -1.
        1   -1    0    0  501    0  0.00000000000E+00  0.00000000000E+00 -0.43272517151E+03  0.43272517153E+03  0.50400001928E-02 0.  1.
    10030    2    1    2    0    0  0.00000000000E+00  0.00000000000E+00 -0.14673189134E+03  0.71871845175E+03  0.70358081622E+03 0.  0.
        1    1    3    3  502    0 -0.33567681952E+03  0.10080660085E+03 -0.42456152297E+02  0.35304875418E+03  0.50400001928E-02 0. -1.
       -1    1    3    3    0  502  0.33567681952E+03 -0.10080660085E+03 -0.10427573904E+03  0.36566969756E+03  0.50400001928E-02 0.  1.
</event>
<event>
 5   0  0.1223742E-02  0.7093570E+03  0.7818609E-02  0.9701363E-01
       -1   -1    0    0    0  501  0.00000000000E+00  0.00000000000E+00  0.76693966078E+02  0.76693966244E+02  0.50400001928E-02 0.  1.
        1   -1    0    0  501    0  0.00000000000E+00  0.00000000000E+00 -0.16402443959E+04  0.16402443959E+04  0.50400001928E-02 0. -1.
    10030    2    1    2    0    0  0.00000000000E+00  0.00000000000E+00 -0.15635504298E+04  0.17169383622E+04  0.70935702776E+03 0.  0.
        2    1    3    3  502    0  0.13904217642E+03 -0.14932771587E+03 -0.14839682339E+04  0.14979296421E+04  0.25500000920E-02 0. -1.
       -2    1    3    3    0  502 -0.13904217642E+03  0.14932771587E+03 -0.79582195985E+02  0.21900872008E+03  0.25500000920E-02 0.  1.
</event>
<event>
 5   0  0.1197259E-02  0.7008912E+03  0.7818609E-02  0.9715709E-01
       -1   -1    0    0    0  501  0.00000000000E+00  0.00000000000E+00  0.21415273117E+03  0.21415273123E+03  0.50400001928E-02 0.  1.
        1   -1    0    0  501    0  0.00000000000E+00  0.00000000000E+00 -0.57347913529E+03  0.57347913532E+03  0.50400001928E-02 0. -1.
    10030    2    1    2    0    0  0.00000000000E+00  0.00000000000E+00 -0.35932640413E+03  0.78763186654E+03  0.70089121302E+03 0.  0.
        3    1    3    3  502    0  0.14772694086E+02  0.28954743312E+03 -0.40089271247E+03  0.49474329266E+03  0.10100000352E+00 0. -1.
       -3    1    3    3    0  502 -0.14772694086E+02 -0.28954743312E+03  0.41566308344E+02  0.29288857388E+03  0.10100000352E+00 0.  1.
</event>
<event>
 5   0  0.2006362E-02  0.6902537E+03  0.7818609E-02  0.9734046E-01
       -2   -1    0    0    0  501  0.00000000000E+00  0.00000000000E+00  0.99512707368E+02  0.99512707400E+02  0.25500000920E-02 0. -1.
        2   -1    0    0  501    0  0.00000000000E+00  0.00000000000E+00 -0.11969580813E+04  0.11969580813E+04  0.25500000920E-02 0.  1.
    10030    2    1    2    0    0  0.00000000000E+00  0.00000000000E+00 -0.10974453740E+04  0.12964707887E+04  0.69025369047E+03 0.  0.
        4    1    3    3  502    0 -0.14185650896E+03 -0.19115097039E+03 -0.79351293959E+02  0.25091871865E+03  0.12699999809E+01 0. -1.
       -4    1    3    3    0  502  0.14185650896E+03  0.19115097039E+03 -0.10180940800E+04  0.10455520701E+04  0.12699999809E+01 0.  1.
</event>
<event>
 5   0  0.2006362E-02  0.6989261E+03  0.7818609E-02  0.9719071E-01
        2   -1    0    0  501    0  0.00000000000E+00  0.00000000000E+00  0.31591330621E+03  0.31591330622E+03  0.25500000920E-02 0.  1.
       -2   -1    0    0    0  501  0.00000000000E+00  0.00000000000E+00 -0.38657570541E+03  0.38657570542E+03  0.25500000920E-02 0. -1.
    10030    2    1    2    0    0  0.00000000000E+00  0.00000000000E+00 -0.70662399204E+02  0.70248901164E+03  0.69892605962E+03 0.  0.
        4    1    3    3  502    0 -0.47552130079E+01 -0.18350552397E+03 -0.33421203141E+03  0.38130851579E+03  0.12699999809E+01 0. -1.
       -4    1    3    3    0  502  0.47552130079E+01  0.18350552397E+03  0.26354963220E+03  0.32118049585E+03  0.12699999809E+01 0.  1.
</event>
<event>
 5   0  0.1223742E-02  0.7055859E+03  0.7818609E-02  0.9707727E-01
       -1   -1    0    0    0  501  0.00000000000E+00  0.00000000000E+00  0.18938841000E+04  0.18938841000E+04  0.50400001928E-02 0. -1.
        1   -1    0    0  501    0  0.00000000000E+00  0.00000000000E+00 -0.65718311808E+02  0.65718312001E+02  0.50400001928E-02 0.  1.
    10030    2    1    2    0    0  0.00000000000E+00  0.00000000000E+00  0.18281657882E+04  0.19596024120E+04  0.70558590124E+03 0.  0.
        2    1    3    3  502    0  0.28167256615E+03  0.14875052015E+03  0.49291916216E+03  0.58688623446E+03  0.25500000920E-02 0.  1.
       -2    1    3    3    0  502 -0.28167256615E+03 -0.14875052015E+03  0.13352466260E+04  0.13727161776E+04  0.25500000920E-02 0. -1.
</event>
<event>
 5   0  0.2006362E-02  0.7045100E+03  0.7818609E-02  0.9709550E-01
        2   -1    0    0  501    0  0.00000000000E+00  0.00000000000E+00  0.42620385291E+03  0.42620385292E+03  0.25500000920E-02 0. -1.
       -2   -1    0    0    0  501  0.00000000000E+00  0.00000000000E+00 -0.29113667584E+03  0.29113667585E+03  0.25500000920E-02 0.  1.
    10030    2    1    2    0    0  0.00000000000E+00  0.00000000000E+00  0.13506717707E+03  0.71734052877E+03  0.70450996579E+03 0.  0.
        4    1    3    3  502    0 -0.29960953043E+03 -0.44474807750E+02 -0.11556936460E+03  0.32419403169E+03  0.12699999809E+01 0.  1.
       -4    1    3    3    0  502  0.29960953043E+03  0.44474807750E+02  0.25063654167E+03  0.39314649708E+03  0.12699999809E+01 0. -1.
</event>
<event>
 5   0  0.1909053E-02  0.7006880E+03  0.7818609E-02  0.9716056E-01
        2   -1    0    0  501    0  0.00000000000E+00  0.00000000000E+00  0.98795105485E+03  0.98795105486E+03  0.25500000920E-02 0.  1.
       -2   -1    0    0    0  501  0.00000000000E+00  0.00000000000E+00 -0.12423785231E+03  0.12423785233E+03  0.25500000920E-02 0. -1.
    10030    2    1    2    0    0  0.00000000000E+00  0.00000000000E+00  0.86371320255E+03  0.11121889072E+04  0.70068799691E+03 0.  0.
        1    1    3    3  502    0 -0.91457401860E+02 -0.25446508781E+03  0.78266842626E+02  0.28150068552E+03  0.50400001928E-02 0. -1.
       -1    1    3    3    0  502  0.91457401860E+02  0.25446508781E+03  0.78544635992E+03  0.83068822167E+03  0.50400001928E-02 0.  1.
</event>
<event>
 5   0  0.7947250E-03  0.7019350E+03  0.7818609E-02  0.9713929E-01
       -3   -1    0    0    0  501  0.00000000000E+00  0.00000000000E+00  0.45197541494E+03  0.45197542622E+03  0.10100000352E+00 0. -1.
        3   -1    0    0  501    0  0.00000000000E+00  0.00000000000E+00 -0.27253289908E+03  0.27253291779E+03  0.10100000352E+00 0.  1.
    10030    2    1    2    0    0  0.00000000000E+00  0.00000000000E+00  0.17944251586E+03  0.72450834402E+03  0.70193498563E+03 0.  0.
        3    1    3    3  502    0 -0.33390710240E+03  0.99163236049E+02  0.13412652710E+03  0.37325224164E+03  0.10100000352E+00 0. -1.
       -3    1    3    3    0  502  0.33390710240E+03 -0.99163236049E+02  0.45315988760E+02  0.35125610237E+03  0.10100000352E+00 0.  1.
</event>
<event>
 5   0  0.2006362E-02  0.6937738E+03  0.7818609E-02  0.9727939E-01
       -2   -1    0    0    0  501  0.00000000000E+00  0.00000000000E+00  0.13601953101E+03  0.13601953103E+03  0.25500000920E-02 0.  1.
        2   -1    0    0  501    0  0.00000000000E+00  0.00000000000E+00 -0.88465627003E+03  0.88465627003E+03  0.25500000920E-02 0. -1.
    10030    2    1    2    0    0  0.00000000000E+00  0.00000000000E+00 -0.74863673902E+03  0.10206758011E+04  0.69377382760E+03 0.  0.
        4    1    3    3  502    0  0.21549798202E+03  0.14012677484E+03 -0.71699610386E+03  0.76168229541E+03  0.12699999809E+01 0. -1.
       -4    1    3    3    0  502 -0.21549798202E+03 -0.14012677484E+03 -0.31640635156E+02  0.25899350566E+03  0.12699999809E+01 0.  1.
</event>
<event>
 5   0  0.1197259E-02  0.7150877E+03  0.7818609E-02  0.9691772E-01
       -1   -1    0    0    0  501  0.00000000000E+00  0.00000000000E+00  0.54162859986E+03  0.54162859988E+03  0.50400001928E-02 0.  1.
        1   -1    0    0  501    0  0.00000000000E+00  0.00000000000E+00 -0.23602448535E+03  0.23602448541E+03  0.50400001928E-02 0. -1.
    10030    2    1    2    0    0  0.00000000000E+00  0.00000000000E+00  0.30560411451E+03  0.77765308529E+03  0.71508771927E+03 0.  0.
        3    1    3    3  502    0  0.17036918838E+03  0.34486140134E+02 -0.18698111736E+03  0.25529767461E+03  0.10100000352E+00 0. -1.
       -3    1    3    3    0  502 -0.17036918838E+03 -0.34486140134E+02  0.49258523187E+03  0.52235541068E+03  0.10100000352E+00 0.  1.
</event>
<event>
 5   0  0.1973067E-02  0.7066473E+03  0.7818609E-02  0.9705931E-01
        2   -1    0    0  501    0  0.00000000000E+00  0.00000000000E+00  0.97954913763E+03  0.97954913764E+03  0.25500000920E-02 0. -1.
       -2   -1    0    0    0  501  0.00000000000E+00  0.00000000000E+00 -0.12744395101E+03  0.12744395104E+03  0.25500000920E-02 0.  1.
    10030    2    1    2    0    0  0.00000000000E+00  0.00000000000E+00  0.85210518662E+03  0.11069930887E+04  0.70664733022E+03 0.  0.
        5    1    3    3  502    0  0.25954426878E+03 -0.85845444941E+02  0.75472926742E+02  0.28363871482E+03  0.46999998093E+01 0.  1.
       -5    1    3    3    0  502 -0.25954426878E+03  0.85845444941E+02  0.77663225988E+03  0.82335437386E+03  0.46999998093E+01 0. -1.
</event>
<event>
 5   0  0.1197259E-02  0.7035523E+03  0.7818609E-02  0.9711177E-01
        1   -1    0    0  501    0  0.00000000000E+00  0.00000000000E+00  0.36379748871E+03  0.36379748874E+03  0.50400001928E-02 0.  1.
       -1   -1    0    0    0  501  0.00000000000E+00  0.00000000000E+00 -0.34015201143E+03  0.34015201146E+03  0.50400001928E-02 0. -1.
    10030    2    1    2    0    0  0.00000000000E+00  0.00000000000E+00  0.23645477280E+02  0.70394950020E+03  0.70355226547E+03 0.  0.
        3    1    3    3  502    0 -0.32474505320E+03  0.49350936869E+02 -0.11415137723E+03  0.34774331291E+03  0.10100000352E+00 0. -1.
       -3    1    3    3    0  502  0.32474505320E+03 -0.49350936869E+02  0.13779685451E+03  0.35620618729E+03  0.10100000352E+00 0.  1.
</event>
<event>
 5   0  0.1197259E-02  0.7004079E+03  0.7818609E-02  0.9716535E-01
        1   -1    0    0  501    0  0.00000000000E+00  0.00000000000E+00  0.29252440579E+03  0.29252440584E+03  0.50400001928E-02 0. -1.
       -1   -1    0    0    0  501  0.00000000000E+00  0.00000000000E+00 -0.41925668990E+03  0.41925668993E+03  0.50400001928E-02 0.  1.
    10030    2    1    2    0    0  0.00000000000E+00  0.00000000000E+00 -0.12673228410E+03  0.71178109577E+03  0.70040792147E+03 0.  0.
        3    1    3    3  502    0  0.30274677470E+03 -0.12448339833E+03  0.63118040581E+02  0.33337009958E+03  0.10100000352E+00 0. -1.
       -3    1    3    3    0  502 -0.30274677470E+03  0.12448339833E+03 -0.18985032469E+03  0.37841099618E+03  0.10100000352E+00 0.  1.
</event>
<event>
 5   0  0.1948138E-02  0.6970005E+03  0.7818609E-02  0.9722375E-01
       -2   -1    0    0    0  501  0.00000000000E+00  0.00000000000E+00  0.84706750361E+02  0.84706750400E+02  0.25500000920E-02 0.  1.
        2   -1    0    0  501    0  0.00000000000E+00  0.00000000000E+00 -0.14337987960E+04  0.14337987960E+04  0.25500000920E-02 0. -1.
    10030    2    1    2    0    0  0.00000000000E+00  0.00000000000E+00 -0.13490920456E+04  0.15185055464E+04  0.69700053575E+03 0.  0.
        3    1    3    3  502    0  0.21306078622E+03  0.19875813244E+03 -0.25801898698E+03  0.38919596822E+03  0.10100000352E+00 0.  1.
       -3    1    3    3    0  502 -0.21306078622E+03 -0.19875813244E+03 -0.10910730586E+04  0.11293095781E+04  0.10100000352E+00 0. -1.
</event>
<event>
 5   0  0.1257442E-02  0.6958176E+03  0.7818609E-02  0.9724411E-01
       -1   -1    0    0    0  501  0.00000000000E+00  0.00000000000E+00  0.14485659081E+03  0.14485659090E+03  0.50400001928E-02 0. -1.
        1   -1    0    0  501    0  0.00000000000E+00  0.00000000000E+00 -0.83558880684E+03  0.83558880685E+03  0.50400001928E-02 0.  1.
    10030    2    1    2    0    0  0.00000000000E+00  0.00000000000E+00 -0.69073221603E+03  0.98044539775E+03  0.69581763682E+03 0.  0.
        1    1    3    3  502    0 -0.16090348153E+03 -0.18521231500E+03  0.22081582649E+01  0.24535363862E+03  0.50400001928E-02 0. -1.
       -1    1    3    3    0  502  0.16090348153E+03  0.18521231500E+03 -0.69294037429E+03  0.73509175913E+03  0.50400001928E-02 0.  1.
</event>
<event>
 5   0  0.1226303E-02  0.7014347E+03  0.7818609E-02  0.9714782E-01
       -1   -1    0    0    0  501  0.00000000000E+00  0.00000000000E+00  0.13539856050E+03  0.13539856059E+03  0.50400001928E-02 0. -1.
        1   -1    0    0  501    0  0.00000000000E+00  0.00000000000E+00 -0.90844883292E+03  0.90844883294E+03  0.50400001928E-02 0.  1.
    10030    2    1    2    0    0  0.00000000000E+00  0.00000000000E+00 -0.77305027243E+03  0.10438473935E+04  0.70143471348E+03 0.  0.
        4    1    3    3  502    0  0.33773493796E+03  0.32909299855E+02 -0.25464740834E+03  0.42425797082E+03  0.12699999809E+01 0.  1.
       -4    1    3    3    0  502 -0.33773493796E+03 -0.32909299855E+02 -0.51840286409E+03  0.61958942270E+03  0.12699999809E+01 0. -1.
</event>
<event>
 5   0  0.1237686E-02  0.6949827E+03  0.7818609E-02  0.9725851E-01
        1   -1    0    0  501    0  0.00000000000E+00  0.00000000000E+00  0.30723733893E+03  0.30723733897E+03  0.50400001928E-02 0.  1.
       -1   -1    0    0    0  501  0.00000000000E+00  0.00000000000E+00 -0.39301939516E+03  0.39301939520E+03  0.50400001928E-02 0. -1.
    10030    2    1    2    0    0  0.00000000000E+00  0.00000000000E+00 -0.85782056233E+02  0.70025673417E+03  0.69498268509E+03 0.  0.
        5    1    3    3  502    0  0.27254640317E+03  0.20984186904E+03  0.66039554408E+01  0.34406518874E+03  0.46999998093E+01 0. -1.
       -5    1    3    3    0  502 -0.27254640317E+03 -0.20984186904E+03 -0.92386011674E+02  0.35619154542E+03  0.46999998093E+01 0.  1.
</event>
<event>
 5   0  0.7947250E-03  0.6640906E+03  0.7818609E-02  0.9780693E-01
       -3   -1    0    0    0  501  0.00000000000E+00  0.00000000000E+00  0.54822945348E+03  0.54822946278E+03  0.10100000352E+00 0. -1.
        3   -1    0    0  501    0  0.00000000000E+00  0.00000000000E+00 -0.20110935929E+03  0.20110938465E+03  0.10100000352E+00 0.  1.
    10030    2    1    2    0    0  0.00000000000E+00  0.00000000000E+00  0.34712009419E+03  0.74933884744E+03  0.66409061768E+03 0.  0.
        5    1    3    3  502    0 -0.20474912207E+03  0.59952252149E+02  0.46060844771E+03  0.50764033294E+03  0.46999998093E+01 0. -1.
       -5    1    3    3    0  502  0.20474912207E+03 -0.59952252149E+02 -0.11348835353E+03  0.24169851450E+03  0.46999998093E+01 0.  1.
</event>
<event>
 5   0  0.1226303E-02  0.6959084E+03  0.7818609E-02  0.9724255E-01
        1   -1    0    0  501    0  0.00000000000E+00  0.00000000000E+00  0.26792907491E+03  0.26792907496E+03  0.50400001928E-02 0. -1.
       -1   -1    0    0    0  501  0.00000000000E+00  0.00000000000E+00 -0.45188125670E+03  0.45188125673E+03  0.50400001928E-02 0.  1.
    10030    2    1    2    0    0  0.00000000000E+00  0.00000000000E+00 -0.18395218179E+03  0.71981033169E+03  0.69590840520E+03 0.  0.
        4    1    3    3  502    0 -0.11599275893E+02 -0.33520032142E+03 -0.18776748564E+03  0.38438527579E+03  0.12699999809E+01 0.  1.
       -4    1    3    3    0  502  0.11599275893E+02  0.33520032142E+03  0.38153038501E+01  0.33542505590E+03  0.12699999809E+01 0. -1.
</event>
<event>
 5   0  0.1257442E-02  0.7047265E+03  0.7818609E-02  0.9709183E-01
       -1   -1    0    0    0  501  0.00000000000E+00  0.00000000000E+00  0.15916096982E+03  0.15916096990E+03  0.50400001928E-02 0. -1.
        1   -1    0    0  501    0  0.00000000000E+00  0.00000000000E+00 -0.78008995867E+03  0.78008995869E+03  0.50400001928E-02 0.  1.
    10030    2    1    2    0    0  0.00000000000E+00  0.00000000000E+00 -0.62092898886E+03  0.93925092859E+03  0.70472654104E+03 0.  0.
        1    1    3    3  502    0  0.98225653119E+02  0.26702214983E+03 -0.33415235703E+02  0.28647109005E+03  0.50400001928E-02 0. -1.
       -1    1    3    3    0  502 -0.98225653119E+02 -0.26702214983E+03 -0.58751375316E+03  0.65277983854E+03  0.50400001928E-02 0.  1.
</event>
<event>
 5   0  0.2006362E-02  0.7026206E+03  0.7818609E-02  0.9712761E-01
       -2   -1    0    0    0  501  0.00000000000E+00  0.00000000000E+00  0.21731317167E+03  0.21731317168E+03  0.25500000920E-02 0.  1.
        2   -1    0    0  501    0  0.00000000000E+00  0.00000000000E+00 -0.56793114388E+03  0.56793114389E+03  0.25500000920E-02 0. -1.
    10030    2    1    2    0    0  0.00000000000E+00  0.00000000000E+00 -0.35061797222E+03  0.78524431557E+03  0.70262057520E+03 0.  0.
        4    1    3    3  502    0 -0.19285474882E+03  0.14347399611E+03 -0.46163893800E+03  0.52047080963E+03  0.12699999809E+01 0. -1.
       -4    1    3    3    0  502  0.19285474882E+03 -0.14347399611E+03  0.11102096578E+03  0.26477350594E+03  0.12699999809E+01 0.  1.
</event>
<event>
 5   0  0.1226303E-02  0.6989491E+03  0.7818609E-02  0.9719031E-01
        1   -1    0    0  501    0  0.00000000000E+00  0.00000000000E+00  0.33303608453E+03  0.33303608457E+03  0.50400001928E-02 0.  1.
       -1   -1    0    0    0  501  0.00000000000E+00  0.00000000000E+00 -0.36672443535E+03  0.36672443538E+03  0.50400001928E-02 0. -1.
    10030    2    1    2    0    0  0.00000000000E+00  0.00000000000E+00 -0.33688350814E+02  0.69976051995E+03  0.69894912569E+03 0.  0.
        4    1    3    3  502    0 -0.13128118525E+03  0.28144165211E+03 -0.17730095114E+03  0.35760508011E+03  0.12699999809E+01 0. -1.
       -4    1    3    3    0  502  0.13128118525E+03 -0.28144165211E+03  0.14361260033E+03  0.34215543985E+03  0.12699999809E+01 0.  1.
</event>
<event>
 5   0  0.1226303E-02  0.7022873E+03  0.7818609E-02  0.9713329E-01
       -1   -1    0    0    0  501  0.00000000000E+00  0.00000000000E+00  0.31935229044E+03  0.31935229048E+03  0.50400001928E-02 0.  1.
        1   -1    0    0  501    0  0.00000000000E+00  0.00000000000E+00 -0.38609986461E+03  0.38609986464E+03  0.50400001928E-02 0. -1.
    10030    2    1    2    0    0  0.00000000000E+00  0.00000000000E+00 -0.66747574168E+02  0.70545215512E+03  0.70228733756E+03 0.  0.
        4    1    3    3  502    0  0.15003519101E+03 -0.32376462360E+02  0.28386816053E+03  0.32270968272E+03  0.12699999809E+01 0.  1.
       -4    1    3    3    0  502 -0.15003519101E+03  0.32376462360E+02 -0.35061573470E+03  0.38274247240E+03  0.12699999809E+01 0. -1.
</event>
<event>
 5   0  0.1197259E-02  0.6999989E+03  0.7818609E-02  0.9717234E-01
       -1   -1    0    0    0  501  0.00000000000E+00  0.00000000000E+00  0.25836637372E+03  0.25836637377E+03  0.50400001928E-02 0.  1.
        1   -1    0    0  501    0  0.00000000000E+00  0.00000000000E+00 -0.47413136870E+03  0.47413136872E+03  0.50400001928E-02 0. -1.
    10030    2    1    2    0    0  0.00000000000E+00  0.00000000000E+00 -0.21576499498E+03  0.73249774249E+03  0.69999886406E+03 0.  0.
        3    1    3    3  502    0  0.12914994544E+03  0.89059874172E+02  0.21951411144E+03  0.26981072054E+03  0.10100000352E+00 0.  1.
       -3    1    3    3    0  502 -0.12914994544E+03 -0.89059874172E+02 -0.43527910642E+03  0.46268702195E+03  0.10100000352E+00 0. -1.
</event>
<event>
 5   0  0.1197259E-02  0.6951455E+03  0.7818609E-02  0.9725570E-01
       -1   -1    0    0    0  501  0.00000000000E+00  0.00000000000E+00  0.16588449201E+03  0.16588449208E+03  0.50400001928E-02 0. -1.
        1   -1    0    0  501    0  0.00000000000E+00  0.00000000000E+00 -0.72825867006E+03  0.72825867008E+03  0.50400001928E-02 0.  1.
    10030    2    1    2    0    0  0.00000000000E+00  0.00000000000E+00 -0.56237417806E+03  0.89414316216E+03  0.69514550872E+03 0.  0.
        3    1    3    3  502    0 -0.28201367005E+03  0.19695477243E+03 -0.34529326472E+03  0.48739136363E+03  0.10100000352E+00 0.  1.
       -3    1    3    3    0  502  0.28201367005E+03 -0.19695477243E+03 -0.21708091334E+03  0.40675179854E+03  0.10100000352E+00 0. -1.
</event>
<event>
 5   0  0.7947250E-03  0.7055276E+03  0.7818609E-02  0.9707826E-01
        3   -1    0    0  501    0  0.00000000000E+00  0.00000000000E+00  0.36381550013E+03  0.36381551415E+03  0.10100000352E+00 0. -1.
       -3   -1    0    0    0  501  0.00000000000E+00  0.00000000000E+00 -0.34204776518E+03  0.34204778009E+03  0.10100000352E+00 0.  1.
    10030    2    1    2    0    0  0.00000000000E+00  0.00000000000E+00  0.21767734953E+02  0.70586329425E+03  0.70552757273E+03 0.  0.
        5    1    3    3  502    0  0.30842527972E+03  0.79594039726E+02 -0.14070996325E+03  0.34825672727E+03  0.46999998093E+01 0.  1.
       -5    1    3    3    0  502 -0.30842527972E+03 -0.79594039726E+02  0.16247769821E+03  0.35760656698E+03  0.46999998093E+01 0. -1.
</event>
<event>
 5   0  0.2006362E-02  0.7033927E+03  0.7818609E-02  0.9711448E-01
       -2   -1    0    0    0  501  0.00000000000E+00  0.00000000000E+00  0.24072330001E+03  0.24072330002E+03  0.25500000920E-02 0.  1.
        2   -1    0    0  501    0  0.00000000000E+00  0.00000000000E+00 -0.51382780469E+03  0.51382780470E+03  0.25500000920E-02 0. -1.
    10030    2    1    2    0    0  0.00000000000E+00  0.00000000000E+00 -0.27310450469E+03  0.75455110472E+03  0.70339270621E+03 0.  0.
        4    1    3    3  502    0 -0.18612861617E+03 -0.48345127504E+02 -0.45243025143E+03  0.49160538892E+03  0.12699999809E+01 0. -1.
       -4    1    3    3    0  502  0.18612861617E+03  0.48345127504E+02  0.17932574674E+03  0.26294571579E+03  0.12699999809E+01 0.  1.
</event>
<event>
 5   0  0.1223742E-02  0.7009484E+03  0.7818609E-02  0.9715612E-01
       -1   -1    0    0    0  501  0.00000000000E+00  0.00000000000E+00  0.51689496163E+03  0.51689496165E+03  0.50400001928E-02 0.  1.
        1   -1    0    0  501    0  0.00000000000E+00  0.00000000000E+00 -0.23763470153E+03  0.23763470158E+03  0.50400001928E-02 0. -1.
    10030    2    1    2    0    0  0.00000000000E+00  0.00000000000E+00  0.27926026010E+03  0.75452966323E+03  0.70094844306E+03 0.  0.
        2    1    3    3  502    0  0.25264647527E+03  0.91597143926E+02 -0.10253776712E+03  0.28763565831E+03  0.25500000920E-02 0. -1.
       -2    1    3    3    0  502 -0.25264647527E+03 -0.91597143926E+02  0.38179802721E+03  0.46689400492E+03  0.25500000920E-02 0.  1.
</event>
<event>
 5   0  0.1226303E-02  0.7022355E+03  0.7818609E-02  0.9713417E-01
       -1   -1    0    0    0  501  0.00000000000E+00  0.00000000000E+00  0.29043258297E+03  0.29043258302E+03  0.50400001928E-02 0.  1.
        1   -1    0    0  501    0  0.00000000000E+00  0.00000000000E+00 -0.42448290433E+03  0.42448290436E+03  0.50400001928E-02 0. -1.
    10030    2    1    2    0    0  0.00000000000E+00  0.00000000000E+00 -0.13405032136E+03  0.71491548738E+03  0.70223547720E+03 0.  0.
        4    1    3    3  502    0  0.98960966953E+02 -0.32140449153E+03 -0.16978300516E+03  0.37672536667E+03  0.12699999809E+01 0. -1.
       -4    1    3    3    0  502 -0.98960966953E+02  0.32140449153E+03  0.35732683795E+02  0.33819012071E+03  0.12699999809E+01 0.  1.
</event>
<event>
 5   0  0.2006362E-02  0.7007995E+03  0.7818609E-02  0.9715866E-01
        2   -1    0    0  501    0  0.00000000000E+00  0.00000000000E+00  0.12758721294E+04  0.12758721294E+04  0.25500000920E-02 0. -1.
       -2   -1    0    0    0  501  0.00000000000E+00  0.00000000000E+00 -0.96232200962E+02  0.96232200995E+02  0.25500000920E-02 0.  1.
    10030    2    1    2    0    0  0.00000000000E+00  0.00000000000E+00  0.11796399284E+04  0.13721043304E+04  0.70079949537E+03 0.  0.
        4    1    3    3  502    0 -0.10247794962E+03 -0.11358033302E+03 -0.27392139392E+02  0.15541610087E+03  0.12699999809E+01 0.  1.
       -4    1    3    3    0  502  0.10247794962E+03  0.11358033302E+03  0.12070320678E+04  0.12166882295E+04  0.12699999809E+01 0. -1.
</event>
<event>
 5   0  0.1973067E-02  0.7068263E+03  0.7818609E-02  0.9705629E-01
       -2   -1    0    0    0  501  0.00000000000E+00  0.00000000000E+00  0.84645346285E+02  0.84645346324E+02  0.25500000920E-02 0.  1.
        2   -1    0    0  501    0  0.00000000000E+00  0.00000000000E+00 -0.14755785369E+04  0.14755785369E+04  0.25500000920E-02 0. -1.
    10030    2    1    2    0    0  0.00000000000E+00  0.00000000000E+00 -0.13909331906E+04  0.15602238832E+04  0.70682630472E+03 0.  0.
        5    1    3    3  502    0 -0.11539415844E+03  0.22405009721E+03 -0.12422720620E+04  0.12675867718E+04  0.46999998093E+01 0. -1.
       -5    1    3    3    0  502  0.11539415844E+03 -0.22405009721E+03 -0.14866112861E+03  0.29263711149E+03  0.46999998093E+01 0.  1.
</event>
<event>
 5   0  0.1226303E-02  0.6980859E+03  0.7818609E-02  0.9720511E-01
        1   -1    0    0  501    0  0.00000000000E+00  0.00000000000E+00  0.13884983202E+03  0.13884983212E+03  0.50400001928E-02 0.  1.
       -1   -1    0    0    0  501  0.00000000000E+00  0.00000000000E+00 -0.87742981045E+03  0.87742981046E+03  0.50400001928E-02 0. -1.
    10030    2    1    2    0    0  0.00000000000E+00  0.00000000000E+00 -0.73857997842E+03  0.10162796426E+04  0.69808590259E+03 0.  0.
        4    1    3    3  502    0 -0.21199926981E+02 -0.11558804050E+03 -0.84776042899E+03  0.85586762403E+03  0.12699999809E+01 0. -1.
       -4    1    3    3    0  502  0.21199926981E+02  0.11558804050E+03  0.10918045056E+03  0.16041201855E+03  0.12699999809E+01 0.  1.
</event>
<event>
 5   0  0.2006362E-02  0.6898478E+03  0.7818609E-02  0.9734753E-01
       -2   -1    0    0    0  501  0.00000000000E+00  0.00000000000E+00  0.13905452685E+03  0.13905452688E+03  0.25500000920E-02 0. -1.
        2   -1    0    0  501    0  0.00000000000E+00  0.00000000000E+00 -0.85558155377E+03  0.85558155377E+03  0.25500000920E-02 0.  1.
    10030    2    1    2    0    0  0.00000000000E+00  0.00000000000E+00 -0.71652702691E+03  0.99463608065E+03  0.68984777497E+03 0.  0.
        4    1    3    3  502    0  0.15242038468E+03  0.24658301923E+01  0.87845882442E+02  0.17594478096E+03  0.12699999809E+01 0. -1.
       -4    1    3    3    0  502 -0.15242038468E+03 -0.24658301923E+01 -0.80437290936E+03  0.81869129969E+03  0.12699999809E+01 0.  1.
</event>
<event>
 5   0  0.1948138E-02  0.7035110E+03  0.7818609E-02  0.9711247E-01
        2   -1    0    0  501    0  0.00000000000E+00  0.00000000000E+00  0.21463408448E+03  0.21463408450E+03  0.25500000920E-02 0. -1.
       -2   -1    0    0    0  501  0.00000000000E+00  0.00000000000E+00 -0.57647855351E+03  0.57647855352E+03  0.25500000920E-02 0.  1.
    10030    2    1    2    0    0  0.00000000000E+00  0.00000000000E+00 -0.36184446903E+03  0.79111263801E+03  0.70351104203E+03 0.  0.
        3    1    3    3  502    0 -0.20663836338E+03  0.10130889679E+03 -0.48007224839E+03  0.53238358320E+03  0.10100000352E+00 0.  1.
       -3    1    3    3    0  502  0.20663836338E+03 -0.10130889679E+03  0.11822777936E+03  0.25872905481E+03  0.10100000352E+00 0. -1.
</event>
<event>
 5   0  0.1237686E-02  0.7415737E+03  0.7818609E-02  0.9648663E-01
       -1   -1    0    0    0  501  0.00000000000E+00  0.00000000000E+00  0.47683865444E+03  0.47683865446E+03  0.50400001928E-02 0.  1.
        1   -1    0    0  501    0  0.00000000000E+00  0.00000000000E+00 -0.28832161491E+03  0.28832161496E+03  0.50400001928E-02 0. -1.
    10030    2    1    2    0    0  0.00000000000E+00  0.00000000000E+00  0.18851703952E+03  0.76516026942E+03  0.74157370754E+03 0.  0.
        5    1    3    3  502    0  0.16922934329E+03 -0.23212619940E+03  0.33610571944E+03  0.44216545287E+03  0.46999998093E+01 0.  1.
       -5    1    3    3    0  502 -0.16922934329E+03  0.23212619940E+03 -0.14758867992E+03  0.32299481655E+03  0.46999998093E+01 0. -1.
</event>
<event>
 5   0  0.2026361E-02  0.7005719E+03  0.7818609E-02  0.9716255E-01
       -2   -1    0    0    0  501  0.00000000000E+00  0.00000000000E+00  0.21997812704E+03  0.21997812705E+03  0.25500000920E-02 0.  1.
        2   -1    0    0  501    0  0.00000000000E+00  0.00000000000E+00 -0.55778392692E+03  0.55778392692E+03  0.25500000920E-02 0. -1.
    10030    2    1    2    0    0  0.00000000000E+00  0.00000000000E+00 -0.33780579988E+03  0.77776205397E+03  0.70057194789E+03 0.  0.
        2    1    3    3  502    0  0.32283255619E+03 -0.45426213630E+02 -0.26661548161E+02  0.32710126624E+03  0.25500000920E-02 0.  1.
       -2    1    3    3    0  502 -0.32283255619E+03  0.45426213630E+02 -0.31114425172E+03  0.45066078773E+03  0.25500000920E-02 0. -1.
</event>
<event>
 5   0  0.1237686E-02  0.7005127E+03  0.7818609E-02  0.9716356E-01
        1   -1    0    0  501    0  0.00000000000E+00  0.00000000000E+00  0.27937339250E+04  0.27937339250E+04  0.50400001928E-02 0.  1.
       -1   -1    0    0    0  501  0.00000000000E+00  0.00000000000E+00 -0.43912377262E+02  0.43912377551E+02  0.50400001928E-02 0. -1.
    10030    2    1    2    0    0  0.00000000000E+00  0.00000000000E+00  0.27498215477E+04  0.28376463025E+04  0.70051266512E+03 0.  0.
        5    1    3    3  502    0 -0.32101491630E+03 -0.13284125552E+02  0.81025634502E+03  0.87164469775E+03  0.46999998093E+01 0. -1.
       -5    1    3    3    0  502  0.32101491630E+03  0.13284125552E+02  0.19395652027E+04  0.19660016048E+04  0.46999998093E+01 0.  1.
</event>
<event>
 5   0  0.2026361E-02  0.6894209E+03  0.7818609E-02  0.9735497E-01
       -2   -1    0    0    0  501  0.00000000000E+00  0.00000000000E+00  0.36901807719E+03  0.36901807720E+03  0.25500000920E-02 0.  1.
        2   -1    0    0  501    0  0.00000000000E+00  0.00000000000E+00 -0.32200398336E+03  0.32200398337E+03  0.25500000920E-02 0. -1.
    10030    2    1    2    0    0  0.00000000000E+00  0.00000000000E+00  0.47014093833E+02  0.69102206057E+03  0.68942088972E+03 0.  0.
        2    1    3    3  502    0  0.93738889101E+02  0.33168807925E+03  0.28136164905E+02  0.34582597506E+03  0.25500000920E-02 0.  1.
       -2    1    3    3    0  502 -0.93738889101E+02 -0.33168807925E+03  0.18877928928E+02  0.34519608551E+03  0.25500000920E-02 0. -1.
</event>
<event>
 5   0  0.1197259E-02  0.6993646E+03  0.7818609E-02  0.9718319E-01
       -1   -1    0    0    0  501  0.00000000000E+00  0.00000000000E+00  0.78215427670E+02  0.78215427832E+02  0.50400001928E-02 0.  1.
        1   -1    0    0  501    0  0.00000000000E+00  0.00000000000E+00 -0.15633452625E+04  0.15633452625E+04  0.50400001928E-02 0. -1.
    10030    2    1    2    0    0  0.00000000000E+00  0.00000000000E+00 -0.14851298348E+04  0.16415606903E+04  0.69936462147E+03 0.  0.
        3    1    3    3  502    0  0.87096521824E+02  0.31857387986E+03 -0.47286376206E+03  0.57678008696E+03  0.10100000352E+00 0.  1.
       -3    1    3    3    0  502 -0.87096521824E+02 -0.31857387986E+03 -0.10122660728E+04  0.10647806034E+04  0.10100000352E+00 0. -1.
</event>
<event>
 5   0  0.1948138E-02  0.6989728E+03  0.7818609E-02  0.9718991E-01
       -2   -1    0    0    0  501  0.00000000000E+00  0.00000000000E+00  0.19986912483E+03  0.19986912485E+03  0.25500000920E-02 0. -1.
        2   -1    0    0  501    0  0.00000000000E+00  0.00000000000E+00 -0.61110355382E+03  0.61110355382E+03  0.25500000920E-02 0.  1.
    10030    2    1    2    0    0  0.00000000000E+00  0.00000000000E+00 -0.41123442899E+03  0.81097267867E+03  0.69897276769E+03 0.  0.
        3    1    3    3  502    0  0.29071401601E+03  0.11884437929E+02 -0.43025034912E+03  0.51939508285E+03  0.10100000352E+00 0.  1.
       -3    1    3    3    0  502 -0.29071401601E+03 -0.11884437929E+02  0.19015920133E+02  0.29157759582E+03  0.10100000352E+00 0. -1.
</event>
<event>
 5   0  0.1223742E-02  0.6951793E+03  0.7818609E-02  0.9725512E-01
        1   -1    0    0  501    0  0.00000000000E+00  0.00000000000E+00  0.70622482765E+03  0.70622482766E+03  0.50400001928E-02 0.  1.
       -1   -1    0    0    0  501  0.00000000000E+00  0.00000000000E+00 -0.17107663305E+03  0.17107663312E+03  0.50400001928E-02 0. -1.
    10030    2    1    2    0    0  0.00000000000E+00  0.00000000000E+00  0.53514819460E+03  0.87730146078E+03  0.69517930271E+03 0.  0.
        2    1    3    3  502    0  0.81182124199E+02 -0.52681603556E+01  0.69404125690E+03  0.69879292862E+03  0.25500000920E-02 0.  1.
       -2    1    3    3    0  502 -0.81182124199E+02  0.52681603556E+01 -0.15889306230E+03  0.17850853217E+03  0.25500000920E-02 0. -1.
</event>
<event>
 5   0  0.1257442E-02  0.7181687E+03  0.7818609E-02  0.9686656E-01
        1   -1    0    0  501    0  0.00000000000E+00  0.00000000000E+00  0.49419966022E+03  0.49419966024E+03  0.50400001928E-02 0. -1.
       -1   -1    0    0    0  501  0.00000000000E+00  0.00000000000E+00 -0.26090985871E+03  0.26090985876E+03  0.50400001928E-02 0.  1.
    10030    2    1    2    0    0  0.00000000000E+00  0.00000000000E+00  0.23328980151E+03  0.75510951900E+03  0.71816868088E+03 0.  0.
        1    1    3    3  502    0 -0.38509592974E+02  0.15766118235E+03  0.45343583616E+03  0.48160574614E+03  0.50400001928E-02 0. -1.
       -1    1    3    3    0  502  0.38509592974E+02 -0.15766118235E+03 -0.22014603465E+03  0.27350377286E+03  0.50400001928E-02 0.  1.
</event>
<event>
 5   0  0.2026361E-02  0.7037182E+03  0.7818609E-02  0.9710895E-01
       -2   -1    0    0    0  501  0.00000000000E+00  0.00000000000E+00  0.95409036641E+02  0.95409036675E+02  0.25500000920E-02 0.  1.
        2   -1    0    0  501    0  0.00000000000E+00  0.00000000000E+00 -0.12976214800E+04  0.12976214800E+04  0.25500000920E-02 0. -1.
    10030    2    1    2    0    0  0.00000000000E+00  0.00000000000E+00 -0.12022124433E+04  0.13930305166E+04  0.70371816902E+03 0.  0.
        2    1    3    3  502    0 -0.79931095456E+02  0.18860417332E+03 -0.34793798630E+02  0.20777661718E+03  0.25500000920E-02 0.  1.
       -2    1    3    3    0  502  0.79931095456E+02 -0.18860417332E+03 -0.11674186447E+04  0.11852538995E+04  0.25500000920E-02 0. -1.
</event>
<event>
 5   0  0.1197259E-02  0.6987679E+03  0.7818609E-02  0.9719342E-01
       -1   -1    0    0    0  501  0.00000000000E+00  0.00000000000E+00  0.17701206915E+03  0.17701206922E+03  0.50400001928E-02 0.  1.
        1   -1    0    0  501    0  0.00000000000E+00  0.00000000000E+00 -0.68960923950E+03  0.68960923952E+03  0.50400001928E-02 0. -1.
    10030    2    1    2    0    0  0.00000000000E+00  0.00000000000E+00 -0.51259717035E+03  0.86662130874E+03  0.69876793982E+03 0.  0.
        3    1    3    3  502    0  0.22093585224E+03 -0.13801845811E+03 -0.54505104444E+03  0.60410462408E+03  0.10100000352E+00 0. -1.
       -3    1    3    3    0  502 -0.22093585224E+03  0.13801845811E+03  0.32453874090E+02  0.26251668467E+03  0.10100000352E+00 0.  1.
</event>
<event>
 5   0  0.2006362E-02  0.7024454E+03  0.7818609E-02  0.9713059E-01
        2   -1    0    0  501    0  0.00000000000E+00  0.00000000000E+00  0.96510402824E+03  0.96510402824E+03  0.25500000920E-02 0.  1.
       -2   -1    0    0    0  501  0.00000000000E+00  0.00000000000E+00 -0.12781769485E+03  0.12781769488E+03  0.25500000920E-02 0. -1.
    10030    2    1    2    0    0  0.00000000000E+00  0.00000000000E+00  0.83728633339E+03  0.10929217231E+04  0.70244536357E+03 0.  0.
        4    1    3    3  502    0  0.22819496430E+03 -0.61737199618E+02  0.14499142181E+02  0.23684649369E+03  0.12699999809E+01 0. -1.
       -4    1    3    3    0  502 -0.22819496430E+03  0.61737199618E+02  0.82278719120E+03  0.85607522944E+03  0.12699999809E+01 0.  1.
</event>
<event>
 5   0  0.1948138E-02  0.6906780E+03  0.7818609E-02  0.9733308E-01
       -2   -1    0    0    0  501  0.00000000000E+00  0.00000000000E+00  0.60219632452E+02  0.60219632506E+02  0.25500000920E-02 0.  1.
        2   -1    0    0  501    0  0.00000000000E+00  0.00000000000E+00 -0.19804010302E+04  0.19804010302E+04  0.25500000920E-02 0. -1.
    10030    2    1    2    0    0  0.00000000000E+00  0.00000000000E+00 -0.19201813977E+04  0.20406206627E+04  0.69067799213E+03 0.  0.
        3    1    3    3  502    0 -0.41601650914E+02 -0.31083817031E+03 -0.53287977185E+03  0.61831377708E+03  0.10100000352E+00 0.  1.
       -3    1    3    3    0  502  0.41601650914E+02  0.31083817031E+03 -0.13873016259E+04  0.14223068856E+04  0.10100000352E+00 0. -1.
</event>
<event>
 5   0  0.1973067E-02  0.6908530E+03  0.7818609E-02  0.9733004E-01
       -2   -1    0    0    0  501  0.00000000000E+00  0.00000000000E+00  0.12208354866E+03  0.12208354869E+03  0.25500000920E-02 0. -1.
        2   -1    0    0  501    0  0.00000000000E+00  0.00000000000E+00 -0.97735919991E+03  0.97735919992E+03  0.25500000920E-02 0.  1.
    10030    2    1    2    0    0  0.00000000000E+00  0.00000000000E+00 -0.85527565125E+03  0.10994427486E+04  0.69085303635E+03 0.  0.
        5    1    3    3  502    0 -0.12688254091E+03  0.41207250104E+02  0.79376627168E+02  0.15530600628E+03  0.46999998093E+01 0. -1.
       -5    1    3    3    0  502  0.12688254091E+03 -0.41207250104E+02 -0.93465227842E+03  0.94413674232E+03  0.46999998093E+01 0.  1.
</event>
<event>
 5   0  0.1226303E-02  0.6664000E+03  0.7818609E-02  0.9776483E-01
       -1   -1    0    0    0  501  0.00000000000E+00  0.00000000000E+00  0.90467134059E+02  0.90467134200E+02  0.50400001928E-02 0. -1.
        1   -1    0    0  501    0  0.00000000000E+00  0.00000000000E+00 -0.12272105966E+04  0.12272105966E+04  0.50400001928E-02 0.  1.
    10030    2    1    2    0    0  0.00000000000E+00  0.00000000000E+00 -0.11367434626E+04  0.13176777308E+04  0.66639995697E+03 0.  0.
        4    1    3    3  502    0 -0.27964289696E+03  0.12776690891E+03 -0.82233132409E+03  0.87792650736E+03  0.12699999809E+01 0.  1.
       -4    1    3    3    0  502  0.27964289696E+03 -0.12776690891E+03 -0.31441213847E+03  0.43975122348E+03  0.12699999809E+01 0. -1.
</event>
<event>
 5   0  0.1257442E-02  0.6926940E+03  0.7818609E-02  0.9729809E-01
        1   -1    0    0  501    0  0.00000000000E+00  0.00000000000E+00  0.38829454056E+03  0.38829454059E+03  0.50400001928E-02 0. -1.
       -1   -1    0    0    0  501  0.00000000000E+00  0.00000000000E+00 -0.30893107329E+03  0.30893107333E+03  0.50400001928E-02 0.  1.
    10030    2    1    2    0    0  0.00000000000E+00  0.00000000000E+00  0.79363467272E+02  0.69722561392E+03  0.69269401381E+03 0.  0.
        1    1    3    3  502    0  0.14955777588E+03  0.31185367284E+02 -0.27318317936E+03  0.31300016768E+03  0.50400001928E-02 0.  1.
       -1    1    3    3    0  502 -0.14955777588E+03 -0.31185367284E+02  0.35254664663E+03  0.38422544624E+03  0.50400001928E-02 0. -1.
</event>
<event>
 5   0  0.1237686E-02  0.7217527E+03  0.7818609E-02  0.9680739E-01
       -1   -1    0    0    0  501  0.00000000000E+00  0.00000000000E+00  0.38931495412E+03  0.38931495416E+03  0.50400001928E-02 0.  1.
        1   -1    0    0  501    0  0.00000000000E+00  0.00000000000E+00 -0.33451513457E+03  0.33451513461E+03  0.50400001928E-02 0. -1.
    10030    2    1    2    0    0  0.00000000000E+00  0.00000000000E+00  0.54799819555E+02  0.72383008876E+03  0.72175271193E+03 0.  0.
        5    1    3    3  502    0  0.81290348368E+02  0.34646843320E+03 -0.32447292214E+02  0.35738412487E+03  0.46999998093E+01 0.  1.
       -5    1    3    3    0  502 -0.81290348368E+02 -0.34646843320E+03  0.87247111769E+02  0.36644596389E+03  0.46999998093E+01 0. -1.
</event>
<event>
 5   0  0.2006362E-02  0.6949709E+03  0.7818609E-02  0.9725871E-01
       -2   -1    0    0    0  501  0.00000000000E+00  0.00000000000E+00  0.12943956064E+03  0.12943956066E+03  0.25500000920E-02 0.  1.
        2   -1    0    0  501    0  0.00000000000E+00  0.00000000000E+00 -0.93283794374E+03  0.93283794374E+03  0.25500000920E-02 0. -1.
    10030    2    1    2    0    0  0.00000000000E+00  0.00000000000E+00 -0.80339838310E+03  0.10622775044E+04  0.69497088745E+03 0.  0.
        4    1    3    3  502    0  0.25937838524E+03 -0.55870234423E+02 -0.74466702301E+03  0.79052464723E+03  0.12699999809E+01 0. -1.
       -4    1    3    3    0  502 -0.25937838524E+03  0.55870234423E+02 -0.58731360090E+02  0.27175285717E+03  0.12699999809E+01 0.  1.
</event>
<event>
 5   0  0.1909053E-02  0.6792906E+03  0.7818609E-02  0.9753318E-01
       -2   -1    0    0    0  501  0.00000000000E+00  0.00000000000E+00  0.33616610775E+03  0.33616610776E+03  0.25500000920E-02 0. -1.
        2   -1    0    0  501    0  0.00000000000E+00  0.00000000000E+00 -0.34316052974E+03  0.34316052975E+03  0.25500000920E-02 0.  1.
    10030    2    1    2    0    0  0.00000000000E+00  0.00000000000E+00 -0.69944219867E+01  0.67932663751E+03  0.67929062888E+03 0.  0.
        1    1    3    3  502    0  0.23259331708E+02  0.10433395455E+03 -0.32589973586E+03  0.34298281071E+03  0.50400001928E-02 0.  1.
       -1    1    3    3    0  502 -0.23259331708E+02 -0.10433395455E+03  0.31890531387E+03  0.33634382680E+03  0.50400001928E-02 0. -1.
</event>
<event>
 5   0  0.1973067E-02  0.7009763E+03  0.7818609E-02  0.9715564E-01
       -2   -1    0    0    0  501  0.00000000000E+00  0.00000000000E+00  0.11139941256E+03  0.11139941259E+03  0.25500000920E-02 0.  1.
        2   -1    0    0  501    0  0.00000000000E+00  0.00000000000E+00 -0.11027162415E+04  0.11027162416E+04  0.25500000920E-02 0. -1.
    10030    2    1    2    0    0  0.00000000000E+00  0.00000000000E+00 -0.99131682899E+03  0.12141156541E+04  0.70097629503E+03 0.  0.
        5    1    3    3  502    0 -0.25683935880E+03  0.14252829287E+03 -0.16457643933E+03  0.33673174023E+03  0.46999998093E+01 0.  1.
       -5    1    3    3    0  502  0.25683935880E+03 -0.14252829287E+03 -0.82674038966E+03  0.87738391391E+03  0.46999998093E+01 0. -1.
</event>
<event>
 5   0  0.2006362E-02  0.7019143E+03  0.7818609E-02  0.9713964E-01
       -2   -1    0    0    0  501  0.00000000000E+00  0.00000000000E+00  0.17620256236E+03  0.17620256238E+03  0.25500000920E-02 0.  1.
        2   -1    0    0  501    0  0.00000000000E+00  0.00000000000E+00 -0.69903019922E+03  0.69903019922E+03  0.25500000920E-02 0. -1.
    10030    2    1    2    0    0  0.00000000000E+00  0.00000000000E+00 -0.52282763685E+03  0.87523276160E+03  0.70191427477E+03 0.  0.
        4    1    3    3  502    0 -0.18223812986E+03  0.28797721884E+03 -0.36594494464E+03  0.50005892648E+03  0.12699999809E+01 0.  1.
       -4    1    3    3    0  502  0.18223812986E+03 -0.28797721884E+03 -0.15688269221E+03  0.37517383512E+03  0.12699999809E+01 0. -1.
</event>
<event>
 5   0  0.2026361E-02  0.7071275E+03  0.7818609E-02  0.9705120E-01
       -2   -1    0    0    0  501  0.00000000000E+00  0.00000000000E+00  0.17553446675E+03  0.17553446676E+03  0.25500000920E-02 0.  1.
        2   -1    0    0  501    0  0.00000000000E+00  0.00000000000E+00 -0.71215249317E+03  0.71215249317E+03  0.25500000920E-02 0. -1.
    10030    2    1    2    0    0  0.00000000000E+00  0.00000000000E+00 -0.53661802642E+03  0.88768695994E+03  0.70712745143E+03 0.  0.
        2    1    3    3  502    0 -0.18516569460E+03  0.27558461528E+03 -0.42089426701E+03  0.53608320123E+03  0.25500000920E-02 0.  1.
       -2    1    3    3    0  502  0.18516569460E+03 -0.27558461528E+03 -0.11572375941E+03  0.35160375870E+03  0.25500000920E-02 0. -1.
</event>
<event>
 5   0  0.1973067E-02  0.6977084E+03  0.7818609E-02  0.9721159E-01
        2   -1    0    0  501    0  0.00000000000E+00  0.00000000000E+00  0.77684792780E+03  0.77684792781E+03  0.25500000920E-02 0. -1.
       -2   -1    0    0    0  501  0.00000000000E+00  0.00000000000E+00 -0.15665775834E+03  0.15665775836E+03  0.25500000920E-02 0.  1.
    10030    2    1    2    0    0  0.00000000000E+00  0.00000000000E+00  0.62019016947E+03  0.93350568617E+03  0.69770840600E+03 0.  0.
        5    1    3    3  502    0 -0.27205544722E+03 -0.16301891388E+03  0.11580126699E+03  0.33767048447E+03  0.46999998093E+01 0. -1.
       -5    1    3    3    0  502  0.27205544722E+03  0.16301891388E+03  0.50438890248E+03  0.59583520170E+03  0.46999998093E+01 0.  1.
</event>
<event>
 5   0  0.1973067E-02  0.7019066E+03  0.7818609E-02  0.9713977E-01
       -2   -1    0    0    0  501  0.00000000000E+00  0.00000000000E+00  0.12667667226E+03  0.12667667229E+03  0.25500000920E-02 0. -1.
        2   -1    0    0  501    0  0.00000000000E+00  0.00000000000E+00 -0.97230382644E+03  0.97230382645E+03  0.25500000920E-02 0.  1.
    10030    2    1    2    0    0  0.00000000000E+00  0.00000000000E+00 -0.84562715419E+03  0.10989804987E+04  0.70190658403E+03 0.  0.
        5    1    3    3  502    0  0.76280478009E+02 -0.25753715222E+03 -0.77640717123E+03  0.82156818441E+03  0.46999998093E+01 0.  1.
       -5    1    3    3    0  502 -0.76280478009E+02  0.25753715222E+03 -0.69219982955E+02  0.27741231432E+03  0.46999998093E+01 0. -1.
</event>
<event>
 5   0  0.7947250E-03  0.7003489E+03  0.7818609E-02  0.9716636E-01
       -4   -1    0    0    0  501  0.00000000000E+00  0.00000000000E+00  0.12032220901E+03  0.12032891125E+03  0.12699999809E+01 0. -1.
        4   -1    0    0  501    0  0.00000000000E+00  0.00000000000E+00 -0.10190792405E+04  0.10190800319E+04  0.12699999809E+01 0.  1.
    10030    2    1    2    0    0  0.00000000000E+00  0.00000000000E+00 -0.89875703151E+03  0.11394089431E+04  0.70034886876E+03 0.  0.
        3    1    3    3  502    0  0.14451782894E+03  0.31136487976E+03 -0.56196103748E+03  0.65850870084E+03  0.10100000352E+00 0.  1.
       -3    1    3    3    0  502 -0.14451782894E+03 -0.31136487976E+03 -0.33679599402E+03  0.48090024228E+03  0.10100000352E+00 0. -1.
</event>
<event>
 5   0  0.7947250E-03  0.7034010E+03  0.7818609E-02  0.9711434E-01
       -4   -1    0    0    0  501  0.00000000000E+00  0.00000000000E+00  0.11445453386E+04  0.11445460432E+04  0.12699999809E+01 0.  1.
        4   -1    0    0  501    0  0.00000000000E+00  0.00000000000E+00 -0.10806746504E+03  0.10807492725E+03  0.12699999809E+01 0. -1.
    10030    2    1    2    0    0  0.00000000000E+00  0.00000000000E+00  0.10364778736E+04  0.12526209705E+04  0.70340096191E+03 0.  0.
        5    1    3    3  502    0  0.47911529281E+02 -0.34280872478E+03  0.62884697271E+03  0.71783280888E+03  0.46999998093E+01 0.  1.
       -5    1    3    3    0  502 -0.47911529281E+02  0.34280872478E+03  0.40763090086E+03  0.53478816157E+03  0.46999998093E+01 0. -1.
</event>
<event>
 5   0  0.7947250E-03  0.7091573E+03  0.7818609E-02  0.9701699E-01
       -4   -1    0    0    0  501  0.00000000000E+00  0.00000000000E+00  0.11738682580E+04  0.11738689450E+04  0.12699999809E+01 0.  1.
        4   -1    0    0  501    0  0.00000000000E+00  0.00000000000E+00 -0.10709955712E+03  0.10710708677E+03  0.12699999809E+01 0. -1.
    10030    2    1    2    0    0  0.00000000000E+00  0.00000000000E+00  0.10667687009E+04  0.12809760318E+04  0.70915733994E+03 0.  0.
        2    1    3    3  502    0  0.19274119026E+03  0.18256011966E+03  0.10880456495E+03  0.28690729700E+03  0.25500000920E-02 0. -1.
       -2    1    3    3    0  502 -0.19274119026E+03 -0.18256011966E+03  0.95796413592E+03  0.99406873476E+03  0.25500000920E-02 0.  1.
</event>
<event>
 5   0  0.1197259E-02  0.6975188E+03  0.7818609E-02  0.9721485E-01
       -1   -1    0    0    0  501  0.00000000000E+00  0.00000000000E+00  0.10604739874E+03  0.10604739886E+03  0.50400001928E-02 0.  1.
        1   -1    0    0  501    0  0.00000000000E+00  0.00000000000E+00 -0.11469692267E+04  0.11469692267E+04  0.50400001928E-02 0. -1.
    10030    2    1    2    0    0  0.00000000000E+00  0.00000000000E+00 -0.10409218280E+04  0.12530166256E+04  0.69751875389E+03 0.  0.
        3    1    3    3  502    0  0.30752642213E+03  0.14866707487E+03 -0.64695917940E+03  0.73159455265E+03  0.10100000352E+00 0. -1.
       -3    1    3    3    0  502 -0.30752642213E+03 -0.14866707487E+03 -0.39396264857E+03  0.52142207292E+03  0.10100000352E+00 0.  1.
</event>
<event>
 5   0  0.1948138E-02  0.7034414E+03  0.7818609E-02  0.9711365E-01
        2   -1    0    0  501    0  0.00000000000E+00  0.00000000000E+00  0.11975695337E+04  0.11975695337E+04  0.25500000920E-02 0. -1.
       -2   -1    0    0    0  501  0.00000000000E+00  0.00000000000E+00 -0.10329875003E+03  0.10329875006E+03  0.25500000920E-02 0.  1.
    10030    2    1    2    0    0  0.00000000000E+00  0.00000000000E+00  0.10942707837E+04  0.13008682838E+04  0.70344135768E+03 0.  0.
        3    1    3    3  502    0 -0.20333280415E+03  0.16800307416E+02  0.10769532638E+04  0.10961089463E+04  0.10100000352E+00 0. -1.
       -3    1    3    3    0  502  0.20333280415E+03 -0.16800307416E+02  0.17317519866E+02  0.20475933744E+03  0.10100000352E+00 0.  1.
</event>
<event>
 5   0  0.1257442E-02  0.6999329E+03  0.7818609E-02  0.9717347E-01
       -1   -1    0    0    0  501  0.00000000000E+00  0.00000000000E+00  0.13101285140E+03  0.13101285150E+03  0.50400001928E-02 0. -1.
        1   -1    0    0  501    0  0.00000000000E+00  0.00000000000E+00 -0.93484351978E+03  0.93484351979E+03  0.50400001928E-02 0.  1.
    10030    2    1    2    0    0  0.00000000000E+00  0.00000000000E+00 -0.80383066837E+03  0.10658563713E+04  0.69993289736E+03 0.  0.
        1    1    3    3  502    0  0.19112805543E+03  0.27239683239E+03 -0.23687222540E+03  0.40845858916E+03  0.50400001928E-02 0. -1.
       -1    1    3    3    0  502 -0.19112805543E+03 -0.27239683239E+03 -0.56695844297E+03  0.65739778213E+03  0.50400001928E-02 0.  1.
</event>
<event>
 5   0  0.1223742E-02  0.6938900E+03  0.7818609E-02  0.9727738E-01
        1   -1    0    0  501    0  0.00000000000E+00  0.00000000000E+00  0.75423184761E+03  0.75423184762E+03  0.50400001928E-02 0. -1.
       -1   -1    0    0    0  501  0.00000000000E+00  0.00000000000E+00 -0.15959394734E+03  0.15959394742E+03  0.50400001928E-02 0.  1.
    10030    2    1    2    0    0  0.00000000000E+00  0.00000000000E+00  0.59463790026E+03  0.91382579504E+03  0.69389001380E+03 0.  0.
        2    1    3    3  502    0  0.19457461836E+03  0.23926161553E+03  0.50665121190E+03  0.59312802437E+03  0.25500000920E-02 0. -1.
       -2    1    3    3    0  502 -0.19457461836E+03 -0.23926161553E+03  0.87986688368E+02  0.32069777067E+03  0.25500000920E-02 0.  1.
</event>
<event>
 5   0  0.1237686E-02  0.6194404E+03  0.7818609E-02  0.9865874E-01
       -1   -1    0    0    0  501  0.00000000000E+00  0.00000000000E+00  0.30290266439E+03  0.30290266443E+03  0.50400001928E-02 0.  1.
        1   -1    0    0  501    0  0.00000000000E+00  0.00000000000E+00 -0.31669120683E+03  0.31669120687E+03  0.50400001928E-02 0. -1.
    10030    2    1    2    0    0  0.00000000000E+00  0.00000000000E+00 -0.13788542436E+02  0.61959387130E+03  0.61944042607E+03 0.  0.
        5    1    3    3  502    0 -0.63011097302E+02  0.14684004005E+03 -0.27223743304E+03  0.31570192538E+03  0.46999998093E+01 0. -1.
       -5    1    3    3    0  502  0.63011097302E+02 -0.14684004005E+03  0.25844889060E+03  0.30389194592E+03  0.46999998093E+01 0.  1.
</event>
<event>
 5   0  0.2026361E-02  0.6863973E+03  0.7818609E-02  0.9740782E-01
        2   -1    0    0  501    0  0.00000000000E+00  0.00000000000E+00  0.39939952534E+03  0.39939952535E+03  0.25500000920E-02 0.  1.
       -2   -1    0    0    0  501  0.00000000000E+00  0.00000000000E+00 -0.29490602516E+03  0.29490602517E+03  0.25500000920E-02 0. -1.
    10030    2    1    2    0    0  0.00000000000E+00  0.00000000000E+00  0.10449350018E+03  0.69430555052E+03  0.68639733821E+03 0.  0.
        2    1    3    3  502    0  0.30332634582E+03  0.14939041466E+03 -0.72609597583E+01  0.33819682080E+03  0.25500000920E-02 0. -1.
       -2    1    3    3    0  502 -0.30332634582E+03 -0.14939041466E+03  0.11175445993E+03  0.35610872972E+03  0.25500000920E-02 0.  1.
</event>
<event>
 5   0  0.2006362E-02  0.7375064E+03  0.7818609E-02  0.9655157E-01
        2   -1    0    0  501    0  0.00000000000E+00  0.00000000000E+00  0.12109066220E+04  0.12109066220E+04  0.25500000920E-02 0.  1.
       -2   -1    0    0    0  501  0.00000000000E+00  0.00000000000E+00 -0.11229514834E+03  0.11229514837E+03  0.25500000920E-02 0. -1.
    10030    2    1    2    0    0  0.00000000000E+00  0.00000000000E+00  0.10986114736E+04  0.13232017704E+04  0.73750644408E+03 0.  0.
        4    1    3    3  502    0 -0.68881729232E+01  0.32798584746E+03  0.24718792781E+03  0.41076227628E+03  0.12699999809E+01 0. -1.
       -4    1    3    3    0  502  0.68881729232E+01 -0.32798584746E+03  0.85142354584E+03  0.91243949408E+03  0.12699999809E+01 0.  1.
</event>
<event>
 5   0  0.1197259E-02  0.7297276E+03  0.7818609E-02  0.9667703E-01
       -1   -1    0    0    0  501  0.00000000000E+00  0.00000000000E+00  0.95771860942E+02  0.95771861074E+02  0.50400001928E-02 0.  1.
        1   -1    0    0  501    0  0.00000000000E+00  0.00000000000E+00 -0.13900282077E+04  0.13900282077E+04  0.50400001928E-02 0. -1.
    10030    2    1    2    0    0  0.00000000000E+00  0.00000000000E+00 -0.12942563467E+04  0.14858000688E+04  0.72972758839E+03 0.  0.
        3    1    3    3  502    0  0.22521691840E+03 -0.48163426934E+02 -0.12233242852E+04  0.12448151240E+04  0.10100000352E+00 0. -1.
       -3    1    3    3    0  502 -0.22521691840E+03  0.48163426934E+02 -0.70932061511E+02  0.24098494472E+03  0.10100000352E+00 0.  1.
</event>
<event>
 5   0  0.2026361E-02  0.7006673E+03  0.7818609E-02  0.9716092E-01
       -2   -1    0    0    0  501  0.00000000000E+00  0.00000000000E+00  0.12581248861E+03  0.12581248864E+03  0.25500000920E-02 0.  1.
        2   -1    0    0  501    0  0.00000000000E+00  0.00000000000E+00 -0.97552859057E+03  0.97552859057E+03  0.25500000920E-02 0. -1.
    10030    2    1    2    0    0  0.00000000000E+00  0.00000000000E+00 -0.84971610195E+03  0.11013410792E+04  0.70066733821E+03 0.  0.
        2    1    3    3  502    0  0.89784225050E+02 -0.33555856270E+03 -0.49642320606E+03  0.60588510098E+03  0.25500000920E-02 0. -1.
       -2    1    3    3    0  502 -0.89784225050E+02  0.33555856270E+03 -0.35329289589E+03  0.49545597823E+03  0.25500000920E-02 0.  1.
</event>
<event>
 5   0  0.1237686E-02  0.7008506E+03  0.7818609E-02  0.9715779E-01
        1   -1    0    0  501    0  0.00000000000E+00  0.00000000000E+00  0.85527346092E+03  0.85527346094E+03  0.50400001928E-02 0. -1.
       -1   -1    0    0    0  501  0.00000000000E+00  0.00000000000E+00 -0.14357732937E+03  0.14357732946E+03  0.50400001928E-02 0.  1.
    10030    2    1    2    0    0  0.00000000000E+00  0.00000000000E+00  0.71169613155E+03  0.99885079040E+03  0.70085056739E+03 0.  0.
        5    1    3    3  502    0 -0.10697304878E+03 -0.11194489790E+03  0.80382497614E+03  0.81861564583E+03  0.46999998093E+01 0. -1.
       -5    1    3    3    0  502  0.10697304878E+03  0.11194489790E+03 -0.92128844588E+02  0.18023514456E+03  0.46999998093E+01 0.  1.
</event>
<event>
 5   0  0.7947250E-03  0.7008925E+03  0.7818609E-02  0.9715707E-01
        3   -1    0    0  501    0  0.00000000000E+00  0.00000000000E+00  0.13730353350E+03  0.13730357065E+03  0.10100000352E+00 0. -1.
       -3   -1    0    0    0  501  0.00000000000E+00  0.00000000000E+00 -0.89446037050E+03  0.89446037620E+03  0.10100000352E+00 0.  1.
    10030    2    1    2    0    0  0.00000000000E+00  0.00000000000E+00 -0.75715683700E+03  0.10317639468E+04  0.70089254969E+03 0.  0.
        4    1    3    3  502    0 -0.90998937920E+02 -0.32281548243E+03 -0.52812477221E+03  0.62562611064E+03  0.12699999809E+01 0.  1.
       -4    1    3    3    0  502  0.90998937920E+02  0.32281548243E+03 -0.22903206479E+03  0.40613783621E+03  0.12699999809E+01 0. -1.
</event>
<event>
 5   0  0.1226303E-02  0.7059225E+03  0.7818609E-02  0.9707157E-01
       -1   -1    0    0    0  501  0.00000000000E+00  0.00000000000E+00  0.21165825545E+03  0.21165825551E+03  0.50400001928E-02 0. -1.
        1   -1    0    0  501    0  0.00000000000E+00  0.00000000000E+00 -0.58859805163E+03  0.58859805165E+03  0.50400001928E-02 0.  1.
    10030    2    1    2    0    0  0.00000000000E+00  0.00000000000E+00 -0.37693979618E+03  0.80025630715E+03  0.70592247960E+03 0.  0.
        4    1    3    3  502    0  0.93262048731E+02 -0.11779915991E+03  0.17359301532E+03  0.22958789096E+03  0.12699999809E+01 0. -1.
       -4    1    3    3    0  502 -0.93262048731E+02  0.11779915991E+03 -0.55053281150E+03  0.57066841620E+03  0.12699999809E+01 0.  1.
</event>
<event>
 5   0  0.1223742E-02  0.6941828E+03  0.7818609E-02  0.9727232E-01
        1   -1    0    0  501    0  0.00000000000E+00  0.00000000000E+00  0.40125093167E+03  0.40125093171E+03  0.50400001928E-02 0. -1.
       -1   -1    0    0    0  501  0.00000000000E+00  0.00000000000E+00 -0.30024212837E+03  0.30024212842E+03  0.50400001928E-02 0.  1.
    10030    2    1    2    0    0  0.00000000000E+00  0.00000000000E+00  0.10100880330E+03  0.70149306012E+03  0.69418278217E+03 0.  0.
        2    1    3    3  502    0  0.16977282854E+03 -0.90994311431E+01  0.35629111362E+03  0.39477711511E+03  0.25500000920E-02 0. -1.
       -2    1    3    3    0  502 -0.16977282854E+03  0.90994311431E+01 -0.25528231032E+03  0.30671594502E+03  0.25500000920E-02 0.  1.
</event>
<event>
 5   0  0.1237686E-02  0.6998851E+03  0.7818609E-02  0.9717429E-01
       -1   -1    0    0    0  501  0.00000000000E+00  0.00000000000E+00  0.55535984042E+03  0.55535984044E+03  0.50400001928E-02 0. -1.
        1   -1    0    0  501    0  0.00000000000E+00  0.00000000000E+00 -0.22050529499E+03  0.22050529504E+03  0.50400001928E-02 0.  1.
    10030    2    1    2    0    0  0.00000000000E+00  0.00000000000E+00  0.33485454543E+03  0.77586513548E+03  0.69988509190E+03 0.  0.
        5    1    3    3  502    0  0.23781742886E+03  0.40324995557E+02 -0.11357584307E+03  0.26665482719E+03  0.46999998093E+01 0.  1.
       -5    1    3    3    0  502 -0.23781742886E+03 -0.40324995557E+02  0.44843038851E+03  0.50921030829E+03  0.46999998093E+01 0. -1.
</event>
<event>
 5   0  0.1257442E-02  0.7049433E+03  0.7818609E-02  0.9708816E-01
       -1   -1    0    0    0  501  0.00000000000E+00  0.00000000000E+00  0.48188283699E+03  0.48188283702E+03  0.50400001928E-02 0. -1.
        1   -1    0    0  501    0  0.00000000000E+00  0.00000000000E+00 -0.25781424867E+03  0.25781424872E+03  0.50400001928E-02 0.  1.
    10030    2    1    2    0    0  0.00000000000E+00  0.00000000000E+00  0.22406858832E+03  0.73969708574E+03  0.70494329302E+03 0.  0.
        1    1    3    3  502    0  0.18959217484E+02 -0.34829736315E+03  0.16518480468E+03  0.38594886297E+03  0.50400001928E-02 0. -1.
       -1    1    3    3    0  502 -0.18959217484E+02  0.34829736315E+03  0.58883783642E+02  0.35374822276E+03  0.50400001928E-02 0.  1.
</event>
<event>
 5   0  0.1948138E-02  0.6544418E+03  0.7818609E-02  0.9798480E-01
        2   -1    0    0  501    0  0.00000000000E+00  0.00000000000E+00  0.10036574995E+04  0.10036574995E+04  0.25500000920E-02 0. -1.
       -2   -1    0    0    0  501  0.00000000000E+00  0.00000000000E+00 -0.10668331159E+03  0.10668331162E+03  0.25500000920E-02 0.  1.
    10030    2    1    2    0    0  0.00000000000E+00  0.00000000000E+00  0.89697418794E+03  0.11103408111E+04  0.65444176446E+03 0.  0.
        3    1    3    3  502    0 -0.41808688732E+02 -0.19201063059E+03  0.45763617365E+01  0.19656297210E+03  0.10100000352E+00 0.  1.
       -3    1    3    3    0  502  0.41808688732E+02  0.19201063059E+03  0.89239782620E+03  0.91377783904E+03  0.10100000352E+00 0. -1.
</event>
<event>
 5   0  0.1948138E-02  0.6495779E+03  0.7818609E-02  0.9807571E-01
        2   -1    0    0  501    0  0.00000000000E+00  0.00000000000E+00  0.17580714697E+04  0.17580714697E+04  0.25500000920E-02 0. -1.
       -2   -1    0    0    0  501  0.00000000000E+00  0.00000000000E+00 -0.60002037376E+02  0.60002037430E+02  0.25500000920E-02 0.  1.
    10030    2    1    2    0    0  0.00000000000E+00  0.00000000000E+00  0.16980694323E+04  0.18180735071E+04  0.64957792477E+03 0.  0.
        3    1    3    3  502    0 -0.18377164896E+03 -0.12021740073E+03  0.17927415441E+03  0.28348452346E+03  0.10100000352E+00 0.  1.
       -3    1    3    3    0  502  0.18377164896E+03  0.12021740073E+03  0.15187952779E+04  0.15345889837E+04  0.10100000352E+00 0. -1.
</event>
<event>
 5   0  0.1237686E-02  0.7004167E+03  0.7818609E-02  0.9716520E-01
        1   -1    0    0  501    0  0.00000000000E+00  0.00000000000E+00  0.12657258377E+04  0.12657258377E+04  0.50400001928E-02 0.  1.
       -1   -1    0    0    0  501  0.00000000000E+00  0.00000000000E+00 -0.96897676368E+02  0.96897676499E+02  0.50400001928E-02 0. -1.
    10030    2    1    2    0    0  0.00000000000E+00  0.00000000000E+00  0.11688281613E+04  0.13626235142E+04  0.70041671220E+03 0.  0.
        5    1    3    3  502    0  0.22395814493E+02 -0.23505786372E+03  0.81336294595E+02  0.24978281491E+03  0.46999998093E+01 0. -1.
       -5    1    3    3    0  502 -0.22395814493E+02  0.23505786372E+03  0.10874918667E+04  0.11128406993E+04  0.46999998093E+01 0.  1.
</event>
<event>
 5   0  0.1197259E-02  0.6993871E+03  0.7818609E-02  0.9718281E-01
        1   -1    0    0  501    0  0.00000000000E+00  0.00000000000E+00  0.25908317176E+03  0.25908317181E+03  0.50400001928E-02 0.  1.
       -1   -1    0    0    0  501  0.00000000000E+00  0.00000000000E+00 -0.47199346356E+03  0.47199346358E+03  0.50400001928E-02 0. -1.
    10030    2    1    2    0    0  0.00000000000E+00  0.00000000000E+00 -0.21291029180E+03  0.73107663539E+03  0.69938705626E+03 0.  0.
        3    1    3    3  502    0  0.58485926878E+01  0.34643242972E+03 -0.15588318124E+03  0.37993316622E+03  0.10100000352E+00 0.  1.
       -3    1    3    3    0  502 -0.58485926878E+01 -0.34643242972E+03 -0.57027110559E+02  0.35114346917E+03  0.10100000352E+00 0. -1.
</event>
<event>
 5   0  0.1197259E-02  0.7002985E+03  0.7818609E-02  0.9716722E-01
       -1   -1    0    0    0  501  0.00000000000E+00  0.00000000000E+00  0.21358577090E+03  0.21358577096E+03  0.50400001928E-02 0.  1.
        1   -1    0    0  501    0  0.00000000000E+00  0.00000000000E+00 -0.57402937848E+03  0.57402937851E+03  0.50400001928E-02 0. -1.
    10030    2    1    2    0    0  0.00000000000E+00  0.00000000000E+00 -0.36044360758E+03  0.78761514946E+03  0.70029852878E+03 0.  0.
        3    1    3    3  502    0 -0.12143701945E+03 -0.13565280529E+03 -0.51660574458E+03  0.54775006966E+03  0.10100000352E+00 0. -1.
       -3    1    3    3    0  502  0.12143701945E+03  0.13565280529E+03  0.15616213700E+03  0.23986507980E+03  0.10100000352E+00 0.  1.
</event>
<event>
 5   0  0.2026361E-02  0.6982673E+03  0.7818609E-02  0.9720200E-01
       -2   -1    0    0    0  501  0.00000000000E+00  0.00000000000E+00  0.60974511505E+02  0.60974511559E+02  0.25500000920E-02 0.  1.
        2   -1    0    0  501    0  0.00000000000E+00  0.00000000000E+00 -0.19991027458E+04  0.19991027458E+04  0.25500000920E-02 0. -1.
    10030    2    1    2    0    0  0.00000000000E+00  0.00000000000E+00 -0.19381282343E+04  0.20600772574E+04  0.69826732254E+03 0.  0.
        2    1    3    3  502    0 -0.22515675833E+03 -0.26657755537E+03 -0.93476545610E+03  0.99777032266E+03  0.25500000920E-02 0. -1.
       -2    1    3    3    0  502  0.22515675833E+03  0.26657755537E+03 -0.10033627782E+04  0.10623069347E+04  0.25500000920E-02 0.  1.
</event>
<event>
 5   0  0.2026361E-02  0.7060829E+03  0.7818609E-02  0.9706886E-01
        2   -1    0    0  501    0  0.00000000000E+00  0.00000000000E+00  0.10267726939E+04  0.10267726939E+04  0.25500000920E-02 0. -1.
       -2   -1    0    0    0  501  0.00000000000E+00  0.00000000000E+00 -0.12138836881E+03  0.12138836883E+03  0.25500000920E-02 0.  1.
    10030    2    1    2    0    0  0.00000000000E+00  0.00000000000E+00  0.90538432507E+03  0.11481610627E+04  0.70608289163E+03 0.  0.
        2    1    3    3  502    0  0.25198976369E+03 -0.80885320819E+02  0.83264654795E+03  0.87369419704E+03  0.25500000920E-02 0. -1.
       -2    1    3    3    0  502 -0.25198976369E+03  0.80885320819E+02  0.72737777121E+02  0.27446686567E+03  0.25500000920E-02 0.  1.
</event>
<event>
 5   0  0.1226303E-02  0.6754964E+03  0.7818609E-02  0.9760079E-01
        1   -1    0    0  501    0  0.00000000000E+00  0.00000000000E+00  0.50868238086E+03  0.50868238089E+03  0.50400001928E-02 0.  1.
       -1   -1    0    0    0  501  0.00000000000E+00  0.00000000000E+00 -0.22425358394E+03  0.22425358399E+03  0.50400001928E-02 0. -1.
    10030    2    1    2    0    0  0.00000000000E+00  0.00000000000E+00  0.28442879692E+03  0.73293596488E+03  0.67549640125E+03 0.  0.
        4    1    3    3  502    0  0.11098484096E+03 -0.21300017320E+03 -0.11543362141E+03  0.26648309995E+03  0.12699999809E+01 0. -1.
       -4    1    3    3    0  502 -0.11098484096E+03  0.21300017320E+03  0.39986241834E+03  0.46645286493E+03  0.12699999809E+01 0.  1.
</event>
<event>
 5   0  0.1909053E-02  0.7103498E+03  0.7818609E-02  0.9699695E-01
       -2   -1    0    0    0  501  0.00000000000E+00  0.00000000000E+00  0.15370584547E+03  0.15370584549E+03  0.25500000920E-02 0. -1.
        2   -1    0    0  501    0  0.00000000000E+00  0.00000000000E+00 -0.82071838765E+03  0.82071838765E+03  0.25500000920E-02 0.  1.
    10030    2    1    2    0    0  0.00000000000E+00  0.00000000000E+00 -0.66701254218E+03  0.97442423314E+03  0.71034981151E+03 0.  0.
        1    1    3    3  502    0 -0.26399700411E+03  0.20556088109E+03 -0.49696669949E+03  0.59910399301E+03  0.50400001928E-02 0.  1.
       -1    1    3    3    0  502  0.26399700411E+03 -0.20556088109E+03 -0.17004584269E+03  0.37532024013E+03  0.50400001928E-02 0. -1.
</event>
<event>
 5   0  0.7947250E-03  0.6960409E+03  0.7818609E-02  0.9724027E-01
       -3   -1    0    0    0  501  0.00000000000E+00  0.00000000000E+00  0.23839001823E+03  0.23839003962E+03  0.10100000352E+00 0.  1.
        3   -1    0    0  501    0  0.00000000000E+00  0.00000000000E+00 -0.50806754675E+03  0.50806755679E+03  0.10100000352E+00 0. -1.
    10030    2    1    2    0    0  0.00000000000E+00  0.00000000000E+00 -0.26967752852E+03  0.74645759641E+03  0.69604092829E+03 0.  0.
        2    1    3    3  502    0  0.14712136241E+03  0.31525202023E+03 -0.12468106286E+03  0.36955906020E+03  0.25500000920E-02 0. -1.
       -2    1    3    3    0  502 -0.14712136241E+03 -0.31525202023E+03 -0.14499646566E+03  0.37689853621E+03  0.25500000920E-02 0.  1.
</event>
<event>
 5   0  0.1973067E-02  0.7009025E+03  0.7818609E-02  0.9715690E-01
       -2   -1    0    0    0  501  0.00000000000E+00  0.00000000000E+00  0.95284088288E+02  0.95284088322E+02  0.25500000920E-02 0.  1.
        2   -1    0    0  501    0  0.00000000000E+00  0.00000000000E+00 -0.12889465365E+04  0.12889465365E+04  0.25500000920E-02 0. -1.
    10030    2    1    2    0    0  0.00000000000E+00  0.00000000000E+00 -0.11936624482E+04  0.13842306248E+04  0.70090254846E+03 0.  0.
        5    1    3    3  502    0  0.37191645777E+02 -0.66011905610E+02  0.78850991821E+02  0.10945482679E+03  0.46999998093E+01 0.  1.
       -5    1    3    3    0  502 -0.37191645777E+02  0.66011905610E+02 -0.12725134401E+04  0.12747757981E+04  0.46999998093E+01 0. -1.
</event>
<event>
 5   0  0.1973067E-02  0.6951789E+03  0.7818609E-02  0.9725513E-01
        2   -1    0    0  501    0  0.00000000000E+00  0.00000000000E+00  0.31911794079E+03  0.31911794081E+03  0.25500000920E-02 0. -1.
       -2   -1    0    0    0  501  0.00000000000E+00  0.00000000000E+00 -0.37860120282E+03  0.37860120283E+03  0.25500000920E-02 0.  1.
    10030    2    1    2    0    0  0.00000000000E+00  0.00000000000E+00 -0.59483262029E+02  0.69771914364E+03  0.69517893016E+03 0.  0.
        5    1    3    3  502    0  0.24487311672E+02 -0.34639732402E+03 -0.15350068049E+02  0.34763263528E+03  0.46999998093E+01 0. -1.
       -5    1    3    3    0  502 -0.24487311672E+02  0.34639732402E+03 -0.44133193980E+02  0.35008650836E+03  0.46999998093E+01 0.  1.
</event>
<event>
 5   0  0.7947250E-03  0.7036154E+03  0.7818609E-02  0.9711069E-01
        3   -1    0    0  501    0  0.00000000000E+00  0.00000000000E+00  0.83354285123E+03  0.83354285735E+03  0.10100000352E+00 0.  1.
       -3   -1    0    0    0  501  0.00000000000E+00  0.00000000000E+00 -0.14848501558E+03  0.14848504993E+03  0.10100000352E+00 0. -1.
    10030    2    1    2    0    0  0.00000000000E+00  0.00000000000E+00  0.68505783566E+03  0.98202790728E+03  0.70361535834E+03 0.  0.
        3    1    3    3  502    0  0.27155726791E+02  0.85625160779E+02  0.81726727101E+03  0.82218909268E+03  0.10100000352E+00 0.  1.
       -3    1    3    3    0  502 -0.27155726791E+02 -0.85625160779E+02 -0.13220943535E+03  0.15983881460E+03  0.10100000352E+00 0. -1.
</event>
<event>
 5   0  0.2026361E-02  0.6929608E+03  0.7818609E-02  0.9729346E-01
        2   -1    0    0  501    0  0.00000000000E+00  0.00000000000E+00  0.65264354470E+03  0.65264354470E+03  0.25500000920E-02 0. -1.
       -2   -1    0    0    0  501  0.00000000000E+00  0.00000000000E+00 -0.18394215681E+03  0.18394215683E+03  0.25500000920E-02 0.  1.
    10030    2    1    2    0    0  0.00000000000E+00  0.00000000000E+00  0.46870138789E+03  0.83658570153E+03  0.69296078171E+03 0.  0.
        2    1    3    3  502    0  0.95654082472E+02  0.10123718378E+03  0.61735940371E+03  0.63287542552E+03  0.25500000920E-02 0. -1.
       -2    1    3    3    0  502 -0.95654082472E+02 -0.10123718378E+03 -0.14865801583E+03  0.20371027600E+03  0.25500000920E-02 0.  1.
</event>
<event>
 5   0  0.1237686E-02  0.7001501E+03  0.7818609E-02  0.9716975E-01
        1   -1    0    0  501    0  0.00000000000E+00  0.00000000000E+00  0.19582177834E+03  0.19582177840E+03  0.50400001928E-02 0.  1.
       -1   -1    0    0    0  501  0.00000000000E+00  0.00000000000E+00 -0.62583720848E+03  0.62583720850E+03  0.50400001928E-02 0. -1.
    10030    2    1    2    0    0  0.00000000000E+00  0.00000000000E+00 -0.43001543014E+03  0.82165898691E+03  0.70015014147E+03 0.  0.
        5    1    3    3  502    0  0.14681996338E+03 -0.11943815431E+03 -0.56057470028E+03  0.59168205900E+03  0.46999998093E+01 0. -1.
       -5    1    3    3    0  502 -0.14681996338E+03  0.11943815431E+03  0.13055927014E+03  0.22997692790E+03  0.46999998093E+01 0.  1.
</event>
<event>
 5   0  0.1948138E-02  0.7002557E+03  0.7818609E-02  0.9716795E-01
       -2   -1    0    0    0  501  0.00000000000E+00  0.00000000000E+00  0.64568381998E+02  0.64568382049E+02  0.25500000920E-02 0. -1.
        2   -1    0    0  501    0  0.00000000000E+00  0.00000000000E+00 -0.18985996717E+04  0.18985996717E+04  0.25500000920E-02 0.  1.
    10030    2    1    2    0    0  0.00000000000E+00  0.00000000000E+00 -0.18340312897E+04  0.19631680538E+04  0.70025569306E+03 0.  0.
        3    1    3    3  502    0 -0.28714464872E+03  0.48210204092E+02 -0.14621740259E+04  0.14908820091E+04  0.10100000352E+00 0. -1.
       -3    1    3    3    0  502  0.28714464872E+03 -0.48210204092E+02 -0.37185726385E+03  0.47228604462E+03  0.10100000352E+00 0.  1.
</event>
<event>
 5   0  0.1197259E-02  0.7134802E+03  0.7818609E-02  0.9694453E-01
        1   -1    0    0  501    0  0.00000000000E+00  0.00000000000E+00  0.70629950164E+03  0.70629950166E+03  0.50400001928E-02 0.  1.
       -1   -1    0    0    0  501  0.00000000000E+00  0.00000000000E+00 -0.18018347616E+03  0.18018347623E+03  0.50400001928E-02 0. -1.
    10030    2    1    2    0    0  0.00000000000E+00  0.00000000000E+00  0.52611602548E+03  0.88648297789E+03  0.71348020142E+03 0.  0.
        3    1    3    3  502    0  0.66210607982E+02 -0.19531006459E+03 -0.98615216142E+02  0.22859316918E+03  0.10100000352E+00 0. -1.
       -3    1    3    3    0  502 -0.66210607982E+02  0.19531006459E+03  0.62473124162E+03  0.65788980871E+03  0.10100000352E+00 0.  1.
</event>
<event>
 5   0  0.2006362E-02  0.7019857E+03  0.7818609E-02  0.9713842E-01
       -2   -1    0    0    0  501  0.00000000000E+00  0.00000000000E+00  0.72737306051E+02  0.72737306095E+02  0.25500000920E-02 0. -1.
        2   -1    0    0  501    0  0.00000000000E+00  0.00000000000E+00 -0.16937111350E+04  0.16937111350E+04  0.25500000920E-02 0.  1.
    10030    2    1    2    0    0  0.00000000000E+00  0.00000000000E+00 -0.16209738290E+04  0.17664484411E+04  0.70198571276E+03 0.  0.
        4    1    3    3  502    0  0.34844663695E+03 -0.14790401640E+02 -0.71108091708E+03  0.79200473377E+03  0.12699999809E+01 0. -1.
       -4    1    3    3    0  502 -0.34844663695E+03  0.14790401640E+02 -0.90989291190E+03  0.97444370735E+03  0.12699999809E+01 0.  1.
</event>
<event>
 5   0  0.1223742E-02  0.6940281E+03  0.7818609E-02  0.9727500E-01
        1   -1    0    0  501    0  0.00000000000E+00  0.00000000000E+00  0.17663908689E+04  0.17663908689E+04  0.50400001928E-02 0.  1.
       -1   -1    0    0    0  501  0.00000000000E+00  0.00000000000E+00 -0.68172196891E+02  0.68172197077E+02  0.50400001928E-02 0. -1.
    10030    2    1    2    0    0  0.00000000000E+00  0.00000000000E+00  0.16982186720E+04  0.18345630660E+04  0.69402808669E+03 0.  0.
        2    1    3    3  502    0 -0.22937092096E+03 -0.59563784994E+02  0.17903102216E+03  0.29700331777E+03  0.25500000920E-02 0. -1.
       -2    1    3    3    0  502  0.22937092096E+03  0.59563784994E+02  0.15191876499E+04  0.15375597482E+04  0.25500000920E-02 0.  1.
</event>
<event>
 5   0  0.1257442E-02  0.7038115E+03  0.7818609E-02  0.9710736E-01
       -1   -1    0    0    0  501  0.00000000000E+00  0.00000000000E+00  0.15463131563E+04  0.15463131563E+04  0.50400001928E-02 0.  1.
        1   -1    0    0  501    0  0.00000000000E+00  0.00000000000E+00 -0.80085752069E+02  0.80085752228E+02  0.50400001928E-02 0. -1.
    10030    2    1    2    0    0  0.00000000000E+00  0.00000000000E+00  0.14662274042E+04  0.16263989085E+04  0.70381148667E+03 0.  0.
        1    1    3    3  502    0  0.23215136497E+03  0.11285992972E+02  0.13437017156E+04  0.13636553562E+04  0.50400001928E-02 0.  1.
       -1    1    3    3    0  502 -0.23215136497E+03 -0.11285992972E+02  0.12252568859E+03  0.26274355232E+03  0.50400001928E-02 0. -1.
</event>
<event>
 5   0  0.1973067E-02  0.7006513E+03  0.7818609E-02  0.9716119E-01
       -2   -1    0    0    0  501  0.00000000000E+00  0.00000000000E+00  0.34449567816E+03  0.34449567817E+03  0.25500000920E-02 0.  1.
        2   -1    0    0  501    0  0.00000000000E+00  0.00000000000E+00 -0.35625431689E+03  0.35625431690E+03  0.25500000920E-02 0. -1.
    10030    2    1    2    0    0  0.00000000000E+00  0.00000000000E+00 -0.11758638725E+02  0.70074999507E+03  0.70065133269E+03 0.  0.
        5    1    3    3  502    0  0.15146307930E+03  0.18364882278E+03 -0.26289415868E+03  0.35468772627E+03  0.46999998093E+01 0. -1.
       -5    1    3    3    0  502 -0.15146307930E+03 -0.18364882278E+03  0.25113551996E+03  0.34606226880E+03  0.46999998093E+01 0.  1.
</event>
<event>
 5   0  0.1237686E-02  0.7021210E+03  0.7818609E-02  0.9713612E-01
       -1   -1    0    0    0  501  0.00000000000E+00  0.00000000000E+00  0.51125010986E+03  0.51125010988E+03  0.50400001928E-02 0.  1.
        1   -1    0    0  501    0  0.00000000000E+00  0.00000000000E+00 -0.24106299680E+03  0.24106299685E+03  0.50400001928E-02 0. -1.
    10030    2    1    2    0    0  0.00000000000E+00  0.00000000000E+00  0.27018711306E+03  0.75231310674E+03  0.70212102554E+03 0.  0.
        5    1    3    3  502    0 -0.11204174617E+03  0.12729134248E+03 -0.19422940354E+03  0.25788289969E+03  0.46999998093E+01 0. -1.
       -5    1    3    3    0  502  0.11204174617E+03 -0.12729134248E+03  0.46441651660E+03  0.49443020705E+03  0.46999998093E+01 0.  1.
</event>
<event>
 5   0  0.1948138E-02  0.6819876E+03  0.7818609E-02  0.9748541E-01
        2   -1    0    0  501    0  0.00000000000E+00  0.00000000000E+00  0.23599261657E+03  0.23599261659E+03  0.25500000920E-02 0.  1.
       -2   -1    0    0    0  501  0.00000000000E+00  0.00000000000E+00 -0.49271366125E+03  0.49271366126E+03  0.25500000920E-02 0. -1.
    10030    2    1    2    0    0  0.00000000000E+00  0.00000000000E+00 -0.25672104468E+03  0.72870627785E+03  0.68198764255E+03 0.  0.
        3    1    3    3  502    0 -0.50258484559E+02 -0.57790476003E+02 -0.48340471737E+03  0.48943414814E+03  0.10100000352E+00 0. -1.
       -3    1    3    3    0  502  0.50258484559E+02  0.57790476003E+02  0.22668367270E+03  0.23927212971E+03  0.10100000352E+00 0.  1.
</event>
<event>
 5   0  0.1909053E-02  0.7000216E+03  0.7818609E-02  0.9717195E-01
        2   -1    0    0  501    0  0.00000000000E+00  0.00000000000E+00  0.22945498050E+03  0.22945498051E+03  0.25500000920E-02 0.  1.
       -2   -1    0    0    0  501  0.00000000000E+00  0.00000000000E+00 -0.53390669538E+03  0.53390669538E+03  0.25500000920E-02 0. -1.
    10030    2    1    2    0    0  0.00000000000E+00  0.00000000000E+00 -0.30445171488E+03  0.76336167590E+03  0.70002157219E+03 0.  0.
        1    1    3    3  502    0  0.30431597543E+03 -0.16229029405E+03 -0.21730127809E+03  0.40763488311E+03  0.50400001928E-02 0.  1.
       -1    1    3    3    0  502 -0.30431597543E+03  0.16229029405E+03 -0.87150436789E+02  0.35572679278E+03  0.50400001928E-02 0. -1.
</event>
<event>
 5   0  0.1223742E-02  0.7062713E+03  0.7818609E-02  0.9706567E-01
       -1   -1    0    0    0  501  0.00000000000E+00  0.00000000000E+00  0.30379882027E+03  0.30379882031E+03  0.50400001928E-02 0.  1.
        1   -1    0    0  501    0  0.00000000000E+00  0.00000000000E+00 -0.41048476239E+03  0.41048476242E+03  0.50400001928E-02 0. -1.
    10030    2    1    2    0    0  0.00000000000E+00  0.00000000000E+00 -0.10668594212E+03  0.71428358273E+03  0.70627129795E+03 0.  0.
        2    1    3    3  502    0  0.68543567049E+02 -0.34201733244E+03 -0.10901939375E+03  0.36545766443E+03  0.25500000920E-02 0. -1.
       -2    1    3    3    0  502 -0.68543567049E+02  0.34201733244E+03  0.23334516299E+01  0.34882591830E+03  0.25500000920E-02 0.  1.
</event>
<event>
 5   0  0.7947250E-03  0.7084012E+03  0.7818609E-02  0.9702972E-01
       -4   -1    0    0    0  501  0.00000000000E+00  0.00000000000E+00  0.27927772774E+03  0.27928061535E+03  0.12699999809E+01 0. -1.
        4   -1    0    0  501    0  0.00000000000E+00  0.00000000000E+00 -0.44921724580E+03  0.44921904103E+03  0.12699999809E+01 0.  1.
    10030    2    1    2    0    0  0.00000000000E+00  0.00000000000E+00 -0.16993951806E+03  0.72849965639E+03  0.70840123486E+03 0.  0.
        3    1    3    3  502    0 -0.19873365030E+03  0.47889343485E+02 -0.38243342433E+03  0.43364015869E+03  0.10100000352E+00 0.  1.
       -3    1    3    3    0  502  0.19873365030E+03 -0.47889343485E+02  0.21249390627E+03  0.29485949770E+03  0.10100000352E+00 0. -1.
</event>
<event>
 5   0  0.1948138E-02  0.7018288E+03  0.7818609E-02  0.9714110E-01
       -2   -1    0    0    0  501  0.00000000000E+00  0.00000000000E+00  0.18409172902E+03  0.18409172904E+03  0.25500000920E-02 0. -1.
        2   -1    0    0  501    0  0.00000000000E+00  0.00000000000E+00 -0.66891062461E+03  0.66891062461E+03  0.25500000920E-02 0.  1.
    10030    2    1    2    0    0  0.00000000000E+00  0.00000000000E+00 -0.48481889559E+03  0.85300235365E+03  0.70182879239E+03 0.  0.
        3    1    3    3  502    0 -0.10348655909E+03 -0.29726170418E+03 -0.43096062862E+03  0.53366755785E+03  0.10100000352E+00 0.  1.
       -3    1    3    3    0  502  0.10348655909E+03  0.29726170418E+03 -0.53858266970E+02  0.31933479580E+03  0.10100000352E+00 0. -1.
</event>
<event>
 5   0  0.1948138E-02  0.6963383E+03  0.7818609E-02  0.9723515E-01
       -2   -1    0    0    0  501  0.00000000000E+00  0.00000000000E+00  0.18511146738E+03  0.18511146739E+03  0.25500000920E-02 0.  1.
        2   -1    0    0  501    0  0.00000000000E+00  0.00000000000E+00 -0.65485816515E+03  0.65485816515E+03  0.25500000920E-02 0. -1.
    10030    2    1    2    0    0  0.00000000000E+00  0.00000000000E+00 -0.46974669777E+03  0.83996963255E+03  0.69633829676E+03 0.  0.
        3    1    3    3  502    0 -0.22488287416E+03  0.77755727159E+02  0.71726036023E+02  0.24852141686E+03  0.10100000352E+00 0.  1.
       -3    1    3    3    0  502  0.22488287416E+03 -0.77755727159E+02 -0.54147273379E+03  0.59144821568E+03  0.10100000352E+00 0. -1.
</event>
<event>
 5   0  0.1223742E-02  0.7002760E+03  0.7818609E-02  0.9716760E-01
        1   -1    0    0  501    0  0.00000000000E+00  0.00000000000E+00  0.23514396413E+03  0.23514396418E+03  0.50400001928E-02 0. -1.
       -1   -1    0    0    0  501  0.00000000000E+00  0.00000000000E+00 -0.52136827092E+03  0.52136827095E+03  0.50400001928E-02 0.  1.
    10030    2    1    2    0    0  0.00000000000E+00  0.00000000000E+00 -0.28622430679E+03  0.75651223513E+03  0.70027595139E+03 0.  0.
        2    1    3    3  502    0 -0.28572224075E+02 -0.38244052790E+02 -0.51783602869E+03  0.52003185689E+03  0.25500000920E-02 0.  1.
       -2    1    3    3    0  502  0.28572224075E+02  0.38244052790E+02  0.23161172190E+03  0.23648037824E+03  0.25500000920E-02 0. -1.
</event>
<event>
 5   0  0.1226303E-02  0.6988280E+03  0.7818609E-02  0.9719239E-01
        1   -1    0    0  501    0  0.00000000000E+00  0.00000000000E+00  0.48484261201E+03  0.48484261203E+03  0.50400001928E-02 0. -1.
       -1   -1    0    0    0  501  0.00000000000E+00  0.00000000000E+00 -0.25181395058E+03  0.25181395063E+03  0.50400001928E-02 0.  1.
    10030    2    1    2    0    0  0.00000000000E+00  0.00000000000E+00  0.23302866143E+03  0.73665656267E+03  0.69882797187E+03 0.  0.
        4    1    3    3  502    0  0.17584465584E+03 -0.27399655845E+03 -0.17211143449E+02  0.32602652252E+03  0.12699999809E+01 0. -1.
       -4    1    3    3    0  502 -0.17584465584E+03  0.27399655845E+03  0.25023980488E+03  0.41063004015E+03  0.12699999809E+01 0.  1.
</event>
<event>
 5   0  0.1257442E-02  0.7094930E+03  0.7818609E-02  0.9701134E-01
       -1   -1    0    0    0  501  0.00000000000E+00  0.00000000000E+00  0.25033344909E+03  0.25033344914E+03  0.50400001928E-02 0. -1.
        1   -1    0    0  501    0  0.00000000000E+00  0.00000000000E+00 -0.50270979212E+03  0.50270979214E+03  0.50400001928E-02 0.  1.
    10030    2    1    2    0    0  0.00000000000E+00  0.00000000000E+00 -0.25237634303E+03  0.75304324128E+03  0.70949299131E+03 0.  0.
        1    1    3    3  502    0 -0.27804001655E+03  0.19732979641E+03 -0.23018075633E+03  0.41137389315E+03  0.50400001928E-02 0.  1.
       -1    1    3    3    0  502  0.27804001655E+03 -0.19732979641E+03 -0.22195586695E+02  0.34166934813E+03  0.50400001928E-02 0. -1.
</event>
<event>
 5   0  0.1257442E-02  0.7011472E+03  0.7818609E-02  0.9715272E-01
       -1   -1    0    0    0  501  0.00000000000E+00  0.00000000000E+00  0.10834628155E+03  0.10834628167E+03  0.50400001928E-02 0. -1.
        1   -1    0    0  501    0  0.00000000000E+00  0.00000000000E+00 -0.11343430270E+04  0.11343430270E+04  0.50400001928E-02 0.  1.
    10030    2    1    2    0    0  0.00000000000E+00  0.00000000000E+00 -0.10259967454E+04  0.12426893087E+04  0.70114720013E+03 0.  0.
        1    1    3    3  502    0 -0.21860195903E+02 -0.14957201870E+03 -0.10736158877E+04  0.10842051149E+04  0.50400001928E-02 0.  1.
       -1    1    3    3    0  502  0.21860195903E+02  0.14957201870E+03  0.47619142215E+02  0.15848419377E+03  0.50400001928E-02 0. -1.
</event>
<event>
 5   0  0.1223742E-02  0.7000301E+03  0.7818609E-02  0.9717181E-01
       -1   -1    0    0    0  501  0.00000000000E+00  0.00000000000E+00  0.10482931847E+04  0.10482931847E+04  0.50400001928E-02 0.  1.
        1   -1    0    0  501    0  0.00000000000E+00  0.00000000000E+00 -0.11686666538E+03  0.11686666549E+03  0.50400001928E-02 0. -1.
    10030    2    1    2    0    0  0.00000000000E+00  0.00000000000E+00  0.93142651932E+03  0.11651598502E+04  0.70003008194E+03 0.  0.
        2    1    3    3  502    0 -0.25128456855E+03  0.19459293658E+03  0.70976948593E+03  0.77767799796E+03  0.25500000920E-02 0.  1.
       -2    1    3    3    0  502  0.25128456855E+03 -0.19459293658E+03  0.22165703340E+03  0.38748185224E+03  0.25500000920E-02 0. -1.
</event>
<event>
 5   0  0.1237686E-02  0.6987519E+03  0.7818609E-02  0.9719369E-01
       -1   -1    0    0    0  501  0.00000000000E+00  0.00000000000E+00  0.12075258887E+03  0.12075258897E+03  0.50400001928E-02 0. -1.
        1   -1    0    0  501    0  0.00000000000E+00  0.00000000000E+00 -0.10108565735E+04  0.10108565735E+04  0.50400001928E-02 0.  1.
    10030    2    1    2    0    0  0.00000000000E+00  0.00000000000E+00 -0.89010398461E+03  0.11316091625E+04  0.69875188240E+03 0.  0.
        5    1    3    3  502    0 -0.31535980454E+03 -0.33055268913E+01 -0.68839741174E+03  0.75721583404E+03  0.46999998093E+01 0. -1.
       -5    1    3    3    0  502  0.31535980454E+03  0.33055268913E+01 -0.20170657287E+03  0.37439332842E+03  0.46999998093E+01 0.  1.
</event>
<event>
 5   0  0.7947250E-03  0.6946356E+03  0.7818609E-02  0.9726450E-01
       -3   -1    0    0    0  501  0.00000000000E+00  0.00000000000E+00  0.24619918047E+03  0.24619920119E+03  0.10100000352E+00 0. -1.
        3   -1    0    0  501    0  0.00000000000E+00  0.00000000000E+00 -0.48996767137E+03  0.48996768178E+03  0.10100000352E+00 0.  1.
    10030    2    1    2    0    0  0.00000000000E+00  0.00000000000E+00 -0.24376849090E+03  0.73616688297E+03  0.69463558966E+03 0.  0.
        3    1    3    3  502    0 -0.45577379408E+02  0.14991841414E+03 -0.45037907469E+03  0.47685862636E+03  0.10100000352E+00 0.  1.
       -3    1    3    3    0  502  0.45577379408E+02 -0.14991841414E+03  0.20661058379E+03  0.25930825661E+03  0.10100000352E+00 0. -1.
</event>
<event>
 5   0  0.1223742E-02  0.6992683E+03  0.7818609E-02  0.9718484E-01
        1   -1    0    0  501    0  0.00000000000E+00  0.00000000000E+00  0.13834478470E+03  0.13834478479E+03  0.50400001928E-02 0.  1.
       -1   -1    0    0    0  501  0.00000000000E+00  0.00000000000E+00 -0.88361874401E+03  0.88361874402E+03  0.50400001928E-02 0. -1.
    10030    2    1    2    0    0  0.00000000000E+00  0.00000000000E+00 -0.74527395931E+03  0.10219635288E+04  0.69926831745E+03 0.  0.
        2    1    3    3  502    0 -0.53830320646E+02 -0.12848747324E+03 -0.84130670593E+03  0.85276239812E+03  0.25500000920E-02 0. -1.
       -2    1    3    3    0  502  0.53830320646E+02  0.12848747324E+03  0.96032746613E+02  0.16920113069E+03  0.25500000920E-02 0.  1.
</event>
<event>
 5   0  0.1909053E-02  0.6937980E+03  0.7818609E-02  0.9727898E-01
       -2   -1    0    0    0  501  0.00000000000E+00  0.00000000000E+00  0.85154066965E+02  0.85154067003E+02  0.25500000920E-02 0. -1.
        2   -1    0    0  501    0  0.00000000000E+00  0.00000000000E+00 -0.14131903425E+04  0.14131903425E+04  0.25500000920E-02 0.  1.
    10030    2    1    2    0    0  0.00000000000E+00  0.00000000000E+00 -0.13280362756E+04  0.14983444095E+04  0.69379796798E+03 0.  0.
        1    1    3    3  502    0  0.72251194048E+02 -0.19532266843E+03 -0.64871738220E+02  0.21812730753E+03  0.50400001928E-02 0. -1.
       -1    1    3    3    0  502 -0.72251194048E+02  0.19532266843E+03 -0.12631645373E+04  0.12802171020E+04  0.50400001928E-02 0.  1.
</event>
<event>
 5   0  0.1909053E-02  0.6983101E+03  0.7818609E-02  0.9720126E-01
       -2   -1    0    0    0  501  0.00000000000E+00  0.00000000000E+00  0.93319382851E+02  0.93319382886E+02  0.25500000920E-02 0. -1.
        2   -1    0    0  501    0  0.00000000000E+00  0.00000000000E+00 -0.13063658637E+04  0.13063658637E+04  0.25500000920E-02 0.  1.
    10030    2    1    2    0    0  0.00000000000E+00  0.00000000000E+00 -0.12130464808E+04  0.13996852466E+04  0.69831012080E+03 0.  0.
        1    1    3    3  502    0 -0.19070675419E+03  0.29817093133E+02 -0.23348867441E+02  0.19443069401E+03  0.50400001928E-02 0. -1.
       -1    1    3    3    0  502  0.19070675419E+03 -0.29817093133E+02 -0.11896976134E+04  0.12052545526E+04  0.50400001928E-02 0.  1.
</event>
<event>
 5   0  0.2026361E-02  0.6827872E+03  0.7818609E-02  0.9747130E-01
       -2   -1    0    0    0  501  0.00000000000E+00  0.00000000000E+00  0.70997887421E+02  0.70997887467E+02  0.25500000920E-02 0. -1.
        2   -1    0    0  501    0  0.00000000000E+00  0.00000000000E+00 -0.16415924024E+04  0.16415924024E+04  0.25500000920E-02 0.  1.
    10030    2    1    2    0    0  0.00000000000E+00  0.00000000000E+00 -0.15705945150E+04  0.17125902899E+04  0.68278720732E+03 0.  0.
        2    1    3    3  502    0  0.20269002532E+03  0.12666109715E+03 -0.17386755658E+03  0.29556083491E+03  0.25500000920E-02 0. -1.
       -2    1    3    3    0  502 -0.20269002532E+03 -0.12666109715E+03 -0.13967269584E+04  0.14170294550E+04  0.25500000920E-02 0.  1.
</event>
<event>
 5   0  0.1223742E-02  0.7030760E+03  0.7818609E-02  0.9711986E-01
       -1   -1    0    0    0  501  0.00000000000E+00  0.00000000000E+00  0.15445065600E+03  0.15445065609E+03  0.50400001928E-02 0. -1.
        1   -1    0    0  501    0  0.00000000000E+00  0.00000000000E+00 -0.80011931049E+03  0.80011931051E+03  0.50400001928E-02 0.  1.
    10030    2    1    2    0    0  0.00000000000E+00  0.00000000000E+00 -0.64566865449E+03  0.95456996659E+03  0.70307596299E+03 0.  0.
        2    1    3    3  502    0  0.18797828278E+03 -0.61863571846E+02  0.71639271341E+02  0.21046406231E+03  0.25500000920E-02 0. -1.
       -2    1    3    3    0  502 -0.18797828278E+03  0.61863571846E+02 -0.71730792583E+03  0.74410590428E+03  0.25500000920E-02 0.  1.
</event>
<event>
 5   0  0.1226303E-02  0.7023175E+03  0.7818609E-02  0.9713277E-01
       -1   -1    0    0    0  501  0.00000000000E+00  0.00000000000E+00  0.26724954473E+03  0.26724954478E+03  0.50400001928E-02 0.  1.
        1   -1    0    0  501    0  0.00000000000E+00  0.00000000000E+00 -0.46141324834E+03  0.46141324836E+03  0.50400001928E-02 0. -1.
    10030    2    1    2    0    0  0.00000000000E+00  0.00000000000E+00 -0.19416370360E+03  0.72866279314E+03  0.70231753667E+03 0.  0.
        4    1    3    3  502    0  0.16388216784E+03  0.26155301703E+03  0.76661965716E+02  0.31803461375E+03  0.12699999809E+01 0.  1.
       -4    1    3    3    0  502 -0.16388216784E+03 -0.26155301703E+03 -0.27082566932E+03  0.41062817940E+03  0.12699999809E+01 0. -1.
</event>
<event>
 5   0  0.1257442E-02  0.7026409E+03  0.7818609E-02  0.9712726E-01
        1   -1    0    0  501    0  0.00000000000E+00  0.00000000000E+00  0.90613702327E+03  0.90613702328E+03  0.50400001928E-02 0. -1.
       -1   -1    0    0    0  501  0.00000000000E+00  0.00000000000E+00 -0.13621126404E+03  0.13621126413E+03  0.50400001928E-02 0.  1.
    10030    2    1    2    0    0  0.00000000000E+00  0.00000000000E+00  0.76992575923E+03  0.10423482874E+04  0.70264093074E+03 0.  0.
        1    1    3    3  502    0  0.18512528030E+03  0.11156524152E+03  0.79582816623E+03  0.82465789435E+03  0.50400001928E-02 0. -1.
       -1    1    3    3    0  502 -0.18512528030E+03 -0.11156524152E+03 -0.25902407003E+02  0.21769039307E+03  0.50400001928E-02 0.  1.
</event>
<event>
 5   0  0.1223742E-02  0.6993919E+03  0.7818609E-02  0.9718273E-01
       -1   -1    0    0    0  501  0.00000000000E+00  0.00000000000E+00  0.70080745215E+02  0.70080745396E+02  0.50400001928E-02 0.  1.
        1   -1    0    0  501    0  0.00000000000E+00  0.00000000000E+00 -0.17449482610E+04  0.17449482610E+04  0.50400001928E-02 0. -1.
    10030    2    1    2    0    0  0.00000000000E+00  0.00000000000E+00 -0.16748675158E+04  0.18150290064E+04  0.69939194924E+03 0.  0.
        2    1    3    3  502    0  0.27860248569E+03  0.21075782438E+03 -0.79647725577E+03  0.86972077389E+03  0.25500000920E-02 0. -1.
       -2    1    3    3    0  502 -0.27860248569E+03 -0.21075782438E+03 -0.87839026006E+03  0.94530823256E+03  0.25500000920E-02 0.  1.
</event>
<event>
 5   0  0.7947250E-03  0.7312893E+03  0.7818609E-02  0.9665171E-01
       -4   -1    0    0    0  501  0.00000000000E+00  0.00000000000E+00  0.69770707596E+03  0.69770823181E+03  0.12699999809E+01 0.  1.
        4   -1    0    0  501    0  0.00000000000E+00  0.00000000000E+00 -0.19161856199E+03  0.19162277057E+03  0.12699999809E+01 0. -1.
    10030    2    1    2    0    0  0.00000000000E+00  0.00000000000E+00  0.50608851397E+03  0.88933100238E+03  0.73128930515E+03 0.  0.
        1    1    3    3  502    0 -0.23794315435E+03 -0.24383848433E+03  0.41448014730E+03  0.53653326427E+03  0.50400001928E-02 0. -1.
       -1    1    3    3    0  502  0.23794315435E+03  0.24383848433E+03  0.91608366667E+02  0.35279773811E+03  0.50400001928E-02 0.  1.
</event>
<event>
 5   0  0.1948138E-02  0.7027765E+03  0.7818609E-02  0.9712496E-01
       -2   -1    0    0    0  501  0.00000000000E+00  0.00000000000E+00  0.14391372827E+03  0.14391372830E+03  0.25500000920E-02 0.  1.
        2   -1    0    0  501    0  0.00000000000E+00  0.00000000000E+00 -0.85797018050E+03  0.85797018050E+03  0.25500000920E-02 0. -1.
    10030    2    1    2    0    0  0.00000000000E+00  0.00000000000E+00 -0.71405645222E+03  0.10018839088E+04  0.70277645788E+03 0.  0.
        3    1    3    3  502    0  0.11523330937E+03  0.21256431500E+03 -0.72052023524E+03  0.76000771259E+03  0.10100000352E+00 0. -1.
       -3    1    3    3    0  502 -0.11523330937E+03 -0.21256431500E+03  0.64637830179E+01  0.24187619621E+03  0.10100000352E+00 0.  1.
</event>
<event>
 5   0  0.1909053E-02  0.6680776E+03  0.7818609E-02  0.9773437E-01
        2   -1    0    0  501    0  0.00000000000E+00  0.00000000000E+00  0.64562633262E+03  0.64562633262E+03  0.25500000920E-02 0.  1.
       -2   -1    0    0    0  501  0.00000000000E+00  0.00000000000E+00 -0.17282739612E+03  0.17282739614E+03  0.25500000920E-02 0. -1.
    10030    2    1    2    0    0  0.00000000000E+00  0.00000000000E+00  0.47279893650E+03  0.81845372876E+03  0.66807759412E+03 0.  0.
        1    1    3    3  502    0 -0.96039590692E+02 -0.25712224574E+03  0.31610659352E+01  0.27449124685E+03  0.50400001928E-02 0. -1.
       -1    1    3    3    0  502  0.96039590692E+02  0.25712224574E+03  0.46963787056E+03  0.54396248191E+03  0.50400001928E-02 0.  1.
</event>
<event>
 5   0  0.1948138E-02  0.6941356E+03  0.7818609E-02  0.9727314E-01
        2   -1    0    0  501    0  0.00000000000E+00  0.00000000000E+00  0.32824746100E+03  0.32824746101E+03  0.25500000920E-02 0.  1.
       -2   -1    0    0    0  501  0.00000000000E+00  0.00000000000E+00 -0.36696720484E+03  0.36696720485E+03  0.25500000920E-02 0. -1.
    10030    2    1    2    0    0  0.00000000000E+00  0.00000000000E+00 -0.38719743849E+02  0.69521466586E+03  0.69413558694E+03 0.  0.
        3    1    3    3  502    0  0.29653710974E+03  0.98997753723E+02 -0.17032983100E+03  0.35601555334E+03  0.10100000352E+00 0. -1.
       -3    1    3    3    0  502 -0.29653710974E+03 -0.98997753723E+02  0.13161008715E+03  0.33919911252E+03  0.10100000352E+00 0.  1.
</event>
<event>
 5   0  0.1226303E-02  0.6961096E+03  0.7818609E-02  0.9723909E-01
        1   -1    0    0  501    0  0.00000000000E+00  0.00000000000E+00  0.29041411473E+03  0.29041411477E+03  0.50400001928E-02 0. -1.
       -1   -1    0    0    0  501  0.00000000000E+00  0.00000000000E+00 -0.41713583872E+03  0.41713583875E+03  0.50400001928E-02 0.  1.
    10030    2    1    2    0    0  0.00000000000E+00  0.00000000000E+00 -0.12672172400E+03  0.70754995352E+03  0.69610957571E+03 0.  0.
        4    1    3    3  502    0  0.17206309555E+03  0.30055142554E+03 -0.28096959817E+02  0.34745923544E+03  0.12699999809E+01 0.  1.
       -4    1    3    3    0  502 -0.17206309555E+03 -0.30055142554E+03 -0.98624764180E+02  0.36009071808E+03  0.12699999809E+01 0. -1.
</event>
<event>
 5   0  0.2026361E-02  0.7078374E+03  0.7818609E-02  0.9703922E-01
       -2   -1    0    0    0  501  0.00000000000E+00  0.00000000000E+00  0.12207987216E+03  0.12207987219E+03  0.25500000920E-02 0. -1.
        2   -1    0    0  501    0  0.00000000000E+00  0.00000000000E+00 -0.10260367888E+04  0.10260367888E+04  0.25500000920E-02 0.  1.
    10030    2    1    2    0    0  0.00000000000E+00  0.00000000000E+00 -0.90395691665E+03  0.11481166610E+04  0.70783738253E+03 0.  0.
        2    1    3    3  502    0  0.12014426252E+03  0.26143516470E+03 -0.11768989172E+03  0.31085993594E+03  0.25500000920E-02 0. -1.
       -2    1    3    3    0  502 -0.12014426252E+03 -0.26143516470E+03 -0.78626702493E+03  0.83725672506E+03  0.25500000920E-02 0.  1.
</event>
<event>
 5   0  0.2026361E-02  0.6329057E+03  0.7818609E-02  0.9839395E-01
        2   -1    0    0  501    0  0.00000000000E+00  0.00000000000E+00  0.13996519256E+04  0.13996519256E+04  0.25500000920E-02 0.  1.
       -2   -1    0    0    0  501  0.00000000000E+00  0.00000000000E+00 -0.71548081380E+02  0.71548081426E+02  0.25500000920E-02 0. -1.
    10030    2    1    2    0    0  0.00000000000E+00  0.00000000000E+00  0.13281038443E+04  0.14712000071E+04  0.63290571151E+03 0.  0.
        2    1    3    3  502    0 -0.21686173207E+03  0.53213264224E+02  0.11852921011E+04  0.12061417940E+04  0.25500000920E-02 0.  1.
       -2    1    3    3    0  502  0.21686173207E+03 -0.53213264224E+02  0.14281174320E+03  0.26505821309E+03  0.25500000920E-02 0. -1.
</event>
<event>
 5   0  0.1226303E-02  0.7037654E+03  0.7818609E-02  0.9710815E-01
        1   -1    0    0  501    0  0.00000000000E+00  0.00000000000E+00  0.63527034562E+03  0.63527034564E+03  0.50400001928E-02 0. -1.
       -1   -1    0    0    0  501  0.00000000000E+00  0.00000000000E+00 -0.19491137860E+03  0.19491137866E+03  0.50400001928E-02 0.  1.
    10030    2    1    2    0    0  0.00000000000E+00  0.00000000000E+00  0.44035896702E+03  0.83018172430E+03  0.70376535545E+03 0.  0.
        4    1    3    3  502    0 -0.20587100665E+03  0.12306257814E+03 -0.83543461850E+02  0.25398502404E+03  0.12699999809E+01 0.  1.
       -4    1    3    3    0  502  0.20587100665E+03 -0.12306257814E+03  0.52390242887E+03  0.57619670026E+03  0.12699999809E+01 0. -1.
</event>
<event>
 5   0  0.1223742E-02  0.6890428E+03  0.7818609E-02  0.9736156E-01
        1   -1    0    0  501    0  0.00000000000E+00  0.00000000000E+00  0.36716926065E+03  0.36716926068E+03  0.50400001928E-02 0.  1.
       -1   -1    0    0    0  501  0.00000000000E+00  0.00000000000E+00 -0.32327051074E+03  0.32327051078E+03  0.50400001928E-02 0. -1.
    10030    2    1    2    0    0  0.00000000000E+00  0.00000000000E+00  0.43898749906E+02  0.69043977146E+03  0.68904279822E+03 0.  0.
        2    1    3    3  502    0  0.25244980204E+03 -0.15578269057E+03  0.19750688004E+03  0.35638198173E+03  0.25500000920E-02 0.  1.
       -2    1    3    3    0  502 -0.25244980204E+03  0.15578269057E+03 -0.15360813014E+03  0.33405778973E+03  0.25500000920E-02 0. -1.
</event>
<event>
 5   0  0.1237686E-02  0.6996954E+03  0.7818609E-02  0.9717753E-01
       -1   -1    0    0    0  501  0.00000000000E+00  0.00000000000E+00  0.22185589246E+03  0.22185589251E+03  0.50400001928E-02 0. -1.
        1   -1    0    0  501    0  0.00000000000E+00  0.00000000000E+00 -0.55167980976E+03  0.55167980979E+03  0.50400001928E-02 0.  1.
    10030    2    1    2    0    0  0.00000000000E+00  0.00000000000E+00 -0.32982391731E+03  0.77353570230E+03  0.69969540967E+03 0.  0.
        5    1    3    3  502    0 -0.21799442575E+03  0.24697772073E+03 -0.29502590674E+03  0.44224646956E+03  0.46999998093E+01 0.  1.
       -5    1    3    3    0  502  0.21799442575E+03 -0.24697772073E+03 -0.34798010570E+02  0.33128923274E+03  0.46999998093E+01 0. -1.
</event>
<event>
 5   0  0.2006362E-02  0.7018403E+03  0.7818609E-02  0.9714090E-01
        2   -1    0    0  501    0  0.00000000000E+00  0.00000000000E+00  0.22894019155E+04  0.22894019155E+04  0.25500000920E-02 0.  1.
       -2   -1    0    0    0  501  0.00000000000E+00  0.00000000000E+00 -0.53789133992E+02  0.53789134052E+02  0.25500000920E-02 0. -1.
    10030    2    1    2    0    0  0.00000000000E+00  0.00000000000E+00  0.22356127815E+04  0.23431910495E+04  0.70184028515E+03 0.  0.
        4    1    3    3  502    0  0.41606944014E+02 -0.34837183407E+03  0.10943737606E+04  0.11492387103E+04  0.12699999809E+01 0.  1.
       -4    1    3    3    0  502 -0.41606944014E+02  0.34837183407E+03  0.11412390209E+04  0.11939523392E+04  0.12699999809E+01 0. -1.
</event>
<event>
 5   0  0.1237686E-02  0.6526858E+03  0.7818609E-02  0.9801752E-01
       -1   -1    0    0    0  501  0.00000000000E+00  0.00000000000E+00  0.12391117511E+03  0.12391117521E+03  0.50400001928E-02 0. -1.
        1   -1    0    0  501    0  0.00000000000E+00  0.00000000000E+00 -0.85948411998E+03  0.85948412000E+03  0.50400001928E-02 0.  1.
    10030    2    1    2    0    0  0.00000000000E+00  0.00000000000E+00 -0.73557294487E+03  0.98339529521E+03  0.65268579685E+03 0.  0.
        5    1    3    3  502    0 -0.68827666933E+02 -0.22676755513E+03 -0.70575836303E+03  0.74449830677E+03  0.46999998093E+01 0.  1.
       -5    1    3    3    0  502  0.68827666933E+02  0.22676755513E+03 -0.29814581837E+02  0.23889698844E+03  0.46999998093E+01 0. -1.
</event>
<event>
 5   0  0.1909053E-02  0.6975905E+03  0.7818609E-02  0.9721362E-01
        2   -1    0    0  501    0  0.00000000000E+00  0.00000000000E+00  0.16946350911E+04  0.16946350911E+04  0.25500000920E-02 0.  1.
       -2   -1    0    0    0  501  0.00000000000E+00  0.00000000000E+00 -0.71790156128E+02  0.71790156173E+02  0.25500000920E-02 0. -1.
    10030    2    1    2    0    0  0.00000000000E+00  0.00000000000E+00  0.16228449349E+04  0.17664252472E+04  0.69759047530E+03 0.  0.
        1    1    3    3  502    0  0.20879583397E+03  0.25920859184E+03  0.54737872835E+03  0.64063114710E+03  0.50400001928E-02 0. -1.
       -1    1    3    3    0  502 -0.20879583397E+03 -0.25920859184E+03  0.10754662066E+04  0.11257941001E+04  0.50400001928E-02 0.  1.
</event>
<event>
 5   0  0.1237686E-02  0.6440022E+03  0.7818609E-02  0.9818099E-01
        1   -1    0    0  501    0  0.00000000000E+00  0.00000000000E+00  0.12274946013E+04  0.12274946013E+04  0.50400001928E-02 0. -1.
       -1   -1    0    0    0  501  0.00000000000E+00  0.00000000000E+00 -0.84468578677E+02  0.84468578828E+02  0.50400001928E-02 0.  1.
    10030    2    1    2    0    0  0.00000000000E+00  0.00000000000E+00  0.11430260226E+04  0.13119631801E+04  0.64400224972E+03 0.  0.
        5    1    3    3  502    0 -0.27374404644E+03  0.15685056731E+03  0.44067555962E+03  0.54199164410E+03  0.46999998093E+01 0. -1.
       -5    1    3    3    0  502  0.27374404644E+03 -0.15685056731E+03  0.70235046299E+03  0.76997153603E+03  0.46999998093E+01 0.  1.
</event>
<event>
 5   0  0.1257442E-02  0.6993179E+03  0.7818609E-02  0.9718399E-01
        1   -1    0    0  501    0  0.00000000000E+00  0.00000000000E+00  0.50777295778E+03  0.50777295780E+03  0.50400001928E-02 0. -1.
       -1   -1    0    0    0  501  0.00000000000E+00  0.00000000000E+00 -0.24077963619E+03  0.24077963624E+03  0.50400001928E-02 0.  1.
    10030    2    1    2    0    0  0.00000000000E+00  0.00000000000E+00  0.26699332159E+03  0.74855259405E+03  0.69931791932E+03 0.  0.
        1    1    3    3  502    0  0.34700876345E+02  0.34382554758E+03  0.19055260056E+03  0.39462697778E+03  0.50400001928E-02 0. -1.
       -1    1    3    3    0  502 -0.34700876345E+02 -0.34382554758E+03  0.76440721025E+02  0.35392561626E+03  0.50400001928E-02 0.  1.
</event>
<event>
 5   0  0.1197259E-02  0.6994074E+03  0.7818609E-02  0.9718246E-01
       -1   -1    0    0    0  501  0.00000000000E+00  0.00000000000E+00  0.30991897590E+03  0.30991897594E+03  0.50400001928E-02 0.  1.
        1   -1    0    0  501    0  0.00000000000E+00  0.00000000000E+00 -0.39459559085E+03  0.39459559088E+03  0.50400001928E-02 0. -1.
    10030    2    1    2    0    0  0.00000000000E+00  0.00000000000E+00 -0.84676614947E+02  0.70451456682E+03  0.69940735323E+03 0.  0.
        3    1    3    3  502    0 -0.88756833077E+01  0.34282412174E+03  0.26612209112E+02  0.34397002206E+03  0.10100000352E+00 0. -1.
       -3    1    3    3    0  502  0.88756833077E+01 -0.34282412174E+03 -0.11128882406E+03  0.36054454477E+03  0.10100000352E+00 0.  1.
</event>
<event>
 5   0  0.1237686E-02  0.7499397E+03  0.7818609E-02  0.9635445E-01
       -1   -1    0    0    0  501  0.00000000000E+00  0.00000000000E+00  0.82449803461E+02  0.82449803615E+02  0.50400001928E-02 0. -1.
        1   -1    0    0  501    0  0.00000000000E+00  0.00000000000E+00 -0.17053087474E+04  0.17053087474E+04  0.50400001928E-02 0.  1.
    10030    2    1    2    0    0  0.00000000000E+00  0.00000000000E+00 -0.16228589440E+04  0.17877585510E+04  0.74993965413E+03 0.  0.
        5    1    3    3  502    0 -0.16316607415E+03 -0.29344420932E+02 -0.16131189871E+04  0.16216224034E+04  0.46999998093E+01 0.  1.
       -5    1    3    3    0  502  0.16316607415E+03  0.29344420932E+02 -0.97399568973E+01  0.16613614764E+03  0.46999998093E+01 0. -1.
</event>
<event>
 5   0  0.2006362E-02  0.7108616E+03  0.7818609E-02  0.9698836E-01
        2   -1    0    0  501    0  0.00000000000E+00  0.00000000000E+00  0.83919418329E+03  0.83919418329E+03  0.25500000920E-02 0. -1.
       -2   -1    0    0    0  501  0.00000000000E+00  0.00000000000E+00 -0.15053851004E+03  0.15053851006E+03  0.25500000920E-02 0.  1.
    10030    2    1    2    0    0  0.00000000000E+00  0.00000000000E+00  0.68865567325E+03  0.98973269335E+03  0.71086156738E+03 0.  0.
        4    1    3    3  502    0 -0.25123415087E+02  0.13817975914E+03 -0.11026317923E+03  0.17856207161E+03  0.12699999809E+01 0.  1.
       -4    1    3    3    0  502  0.25123415087E+02 -0.13817975914E+03  0.79891885248E+03  0.81117062174E+03  0.12699999809E+01 0. -1.
</event>
<event>
 5   0  0.1948138E-02  0.7020768E+03  0.7818609E-02  0.9713687E-01
       -2   -1    0    0    0  501  0.00000000000E+00  0.00000000000E+00  0.17778361474E+03  0.17778361475E+03  0.25500000920E-02 0. -1.
        2   -1    0    0  501    0  0.00000000000E+00  0.00000000000E+00 -0.69313459865E+03  0.69313459866E+03  0.25500000920E-02 0.  1.
    10030    2    1    2    0    0  0.00000000000E+00  0.00000000000E+00 -0.51535098392E+03  0.87091821341E+03  0.70207684610E+03 0.  0.
        3    1    3    3  502    0 -0.21612935723E+03  0.36308389428E+01 -0.60078410561E+03  0.63848777107E+03  0.10100000352E+00 0.  1.
       -3    1    3    3    0  502  0.21612935723E+03 -0.36308389428E+01  0.85433121691E+02  0.23243044235E+03  0.10100000352E+00 0. -1.
</event>
<event>
 5   0  0.2026361E-02  0.7267795E+03  0.7818609E-02  0.9672501E-01
       -2   -1    0    0    0  501  0.00000000000E+00  0.00000000000E+00  0.11801723964E+03  0.11801723967E+03  0.25500000920E-02 0.  1.
        2   -1    0    0  501    0  0.00000000000E+00  0.00000000000E+00 -0.11189222205E+04  0.11189222205E+04  0.25500000920E-02 0. -1.
    10030    2    1    2    0    0  0.00000000000E+00  0.00000000000E+00 -0.10009049809E+04  0.12369394602E+04  0.72677950401E+03 0.  0.
        2    1    3    3  502    0  0.74818573769E+02  0.12587586035E+03  0.65580972636E+02  0.16044754650E+03  0.25500000920E-02 0.  1.
       -2    1    3    3    0  502 -0.74818573769E+02 -0.12587586035E+03 -0.10664859535E+04  0.10764919137E+04  0.25500000920E-02 0. -1.
</event>
<event>
 5   0  0.1909053E-02  0.6905519E+03  0.7818609E-02  0.9733528E-01
       -2   -1    0    0    0  501  0.00000000000E+00  0.00000000000E+00  0.19941024489E+03  0.19941024490E+03  0.25500000920E-02 0. -1.
        2   -1    0    0  501    0  0.00000000000E+00  0.00000000000E+00 -0.59784022450E+03  0.59784022450E+03  0.25500000920E-02 0.  1.
    10030    2    1    2    0    0  0.00000000000E+00  0.00000000000E+00 -0.39842997961E+03  0.79725046940E+03  0.69055185346E+03 0.  0.
        1    1    3    3  502    0  0.18964128211E+03 -0.28606024901E+03 -0.24273846689E+03  0.42037631389E+03  0.50400001928E-02 0.  1.
       -1    1    3    3    0  502 -0.18964128211E+03  0.28606024901E+03 -0.15569151272E+03  0.37687415552E+03  0.50400001928E-02 0. -1.
</event>
<event>
 5   0  0.1973067E-02  0.7243279E+03  0.7818609E-02  0.9676509E-01
        2   -1    0    0  501    0  0.00000000000E+00  0.00000000000E+00  0.17151951254E+04  0.17151951254E+04  0.25500000920E-02 0. -1.
       -2   -1    0    0    0  501  0.00000000000E+00  0.00000000000E+00 -0.76471031195E+02  0.76471031237E+02  0.25500000920E-02 0.  1.
    10030    2    1    2    0    0  0.00000000000E+00  0.00000000000E+00  0.16387240942E+04  0.17916661566E+04  0.72432793672E+03 0.  0.
        5    1    3    3  502    0  0.13321172069E+03 -0.33044583081E+03  0.97968287347E+03  0.10424684322E+04  0.46999998093E+01 0. -1.
       -5    1    3    3    0  502 -0.13321172069E+03  0.33044583081E+03  0.65904122074E+03  0.74919772441E+03  0.46999998093E+01 0.  1.
</event>
<event>
 5   0  0.1948138E-02  0.6990652E+03  0.7818609E-02  0.9718832E-01
        2   -1    0    0  501    0  0.00000000000E+00  0.00000000000E+00  0.13820854744E+04  0.13820854744E+04  0.25500000920E-02 0.  1.
       -2   -1    0    0    0  501  0.00000000000E+00  0.00000000000E+00 -0.88397601752E+02  0.88397601788E+02  0.25500000920E-02 0. -1.
    10030    2    1    2    0    0  0.00000000000E+00  0.00000000000E+00  0.12936878727E+04  0.14704830762E+04  0.69906520835E+03 0.  0.
        3    1    3    3  502    0  0.15144888697E+03 -0.69702703473E+02  0.12930592783E+04  0.13037628388E+04  0.10100000352E+00 0.  1.
       -3    1    3    3    0  502 -0.15144888697E+03  0.69702703473E+02  0.62859430956E+00  0.16672023743E+03  0.10100000352E+00 0. -1.
</event>
<event>
 5   0  0.1257442E-02  0.7033217E+03  0.7818609E-02  0.9711568E-01
        1   -1    0    0  501    0  0.00000000000E+00  0.00000000000E+00  0.56482164555E+03  0.56482164557E+03  0.50400001928E-02 0.  1.
       -1   -1    0    0    0  501  0.00000000000E+00  0.00000000000E+00 -0.21894586030E+03  0.21894586036E+03  0.50400001928E-02 0. -1.
    10030    2    1    2    0    0  0.00000000000E+00  0.00000000000E+00  0.34587578524E+03  0.78376750593E+03  0.70332172193E+03 0.  0.
        1    1    3    3  502    0  0.17152593399E+03  0.14310844098E+03 -0.12972279194E+03  0.25831990764E+03  0.50400001928E-02 0. -1.
       -1    1    3    3    0  502 -0.17152593399E+03 -0.14310844098E+03  0.47559857718E+03  0.52544759829E+03  0.50400001928E-02 0.  1.
</event>
<event>
 5   0  0.1197259E-02  0.7395241E+03  0.7818609E-02  0.9651930E-01
       -1   -1    0    0    0  501  0.00000000000E+00  0.00000000000E+00  0.93560139032E+02  0.93560139168E+02  0.50400001928E-02 0.  1.
        1   -1    0    0  501    0  0.00000000000E+00  0.00000000000E+00 -0.14613484862E+04  0.14613484862E+04  0.50400001928E-02 0. -1.
    10030    2    1    2    0    0  0.00000000000E+00  0.00000000000E+00 -0.13677883471E+04  0.15549086253E+04  0.73952408386E+03 0.  0.
        3    1    3    3  502    0 -0.18537361716E+03 -0.31917922314E+03 -0.73020838788E+03  0.81819499776E+03  0.10100000352E+00 0.  1.
       -3    1    3    3    0  502  0.18537361716E+03  0.31917922314E+03 -0.63757995925E+03  0.73671362758E+03  0.10100000352E+00 0. -1.
</event>
<event>
 5   0  0.1237686E-02  0.7051557E+03  0.7818609E-02  0.9708456E-01
       -1   -1    0    0    0  501  0.00000000000E+00  0.00000000000E+00  0.94557629450E+03  0.94557629451E+03  0.50400001928E-02 0.  1.
        1   -1    0    0  501    0  0.00000000000E+00  0.00000000000E+00 -0.13146599673E+03  0.13146599683E+03  0.50400001928E-02 0. -1.
    10030    2    1    2    0    0  0.00000000000E+00  0.00000000000E+00  0.81411029776E+03  0.10770422913E+04  0.70515567104E+03 0.  0.
        5    1    3    3  502    0  0.13946026235E+03 -0.86559856607E+02  0.88360642233E+03  0.89873476239E+03  0.46999998093E+01 0.  1.
       -5    1    3    3    0  502 -0.13946026235E+03  0.86559856607E+02 -0.69496124565E+02  0.17830752895E+03  0.46999998093E+01 0. -1.
</event>
<event>
 5   0  0.1197259E-02  0.6984186E+03  0.7818609E-02  0.9719940E-01
        1   -1    0    0  501    0  0.00000000000E+00  0.00000000000E+00  0.42613001012E+03  0.42613001015E+03  0.50400001928E-02 0. -1.
       -1   -1    0    0    0  501  0.00000000000E+00  0.00000000000E+00 -0.28617355213E+03  0.28617355218E+03  0.50400001928E-02 0.  1.
    10030    2    1    2    0    0  0.00000000000E+00  0.00000000000E+00  0.13995645799E+03  0.71230356233E+03  0.69841860998E+03 0.  0.
        3    1    3    3  502    0 -0.22253019650E+03  0.10369152067E+03 -0.18330456211E+03  0.30638569240E+03  0.10100000352E+00 0.  1.
       -3    1    3    3    0  502  0.22253019650E+03 -0.10369152067E+03  0.32326102010E+03  0.40591786993E+03  0.10100000352E+00 0. -1.
</event>
<event>
 5   0  0.2026361E-02  0.6965417E+03  0.7818609E-02  0.9723165E-01
       -2   -1    0    0    0  501  0.00000000000E+00  0.00000000000E+00  0.84251555363E+02  0.84251555402E+02  0.25500000920E-02 0. -1.
        2   -1    0    0  501    0  0.00000000000E+00  0.00000000000E+00 -0.14396479486E+04  0.14396479486E+04  0.25500000920E-02 0.  1.
    10030    2    1    2    0    0  0.00000000000E+00  0.00000000000E+00 -0.13553963932E+04  0.15238995040E+04  0.69654168253E+03 0.  0.
        2    1    3    3  502    0 -0.32274062549E+03  0.63327250770E+02 -0.92830229200E+03  0.98484364107E+03  0.25500000920E-02 0.  1.
       -2    1    3    3    0  502  0.32274062549E+03 -0.63327250770E+02 -0.42709410122E+03  0.53905586291E+03  0.25500000920E-02 0. -1.
</event>
<event>
 5   0  0.1948138E-02  0.7037000E+03  0.7818609E-02  0.9710926E-01
       -2   -1    0    0    0  501  0.00000000000E+00  0.00000000000E+00  0.10153966814E+03  0.10153966817E+03  0.25500000920E-02 0.  1.
        2   -1    0    0  501    0  0.00000000000E+00  0.00000000000E+00 -0.12192124270E+04  0.12192124270E+04  0.25500000920E-02 0. -1.
    10030    2    1    2    0    0  0.00000000000E+00  0.00000000000E+00 -0.11176727589E+04  0.13207520952E+04  0.70370000783E+03 0.  0.
        3    1    3    3  502    0 -0.24317799903E+03 -0.23101827767E+03 -0.35938056181E+03  0.49158863111E+03  0.10100000352E+00 0.  1.
       -3    1    3    3    0  502  0.24317799903E+03  0.23101827767E+03 -0.75829219710E+03  0.82916346411E+03  0.10100000352E+00 0. -1.
</event>
<event>
 5   0  0.1197259E-02  0.7055103E+03  0.7818609E-02  0.9707855E-01
       -1   -1    0    0    0  501  0.00000000000E+00  0.00000000000E+00  0.10586979692E+03  0.10586979704E+03  0.50400001928E-02 0.  1.
        1   -1    0    0  501    0  0.00000000000E+00  0.00000000000E+00 -0.11753702384E+04  0.11753702384E+04  0.50400001928E-02 0. -1.
    10030    2    1    2    0    0  0.00000000000E+00  0.00000000000E+00 -0.10695004414E+04  0.12812400354E+04  0.70551033593E+03 0.  0.
        3    1    3    3  502    0  0.44775927469E+00  0.13186663430E+03  0.59425296647E+02  0.14463881157E+03  0.10100000352E+00 0.  1.
       -3    1    3    3    0  502 -0.44775927469E+00 -0.13186663430E+03 -0.11289257381E+04  0.11366012238E+04  0.10100000352E+00 0. -1.
</event>
<event>
 5   0  0.1223742E-02  0.7023708E+03  0.7818609E-02  0.9713186E-01
        1   -1    0    0  501    0  0.00000000000E+00  0.00000000000E+00  0.15219331813E+03  0.15219331821E+03  0.50400001928E-02 0. -1.
       -1   -1    0    0    0  501  0.00000000000E+00  0.00000000000E+00 -0.81035885034E+03  0.81035885036E+03  0.50400001928E-02 0.  1.
    10030    2    1    2    0    0  0.00000000000E+00  0.00000000000E+00 -0.65816553222E+03  0.96255216857E+03  0.70237084892E+03 0.  0.
        2    1    3    3  502    0  0.28429378035E+03  0.15274450343E+03 -0.51886356517E+03  0.61104274494E+03  0.25500000920E-02 0.  1.
       -2    1    3    3    0  502 -0.28429378035E+03 -0.15274450343E+03 -0.13930196705E+03  0.35150942363E+03  0.25500000920E-02 0. -1.
</event>
<event>
 5   0  0.2026361E-02  0.6983846E+03  0.7818609E-02  0.9719999E-01
       -2   -1    0    0    0  501  0.00000000000E+00  0.00000000000E+00  0.10686366201E+03  0.10686366205E+03  0.25500000920E-02 0. -1.
        2   -1    0    0  501    0  0.00000000000E+00  0.00000000000E+00 -0.11410356892E+04  0.11410356892E+04  0.25500000920E-02 0.  1.
    10030    2    1    2    0    0  0.00000000000E+00  0.00000000000E+00 -0.10341720271E+04  0.12478993512E+04  0.69838457100E+03 0.  0.
        2    1    3    3  502    0  0.16047048120E+03  0.29995547989E+03 -0.37626345683E+03  0.50724575326E+03  0.25500000920E-02 0. -1.
       -2    1    3    3    0  502 -0.16047048120E+03 -0.29995547989E+03 -0.65790857031E+03  0.74065359794E+03  0.25500000920E-02 0.  1.
</event>
<event>
 5   0  0.1223742E-02  0.6968917E+03  0.7818609E-02  0.9722563E-01
        1   -1    0    0  501    0  0.00000000000E+00  0.00000000000E+00  0.13642974715E+04  0.13642974715E+04  0.50400001928E-02 0. -1.
       -1   -1    0    0    0  501  0.00000000000E+00  0.00000000000E+00 -0.88994162263E+02  0.88994162405E+02  0.50400001928E-02 0.  1.
    10030    2    1    2    0    0  0.00000000000E+00  0.00000000000E+00  0.12753033092E+04  0.14532916339E+04  0.69689170080E+03 0.  0.
        2    1    3    3  502    0  0.22811224560E+03  0.20093063992E+02  0.89961201978E+02  0.24603240779E+03  0.25500000920E-02 0.  1.
       -2    1    3    3    0  502 -0.22811224560E+03 -0.20093063992E+02  0.11853421072E+04  0.12072592261E+04  0.25500000920E-02 0. -1.
</event>
<event>
 5   0  0.7947250E-03  0.6994979E+03  0.7818609E-02  0.9718091E-01
       -3   -1    0    0    0  501  0.00000000000E+00  0.00000000000E+00  0.21629572277E+03  0.21629574635E+03  0.10100000352E+00 0. -1.
        3   -1    0    0  501    0  0.00000000000E+00  0.00000000000E+00 -0.56554197132E+03  0.56554198034E+03  0.10100000352E+00 0.  1.
    10030    2    1    2    0    0  0.00000000000E+00  0.00000000000E+00 -0.34924624855E+03  0.78183772670E+03  0.69949788331E+03 0.  0.
        4    1    3    3  502    0  0.28338279708E+03 -0.32257826704E+02  0.51631132840E+02  0.28985127884E+03  0.12699999809E+01 0.  1.
       -4    1    3    3    0  502 -0.28338279708E+03  0.32257826704E+02 -0.40087738139E+03  0.49198644786E+03  0.12699999809E+01 0. -1.
</event>
<event>
 5   0  0.1909053E-02  0.7370000E+03  0.7818609E-02  0.9655969E-01
        2   -1    0    0  501    0  0.00000000000E+00  0.00000000000E+00  0.64626375857E+03  0.64626375857E+03  0.25500000920E-02 0. -1.
       -2   -1    0    0    0  501  0.00000000000E+00  0.00000000000E+00 -0.21011891226E+03  0.21011891228E+03  0.25500000920E-02 0.  1.
    10030    2    1    2    0    0  0.00000000000E+00  0.00000000000E+00  0.43614484631E+03  0.85638267085E+03  0.73699996742E+03 0.  0.
        1    1    3    3  502    0  0.98729972955E+02  0.35411722842E+03  0.18854751643E+03  0.41315467443E+03  0.50400001928E-02 0.  1.
       -1    1    3    3    0  502 -0.98729972955E+02 -0.35411722842E+03  0.24759732988E+03  0.44322799642E+03  0.50400001928E-02 0. -1.
</event>
<event>
 5   0  0.1223742E-02  0.6980393E+03  0.7818609E-02  0.9720591E-01
       -1   -1    0    0    0  501  0.00000000000E+00  0.00000000000E+00  0.10460146321E+03  0.10460146333E+03  0.50400001928E-02 0. -1.
        1   -1    0    0  501    0  0.00000000000E+00  0.00000000000E+00 -0.11645604274E+04  0.11645604274E+04  0.50400001928E-02 0.  1.
    10030    2    1    2    0    0  0.00000000000E+00  0.00000000000E+00 -0.10599589642E+04  0.12691618907E+04  0.69803932492E+03 0.  0.
        2    1    3    3  502    0 -0.25755449933E+03 -0.23153397787E+03 -0.45130407998E+03  0.56887404199E+03  0.25500000920E-02 0.  1.
       -2    1    3    3    0  502  0.25755449933E+03  0.23153397787E+03 -0.60865488418E+03  0.70028784872E+03  0.25500000920E-02 0. -1.
</event>
<event>
 5   0  0.1257442E-02  0.7073077E+03  0.7818609E-02  0.9704816E-01
        1   -1    0    0  501    0  0.00000000000E+00  0.00000000000E+00  0.17374980100E+03  0.17374980108E+03  0.50400001928E-02 0.  1.
       -1   -1    0    0    0  501  0.00000000000E+00  0.00000000000E+00 -0.71983418247E+03  0.71983418249E+03  0.50400001928E-02 0. -1.
    10030    2    1    2    0    0  0.00000000000E+00  0.00000000000E+00 -0.54608438147E+03  0.89358398356E+03  0.70730770107E+03 0.  0.
        1    1    3    3  502    0  0.21424092328E+03 -0.20858147567E+03 -0.51163206310E+03  0.59259832367E+03  0.50400001928E-02 0. -1.
       -1    1    3    3    0  502 -0.21424092328E+03  0.20858147567E+03 -0.34452318370E+02  0.30098565990E+03  0.50400001928E-02 0.  1.
</event>
<event>
 5   0  0.1223742E-02  0.6944320E+03  0.7818609E-02  0.9726802E-01
       -1   -1    0    0    0  501  0.00000000000E+00  0.00000000000E+00  0.15202852929E+03  0.15202852938E+03  0.50400001928E-02 0.  1.
        1   -1    0    0  501    0  0.00000000000E+00  0.00000000000E+00 -0.79300223524E+03  0.79300223526E+03  0.50400001928E-02 0. -1.
    10030    2    1    2    0    0  0.00000000000E+00  0.00000000000E+00 -0.64097370595E+03  0.94503076464E+03  0.69443203727E+03 0.  0.
        2    1    3    3  502    0  0.19441292902E+03  0.11975591292E+03 -0.67645506542E+03  0.71395330463E+03  0.25500000920E-02 0. -1.
       -2    1    3    3    0  502 -0.19441292902E+03 -0.11975591292E+03  0.35481359467E+02  0.23107746001E+03  0.25500000920E-02 0.  1.
</event>
<event>
 5   0  0.1909053E-02  0.7020150E+03  0.7818609E-02  0.9713792E-01
        2   -1    0    0  501    0  0.00000000000E+00  0.00000000000E+00  0.68701337168E+03  0.68701337168E+03  0.25500000920E-02 0. -1.
       -2   -1    0    0    0  501  0.00000000000E+00  0.00000000000E+00 -0.17933604552E+03  0.17933604554E+03  0.25500000920E-02 0.  1.
    10030    2    1    2    0    0  0.00000000000E+00  0.00000000000E+00  0.50767732616E+03  0.86634941722E+03  0.70201498932E+03 0.  0.
        1    1    3    3  502    0  0.21372683292E+03 -0.19391414787E+03  0.50042325224E+03  0.57767230093E+03  0.50400001928E-02 0. -1.
       -1    1    3    3    0  502 -0.21372683292E+03  0.19391414787E+03  0.72540739203E+01  0.28867711629E+03  0.50400001928E-02 0.  1.
</event>
<event>
 5   0  0.1973067E-02  0.6888704E+03  0.7818609E-02  0.9736457E-01
       -2   -1    0    0    0  501  0.00000000000E+00  0.00000000000E+00  0.24404322109E+03  0.24404322110E+03  0.25500000920E-02 0. -1.
        2   -1    0    0  501    0  0.00000000000E+00  0.00000000000E+00 -0.48612544548E+03  0.48612544549E+03  0.25500000920E-02 0.  1.
    10030    2    1    2    0    0  0.00000000000E+00  0.00000000000E+00 -0.24208222439E+03  0.73016866659E+03  0.68887043652E+03 0.  0.
        5    1    3    3  502    0 -0.30575771853E+03 -0.15822120466E+03 -0.11088561602E+03  0.36171735082E+03  0.46999998093E+01 0.  1.
       -5    1    3    3    0  502  0.30575771853E+03  0.15822120466E+03 -0.13119660838E+03  0.36845131577E+03  0.46999998093E+01 0. -1.
</event>
<event>
 5   0  0.1197259E-02  0.6980982E+03  0.7818609E-02  0.9720490E-01
       -1   -1    0    0    0  501  0.00000000000E+00  0.00000000000E+00  0.32692549742E+03  0.32692549746E+03  0.50400001928E-02 0. -1.
        1   -1    0    0  501    0  0.00000000000E+00  0.00000000000E+00 -0.37266986560E+03  0.37266986563E+03  0.50400001928E-02 0.  1.
    10030    2    1    2    0    0  0.00000000000E+00  0.00000000000E+00 -0.45744368178E+02  0.69959536310E+03  0.69809822006E+03 0.  0.
        3    1    3    3  502    0 -0.74839147890E+02 -0.27470035505E+02  0.31767974674E+03  0.32753004839E+03  0.10100000352E+00 0. -1.
       -3    1    3    3    0  502  0.74839147890E+02  0.27470035505E+02 -0.36342411491E+03  0.37206531471E+03  0.10100000352E+00 0.  1.
</event>
<event>
 5   0  0.2006362E-02  0.7024556E+03  0.7818609E-02  0.9713042E-01
        2   -1    0    0  501    0  0.00000000000E+00  0.00000000000E+00  0.16067721482E+04  0.16067721482E+04  0.25500000920E-02 0. -1.
       -2   -1    0    0    0  501  0.00000000000E+00  0.00000000000E+00 -0.76775648085E+02  0.76775648127E+02  0.25500000920E-02 0.  1.
    10030    2    1    2    0    0  0.00000000000E+00  0.00000000000E+00  0.15299965001E+04  0.16835477963E+04  0.70245561580E+03 0.  0.
        4    1    3    3  502    0  0.10029450770E+03  0.33142995772E+03  0.90586309349E+03  0.96979088581E+03  0.12699999809E+01 0.  1.
       -4    1    3    3    0  502 -0.10029450770E+03 -0.33142995772E+03  0.62413340664E+03  0.71375691054E+03  0.12699999809E+01 0. -1.
</event>
<event>
 5   0  0.1226303E-02  0.6838368E+03  0.7818609E-02  0.9745280E-01
       -1   -1    0    0    0  501  0.00000000000E+00  0.00000000000E+00  0.54957339943E+03  0.54957339945E+03  0.50400001928E-02 0.  1.
        1   -1    0    0  501    0  0.00000000000E+00  0.00000000000E+00 -0.21272533872E+03  0.21272533878E+03  0.50400001928E-02 0. -1.
    10030    2    1    2    0    0  0.00000000000E+00  0.00000000000E+00  0.33684806071E+03  0.76229873824E+03  0.68383678631E+03 0.  0.
        4    1    3    3  502    0  0.14197115580E+03  0.14882598663E+03  0.47289562869E+03  0.51569067464E+03  0.12699999809E+01 0.  1.
       -4    1    3    3    0  502 -0.14197115580E+03 -0.14882598663E+03 -0.13604756798E+03  0.24660806360E+03  0.12699999809E+01 0. -1.
</event>
<event>
 5   0  0.1237686E-02  0.7006487E+03  0.7818609E-02  0.9716123E-01
       -1   -1    0    0    0  501  0.00000000000E+00  0.00000000000E+00  0.10098186331E+03  0.10098186344E+03  0.50400001928E-02 0. -1.
        1   -1    0    0  501    0  0.00000000000E+00  0.00000000000E+00 -0.12153385704E+04  0.12153385704E+04  0.50400001928E-02 0.  1.
    10030    2    1    2    0    0  0.00000000000E+00  0.00000000000E+00 -0.11143567071E+04  0.13163204338E+04  0.70064870937E+03 0.  0.
        5    1    3    3  502    0 -0.25899673126E+03 -0.17272000636E+03 -0.85890725209E+03  0.91359469410E+03  0.46999998093E+01 0. -1.
       -5    1    3    3    0  502  0.25899673126E+03  0.17272000636E+03 -0.25544945499E+03  0.40272573974E+03  0.46999998093E+01 0.  1.
</event>
<event>
 5   0  0.1223742E-02  0.6990390E+03  0.7818609E-02  0.9718877E-01
       -1   -1    0    0    0  501  0.00000000000E+00  0.00000000000E+00  0.37879404461E+03  0.37879404465E+03  0.50400001928E-02 0.  1.
        1   -1    0    0  501    0  0.00000000000E+00  0.00000000000E+00 -0.32250735924E+03  0.32250735928E+03  0.50400001928E-02 0. -1.
    10030    2    1    2    0    0  0.00000000000E+00  0.00000000000E+00  0.56286685372E+02  0.70130140393E+03  0.69903896043E+03 0.  0.
        2    1    3    3  502    0 -0.84976286727E+02 -0.17731834958E+03 -0.26175746599E+03  0.32738316604E+03  0.25500000920E-02 0. -1.
       -2    1    3    3    0  502  0.84976286727E+02  0.17731834958E+03  0.31804415136E+03  0.37391823788E+03  0.25500000920E-02 0.  1.
</event>
<event>
 5   0  0.1223742E-02  0.7030635E+03  0.7818609E-02  0.9712007E-01
       -1   -1    0    0    0  501  0.00000000000E+00  0.00000000000E+00  0.22284625692E+03  0.22284625697E+03  0.50400001928E-02 0.  1.
        1   -1    0    0  501    0  0.00000000000E+00  0.00000000000E+00 -0.55452841975E+03  0.55452841977E+03  0.50400001928E-02 0. -1.
    10030    2    1    2    0    0  0.00000000000E+00  0.00000000000E+00 -0.33168216283E+03  0.77737467674E+03  0.70306353262E+03 0.  0.
        2    1    3    3  502    0 -0.34604785395E+01 -0.29466629530E+03 -0.37776119960E+03  0.47910721601E+03  0.25500000920E-02 0. -1.
       -2    1    3    3    0  502  0.34604785395E+01  0.29466629530E+03  0.46079036765E+02  0.29826746074E+03  0.25500000920E-02 0.  1.
</event>
<event>
 5   0  0.1237686E-02  0.7023782E+03  0.7818609E-02  0.9713174E-01
        1   -1    0    0  501    0  0.00000000000E+00  0.00000000000E+00  0.30909600796E+03  0.30909600800E+03  0.50400001928E-02 0.  1.
       -1   -1    0    0    0  501  0.00000000000E+00  0.00000000000E+00 -0.39901447937E+03  0.39901447940E+03  0.50400001928E-02 0. -1.
    10030    2    1    2    0    0  0.00000000000E+00  0.00000000000E+00 -0.89918471417E+02  0.70811048740E+03  0.70237819646E+03 0.  0.
        5    1    3    3  502    0 -0.21362816048E+03 -0.26897468596E+03  0.28624935153E+02  0.34471125532E+03  0.46999998093E+01 0.  1.
       -5    1    3    3    0  502  0.21362816048E+03  0.26897468596E+03 -0.11854340657E+03  0.36339923208E+03  0.46999998093E+01 0. -1.
</event>
<event>
 5   0  0.1237686E-02  0.7040124E+03  0.7818609E-02  0.9710395E-01
       -1   -1    0    0    0  501  0.00000000000E+00  0.00000000000E+00  0.93532062296E+02  0.93532062431E+02  0.50400001928E-02 0. -1.
        1   -1    0    0  501    0  0.00000000000E+00  0.00000000000E+00 -0.13247688215E+04  0.13247688216E+04  0.50400001928E-02 0.  1.
    10030    2    1    2    0    0  0.00000000000E+00  0.00000000000E+00 -0.12312367593E+04  0.14183008840E+04  0.70401238639E+03 0.  0.
        5    1    3    3  502    0 -0.76438266236E+00 -0.20444211790E+03 -0.11928243796E+04  0.12102269434E+04  0.46999998093E+01 0.  1.
       -5    1    3    3    0  502  0.76438266236E+00  0.20444211790E+03 -0.38412379627E+02  0.20807394061E+03  0.46999998093E+01 0. -1.
</event>
<event>
 5   0  0.1223742E-02  0.6999495E+03  0.7818609E-02  0.9717319E-01
        1   -1    0    0  501    0  0.00000000000E+00  0.00000000000E+00  0.83699035880E+03  0.83699035882E+03  0.50400001928E-02 0. -1.
       -1   -1    0    0    0  501  0.00000000000E+00  0.00000000000E+00 -0.14633659718E+03  0.14633659727E+03  0.50400001928E-02 0.  1.
    10030    2    1    2    0    0  0.00000000000E+00  0.00000000000E+00  0.69065376162E+03  0.98332695609E+03  0.69994948684E+03 0.  0.
        2    1    3    3  502    0  0.14967955419E+02 -0.11725344281E+03 -0.11744392120E+03  0.16662978178E+03  0.25500000920E-02 0.  1.
       -2    1    3    3    0  502 -0.14967955419E+02  0.11725344281E+03  0.80809768282E+03  0.81669717431E+03  0.25500000920E-02 0. -1.
</event>
<event>
 5   0  0.7947250E-03  0.6985956E+03  0.7818609E-02  0.9719637E-01
       -4   -1    0    0    0  501  0.00000000000E+00  0.00000000000E+00  0.16709295170E+03  0.16709777799E+03  0.12699999809E+01 0. -1.
        4   -1    0    0  501    0  0.00000000000E+00  0.00000000000E+00 -0.73017021460E+03  0.73017131907E+03  0.12699999809E+01 0.  1.
    10030    2    1    2    0    0  0.00000000000E+00  0.00000000000E+00 -0.56307726290E+03  0.89726909706E+03  0.69859561160E+03 0.  0.
        3    1    3    3  502    0  0.13712127915E+03 -0.25155585086E+03 -0.24897245081E+02  0.28758037888E+03  0.10100000352E+00 0. -1.
       -3    1    3    3    0  502 -0.13712127915E+03  0.25155585086E+03 -0.53818001781E+03  0.60968871818E+03  0.10100000352E+00 0.  1.
</event>
<event>
 5   0  0.7947250E-03  0.6946590E+03  0.7818609E-02  0.9726410E-01
        4   -1    0    0  501    0  0.00000000000E+00  0.00000000000E+00  0.76031695451E+02  0.76042301472E+02  0.12699999809E+01 0. -1.
       -4   -1    0    0    0  501  0.00000000000E+00  0.00000000000E+00 -0.15865559608E+04  0.15865564691E+04  0.12699999809E+01 0.  1.
    10030    2    1    2    0    0  0.00000000000E+00  0.00000000000E+00 -0.15105242653E+04  0.16625987705E+04  0.69465899238E+03 0.  0.
        2    1    3    3  502    0 -0.25645789280E+03  0.14801424804E+03 -0.11897745746E+04  0.12260678638E+04  0.25500000920E-02 0.  1.
       -2    1    3    3    0  502  0.25645789280E+03 -0.14801424804E+03 -0.32074969075E+03  0.43653090672E+03  0.25500000920E-02 0. -1.
</event>
<event>
 5   0  0.1909053E-02  0.7129795E+03  0.7818609E-02  0.9695290E-01
        2   -1    0    0  501    0  0.00000000000E+00  0.00000000000E+00  0.57923980461E+03  0.57923980462E+03  0.25500000920E-02 0.  1.
       -2   -1    0    0    0  501  0.00000000000E+00  0.00000000000E+00 -0.21939950294E+03  0.21939950295E+03  0.25500000920E-02 0. -1.
    10030    2    1    2    0    0  0.00000000000E+00  0.00000000000E+00  0.35984030168E+03  0.79863930757E+03  0.71297945334E+03 0.  0.
        1    1    3    3  502    0  0.64140399600E+02 -0.34453428715E+03  0.10674931654E+03  0.36635131020E+03  0.50400001928E-02 0.  1.
       -1    1    3    3    0  502 -0.64140399600E+02  0.34453428715E+03  0.25309098514E+03  0.43228799737E+03  0.50400001928E-02 0. -1.
</event>
<event>
 5   0  0.1237686E-02  0.6990050E+03  0.7818609E-02  0.9718935E-01
        1   -1    0    0  501    0  0.00000000000E+00  0.00000000000E+00  0.38865455683E+03  0.38865455686E+03  0.50400001928E-02 0. -1.
       -1   -1    0    0    0  501  0.00000000000E+00  0.00000000000E+00 -0.31429448880E+03  0.31429448884E+03  0.50400001928E-02 0.  1.
    10030    2    1    2    0    0  0.00000000000E+00  0.00000000000E+00  0.74360068033E+02  0.70294904570E+03  0.69900496503E+03 0.  0.
        5    1    3    3  502    0 -0.12918623638E+03  0.15282679341E+03  0.32530103299E+03  0.38195283023E+03  0.46999998093E+01 0. -1.
       -5    1    3    3    0  502  0.12918623638E+03 -0.15282679341E+03 -0.25094096496E+03  0.32099621547E+03  0.46999998093E+01 0.  1.
</event>
<event>
 5   0  0.1223742E-02  0.6979503E+03  0.7818609E-02  0.9720744E-01
       -1   -1    0    0    0  501  0.00000000000E+00  0.00000000000E+00  0.42540266639E+03  0.42540266642E+03  0.50400001928E-02 0.  1.
        1   -1    0    0  501    0  0.00000000000E+00  0.00000000000E+00 -0.28627852384E+03  0.28627852388E+03  0.50400001928E-02 0. -1.
    10030    2    1    2    0    0  0.00000000000E+00  0.00000000000E+00  0.13912414255E+03  0.71168119030E+03  0.69795027730E+03 0.  0.
        2    1    3    3  502    0 -0.97976846844E+02 -0.14623283849E+03  0.37682082656E+03  0.41590556729E+03  0.25500000920E-02 0.  1.
       -2    1    3    3    0  502  0.97976846844E+02  0.14623283849E+03 -0.23769668401E+03  0.29577562301E+03  0.25500000920E-02 0. -1.
</event>
<event>
 5   0  0.1257442E-02  0.6974071E+03  0.7818609E-02  0.9721677E-01
        1   -1    0    0  501    0  0.00000000000E+00  0.00000000000E+00  0.21622799559E+03  0.21622799565E+03  0.50400001928E-02 0.  1.
       -1   -1    0    0    0  501  0.00000000000E+00  0.00000000000E+00 -0.56234231215E+03  0.56234231217E+03  0.50400001928E-02 0. -1.
    10030    2    1    2    0    0  0.00000000000E+00  0.00000000000E+00 -0.34611431656E+03  0.77857030782E+03  0.69740705768E+03 0.  0.
        1    1    3    3  502    0 -0.24043253783E+03 -0.15196170810E+03  0.52147105890E+02  0.28917034193E+03  0.50400001928E-02 0.  1.
       -1    1    3    3    0  502  0.24043253783E+03  0.15196170810E+03 -0.39826142245E+03  0.48939996589E+03  0.50400001928E-02 0. -1.
</event>
<event>
 5   0  0.1973067E-02  0.7033043E+03  0.7818609E-02  0.9711598E-01
       -2   -1    0    0    0  501  0.00000000000E+00  0.00000000000E+00  0.61100750644E+03  0.61100750645E+03  0.25500000920E-02 0.  1.
        2   -1    0    0  501    0  0.00000000000E+00  0.00000000000E+00 -0.20238576111E+03  0.20238576113E+03  0.25500000920E-02 0. -1.
    10030    2    1    2    0    0  0.00000000000E+00  0.00000000000E+00  0.40862174533E+03  0.81339326757E+03  0.70330425634E+03 0.  0.
        5    1    3    3  502    0 -0.17178195324E+02  0.11491028658E+03 -0.17950705827E+03  0.21387926109E+03  0.46999998093E+01 0. -1.
       -5    1    3    3    0  502  0.17178195324E+02 -0.11491028658E+03  0.58812880360E+03  0.59951400649E+03  0.46999998093E+01 0.  1.
</event>
<event>
 5   0  0.1973067E-02  0.6906442E+03  0.7818609E-02  0.9733367E-01
        2   -1    0    0  501    0  0.00000000000E+00  0.00000000000E+00  0.31102421118E+03  0.31102421119E+03  0.25500000920E-02 0.  1.
       -2   -1    0    0    0  501  0.00000000000E+00  0.00000000000E+00 -0.38340215606E+03  0.38340215607E+03  0.25500000920E-02 0. -1.
    10030    2    1    2    0    0  0.00000000000E+00  0.00000000000E+00 -0.72377944879E+02  0.69442636726E+03  0.69064420119E+03 0.  0.
        5    1    3    3  502    0  0.13019872756E+03 -0.31319827305E+03  0.28821086264E+02  0.34043738325E+03  0.46999998093E+01 0.  1.
       -5    1    3    3    0  502 -0.13019872756E+03  0.31319827305E+03 -0.10119903114E+03  0.35398898401E+03  0.46999998093E+01 0. -1.
</event>
<event>
 5   0  0.2006362E-02  0.7074287E+03  0.7818609E-02  0.9704612E-01
        2   -1    0    0  501    0  0.00000000000E+00  0.00000000000E+00  0.44072518133E+03  0.44072518134E+03  0.25500000920E-02 0. -1.
       -2   -1    0    0    0  501  0.00000000000E+00  0.00000000000E+00 -0.28388179330E+03  0.28388179331E+03  0.25500000920E-02 0.  1.
    10030    2    1    2    0    0  0.00000000000E+00  0.00000000000E+00  0.15684338804E+03  0.72460697465E+03  0.70742873799E+03 0.  0.
        4    1    3    3  502    0 -0.47165401422E+02 -0.35043716100E+03  0.69176839060E+02  0.36030241029E+03  0.12699999809E+01 0.  1.
       -4    1    3    3    0  502  0.47165401422E+02  0.35043716100E+03  0.87666548977E+02  0.36430456436E+03  0.12699999809E+01 0. -1.
</event>
<event>
 5   0  0.1237686E-02  0.6998315E+03  0.7818609E-02  0.9717520E-01
        1   -1    0    0  501    0  0.00000000000E+00  0.00000000000E+00  0.44118022443E+03  0.44118022445E+03  0.50400001928E-02 0.  1.
       -1   -1    0    0    0  501  0.00000000000E+00  0.00000000000E+00 -0.27753063293E+03  0.27753063298E+03  0.50400001928E-02 0. -1.
    10030    2    1    2    0    0  0.00000000000E+00  0.00000000000E+00  0.16364959149E+03  0.71871085743E+03  0.69983148528E+03 0.  0.
        5    1    3    3  502    0  0.14810480173E+03 -0.31615285221E+03  0.10549608581E+03  0.36474535278E+03  0.46999998093E+01 0. -1.
       -5    1    3    3    0  502 -0.14810480173E+03  0.31615285221E+03  0.58153505684E+02  0.35396550465E+03  0.46999998093E+01 0.  1.
</event>
<event>
 5   0  0.2026361E-02  0.6913950E+03  0.7818609E-02  0.9732062E-01
        2   -1    0    0  501    0  0.00000000000E+00  0.00000000000E+00  0.69109571083E+03  0.69109571084E+03  0.25500000920E-02 0. -1.
       -2   -1    0    0    0  501  0.00000000000E+00  0.00000000000E+00 -0.17292359350E+03  0.17292359352E+03  0.25500000920E-02 0.  1.
    10030    2    1    2    0    0  0.00000000000E+00  0.00000000000E+00  0.51817211734E+03  0.86401930435E+03  0.69139497764E+03 0.  0.
        2    1    3    3  502    0 -0.19819122425E+03  0.27766129340E+03  0.32901428759E+03  0.47394720873E+03  0.25500000920E-02 0.  1.
       -2    1    3    3    0  502  0.19819122425E+03 -0.27766129340E+03  0.18915782975E+03  0.39007209562E+03  0.25500000920E-02 0. -1.
</event>
<event>
 5   0  0.1223742E-02  0.7000301E+03  0.7818609E-02  0.9717181E-01
       -1   -1    0    0    0  501  0.00000000000E+00  0.00000000000E+00  0.21172899214E+03  0.21172899220E+03  0.50400001928E-02 0. -1.
        1   -1    0    0  501    0  0.00000000000E+00  0.00000000000E+00 -0.57861956451E+03  0.57861956453E+03  0.50400001928E-02 0.  1.
    10030    2    1    2    0    0  0.00000000000E+00  0.00000000000E+00 -0.36689057237E+03  0.79034855673E+03  0.70003010580E+03 0.  0.
        2    1    3    3  502    0  0.19597519525E+03 -0.27643487990E+02  0.14248817550E+03  0.24387152303E+03  0.25500000920E-02 0. -1.
       -2    1    3    3    0  502 -0.19597519525E+03  0.27643487990E+02 -0.50937874786E+03  0.54647703370E+03  0.25500000920E-02 0.  1.
</event>
<event>
 5   0  0.2026361E-02  0.6724094E+03  0.7818609E-02  0.9765615E-01
       -2   -1    0    0    0  501  0.00000000000E+00  0.00000000000E+00  0.58433939148E+02  0.58433939204E+02  0.25500000920E-02 0.  1.
        2   -1    0    0  501    0  0.00000000000E+00  0.00000000000E+00 -0.19343826122E+04  0.19343826122E+04  0.25500000920E-02 0. -1.
    10030    2    1    2    0    0  0.00000000000E+00  0.00000000000E+00 -0.18759486731E+04  0.19928165514E+04  0.67240938693E+03 0.  0.
        2    1    3    3  502    0  0.72629134278E+02  0.32801616778E+03 -0.90002069909E+03  0.96068041318E+03  0.25500000920E-02 0.  1.
       -2    1    3    3    0  502 -0.72629134278E+02 -0.32801616778E+03 -0.97592797400E+03  0.10321361383E+04  0.25500000920E-02 0. -1.
</event>
<event>
 5   0  0.1237686E-02  0.6965025E+03  0.7818609E-02  0.9723232E-01
        1   -1    0    0  501    0  0.00000000000E+00  0.00000000000E+00  0.68195553143E+03  0.68195553145E+03  0.50400001928E-02 0. -1.
       -1   -1    0    0    0  501  0.00000000000E+00  0.00000000000E+00 -0.17783996458E+03  0.17783996465E+03  0.50400001928E-02 0.  1.
    10030    2    1    2    0    0  0.00000000000E+00  0.00000000000E+00  0.50411556686E+03  0.85979549610E+03  0.69650254154E+03 0.  0.
        5    1    3    3  502    0 -0.21041504545E+03 -0.13385172616E+03  0.55207179702E+03  0.60580205926E+03  0.46999998093E+01 0.  1.
       -5    1    3    3    0  502  0.21041504545E+03  0.13385172616E+03 -0.47956230161E+02  0.25399343684E+03  0.46999998093E+01 0. -1.
</event>
<event>
 5   0  0.2006362E-02  0.7058685E+03  0.7818609E-02  0.9707249E-01
        2   -1    0    0  501    0  0.00000000000E+00  0.00000000000E+00  0.19037749005E+04  0.19037749005E+04  0.25500000920E-02 0. -1.
       -2   -1    0    0    0  501  0.00000000000E+00  0.00000000000E+00 -0.65429264710E+02  0.65429264760E+02  0.25500000920E-02 0.  1.
    10030    2    1    2    0    0  0.00000000000E+00  0.00000000000E+00  0.18383456358E+04  0.19692041653E+04  0.70586852024E+03 0.  0.
        4    1    3    3  502    0 -0.10896258923E+03  0.33489242095E+03  0.98371220320E+03  0.10448526648E+04  0.12699999809E+01 0. -1.
       -4    1    3    3    0  502  0.10896258923E+03 -0.33489242095E+03  0.85463343263E+03  0.92435150053E+03  0.12699999809E+01 0.  1.
</event>
<event>
 5   0  0.1257442E-02  0.7146770E+03  0.7818609E-02  0.9692457E-01
        1   -1    0    0  501    0  0.00000000000E+00  0.00000000000E+00  0.41000651616E+03  0.41000651619E+03  0.50400001928E-02 0. -1.
       -1   -1    0    0    0  501  0.00000000000E+00  0.00000000000E+00 -0.31143604933E+03  0.31143604937E+03  0.50400001928E-02 0.  1.
    10030    2    1    2    0    0  0.00000000000E+00  0.00000000000E+00  0.98570466829E+02  0.72144256556E+03  0.71467701689E+03 0.  0.
        1    1    3    3  502    0  0.19835419436E+03 -0.29706356598E+03  0.59362771250E+02  0.36209817355E+03  0.50400001928E-02 0. -1.
       -1    1    3    3    0  502 -0.19835419436E+03  0.29706356598E+03  0.39207695579E+02  0.35934439201E+03  0.50400001928E-02 0.  1.
</event>
<event>
 5   0  0.1237686E-02  0.6921924E+03  0.7818609E-02  0.9730678E-01
       -1   -1    0    0    0  501  0.00000000000E+00  0.00000000000E+00  0.31354933218E+03  0.31354933222E+03  0.50400001928E-02 0. -1.
        1   -1    0    0  501    0  0.00000000000E+00  0.00000000000E+00 -0.38202148162E+03  0.38202148165E+03  0.50400001928E-02 0.  1.
    10030    2    1    2    0    0  0.00000000000E+00  0.00000000000E+00 -0.68472149436E+02  0.69557081387E+03  0.69219240234E+03 0.  0.
        5    1    3    3  502    0  0.23171581209E+02  0.24945534612E+03 -0.27413880035E+03  0.37140148592E+03  0.46999998093E+01 0.  1.
       -5    1    3    3    0  502 -0.23171581209E+02 -0.24945534612E+03  0.20566665092E+03  0.32416932795E+03  0.46999998093E+01 0. -1.
</event>
<event>
 5   0  0.1226303E-02  0.6985777E+03  0.7818609E-02  0.9719668E-01
       -1   -1    0    0    0  501  0.00000000000E+00  0.00000000000E+00  0.93794423866E+02  0.93794424002E+02  0.50400001928E-02 0.  1.
        1   -1    0    0  501    0  0.00000000000E+00  0.00000000000E+00 -0.13007455960E+04  0.13007455960E+04  0.50400001928E-02 0. -1.
    10030    2    1    2    0    0  0.00000000000E+00  0.00000000000E+00 -0.12069511721E+04  0.13945400200E+04  0.69857765173E+03 0.  0.
        4    1    3    3  502    0 -0.25648360866E+03  0.55580798472E+02 -0.10636029326E+04  0.10955025686E+04  0.12699999809E+01 0. -1.
       -4    1    3    3    0  502  0.25648360866E+03 -0.55580798472E+02 -0.14334823953E+03  0.29903745141E+03  0.12699999809E+01 0.  1.
</event>
<event>
 5   0  0.2026361E-02  0.6991590E+03  0.7818609E-02  0.9718672E-01
       -2   -1    0    0    0  501  0.00000000000E+00  0.00000000000E+00  0.47646569846E+03  0.47646569847E+03  0.25500000920E-02 0.  1.
        2   -1    0    0  501    0  0.00000000000E+00  0.00000000000E+00 -0.25648398287E+03  0.25648398288E+03  0.25500000920E-02 0. -1.
    10030    2    1    2    0    0  0.00000000000E+00  0.00000000000E+00  0.21998171559E+03  0.73294968135E+03  0.69915898063E+03 0.  0.
        2    1    3    3  502    0  0.50105658550E+02 -0.86930752881E+02  0.46104587085E+03  0.47183771346E+03  0.25500000920E-02 0.  1.
       -2    1    3    3    0  502 -0.50105658550E+02  0.86930752881E+02 -0.24106415526E+03  0.26111196788E+03  0.25500000920E-02 0. -1.
</event>
<event>
 5   0  0.1948138E-02  0.7012154E+03  0.7818609E-02  0.9715156E-01
        2   -1    0    0  501    0  0.00000000000E+00  0.00000000000E+00  0.16426797537E+04  0.16426797537E+04  0.25500000920E-02 0.  1.
       -2   -1    0    0    0  501  0.00000000000E+00  0.00000000000E+00 -0.74832448374E+02  0.74832448417E+02  0.25500000920E-02 0. -1.
    10030    2    1    2    0    0  0.00000000000E+00  0.00000000000E+00  0.15678473053E+04  0.17175122021E+04  0.70121536750E+03 0.  0.
        3    1    3    3  502    0 -0.16037408597E+03 -0.23652297893E+03  0.28638411407E+03  0.40457241380E+03  0.10100000352E+00 0. -1.
       -3    1    3    3    0  502  0.16037408597E+03  0.23652297893E+03  0.12814631913E+04  0.13129397883E+04  0.10100000352E+00 0.  1.
</event>
<event>
 5   0  0.1237686E-02  0.6986843E+03  0.7818609E-02  0.9719485E-01
        1   -1    0    0  501    0  0.00000000000E+00  0.00000000000E+00  0.75513414317E+03  0.75513414318E+03  0.50400001928E-02 0.  1.
       -1   -1    0    0    0  501  0.00000000000E+00  0.00000000000E+00 -0.16161356473E+03  0.16161356480E+03  0.50400001928E-02 0. -1.
    10030    2    1    2    0    0  0.00000000000E+00  0.00000000000E+00  0.59352057844E+03  0.91674770799E+03  0.69868425134E+03 0.  0.
        5    1    3    3  502    0  0.42424427553E+02 -0.32148281668E+03  0.46716641058E+03  0.56869814369E+03  0.46999998093E+01 0.  1.
       -5    1    3    3    0  502 -0.42424427553E+02  0.32148281668E+03  0.12635416786E+03  0.34804956429E+03  0.46999998093E+01 0. -1.
</event>
<event>
 5   0  0.1973067E-02  0.6869250E+03  0.7818609E-02  0.9739857E-01
        2   -1    0    0  501    0  0.00000000000E+00  0.00000000000E+00  0.32730605711E+03  0.32730605712E+03  0.25500000920E-02 0. -1.
       -2   -1    0    0    0  501  0.00000000000E+00  0.00000000000E+00 -0.36041648163E+03  0.36041648164E+03  0.25500000920E-02 0.  1.
    10030    2    1    2    0    0  0.00000000000E+00  0.00000000000E+00 -0.33110424525E+02  0.68772253876E+03  0.68692502509E+03 0.  0.
        5    1    3    3  502    0  0.25232095419E+03  0.17900462101E+03  0.13273494335E+03  0.33667368987E+03  0.46999998093E+01 0. -1.
       -5    1    3    3    0  502 -0.25232095419E+03 -0.17900462101E+03 -0.16584536788E+03  0.35104884889E+03  0.46999998093E+01 0.  1.
</event>
<event>
 5   0  0.1973067E-02  0.6971002E+03  0.7818609E-02  0.9722204E-01
       -2   -1    0    0    0  501  0.00000000000E+00  0.00000000000E+00  0.39314764323E+03  0.39314764324E+03  0.25500000920E-02 0.  1.
        2   -1    0    0  501    0  0.00000000000E+00  0.00000000000E+00 -0.30901158729E+03  0.30901158730E+03  0.25500000920E-02 0. -1.
    10030    2    1    2    0    0  0.00000000000E+00  0.00000000000E+00  0.84136055942E+02  0.70215923055E+03  0.69710021455E+03 0.  0.
        5    1    3    3  502    0  0.61858284946E+02 -0.21420396420E+03 -0.22774777973E+03  0.31874900292E+03  0.46999998093E+01 0. -1.
       -5    1    3    3    0  502 -0.61858284946E+02  0.21420396420E+03  0.31188383567E+03  0.38341022762E+03  0.46999998093E+01 0.  1.
</event>
<event>
 5   0  0.1973067E-02  0.7012366E+03  0.7818609E-02  0.9715120E-01
       -2   -1    0    0    0  501  0.00000000000E+00  0.00000000000E+00  0.11874721856E+03  0.11874721859E+03  0.25500000920E-02 0.  1.
        2   -1    0    0  501    0  0.00000000000E+00  0.00000000000E+00 -0.10352510067E+04  0.10352510067E+04  0.25500000920E-02 0. -1.
    10030    2    1    2    0    0  0.00000000000E+00  0.00000000000E+00 -0.91650378809E+03  0.11539982252E+04  0.70123655800E+03 0.  0.
        5    1    3    3  502    0  0.17172193189E+03  0.27025546333E+03 -0.22329281921E+03  0.39039494165E+03  0.46999998093E+01 0.  1.
       -5    1    3    3    0  502 -0.17172193189E+03 -0.27025546333E+03 -0.69321096888E+03  0.76360328360E+03  0.46999998093E+01 0. -1.
</event>
<event>
 5   0  0.1226303E-02  0.7004343E+03  0.7818609E-02  0.9716490E-01
        1   -1    0    0  501    0  0.00000000000E+00  0.00000000000E+00  0.32411604361E+03  0.32411604365E+03  0.50400001928E-02 0. -1.
       -1   -1    0    0    0  501  0.00000000000E+00  0.00000000000E+00 -0.37842020717E+03  0.37842020720E+03  0.50400001928E-02 0.  1.
    10030    2    1    2    0    0  0.00000000000E+00  0.00000000000E+00 -0.54304163557E+02  0.70253625085E+03  0.70043432353E+03 0.  0.
        4    1    3    3  502    0 -0.21982286998E+03 -0.22984867158E+03  0.11990967760E+03  0.33990064677E+03  0.12699999809E+01 0. -1.
       -4    1    3    3    0  502  0.21982286998E+03  0.22984867158E+03 -0.17421384116E+03  0.36263560408E+03  0.12699999809E+01 0.  1.
</event>
<event>
 5   0  0.2006362E-02  0.6735371E+03  0.7818609E-02  0.9763589E-01
       -2   -1    0    0    0  501  0.00000000000E+00  0.00000000000E+00  0.11580409888E+03  0.11580409891E+03  0.25500000920E-02 0. -1.
        2   -1    0    0  501    0  0.00000000000E+00  0.00000000000E+00 -0.97935281292E+03  0.97935281292E+03  0.25500000920E-02 0.  1.
    10030    2    1    2    0    0  0.00000000000E+00  0.00000000000E+00 -0.86354871404E+03  0.10951569118E+04  0.67353714077E+03 0.  0.
        4    1    3    3  502    0 -0.16545320698E+03 -0.29079733244E+03 -0.49419170613E+03  0.59679553245E+03  0.12699999809E+01 0. -1.
       -4    1    3    3    0  502  0.16545320698E+03  0.29079733244E+03 -0.36935700792E+03  0.49836137937E+03  0.12699999809E+01 0.  1.
</event>
<event>
 5   0  0.1257442E-02  0.7057172E+03  0.7818609E-02  0.9707505E-01
        1   -1    0    0  501    0  0.00000000000E+00  0.00000000000E+00  0.84879158794E+03  0.84879158796E+03  0.50400001928E-02 0.  1.
       -1   -1    0    0    0  501  0.00000000000E+00  0.00000000000E+00 -0.14668994421E+03  0.14668994430E+03  0.50400001928E-02 0. -1.
    10030    2    1    2    0    0  0.00000000000E+00  0.00000000000E+00  0.70210164373E+03  0.99548153225E+03  0.70571719756E+03 0.  0.
        1    1    3    3  502    0  0.16551304649E+03 -0.30883501566E+03  0.29228541752E+03  0.45629420419E+03  0.50400001928E-02 0. -1.
       -1    1    3    3    0  502 -0.16551304649E+03  0.30883501566E+03  0.40981622621E+03  0.53918732807E+03  0.50400001928E-02 0.  1.
</event>
<event>
 5   0  0.7947250E-03  0.6938797E+03  0.7818609E-02  0.9727756E-01
       -3   -1    0    0    0  501  0.00000000000E+00  0.00000000000E+00  0.70874734395E+02  0.70874806360E+02  0.10100000352E+00 0.  1.
        3   -1    0    0  501    0  0.00000000000E+00  0.00000000000E+00 -0.16983090886E+04  0.16983090916E+04  0.10100000352E+00 0. -1.
    10030    2    1    2    0    0  0.00000000000E+00  0.00000000000E+00 -0.16274343542E+04  0.17691838980E+04  0.69387973567E+03 0.  0.
        1    1    3    3  502    0  0.96659431046E+01  0.57067319439E+02  0.58477747284E+02  0.82278529136E+02  0.50400001928E-02 0.  1.
       -1    1    3    3    0  502 -0.96659431046E+01 -0.57067319439E+02 -0.16859121015E+04  0.16869053689E+04  0.50400001928E-02 0. -1.
</event>
<event>
 5   0  0.1257442E-02  0.7078211E+03  0.7818609E-02  0.9703950E-01
        1   -1    0    0  501    0  0.00000000000E+00  0.00000000000E+00  0.45945250418E+03  0.45945250421E+03  0.50400001928E-02 0. -1.
       -1   -1    0    0    0  501  0.00000000000E+00  0.00000000000E+00 -0.27261293176E+03  0.27261293180E+03  0.50400001928E-02 0.  1.
    10030    2    1    2    0    0  0.00000000000E+00  0.00000000000E+00  0.18683957242E+03  0.73206543601E+03  0.70782114745E+03 0.  0.
        1    1    3    3  502    0  0.11776878646E+03 -0.23709487687E+03 -0.14950667065E+03  0.30403241981E+03  0.50400001928E-02 0. -1.
       -1    1    3    3    0  502 -0.11776878646E+03  0.23709487687E+03  0.33634624307E+03  0.42803301620E+03  0.50400001928E-02 0.  1.
</event>
<event>
 5   0  0.1223742E-02  0.6988989E+03  0.7818609E-02  0.9719117E-01
       -1   -1    0    0    0  501  0.00000000000E+00  0.00000000000E+00  0.74852955048E+03  0.74852955050E+03  0.50400001928E-02 0. -1.
        1   -1    0    0  501    0  0.00000000000E+00  0.00000000000E+00 -0.16313973180E+03  0.16313973188E+03  0.50400001928E-02 0.  1.
    10030    2    1    2    0    0  0.00000000000E+00  0.00000000000E+00  0.58538981868E+03  0.91166928238E+03  0.69889887725E+03 0.  0.
        2    1    3    3  502    0  0.24534806800E+02 -0.10675205433E+03  0.72555751628E+03  0.73377903165E+03  0.25500000920E-02 0. -1.
       -2    1    3    3    0  502 -0.24534806800E+02  0.10675205433E+03 -0.14016769760E+03  0.17789025073E+03  0.25500000920E-02 0.  1.
</event>
<event>
 5   0  0.2006362E-02  0.6973965E+03  0.7818609E-02  0.9721695E-01
       -2   -1    0    0    0  501  0.00000000000E+00  0.00000000000E+00  0.41293648204E+03  0.41293648205E+03  0.25500000920E-02 0.  1.
        2   -1    0    0  501    0  0.00000000000E+00  0.00000000000E+00 -0.29445317231E+03  0.29445317232E+03  0.25500000920E-02 0. -1.
    10030    2    1    2    0    0  0.00000000000E+00  0.00000000000E+00  0.11848330974E+03  0.70738965437E+03  0.69739646430E+03 0.  0.
        4    1    3    3  502    0  0.51326943763E+02  0.33518446924E+03 -0.23198799911E+02  0.33988657048E+03  0.12699999809E+01 0. -1.
       -4    1    3    3    0  502 -0.51326943763E+02 -0.33518446924E+03  0.14168210965E+03  0.36750308389E+03  0.12699999809E+01 0.  1.
</event>
<event>
 5   0  0.1226303E-02  0.6930478E+03  0.7818609E-02  0.9729196E-01
        1   -1    0    0  501    0  0.00000000000E+00  0.00000000000E+00  0.41497461392E+03  0.41497461396E+03  0.50400001928E-02 0. -1.
       -1   -1    0    0    0  501  0.00000000000E+00  0.00000000000E+00 -0.28936422261E+03  0.28936422266E+03  0.50400001928E-02 0.  1.
    10030    2    1    2    0    0  0.00000000000E+00  0.00000000000E+00  0.12561039131E+03  0.70433883661E+03  0.69304778072E+03 0.  0.
        4    1    3    3  502    0  0.23837420021E+03  0.88796292790E+01 -0.19263828221E+03  0.30661413505E+03  0.12699999809E+01 0.  1.
       -4    1    3    3    0  502 -0.23837420021E+03 -0.88796292790E+01  0.31824867352E+03  0.39772470157E+03  0.12699999809E+01 0. -1.
</event>
<event>
 5   0  0.1257442E-02  0.7003244E+03  0.7818609E-02  0.9716678E-01
        1   -1    0    0  501    0  0.00000000000E+00  0.00000000000E+00  0.25183183722E+03  0.25183183727E+03  0.50400001928E-02 0. -1.
       -1   -1    0    0    0  501  0.00000000000E+00  0.00000000000E+00 -0.48688661554E+03  0.48688661557E+03  0.50400001928E-02 0.  1.
    10030    2    1    2    0    0  0.00000000000E+00  0.00000000000E+00 -0.23505477832E+03  0.73871845284E+03  0.70032435610E+03 0.  0.
        1    1    3    3  502    0  0.52497289839E+02  0.55886224222E+01  0.24760964806E+03  0.25317530681E+03  0.50400001928E-02 0. -1.
       -1    1    3    3    0  502 -0.52497289839E+02 -0.55886224222E+01 -0.48266442638E+03  0.48554314603E+03  0.50400001928E-02 0.  1.
</event>
<event>
 5   0  0.1909053E-02  0.6989855E+03  0.7818609E-02  0.9718969E-01
        2   -1    0    0  501    0  0.00000000000E+00  0.00000000000E+00  0.62736853712E+03  0.62736853712E+03  0.25500000920E-02 0. -1.
       -2   -1    0    0    0  501  0.00000000000E+00  0.00000000000E+00 -0.19469443942E+03  0.19469443944E+03  0.25500000920E-02 0.  1.
    10030    2    1    2    0    0  0.00000000000E+00  0.00000000000E+00  0.43267409770E+03  0.82206297656E+03  0.69898545236E+03 0.  0.
        1    1    3    3  502    0 -0.12260587759E+03  0.92481308261E+02 -0.15288504307E+03  0.21669986160E+03  0.50400001928E-02 0.  1.
       -1    1    3    3    0  502  0.12260587759E+03 -0.92481308261E+02  0.58555914077E+03  0.60536311496E+03  0.50400001928E-02 0. -1.
</event>
<event>
 5   0  0.1973067E-02  0.7240904E+03  0.7818609E-02  0.9676899E-01
        2   -1    0    0  501    0  0.00000000000E+00  0.00000000000E+00  0.10719483541E+04  0.10719483541E+04  0.25500000920E-02 0.  1.
       -2   -1    0    0    0  501  0.00000000000E+00  0.00000000000E+00 -0.12227896459E+03  0.12227896461E+03  0.25500000920E-02 0. -1.
    10030    2    1    2    0    0  0.00000000000E+00  0.00000000000E+00  0.94966938952E+03  0.11942273187E+04  0.72409042212E+03 0.  0.
        5    1    3    3  502    0  0.21623131863E+02 -0.35895543322E+03  0.40607573029E+03  0.54243538933E+03  0.46999998093E+01 0. -1.
       -5    1    3    3    0  502 -0.21623131863E+02  0.35895543322E+03  0.54359365923E+03  0.65179192940E+03  0.46999998093E+01 0.  1.
</event>
<event>
 5   0  0.1226303E-02  0.6993228E+03  0.7818609E-02  0.9718391E-01
       -1   -1    0    0    0  501  0.00000000000E+00  0.00000000000E+00  0.69985207668E+03  0.69985207670E+03  0.50400001928E-02 0.  1.
        1   -1    0    0  501    0  0.00000000000E+00  0.00000000000E+00 -0.17469847375E+03  0.17469847382E+03  0.50400001928E-02 0. -1.
    10030    2    1    2    0    0  0.00000000000E+00  0.00000000000E+00  0.52515360293E+03  0.87455055053E+03  0.69932278581E+03 0.  0.
        4    1    3    3  502    0 -0.18401388822E+03 -0.27373360130E+03  0.11743397693E+03  0.35011933305E+03  0.12699999809E+01 0. -1.
       -4    1    3    3    0  502  0.18401388822E+03  0.27373360130E+03  0.40771962601E+03  0.52443121748E+03  0.12699999809E+01 0.  1.
</event>
<event>
 5   0  0.2006362E-02  0.6993585E+03  0.7818609E-02  0.9718330E-01
       -2   -1    0    0    0  501  0.00000000000E+00  0.00000000000E+00  0.54041908255E+03  0.54041908256E+03  0.25500000920E-02 0. -1.
        2   -1    0    0  501    0  0.00000000000E+00  0.00000000000E+00 -0.22626069083E+03  0.22626069084E+03  0.25500000920E-02 0.  1.
    10030    2    1    2    0    0  0.00000000000E+00  0.00000000000E+00  0.31415839172E+03  0.76667977340E+03  0.69935854885E+03 0.  0.
        4    1    3    3  502    0 -0.30316085188E+03 -0.15667773494E+03  0.73449702418E+02  0.34907146320E+03  0.12699999809E+01 0.  1.
       -4    1    3    3    0  502  0.30316085188E+03  0.15667773494E+03  0.24070868930E+03  0.41760831019E+03  0.12699999809E+01 0. -1.
</event>
<event>
 5   0  0.2026361E-02  0.6942713E+03  0.7818609E-02  0.9727079E-01
       -2   -1    0    0    0  501  0.00000000000E+00  0.00000000000E+00  0.94384365217E+02  0.94384365251E+02  0.25500000920E-02 0. -1.
        2   -1    0    0  501    0  0.00000000000E+00  0.00000000000E+00 -0.12767280778E+04  0.12767280778E+04  0.25500000920E-02 0.  1.
    10030    2    1    2    0    0  0.00000000000E+00  0.00000000000E+00 -0.11823437126E+04  0.13711124431E+04  0.69427132796E+03 0.  0.
        2    1    3    3  502    0 -0.10652115717E+03 -0.63458847748E+02 -0.12315048915E+04  0.12377310209E+04  0.25500000920E-02 0.  1.
       -2    1    3    3    0  502  0.10652115717E+03  0.63458847748E+02  0.49161178855E+02  0.13338142222E+03  0.25500000920E-02 0. -1.
</event>
<event>
 5   0  0.1257442E-02  0.6987086E+03  0.7818609E-02  0.9719443E-01
        1   -1    0    0  501    0  0.00000000000E+00  0.00000000000E+00  0.11368597279E+04  0.11368597279E+04  0.50400001928E-02 0.  1.
       -1   -1    0    0    0  501  0.00000000000E+00  0.00000000000E+00 -0.10735576236E+03  0.10735576248E+03  0.50400001928E-02 0. -1.
    10030    2    1    2    0    0  0.00000000000E+00  0.00000000000E+00  0.10295039655E+04  0.12442154904E+04  0.69870864562E+03 0.  0.
        1    1    3    3  502    0 -0.25047659338E+03 -0.97927166583E+01  0.81428957879E+02  0.26356231964E+03  0.50400001928E-02 0. -1.
       -1    1    3    3    0  502  0.25047659338E+03  0.97927166583E+01  0.94807500764E+03  0.98065317073E+03  0.50400001928E-02 0.  1.
</event>
<event>
 5   0  0.2026361E-02  0.6997165E+03  0.7818609E-02  0.9717717E-01
       -2   -1    0    0    0  501  0.00000000000E+00  0.00000000000E+00  0.24339825939E+03  0.24339825940E+03  0.25500000920E-02 0.  1.
        2   -1    0    0  501    0  0.00000000000E+00  0.00000000000E+00 -0.50288275723E+03  0.50288275723E+03  0.25500000920E-02 0. -1.
    10030    2    1    2    0    0  0.00000000000E+00  0.00000000000E+00 -0.25948449784E+03  0.74628101663E+03  0.69971647913E+03 0.  0.
        2    1    3    3  502    0  0.70022559422E+02 -0.32000520676E+03  0.12925758014E+01  0.32757924529E+03  0.25500000920E-02 0.  1.
       -2    1    3    3    0  502 -0.70022559422E+02  0.32000520676E+03 -0.26077707364E+03  0.41870177135E+03  0.25500000920E-02 0. -1.
</event>
<event>
 5   0  0.1223742E-02  0.6848316E+03  0.7818609E-02  0.9743530E-01
        1   -1    0    0  501    0  0.00000000000E+00  0.00000000000E+00  0.22645521409E+03  0.22645521415E+03  0.50400001928E-02 0. -1.
       -1   -1    0    0    0  501  0.00000000000E+00  0.00000000000E+00 -0.51775617871E+03  0.51775617874E+03  0.50400001928E-02 0.  1.
    10030    2    1    2    0    0  0.00000000000E+00  0.00000000000E+00 -0.29130096462E+03  0.74421139288E+03  0.68483161822E+03 0.  0.
        2    1    3    3  502    0 -0.25213508311E+03 -0.18653495190E+03  0.36727159281E+01  0.31365726082E+03  0.25500000920E-02 0. -1.
       -2    1    3    3    0  502  0.25213508311E+03  0.18653495190E+03 -0.29497368055E+03  0.43055413207E+03  0.25500000920E-02 0.  1.
</event>
<event>
 5   0  0.1226303E-02  0.7036272E+03  0.7818609E-02  0.9711049E-01
       -1   -1    0    0    0  501  0.00000000000E+00  0.00000000000E+00  0.18883379735E+03  0.18883379741E+03  0.50400001928E-02 0. -1.
        1   -1    0    0  501    0  0.00000000000E+00  0.00000000000E+00 -0.65545892327E+03  0.65545892329E+03  0.50400001928E-02 0.  1.
    10030    2    1    2    0    0  0.00000000000E+00  0.00000000000E+00 -0.46662512592E+03  0.84429272070E+03  0.70362716696E+03 0.  0.
        4    1    3    3  502    0  0.42654982331E+02 -0.10993077088E+03  0.16441345770E+03  0.20233047195E+03  0.12699999809E+01 0. -1.
       -4    1    3    3    0  502 -0.42654982331E+02  0.10993077088E+03 -0.63103858363E+03  0.64196224876E+03  0.12699999809E+01 0.  1.
</event>
<event>
 5   0  0.1909053E-02  0.6770454E+03  0.7818609E-02  0.9757313E-01
       -2   -1    0    0    0  501  0.00000000000E+00  0.00000000000E+00  0.19957426156E+03  0.19957426158E+03  0.25500000920E-02 0. -1.
        2   -1    0    0  501    0  0.00000000000E+00  0.00000000000E+00 -0.57421043302E+03  0.57421043303E+03  0.25500000920E-02 0.  1.
    10030    2    1    2    0    0  0.00000000000E+00  0.00000000000E+00 -0.37463617147E+03  0.77378469461E+03  0.67704541401E+03 0.  0.
        1    1    3    3  502    0  0.32702042618E+03 -0.59282412308E+02 -0.11377402826E+03  0.35128520191E+03  0.50400001928E-02 0.  1.
       -1    1    3    3    0  502 -0.32702042618E+03  0.59282412308E+02 -0.26086214321E+03  0.42249949270E+03  0.50400001928E-02 0. -1.
</event>
<event>
 5   0  0.2026361E-02  0.7021427E+03  0.7818609E-02  0.9713575E-01
        2   -1    0    0  501    0  0.00000000000E+00  0.00000000000E+00  0.13766550971E+04  0.13766550971E+04  0.25500000920E-02 0. -1.
       -2   -1    0    0    0  501  0.00000000000E+00  0.00000000000E+00 -0.89529381341E+02  0.89529381377E+02  0.25500000920E-02 0.  1.
    10030    2    1    2    0    0  0.00000000000E+00  0.00000000000E+00  0.12871257157E+04  0.14661844785E+04  0.70214266126E+03 0.  0.
        2    1    3    3  502    0 -0.33925612277E+02 -0.27294442274E+03  0.10991520970E+04  0.11330423370E+04  0.25500000920E-02 0. -1.
       -2    1    3    3    0  502  0.33925612277E+02  0.27294442274E+03  0.18797361874E+03  0.33314214146E+03  0.25500000920E-02 0.  1.
</event>
<event>
 5   0  0.1257442E-02  0.6973783E+03  0.7818609E-02  0.9721726E-01
        1   -1    0    0  501    0  0.00000000000E+00  0.00000000000E+00  0.36560441468E+03  0.36560441472E+03  0.50400001928E-02 0.  1.
       -1   -1    0    0    0  501  0.00000000000E+00  0.00000000000E+00 -0.33255651536E+03  0.33255651540E+03  0.50400001928E-02 0. -1.
    10030    2    1    2    0    0  0.00000000000E+00  0.00000000000E+00  0.33047899323E+02  0.69816093012E+03  0.69737831963E+03 0.  0.
        1    1    3    3  502    0  0.18708742626E+03 -0.28660852395E+03 -0.50168969266E+02  0.34592351259E+03  0.50400001928E-02 0. -1.
       -1    1    3    3    0  502 -0.18708742626E+03  0.28660852395E+03  0.83216868590E+02  0.35223741753E+03  0.50400001928E-02 0.  1.
</event>
<event>
 5   0  0.1223742E-02  0.6999338E+03  0.7818609E-02  0.9717345E-01
        1   -1    0    0  501    0  0.00000000000E+00  0.00000000000E+00  0.75631956485E+03  0.75631956487E+03  0.50400001928E-02 0.  1.
       -1   -1    0    0    0  501  0.00000000000E+00  0.00000000000E+00 -0.16193792200E+03  0.16193792208E+03  0.50400001928E-02 0. -1.
    10030    2    1    2    0    0  0.00000000000E+00  0.00000000000E+00  0.59438164285E+03  0.91825748695E+03  0.69993376471E+03 0.  0.
        2    1    3    3  502    0 -0.27794166089E+03  0.18457746756E+03  0.43576099903E+03  0.54882424935E+03  0.25500000920E-02 0.  1.
       -2    1    3    3    0  502  0.27794166089E+03 -0.18457746756E+03  0.15862064382E+03  0.36943323760E+03  0.25500000920E-02 0. -1.
</event>
<event>
 5   0  0.1909053E-02  0.6989065E+03  0.7818609E-02  0.9719104E-01
       -2   -1    0    0    0  501  0.00000000000E+00  0.00000000000E+00  0.13071113207E+03  0.13071113210E+03  0.25500000920E-02 0. -1.
        2   -1    0    0  501    0  0.00000000000E+00  0.00000000000E+00 -0.93425541110E+03  0.93425541110E+03  0.25500000920E-02 0.  1.
    10030    2    1    2    0    0  0.00000000000E+00  0.00000000000E+00 -0.80354427903E+03  0.10649665432E+04  0.69890652436E+03 0.  0.
        1    1    3    3  502    0 -0.91561306011E+01 -0.29384245372E+03 -0.68963943951E+03  0.74968645372E+03  0.50400001928E-02 0.  1.
       -1    1    3    3    0  502  0.91561306011E+01  0.29384245372E+03 -0.11390483951E+03  0.31528008948E+03  0.50400001928E-02 0. -1.
</event>
<event>
 5   0  0.1223742E-02  0.6996903E+03  0.7818609E-02  0.9717762E-01
        1   -1    0    0  501    0  0.00000000000E+00  0.00000000000E+00  0.14840132551E+04  0.14840132551E+04  0.50400001928E-02 0.  1.
       -1   -1    0    0    0  501  0.00000000000E+00  0.00000000000E+00 -0.82473414610E+02  0.82473414764E+02  0.50400001928E-02 0. -1.
    10030    2    1    2    0    0  0.00000000000E+00  0.00000000000E+00  0.14015398405E+04  0.15664866699E+04  0.69969033322E+03 0.  0.
        2    1    3    3  502    0  0.13511171616E+03 -0.31928414625E+03  0.59590048949E+03  0.68941637293E+03  0.25500000920E-02 0. -1.
       -2    1    3    3    0  502 -0.13511171616E+03  0.31928414625E+03  0.80563935099E+03  0.87707029693E+03  0.25500000920E-02 0.  1.
</event>
<event>
 5   0  0.1257442E-02  0.6914047E+03  0.7818609E-02  0.9732045E-01
       -1   -1    0    0    0  501  0.00000000000E+00  0.00000000000E+00  0.20499429205E+03  0.20499429212E+03  0.50400001928E-02 0. -1.
        1   -1    0    0  501    0  0.00000000000E+00  0.00000000000E+00 -0.58299239570E+03  0.58299239572E+03  0.50400001928E-02 0.  1.
    10030    2    1    2    0    0  0.00000000000E+00  0.00000000000E+00 -0.37799810365E+03  0.78798668784E+03  0.69140469614E+03 0.  0.
        1    1    3    3  502    0  0.11218124038E+03 -0.79201157385E+02 -0.55057470773E+03  0.56744159421E+03  0.50400001928E-02 0.  1.
       -1    1    3    3    0  502 -0.11218124038E+03  0.79201157385E+02  0.17257660408E+03  0.22054509363E+03  0.50400001928E-02 0. -1.
</event>
<event>
 5   0  0.2006362E-02  0.7117612E+03  0.7818609E-02  0.9697328E-01
        2   -1    0    0  501    0  0.00000000000E+00  0.00000000000E+00  0.93314041838E+03  0.93314041839E+03  0.25500000920E-02 0.  1.
       -2   -1    0    0    0  501  0.00000000000E+00  0.00000000000E+00 -0.13572553644E+03  0.13572553646E+03  0.25500000920E-02 0. -1.
    10030    2    1    2    0    0  0.00000000000E+00  0.00000000000E+00  0.79741488194E+03  0.10688659548E+04  0.71176115059E+03 0.  0.
        4    1    3    3  502    0  0.13449063264E+02  0.19437246687E+03  0.84592721532E+03  0.86807603337E+03  0.12699999809E+01 0.  1.
       -4    1    3    3    0  502 -0.13449063264E+02 -0.19437246687E+03 -0.48512333382E+02  0.20078992148E+03  0.12699999809E+01 0. -1.
</event>
<event>
 5   0  0.2006362E-02  0.6987061E+03  0.7818609E-02  0.9719448E-01
       -2   -1    0    0    0  501  0.00000000000E+00  0.00000000000E+00  0.21214493163E+03  0.21214493165E+03  0.25500000920E-02 0. -1.
        2   -1    0    0  501    0  0.00000000000E+00  0.00000000000E+00 -0.57530263124E+03  0.57530263124E+03  0.25500000920E-02 0.  1.
    10030    2    1    2    0    0  0.00000000000E+00  0.00000000000E+00 -0.36315769960E+03  0.78744756289E+03  0.69870605373E+03 0.  0.
        4    1    3    3  502    0 -0.19447076859E+03  0.20744061573E+03  0.47166190721E+02  0.28823037893E+03  0.12699999809E+01 0. -1.
       -4    1    3    3    0  502  0.19447076859E+03 -0.20744061573E+03 -0.41032389032E+03  0.49921718396E+03  0.12699999809E+01 0.  1.
</event>
<event>
 5   0  0.2006362E-02  0.7001948E+03  0.7818609E-02  0.9716899E-01
       -2   -1    0    0    0  501  0.00000000000E+00  0.00000000000E+00  0.16831160114E+03  0.16831160116E+03  0.25500000920E-02 0. -1.
        2   -1    0    0  501    0  0.00000000000E+00  0.00000000000E+00 -0.72822177432E+03  0.72822177433E+03  0.25500000920E-02 0.  1.
    10030    2    1    2    0    0  0.00000000000E+00  0.00000000000E+00 -0.55991017318E+03  0.89653337549E+03  0.70019475243E+03 0.  0.
        4    1    3    3  502    0  0.56232747488E+02 -0.37922393475E+02 -0.71972614481E+03  0.72291601603E+03  0.12699999809E+01 0.  1.
       -4    1    3    3    0  502 -0.56232747488E+02  0.37922393475E+02  0.15981597163E+03  0.17361735945E+03  0.12699999809E+01 0. -1.
</event>
<event>
 5   0  0.1948138E-02  0.6982124E+03  0.7818609E-02  0.9720294E-01
        2   -1    0    0  501    0  0.00000000000E+00  0.00000000000E+00  0.11510890451E+04  0.11510890451E+04  0.25500000920E-02 0.  1.
       -2   -1    0    0    0  501  0.00000000000E+00  0.00000000000E+00 -0.10587810524E+03  0.10587810527E+03  0.25500000920E-02 0. -1.
    10030    2    1    2    0    0  0.00000000000E+00  0.00000000000E+00  0.10452109398E+04  0.12569671503E+04  0.69821236619E+03 0.  0.
        3    1    3    3  502    0 -0.26221364120E+02 -0.34372913982E+03  0.42338106363E+03  0.54597510633E+03  0.10100000352E+00 0. -1.
       -3    1    3    3    0  502  0.26221364120E+02  0.34372913982E+03  0.62182987621E+03  0.71099204401E+03  0.10100000352E+00 0.  1.
</event>
<event>
 5   0  0.1257442E-02  0.6990019E+03  0.7818609E-02  0.9718941E-01
        1   -1    0    0  501    0  0.00000000000E+00  0.00000000000E+00  0.49520512697E+03  0.49520512700E+03  0.50400001928E-02 0. -1.
       -1   -1    0    0    0  501  0.00000000000E+00  0.00000000000E+00 -0.24666733653E+03  0.24666733658E+03  0.50400001928E-02 0.  1.
    10030    2    1    2    0    0  0.00000000000E+00  0.00000000000E+00  0.24853779044E+03  0.74187246358E+03  0.69900194488E+03 0.  0.
        1    1    3    3  502    0 -0.74935125748E+02  0.24062514065E+03 -0.13272929591E+03  0.28483819512E+03  0.50400001928E-02 0.  1.
       -1    1    3    3    0  502  0.74935125748E+02 -0.24062514065E+03  0.38126708635E+03  0.45703426846E+03  0.50400001928E-02 0. -1.
</event>
<event>
 5   0  0.2026361E-02  0.6997022E+03  0.7818609E-02  0.9717742E-01
       -2   -1    0    0    0  501  0.00000000000E+00  0.00000000000E+00  0.21873989245E+03  0.21873989247E+03  0.25500000920E-02 0. -1.
        2   -1    0    0  501    0  0.00000000000E+00  0.00000000000E+00 -0.55954943930E+03  0.55954943931E+03  0.25500000920E-02 0.  1.
    10030    2    1    2    0    0  0.00000000000E+00  0.00000000000E+00 -0.34080954685E+03  0.77828933177E+03  0.69970217716E+03 0.  0.
        2    1    3    3  502    0 -0.15325698089E+03 -0.28797096922E+03 -0.31101831585E+03  0.45071873059E+03  0.25500000920E-02 0.  1.
       -2    1    3    3    0  502  0.15325698089E+03  0.28797096922E+03 -0.29791230993E+02  0.32757060118E+03  0.25500000920E-02 0. -1.
</event>
<event>
 5   0  0.1909053E-02  0.6977315E+03  0.7818609E-02  0.9721120E-01
       -2   -1    0    0    0  501  0.00000000000E+00  0.00000000000E+00  0.12508657609E+03  0.12508657612E+03  0.25500000920E-02 0. -1.
        2   -1    0    0  501    0  0.00000000000E+00  0.00000000000E+00 -0.97298458768E+03  0.97298458768E+03  0.25500000920E-02 0.  1.
    10030    2    1    2    0    0  0.00000000000E+00  0.00000000000E+00 -0.84789801159E+03  0.10980711638E+04  0.69773149758E+03 0.  0.
        1    1    3    3  502    0 -0.32693173845E+03 -0.10676425951E+03 -0.33185513642E+03  0.47792342515E+03  0.50400001928E-02 0. -1.
       -1    1    3    3    0  502  0.32693173845E+03  0.10676425951E+03 -0.51604287516E+03  0.62014773865E+03  0.50400001928E-02 0.  1.
</event>
<event>
 5   0  0.1223742E-02  0.7601793E+03  0.7818609E-02  0.9619515E-01
        1   -1    0    0  501    0  0.00000000000E+00  0.00000000000E+00  0.10173656335E+04  0.10173656336E+04  0.50400001928E-02 0.  1.
       -1   -1    0    0    0  501  0.00000000000E+00  0.00000000000E+00 -0.14200218556E+03  0.14200218565E+03  0.50400001928E-02 0. -1.
    10030    2    1    2    0    0  0.00000000000E+00  0.00000000000E+00  0.87536344798E+03  0.11593678192E+04  0.76017930396E+03 0.  0.
        2    1    3    3  502    0 -0.31463598712E+03  0.16490357315E+03  0.64387913427E+03  0.73537020091E+03  0.25500000920E-02 0.  1.
       -2    1    3    3    0  502  0.31463598712E+03 -0.16490357315E+03  0.23148431371E+03  0.42399761831E+03  0.25500000920E-02 0. -1.
</event>
<event>
 5   0  0.1223742E-02  0.6989243E+03  0.7818609E-02  0.9719074E-01
       -1   -1    0    0    0  501  0.00000000000E+00  0.00000000000E+00  0.74570735988E+03  0.74570735990E+03  0.50400001928E-02 0. -1.
        1   -1    0    0  501    0  0.00000000000E+00  0.00000000000E+00 -0.16376904696E+03  0.16376904704E+03  0.50400001928E-02 0.  1.
    10030    2    1    2    0    0  0.00000000000E+00  0.00000000000E+00  0.58193831292E+03  0.90947640693E+03  0.69892426966E+03 0.  0.
        2    1    3    3  502    0 -0.19322142476E+03 -0.52550293005E+02  0.66365394444E+03  0.69320459481E+03  0.25500000920E-02 0. -1.
       -2    1    3    3    0  502  0.19322142476E+03  0.52550293005E+02 -0.81715631521E+02  0.21627181213E+03  0.25500000920E-02 0.  1.
</event>
<event>
 5   0  0.1909053E-02  0.6915444E+03  0.7818609E-02  0.9731803E-01
       -2   -1    0    0    0  501  0.00000000000E+00  0.00000000000E+00  0.29538730298E+03  0.29538730299E+03  0.25500000920E-02 0.  1.
        2   -1    0    0  501    0  0.00000000000E+00  0.00000000000E+00 -0.40475130888E+03  0.40475130888E+03  0.25500000920E-02 0. -1.
    10030    2    1    2    0    0  0.00000000000E+00  0.00000000000E+00 -0.10936400589E+03  0.70013861188E+03  0.69154435148E+03 0.  0.
        1    1    3    3  502    0  0.14262072684E+03  0.22534570500E+03 -0.27750129193E+03  0.38487442827E+03  0.50400001928E-02 0. -1.
       -1    1    3    3    0  502 -0.14262072684E+03 -0.22534570500E+03  0.16813728604E+03  0.31526418361E+03  0.50400001928E-02 0.  1.
</event>
<event>
 5   0  0.2006362E-02  0.6846107E+03  0.7818609E-02  0.9743918E-01
        2   -1    0    0  501    0  0.00000000000E+00  0.00000000000E+00  0.80110747762E+03  0.80110747762E+03  0.25500000920E-02 0. -1.
       -2   -1    0    0    0  501  0.00000000000E+00  0.00000000000E+00 -0.14626369355E+03  0.14626369357E+03  0.25500000920E-02 0.  1.
    10030    2    1    2    0    0  0.00000000000E+00  0.00000000000E+00  0.65484378407E+03  0.94737117119E+03  0.68461065904E+03 0.  0.
        4    1    3    3  502    0 -0.13385869678E+03 -0.20502963998E+03  0.65842748890E+03  0.70248393221E+03  0.12699999809E+01 0. -1.
       -4    1    3    3    0  502  0.13385869678E+03  0.20502963998E+03 -0.35837048276E+01  0.24488723898E+03  0.12699999809E+01 0.  1.
</event>
<event>
 5   0  0.2006362E-02  0.6994992E+03  0.7818609E-02  0.9718089E-01
       -2   -1    0    0    0  501  0.00000000000E+00  0.00000000000E+00  0.13441293072E+03  0.13441293074E+03  0.25500000920E-02 0. -1.
        2   -1    0    0  501    0  0.00000000000E+00  0.00000000000E+00 -0.91006698532E+03  0.91006698532E+03  0.25500000920E-02 0.  1.
    10030    2    1    2    0    0  0.00000000000E+00  0.00000000000E+00 -0.77565405460E+03  0.10444799161E+04  0.69949916557E+03 0.  0.
        4    1    3    3  502    0 -0.15322233273E+03  0.30848206396E+03 -0.29718592063E+03  0.45492785291E+03  0.12699999809E+01 0.  1.
       -4    1    3    3    0  502  0.15322233273E+03 -0.30848206396E+03 -0.47846813398E+03  0.58955206315E+03  0.12699999809E+01 0. -1.
</event>
<event>
 5   0  0.1197259E-02  0.6980237E+03  0.7818609E-02  0.9720618E-01
        1   -1    0    0  501    0  0.00000000000E+00  0.00000000000E+00  0.20908198412E+03  0.20908198418E+03  0.50400001928E-02 0.  1.
       -1   -1    0    0    0  501  0.00000000000E+00  0.00000000000E+00 -0.58259093431E+03  0.58259093434E+03  0.50400001928E-02 0. -1.
    10030    2    1    2    0    0  0.00000000000E+00  0.00000000000E+00 -0.37350895020E+03  0.79167291851E+03  0.69802369160E+03 0.  0.
        3    1    3    3  502    0 -0.17181970236E+03 -0.24236627449E+03 -0.39448242881E+03  0.49384189572E+03  0.10100000352E+00 0.  1.
       -3    1    3    3    0  502  0.17181970236E+03  0.24236627449E+03  0.20973478617E+02  0.29783102279E+03  0.10100000352E+00 0. -1.
</event>
<event>
 5   0  0.7947250E-03  0.7055409E+03  0.7818609E-02  0.9707803E-01
       -3   -1    0    0    0  501  0.00000000000E+00  0.00000000000E+00  0.34167535964E+03  0.34167537457E+03  0.10100000352E+00 0.  1.
        3   -1    0    0  501    0  0.00000000000E+00  0.00000000000E+00 -0.36422582229E+03  0.36422583629E+03  0.10100000352E+00 0. -1.
    10030    2    1    2    0    0  0.00000000000E+00  0.00000000000E+00 -0.22550462647E+02  0.70590121086E+03  0.70554092449E+03 0.  0.
        4    1    3    3  502    0  0.29997621116E+03  0.18119569471E+03 -0.51641578334E+02  0.35424013403E+03  0.12699999809E+01 0.  1.
       -4    1    3    3    0  502 -0.29997621116E+03 -0.18119569471E+03  0.29091115687E+02  0.35166107683E+03  0.12699999809E+01 0. -1.
</event>
<event>
 5   0  0.1197259E-02  0.6969278E+03  0.7818609E-02  0.9722501E-01
        1   -1    0    0  501    0  0.00000000000E+00  0.00000000000E+00  0.56519678525E+03  0.56519678527E+03  0.50400001928E-02 0. -1.
       -1   -1    0    0    0  501  0.00000000000E+00  0.00000000000E+00 -0.21484036266E+03  0.21484036272E+03  0.50400001928E-02 0.  1.
    10030    2    1    2    0    0  0.00000000000E+00  0.00000000000E+00  0.35035642258E+03  0.78003714799E+03  0.69692777919E+03 0.  0.
        3    1    3    3  502    0 -0.26047093898E+02 -0.13208825253E+03 -0.18455491689E+03  0.22844317698E+03  0.10100000352E+00 0.  1.
       -3    1    3    3    0  502  0.26047093898E+02  0.13208825253E+03  0.53491133948E+03  0.55159397101E+03  0.10100000352E+00 0. -1.
</event>
<event>
 5   0  0.2026361E-02  0.7042795E+03  0.7818609E-02  0.9709942E-01
        2   -1    0    0  501    0  0.00000000000E+00  0.00000000000E+00  0.32088333462E+03  0.32088333463E+03  0.25500000920E-02 0.  1.
       -2   -1    0    0    0  501  0.00000000000E+00  0.00000000000E+00 -0.38644079573E+03  0.38644079573E+03  0.25500000920E-02 0. -1.
    10030    2    1    2    0    0  0.00000000000E+00  0.00000000000E+00 -0.65557461102E+02  0.70732413037E+03  0.70427952171E+03 0.  0.
        2    1    3    3  502    0 -0.32973435172E+03  0.11586421458E+03 -0.76013083512E+02  0.35766918765E+03  0.25500000920E-02 0. -1.
       -2    1    3    3    0  502  0.32973435172E+03 -0.11586421458E+03  0.10455622410E+02  0.34965494272E+03  0.25500000920E-02 0.  1.
</event>
<event>
 5   0  0.1223742E-02  0.7026016E+03  0.7818609E-02  0.9712793E-01
        1   -1    0    0  501    0  0.00000000000E+00  0.00000000000E+00  0.23330622316E+03  0.23330622322E+03  0.50400001928E-02 0. -1.
       -1   -1    0    0    0  501  0.00000000000E+00  0.00000000000E+00 -0.52897110460E+03  0.52897110463E+03  0.50400001928E-02 0.  1.
    10030    2    1    2    0    0  0.00000000000E+00  0.00000000000E+00 -0.29566488144E+03  0.76227732784E+03  0.70260159580E+03 0.  0.
        2    1    3    3  502    0  0.97404454610E+02 -0.18236013974E+03 -0.45597968659E+03  0.50065988748E+03  0.25500000920E-02 0.  1.
       -2    1    3    3    0  502 -0.97404454610E+02  0.18236013974E+03  0.16031480515E+03  0.26161744036E+03  0.25500000920E-02 0. -1.
</event>
<event>
 5   0  0.1223742E-02  0.7170873E+03  0.7818609E-02  0.9688449E-01
        1   -1    0    0  501    0  0.00000000000E+00  0.00000000000E+00  0.50598558200E+03  0.50598558202E+03  0.50400001928E-02 0. -1.
       -1   -1    0    0    0  501  0.00000000000E+00  0.00000000000E+00 -0.25406563571E+03  0.25406563576E+03  0.50400001928E-02 0.  1.
    10030    2    1    2    0    0  0.00000000000E+00  0.00000000000E+00  0.25191994628E+03  0.76005121779E+03  0.71708729896E+03 0.  0.
        2    1    3    3  502    0 -0.29778833386E+03  0.25027115216E+02 -0.84024309182E+02  0.31042605049E+03  0.25500000920E-02 0.  1.
       -2    1    3    3    0  502  0.29778833386E+03 -0.25027115216E+02  0.33594425546E+03  0.44962516730E+03  0.25500000920E-02 0. -1.
</event>
<event>
 5   0  0.1257442E-02  0.7007705E+03  0.7818609E-02  0.9715915E-01
        1   -1    0    0  501    0  0.00000000000E+00  0.00000000000E+00  0.65197127966E+03  0.65197127968E+03  0.50400001928E-02 0.  1.
       -1   -1    0    0    0  501  0.00000000000E+00  0.00000000000E+00 -0.18830559586E+03  0.18830559593E+03  0.50400001928E-02 0. -1.
    10030    2    1    2    0    0  0.00000000000E+00  0.00000000000E+00  0.46366568381E+03  0.84027687561E+03  0.70077054828E+03 0.  0.
        1    1    3    3  502    0 -0.21677837756E+03  0.68429048809E+02 -0.87883173293E+02  0.24371879672E+03  0.50400001928E-02 0. -1.
       -1    1    3    3    0  502  0.21677837756E+03 -0.68429048809E+02  0.55154885710E+03  0.59655807889E+03  0.50400001928E-02 0.  1.
</event>
<event>
 5   0  0.2026361E-02  0.7066697E+03  0.7818609E-02  0.9705894E-01
       -2   -1    0    0    0  501  0.00000000000E+00  0.00000000000E+00  0.11744183248E+03  0.11744183251E+03  0.25500000920E-02 0.  1.
        2   -1    0    0  501    0  0.00000000000E+00  0.00000000000E+00 -0.10630413742E+04  0.10630413742E+04  0.25500000920E-02 0. -1.
    10030    2    1    2    0    0  0.00000000000E+00  0.00000000000E+00 -0.94559954174E+03  0.11804832067E+04  0.70666973053E+03 0.  0.
        2    1    3    3  502    0 -0.71666729553E+02  0.23470380821E+03 -0.48142406103E+02  0.25007936537E+03  0.25500000920E-02 0.  1.
       -2    1    3    3    0  502  0.71666729553E+02 -0.23470380821E+03 -0.89745713564E+03  0.93040384137E+03  0.25500000920E-02 0. -1.
</event>
<event>
 5   0  0.2006362E-02  0.6988908E+03  0.7818609E-02  0.9719131E-01
        2   -1    0    0  501    0  0.00000000000E+00  0.00000000000E+00  0.50599410084E+03  0.50599410085E+03  0.25500000920E-02 0.  1.
       -2   -1    0    0    0  501  0.00000000000E+00  0.00000000000E+00 -0.24133102008E+03  0.24133102010E+03  0.25500000920E-02 0. -1.
    10030    2    1    2    0    0  0.00000000000E+00  0.00000000000E+00  0.26466308076E+03  0.74732512095E+03  0.69889075690E+03 0.  0.
        4    1    3    3  502    0  0.14062937143E+03  0.21442433434E+03 -0.12151458298E+03  0.28376367287E+03  0.12699999809E+01 0. -1.
       -4    1    3    3    0  502 -0.14062937143E+03 -0.21442433434E+03  0.38617766374E+03  0.46356144807E+03  0.12699999809E+01 0.  1.
</event>
<event>
 5   0  0.1257442E-02  0.6984391E+03  0.7818609E-02  0.9719905E-01
       -1   -1    0    0    0  501  0.00000000000E+00  0.00000000000E+00  0.30659881681E+03  0.30659881685E+03  0.50400001928E-02 0.  1.
        1   -1    0    0  501    0  0.00000000000E+00  0.00000000000E+00 -0.39776502289E+03  0.39776502292E+03  0.50400001928E-02 0. -1.
    10030    2    1    2    0    0  0.00000000000E+00  0.00000000000E+00 -0.91166206076E+02  0.70436383977E+03  0.69843907511E+03 0.  0.
        1    1    3    3  502    0  0.11621413497E+03 -0.43516585708E+02 -0.37477957288E+03  0.39479000326E+03  0.50400001928E-02 0. -1.
       -1    1    3    3    0  502 -0.11621413497E+03  0.43516585708E+02  0.28361336680E+03  0.30957383651E+03  0.50400001928E-02 0.  1.
</event>
<event>
 5   0  0.1909053E-02  0.7006113E+03  0.7818609E-02  0.9716187E-01
       -2   -1    0    0    0  501  0.00000000000E+00  0.00000000000E+00  0.22744334636E+03  0.22744334637E+03  0.25500000920E-02 0. -1.
        2   -1    0    0  501    0  0.00000000000E+00  0.00000000000E+00 -0.53953672131E+03  0.53953672132E+03  0.25500000920E-02 0.  1.
    10030    2    1    2    0    0  0.00000000000E+00  0.00000000000E+00 -0.31209337496E+03  0.76698006769E+03  0.70061126850E+03 0.  0.
        1    1    3    3  502    0  0.27356556169E+03 -0.10531294324E+03  0.53916403857E+02  0.29805353745E+03  0.50400001928E-02 0. -1.
       -1    1    3    3    0  502 -0.27356556169E+03  0.10531294324E+03 -0.36600977881E+03  0.46892653024E+03  0.50400001928E-02 0.  1.
</event>
<event>
 5   0  0.1223742E-02  0.6959260E+03  0.7818609E-02  0.9724225E-01
       -1   -1    0    0    0  501  0.00000000000E+00  0.00000000000E+00  0.10366298523E+03  0.10366298535E+03  0.50400001928E-02 0. -1.
        1   -1    0    0  501    0  0.00000000000E+00  0.00000000000E+00 -0.11679989680E+04  0.11679989680E+04  0.50400001928E-02 0.  1.
    10030    2    1    2    0    0  0.00000000000E+00  0.00000000000E+00 -0.10643359828E+04  0.12716619534E+04  0.69592603014E+03 0.  0.
        2    1    3    3  502    0  0.19567132396E+03 -0.49633956400E+02 -0.14274297536E+02  0.20237231091E+03  0.25500000920E-02 0. -1.
       -2    1    3    3    0  502 -0.19567132396E+03  0.49633956400E+02 -0.10500616853E+04  0.10692896425E+04  0.25500000920E-02 0.  1.
</event>
<event>
 5   0  0.1226303E-02  0.7001801E+03  0.7818609E-02  0.9716924E-01
        1   -1    0    0  501    0  0.00000000000E+00  0.00000000000E+00  0.53056913672E+03  0.53056913674E+03  0.50400001928E-02 0. -1.
       -1   -1    0    0    0  501  0.00000000000E+00  0.00000000000E+00 -0.23100297855E+03  0.23100297860E+03  0.50400001928E-02 0.  1.
    10030    2    1    2    0    0  0.00000000000E+00  0.00000000000E+00  0.29956615817E+03  0.76157211534E+03  0.70018012236E+03 0.  0.
        4    1    3    3  502    0  0.15756588046E+03 -0.15566986752E+02 -0.18983122209E+03  0.24719798451E+03  0.12699999809E+01 0.  1.
       -4    1    3    3    0  502 -0.15756588046E+03  0.15566986752E+02  0.48939738027E+03  0.51437413084E+03  0.12699999809E+01 0. -1.
</event>
<event>
 5   0  0.1257442E-02  0.7062486E+03  0.7818609E-02  0.9706605E-01
       -1   -1    0    0    0  501  0.00000000000E+00  0.00000000000E+00  0.25755976944E+03  0.25755976949E+03  0.50400001928E-02 0. -1.
        1   -1    0    0  501    0  0.00000000000E+00  0.00000000000E+00 -0.48414699502E+03  0.48414699504E+03  0.50400001928E-02 0.  1.
    10030    2    1    2    0    0  0.00000000000E+00  0.00000000000E+00 -0.22658722558E+03  0.74170676453E+03  0.70624864867E+03 0.  0.
        1    1    3    3  502    0 -0.69993154040E+02  0.91216766594E+02  0.23735145145E+03  0.26373329644E+03  0.50400001928E-02 0. -1.
       -1    1    3    3    0  502  0.69993154040E+02 -0.91216766594E+02 -0.46393867703E+03  0.47797346809E+03  0.50400001928E-02 0.  1.
</event>
<event>
 5   0  0.1257442E-02  0.7147825E+03  0.7818609E-02  0.9692281E-01
        1   -1    0    0  501    0  0.00000000000E+00  0.00000000000E+00  0.21866174080E+03  0.21866174086E+03  0.50400001928E-02 0. -1.
       -1   -1    0    0    0  501  0.00000000000E+00  0.00000000000E+00 -0.58413738803E+03  0.58413738805E+03  0.50400001928E-02 0.  1.
    10030    2    1    2    0    0  0.00000000000E+00  0.00000000000E+00 -0.36547564722E+03  0.80279912891E+03  0.71478247926E+03 0.  0.
        1    1    3    3  502    0 -0.79448260537E+02 -0.26545291404E+03  0.70781050951E+02  0.28598467245E+03  0.50400001928E-02 0. -1.
       -1    1    3    3    0  502  0.79448260537E+02  0.26545291404E+03 -0.43625669818E+03  0.51681445646E+03  0.50400001928E-02 0.  1.
</event>
<event>
 5   0  0.1257442E-02  0.6985818E+03  0.7818609E-02  0.9719661E-01
       -1   -1    0    0    0  501  0.00000000000E+00  0.00000000000E+00  0.15255668653E+03  0.15255668662E+03  0.50400001928E-02 0.  1.
        1   -1    0    0  501    0  0.00000000000E+00  0.00000000000E+00 -0.79972973678E+03  0.79972973680E+03  0.50400001928E-02 0. -1.
    10030    2    1    2    0    0  0.00000000000E+00  0.00000000000E+00 -0.64717305025E+03  0.95228642342E+03  0.69858175989E+03 0.  0.
        1    1    3    3  502    0  0.74918358768E+02 -0.33672231887E+03 -0.24880521471E+03  0.42532189622E+03  0.50400001928E-02 0.  1.
       -1    1    3    3    0  502 -0.74918358768E+02  0.33672231887E+03 -0.39836783554E+03  0.52696452720E+03  0.50400001928E-02 0. -1.
</event>
<event>
 5   0  0.1223742E-02  0.6988027E+03  0.7818609E-02  0.9719282E-01
        1   -1    0    0  501    0  0.00000000000E+00  0.00000000000E+00  0.76362375608E+03  0.76362375610E+03  0.50400001928E-02 0. -1.
       -1   -1    0    0    0  501  0.00000000000E+00  0.00000000000E+00 -0.15987099167E+03  0.15987099175E+03  0.50400001928E-02 0.  1.
    10030    2    1    2    0    0  0.00000000000E+00  0.00000000000E+00  0.60375276441E+03  0.92349474785E+03  0.69880265367E+03 0.  0.
        2    1    3    3  502    0  0.10106060680E+01 -0.22402216991E+03 -0.52469356610E+02  0.23008691255E+03  0.25500000920E-02 0.  1.
       -2    1    3    3    0  502 -0.10106060680E+01  0.22402216991E+03  0.65622212102E+03  0.69340783530E+03  0.25500000920E-02 0. -1.
</event>
<event>
 5   0  0.1226303E-02  0.7007154E+03  0.7818609E-02  0.9716010E-01
       -1   -1    0    0    0  501  0.00000000000E+00  0.00000000000E+00  0.11811170971E+03  0.11811170982E+03  0.50400001928E-02 0.  1.
        1   -1    0    0  501    0  0.00000000000E+00  0.00000000000E+00 -0.10392746055E+04  0.10392746055E+04  0.50400001928E-02 0. -1.
    10030    2    1    2    0    0  0.00000000000E+00  0.00000000000E+00 -0.92116289579E+03  0.11573863153E+04  0.70071535043E+03 0.  0.
        4    1    3    3  502    0 -0.11620975880E+03  0.18478419904E+03 -0.79406152525E+01  0.21843666022E+03  0.12699999809E+01 0.  1.
       -4    1    3    3    0  502  0.11620975880E+03 -0.18478419904E+03 -0.91322228054E+03  0.93894965511E+03  0.12699999809E+01 0. -1.
</event>
<event>
 5   0  0.2026361E-02  0.7035382E+03  0.7818609E-02  0.9711200E-01
       -2   -1    0    0    0  501  0.00000000000E+00  0.00000000000E+00  0.16076395681E+03  0.16076395683E+03  0.25500000920E-02 0. -1.
        2   -1    0    0  501    0  0.00000000000E+00  0.00000000000E+00 -0.76970919522E+03  0.76970919522E+03  0.25500000920E-02 0.  1.
    10030    2    1    2    0    0  0.00000000000E+00  0.00000000000E+00 -0.60894523841E+03  0.93047315205E+03  0.70353818895E+03 0.  0.
        2    1    3    3  502    0 -0.18199424912E+03  0.76928432063E+02 -0.68938509799E+03  0.71714134151E+03  0.25500000920E-02 0.  1.
       -2    1    3    3    0  502  0.18199424912E+03 -0.76928432063E+02  0.80439859579E+02  0.21333181054E+03  0.25500000920E-02 0. -1.
</event>
<event>
 5   0  0.7947250E-03  0.7074689E+03  0.7818609E-02  0.9704544E-01
        4   -1    0    0  501    0  0.00000000000E+00  0.00000000000E+00  0.23025856190E+03  0.23026206424E+03  0.12699999809E+01 0.  1.
       -4   -1    0    0    0  501  0.00000000000E+00  0.00000000000E+00 -0.54341578291E+03  0.54341726694E+03  0.12699999809E+01 0. -1.
    10030    2    1    2    0    0  0.00000000000E+00  0.00000000000E+00 -0.31315722101E+03  0.77367933118E+03  0.70746891269E+03 0.  0.
        3    1    3    3  502    0  0.32715741500E+03 -0.10041302514E+03 -0.25447337966E+03  0.42646390347E+03  0.10100000352E+00 0. -1.
       -3    1    3    3    0  502 -0.32715741500E+03  0.10041302514E+03 -0.58683841355E+02  0.34721542771E+03  0.10100000352E+00 0.  1.
</event>
<event>
 5   0  0.1237686E-02  0.6870578E+03  0.7818609E-02  0.9739625E-01
       -1   -1    0    0    0  501  0.00000000000E+00  0.00000000000E+00  0.31056679797E+03  0.31056679801E+03  0.50400001928E-02 0.  1.
        1   -1    0    0  501    0  0.00000000000E+00  0.00000000000E+00 -0.37998942840E+03  0.37998942843E+03  0.50400001928E-02 0. -1.
    10030    2    1    2    0    0  0.00000000000E+00  0.00000000000E+00 -0.69422630429E+02  0.69055622645E+03  0.68705778525E+03 0.  0.
        5    1    3    3  502    0  0.34138812418E+03 -0.21421169314E+02 -0.31621180111E+01  0.34210642615E+03  0.46999998093E+01 0. -1.
       -5    1    3    3    0  502 -0.34138812418E+03  0.21421169314E+02 -0.66260512418E+02  0.34844980030E+03  0.46999998093E+01 0.  1.
</event>
<event>
 5   0  0.1909053E-02  0.7012501E+03  0.7818609E-02  0.9715097E-01
       -2   -1    0    0    0  501  0.00000000000E+00  0.00000000000E+00  0.14041476407E+04  0.14041476407E+04  0.25500000920E-02 0. -1.
        2   -1    0    0  501    0  0.00000000000E+00  0.00000000000E+00 -0.87553416702E+02  0.87553416739E+02  0.25500000920E-02 0.  1.
    10030    2    1    2    0    0  0.00000000000E+00  0.00000000000E+00  0.13165942240E+04  0.14917010575E+04  0.70125009384E+03 0.  0.
        1    1    3    3  502    0 -0.33523745112E+03 -0.53513697451E+02  0.47175636879E+03  0.58120730894E+03  0.50400001928E-02 0.  1.
       -1    1    3    3    0  502  0.33523745112E+03  0.53513697451E+02  0.84483785523E+03  0.91049374852E+03  0.50400001928E-02 0. -1.
</event>
<event>
 5   0  0.1909053E-02  0.7039662E+03  0.7818609E-02  0.9710473E-01
        2   -1    0    0  501    0  0.00000000000E+00  0.00000000000E+00  0.60045226904E+03  0.60045226905E+03  0.25500000920E-02 0. -1.
       -2   -1    0    0    0  501  0.00000000000E+00  0.00000000000E+00 -0.20633133429E+03  0.20633133430E+03  0.25500000920E-02 0.  1.
    10030    2    1    2    0    0  0.00000000000E+00  0.00000000000E+00  0.39412093475E+03  0.80678360335E+03  0.70396624310E+03 0.  0.
        1    1    3    3  502    0 -0.16204094171E+02 -0.12550221691E+03  0.57348087372E+03  0.58727650358E+03  0.50400001928E-02 0. -1.
       -1    1    3    3    0  502  0.16204094171E+02  0.12550221691E+03 -0.17935993897E+03  0.21950709977E+03  0.50400001928E-02 0.  1.
</event>
<event>
 5   0  0.2026361E-02  0.7023593E+03  0.7818609E-02  0.9713206E-01
        2   -1    0    0  501    0  0.00000000000E+00  0.00000000000E+00  0.67588393996E+02  0.67588394045E+02  0.25500000920E-02 0.  1.
       -2   -1    0    0    0  501  0.00000000000E+00  0.00000000000E+00 -0.18246790947E+04  0.18246790947E+04  0.25500000920E-02 0. -1.
    10030    2    1    2    0    0  0.00000000000E+00  0.00000000000E+00 -0.17570907007E+04  0.18922674887E+04  0.70235925171E+03 0.  0.
        2    1    3    3  502    0  0.12228082205E+03  0.53196917616E+02 -0.17538137854E+04  0.17588761484E+04  0.25500000920E-02 0. -1.
       -2    1    3    3    0  502 -0.12228082205E+03 -0.53196917616E+02 -0.32769152293E+01  0.13339134029E+03  0.25500000920E-02 0.  1.
</event>
<event>
 5   0  0.1973067E-02  0.7001756E+03  0.7818609E-02  0.9716932E-01
       -2   -1    0    0    0  501  0.00000000000E+00  0.00000000000E+00  0.16875129909E+03  0.16875129911E+03  0.25500000920E-02 0. -1.
        2   -1    0    0  501    0  0.00000000000E+00  0.00000000000E+00 -0.72628461499E+03  0.72628461499E+03  0.25500000920E-02 0.  1.
    10030    2    1    2    0    0  0.00000000000E+00  0.00000000000E+00 -0.55753331590E+03  0.89503591410E+03  0.70017561311E+03 0.  0.
        5    1    3    3  502    0  0.13445566292E+03  0.45527842956E+02 -0.68779988601E+03  0.70231181321E+03  0.46999998093E+01 0.  1.
       -5    1    3    3    0  502 -0.13445566292E+03 -0.45527842956E+02  0.13026657011E+03  0.19272410089E+03  0.46999998093E+01 0. -1.
</event>
<event>
 5   0  0.1223742E-02  0.7099574E+03  0.7818609E-02  0.9700354E-01
       -1   -1    0    0    0  501  0.00000000000E+00  0.00000000000E+00  0.80340736951E+03  0.80340736953E+03  0.50400001928E-02 0. -1.
        1   -1    0    0  501    0  0.00000000000E+00  0.00000000000E+00 -0.15684429739E+03  0.15684429747E+03  0.50400001928E-02 0.  1.
    10030    2    1    2    0    0  0.00000000000E+00  0.00000000000E+00  0.64656307212E+03  0.96025166700E+03  0.70995736332E+03 0.  0.
        2    1    3    3  502    0 -0.29645897479E+03  0.16728775633E+03  0.45945801840E+03  0.57181709299E+03  0.25500000920E-02 0. -1.
       -2    1    3    3    0  502  0.29645897479E+03 -0.16728775633E+03  0.18710505372E+03  0.38843457401E+03  0.25500000920E-02 0.  1.
</event>
<event>
 5   0  0.1909053E-02  0.6676651E+03  0.7818609E-02  0.9774185E-01
       -2   -1    0    0    0  501  0.00000000000E+00  0.00000000000E+00  0.14845611629E+03  0.14845611631E+03  0.25500000920E-02 0.  1.
        2   -1    0    0  501    0  0.00000000000E+00  0.00000000000E+00 -0.75068754198E+03  0.75068754198E+03  0.25500000920E-02 0. -1.
    10030    2    1    2    0    0  0.00000000000E+00  0.00000000000E+00 -0.60223142569E+03  0.89914365829E+03  0.66766505686E+03 0.  0.
        1    1    3    3  502    0  0.28431661665E+03  0.55161303434E+02 -0.52470602095E+03  0.59932888830E+03  0.50400001928E-02 0. -1.
       -1    1    3    3    0  502 -0.28431661665E+03 -0.55161303434E+02 -0.77525404742E+02  0.29981476999E+03  0.50400001928E-02 0.  1.
</event>
<event>
 5   0  0.1257442E-02  0.7107354E+03  0.7818609E-02  0.9699047E-01
       -1   -1    0    0    0  501  0.00000000000E+00  0.00000000000E+00  0.25333356082E+03  0.25333356087E+03  0.50400001928E-02 0.  1.
        1   -1    0    0  501    0  0.00000000000E+00  0.00000000000E+00 -0.49849778609E+03  0.49849778611E+03  0.50400001928E-02 0. -1.
    10030    2    1    2    0    0  0.00000000000E+00  0.00000000000E+00 -0.24516422527E+03  0.75183134699E+03  0.71073544794E+03 0.  0.
        1    1    3    3  502    0 -0.23722293412E+03 -0.20436722190E+03 -0.30036394315E+03  0.43388844215E+03  0.50400001928E-02 0. -1.
       -1    1    3    3    0  502  0.23722293412E+03  0.20436722190E+03  0.55199717880E+02  0.31794290484E+03  0.50400001928E-02 0.  1.
</event>
<event>
 5   0  0.7947250E-03  0.6993380E+03  0.7818609E-02  0.9718365E-01
        4   -1    0    0  501    0  0.00000000000E+00  0.00000000000E+00  0.10549052698E+04  0.10549060343E+04  0.12699999809E+01 0.  1.
       -4   -1    0    0    0  501  0.00000000000E+00  0.00000000000E+00 -0.11590036047E+03  0.11590731839E+03  0.12699999809E+01 0. -1.
    10030    2    1    2    0    0  0.00000000000E+00  0.00000000000E+00  0.93900490936E+03  0.11708133527E+04  0.69933803488E+03 0.  0.
        4    1    3    3  502    0  0.34120812789E+03  0.75860636880E+02  0.48529534406E+03  0.59807274359E+03  0.12699999809E+01 0.  1.
       -4    1    3    3    0  502 -0.34120812789E+03 -0.75860636880E+02  0.45370956530E+03  0.57274060909E+03  0.12699999809E+01 0. -1.
</event>
<event>
 5   0  0.1257442E-02  0.6634675E+03  0.7818609E-02  0.9781831E-01
       -1   -1    0    0    0  501  0.00000000000E+00  0.00000000000E+00  0.26558444442E+03  0.26558444447E+03  0.50400001928E-02 0.  1.
        1   -1    0    0  501    0  0.00000000000E+00  0.00000000000E+00 -0.41435893781E+03  0.41435893784E+03  0.50400001928E-02 0. -1.
    10030    2    1    2    0    0  0.00000000000E+00  0.00000000000E+00 -0.14877449338E+03  0.67994338231E+03  0.66346752239E+03 0.  0.
        1    1    3    3  502    0 -0.54132060125E+02 -0.18675501784E+03  0.20106141331E+03  0.27970235710E+03  0.50400001928E-02 0.  1.
       -1    1    3    3    0  502  0.54132060125E+02  0.18675501784E+03 -0.34983590669E+03  0.40024102520E+03  0.50400001928E-02 0. -1.
</event>
<event>
 5   0  0.1237686E-02  0.7001471E+03  0.7818609E-02  0.9716981E-01
        1   -1    0    0  501    0  0.00000000000E+00  0.00000000000E+00  0.23995107177E+03  0.23995107182E+03  0.50400001928E-02 0. -1.
       -1   -1    0    0    0  501  0.00000000000E+00  0.00000000000E+00 -0.51073535646E+03  0.51073535649E+03  0.50400001928E-02 0.  1.
    10030    2    1    2    0    0  0.00000000000E+00  0.00000000000E+00 -0.27078428470E+03  0.75068642831E+03  0.70014711655E+03 0.  0.
        5    1    3    3  502    0  0.85638750408E+02  0.20380428338E+03  0.15560105165E+03  0.27037743761E+03  0.46999998093E+01 0. -1.
       -5    1    3    3    0  502 -0.85638750408E+02 -0.20380428338E+03 -0.42638533635E+03  0.48030899070E+03  0.46999998093E+01 0.  1.
</event>
<event>
 5   0  0.7947250E-03  0.6987659E+03  0.7818609E-02  0.9719345E-01
       -4   -1    0    0    0  501  0.00000000000E+00  0.00000000000E+00  0.13034209226E+03  0.13034827930E+03  0.12699999809E+01 0.  1.
        4   -1    0    0  501    0  0.00000000000E+00  0.00000000000E+00 -0.93649466802E+03  0.93649552915E+03  0.12699999809E+01 0. -1.
    10030    2    1    2    0    0  0.00000000000E+00  0.00000000000E+00 -0.80615257576E+03  0.10668438084E+04  0.69876586653E+03 0.  0.
        1    1    3    3  502    0 -0.26198336605E+03  0.10020388781E+03 -0.85040752476E+02  0.29310072130E+03  0.50400001928E-02 0.  1.
       -1    1    3    3    0  502  0.26198336605E+03 -0.10020388781E+03 -0.72111182328E+03  0.77374308715E+03  0.50400001928E-02 0. -1.
</event>
<event>
 5   0  0.1909053E-02  0.6986416E+03  0.7818609E-02  0.9719558E-01
        2   -1    0    0  501    0  0.00000000000E+00  0.00000000000E+00  0.67205698683E+03  0.67205698684E+03  0.25500000920E-02 0. -1.
       -2   -1    0    0    0  501  0.00000000000E+00  0.00000000000E+00 -0.18156945213E+03  0.18156945214E+03  0.25500000920E-02 0.  1.
    10030    2    1    2    0    0  0.00000000000E+00  0.00000000000E+00  0.49048753470E+03  0.85362643898E+03  0.69864159311E+03 0.  0.
        1    1    3    3  502    0 -0.18589762359E+03 -0.94203803683E+02  0.58777850684E+03  0.62363118605E+03  0.50400001928E-02 0. -1.
       -1    1    3    3    0  502  0.18589762359E+03  0.94203803683E+02 -0.97290972139E+02  0.22999525293E+03  0.50400001928E-02 0.  1.
</event>
<event>
 5   0  0.1948138E-02  0.7030037E+03  0.7818609E-02  0.9712109E-01
       -2   -1    0    0    0  501  0.00000000000E+00  0.00000000000E+00  0.26601085095E+03  0.26601085096E+03  0.25500000920E-02 0. -1.
        2   -1    0    0  501    0  0.00000000000E+00  0.00000000000E+00 -0.46446810238E+03  0.46446810239E+03  0.25500000920E-02 0.  1.
    10030    2    1    2    0    0  0.00000000000E+00  0.00000000000E+00 -0.19845725143E+03  0.73047895335E+03  0.70300371310E+03 0.  0.
        3    1    3    3  502    0 -0.29240548689E+03 -0.13652635265E+03  0.45547811111E+02  0.32590646975E+03  0.10100000352E+00 0. -1.
       -3    1    3    3    0  502  0.29240548689E+03  0.13652635265E+03 -0.24400506255E+03  0.40457248359E+03  0.10100000352E+00 0.  1.
</event>
<event>
 5   0  0.1257442E-02  0.6878687E+03  0.7818609E-02  0.9738206E-01
        1   -1    0    0  501    0  0.00000000000E+00  0.00000000000E+00  0.39803359224E+03  0.39803359227E+03  0.50400001928E-02 0. -1.
       -1   -1    0    0    0  501  0.00000000000E+00  0.00000000000E+00 -0.29718811257E+03  0.29718811261E+03  0.50400001928E-02 0.  1.
    10030    2    1    2    0    0  0.00000000000E+00  0.00000000000E+00  0.10084547967E+03  0.69522170488E+03  0.68786874342E+03 0.  0.
        1    1    3    3  502    0 -0.55567056358E+02 -0.23005042843E+03  0.30264992342E+03  0.38419770112E+03  0.50400001928E-02 0. -1.
       -1    1    3    3    0  502  0.55567056358E+02  0.23005042843E+03 -0.20180444375E+03  0.31102400376E+03  0.50400001928E-02 0.  1.
</event>
<event>
 5   0  0.1223742E-02  0.7025565E+03  0.7818609E-02  0.9712870E-01
       -1   -1    0    0    0  501  0.00000000000E+00  0.00000000000E+00  0.15920545803E+03  0.15920545811E+03  0.50400001928E-02 0.  1.
        1   -1    0    0  501    0  0.00000000000E+00  0.00000000000E+00 -0.77507639204E+03  0.77507639206E+03  0.50400001928E-02 0. -1.
    10030    2    1    2    0    0  0.00000000000E+00  0.00000000000E+00 -0.61587093401E+03  0.93428185017E+03  0.70255645197E+03 0.  0.
        2    1    3    3  502    0 -0.80268036358E+02  0.32607202834E+03 -0.44504664170E+03  0.55752348706E+03  0.25500000920E-02 0. -1.
       -2    1    3    3    0  502  0.80268036358E+02 -0.32607202834E+03 -0.17082429231E+03  0.37675836311E+03  0.25500000920E-02 0.  1.
</event>
<event>
 5   0  0.7947250E-03  0.7039949E+03  0.7818609E-02  0.9710425E-01
       -3   -1    0    0    0  501  0.00000000000E+00  0.00000000000E+00  0.20058380057E+03  0.20058382600E+03  0.10100000352E+00 0. -1.
        3   -1    0    0  501    0  0.00000000000E+00  0.00000000000E+00 -0.61770785478E+03  0.61770786304E+03  0.10100000352E+00 0.  1.
    10030    2    1    2    0    0  0.00000000000E+00  0.00000000000E+00 -0.41712405421E+03  0.81829168904E+03  0.70399489469E+03 0.  0.
        4    1    3    3  502    0  0.59430715387E+02 -0.34693209406E+03 -0.20555284882E+03  0.40761191639E+03  0.12699999809E+01 0.  1.
       -4    1    3    3    0  502 -0.59430715387E+02  0.34693209406E+03 -0.21157120539E+03  0.41067977266E+03  0.12699999809E+01 0. -1.
</event>
<event>
 5   0  0.1226303E-02  0.7015911E+03  0.7818609E-02  0.9714515E-01
        1   -1    0    0  501    0  0.00000000000E+00  0.00000000000E+00  0.53395869791E+03  0.53395869793E+03  0.50400001928E-02 0. -1.
       -1   -1    0    0    0  501  0.00000000000E+00  0.00000000000E+00 -0.23046264586E+03  0.23046264592E+03  0.50400001928E-02 0.  1.
    10030    2    1    2    0    0  0.00000000000E+00  0.00000000000E+00  0.30349605205E+03  0.76442134385E+03  0.70159114684E+03 0.  0.
        4    1    3    3  502    0  0.58679526802E+02  0.34319956468E+03  0.19831537672E+03  0.40069917595E+03  0.12699999809E+01 0.  1.
       -4    1    3    3    0  502 -0.58679526802E+02 -0.34319956468E+03  0.10518067532E+03  0.36372216790E+03  0.12699999809E+01 0. -1.
</event>
<event>
 5   0  0.1223742E-02  0.7132338E+03  0.7818609E-02  0.9694865E-01
       -1   -1    0    0    0  501  0.00000000000E+00  0.00000000000E+00  0.10607008699E+03  0.10607008711E+03  0.50400001928E-02 0. -1.
        1   -1    0    0  501    0  0.00000000000E+00  0.00000000000E+00 -0.11989770700E+04  0.11989770700E+04  0.50400001928E-02 0.  1.
    10030    2    1    2    0    0  0.00000000000E+00  0.00000000000E+00 -0.10929069830E+04  0.13050471571E+04  0.71323376870E+03 0.  0.
        2    1    3    3  502    0  0.19488348674E+03 -0.16476096888E+02 -0.10920922191E+04  0.11094667414E+04  0.25500000920E-02 0.  1.
       -2    1    3    3    0  502 -0.19488348674E+03  0.16476096888E+02 -0.81476388712E+00  0.19558041574E+03  0.25500000920E-02 0. -1.
</event>
<event>
 5   0  0.1197259E-02  0.7069928E+03  0.7818609E-02  0.9705348E-01
        1   -1    0    0  501    0  0.00000000000E+00  0.00000000000E+00  0.75646006041E+03  0.75646006042E+03  0.50400001928E-02 0. -1.
       -1   -1    0    0    0  501  0.00000000000E+00  0.00000000000E+00 -0.16519010819E+03  0.16519010827E+03  0.50400001928E-02 0.  1.
    10030    2    1    2    0    0  0.00000000000E+00  0.00000000000E+00  0.59126995222E+03  0.92165016869E+03  0.70699284088E+03 0.  0.
        3    1    3    3  502    0  0.18083434892E+03 -0.29886422647E+02  0.68967658838E+03  0.71361619010E+03  0.10100000352E+00 0. -1.
       -3    1    3    3    0  502 -0.18083434892E+03  0.29886422647E+02 -0.98406636162E+02  0.20803397860E+03  0.10100000352E+00 0.  1.
</event>
<event>
 5   0  0.1909053E-02  0.6982915E+03  0.7818609E-02  0.9720158E-01
        2   -1    0    0  501    0  0.00000000000E+00  0.00000000000E+00  0.37552467284E+03  0.37552467285E+03  0.25500000920E-02 0. -1.
       -2   -1    0    0    0  501  0.00000000000E+00  0.00000000000E+00 -0.32461985867E+03  0.32461985868E+03  0.25500000920E-02 0.  1.
    10030    2    1    2    0    0  0.00000000000E+00  0.00000000000E+00  0.50904814172E+02  0.70014453152E+03  0.69829153290E+03 0.  0.
        1    1    3    3  502    0 -0.14747656532E+03 -0.44968281173E+02  0.33954280707E+03  0.37290856987E+03  0.50400001928E-02 0. -1.
       -1    1    3    3    0  502  0.14747656532E+03  0.44968281173E+02 -0.28863799289E+03  0.32723596165E+03  0.50400001928E-02 0.  1.
</event>
<event>
 5   0  0.1237686E-02  0.7225411E+03  0.7818609E-02  0.9679442E-01
        1   -1    0    0  501    0  0.00000000000E+00  0.00000000000E+00  0.10537865867E+04  0.10537865867E+04  0.50400001928E-02 0. -1.
       -1   -1    0    0    0  501  0.00000000000E+00  0.00000000000E+00 -0.12385468235E+03  0.12385468245E+03  0.50400001928E-02 0.  1.
    10030    2    1    2    0    0  0.00000000000E+00  0.00000000000E+00  0.92993190430E+03  0.11776412691E+04  0.72254107987E+03 0.  0.
        5    1    3    3  502    0 -0.29402421305E+03  0.73576777110E+02  0.78530938347E+03  0.84178185877E+03  0.46999998093E+01 0. -1.
       -5    1    3    3    0  502  0.29402421305E+03 -0.73576777110E+02  0.14462252084E+03  0.33585941035E+03  0.46999998093E+01 0.  1.
</event>
<event>
 5   0  0.2026361E-02  0.6872554E+03  0.7818609E-02  0.9739279E-01
        2   -1    0    0  501    0  0.00000000000E+00  0.00000000000E+00  0.68513486360E+03  0.68513486361E+03  0.25500000920E-02 0. -1.
       -2   -1    0    0    0  501  0.00000000000E+00  0.00000000000E+00 -0.17234563822E+03  0.17234563824E+03  0.25500000920E-02 0.  1.
    10030    2    1    2    0    0  0.00000000000E+00  0.00000000000E+00  0.51278922539E+03  0.85748050184E+03  0.68725542659E+03 0.  0.
        2    1    3    3  502    0 -0.14937217773E+03  0.24069102266E+03  0.13701486566E+02  0.28360526548E+03  0.25500000920E-02 0.  1.
       -2    1    3    3    0  502  0.14937217773E+03 -0.24069102266E+03  0.49908773882E+03  0.57387523637E+03  0.25500000920E-02 0. -1.
</event>
<event>
 5   0  0.1223742E-02  0.7001729E+03  0.7818609E-02  0.9716937E-01
       -1   -1    0    0    0  501  0.00000000000E+00  0.00000000000E+00  0.17493016714E+03  0.17493016722E+03  0.50400001928E-02 0.  1.
        1   -1    0    0  501    0  0.00000000000E+00  0.00000000000E+00 -0.70062545347E+03  0.70062545349E+03  0.50400001928E-02 0. -1.
    10030    2    1    2    0    0  0.00000000000E+00  0.00000000000E+00 -0.52569528633E+03  0.87555562071E+03  0.70017291499E+03 0.  0.
        2    1    3    3  502    0 -0.14091129049E+02  0.24738368709E+03  0.46412401457E+02  0.25209394989E+03  0.25500000920E-02 0.  1.
       -2    1    3    3    0  502  0.14091129049E+02 -0.24738368709E+03 -0.57210768779E+03  0.62346167082E+03  0.25500000920E-02 0. -1.
</event>
<event>
 5   0  0.1948138E-02  0.7263095E+03  0.7818609E-02  0.9673268E-01
       -2   -1    0    0    0  501  0.00000000000E+00  0.00000000000E+00  0.33671271197E+03  0.33671271198E+03  0.25500000920E-02 0. -1.
        2   -1    0    0  501    0  0.00000000000E+00  0.00000000000E+00 -0.39167331078E+03  0.39167331079E+03  0.25500000920E-02 0.  1.
    10030    2    1    2    0    0  0.00000000000E+00  0.00000000000E+00 -0.54960598811E+02  0.72838602276E+03  0.72630952818E+03 0.  0.
        3    1    3    3  502    0  0.43378891523E+02  0.23356852746E+03 -0.30293881818E+03  0.38497782145E+03  0.10100000352E+00 0.  1.
       -3    1    3    3    0  502 -0.43378891523E+02 -0.23356852746E+03  0.24797821936E+03  0.34340820131E+03  0.10100000352E+00 0. -1.
</event>
<event>
 5   0  0.1257442E-02  0.6831974E+03  0.7818609E-02  0.9746406E-01
        1   -1    0    0  501    0  0.00000000000E+00  0.00000000000E+00  0.37582507465E+03  0.37582507469E+03  0.50400001928E-02 0.  1.
       -1   -1    0    0    0  501  0.00000000000E+00  0.00000000000E+00 -0.31048932383E+03  0.31048932387E+03  0.50400001928E-02 0. -1.
    10030    2    1    2    0    0  0.00000000000E+00  0.00000000000E+00  0.65335750821E+02  0.68631439856E+03  0.68319740437E+03 0.  0.
        1    1    3    3  502    0 -0.16065302168E+03  0.73728721874E+02 -0.26097440745E+03  0.31520304436E+03  0.50400001928E-02 0. -1.
       -1    1    3    3    0  502  0.16065302168E+03 -0.73728721874E+02  0.32631015827E+03  0.37111135420E+03  0.50400001928E-02 0.  1.
</event>
<event>
 5   0  0.1948138E-02  0.6959159E+03  0.7818609E-02  0.9724242E-01
       -2   -1    0    0    0  501  0.00000000000E+00  0.00000000000E+00  0.29434166593E+03  0.29434166594E+03  0.25500000920E-02 0. -1.
        2   -1    0    0  501    0  0.00000000000E+00  0.00000000000E+00 -0.41134080957E+03  0.41134080958E+03  0.25500000920E-02 0.  1.
    10030    2    1    2    0    0  0.00000000000E+00  0.00000000000E+00 -0.11699914364E+03  0.70568247551E+03  0.69591591204E+03 0.  0.
        3    1    3    3  502    0 -0.23220412482E+03  0.69313493480E+02  0.19470783895E+03  0.31086052936E+03  0.10100000352E+00 0. -1.
       -3    1    3    3    0  502  0.23220412482E+03 -0.69313493480E+02 -0.31170698260E+03  0.39482194615E+03  0.10100000352E+00 0.  1.
</event>
<event>
 5   0  0.1197259E-02  0.6526716E+03  0.7818609E-02  0.9801779E-01
       -1   -1    0    0    0  501  0.00000000000E+00  0.00000000000E+00  0.37878882097E+03  0.37878882100E+03  0.50400001928E-02 0. -1.
        1   -1    0    0  501    0  0.00000000000E+00  0.00000000000E+00 -0.28114625774E+03  0.28114625779E+03  0.50400001928E-02 0.  1.
    10030    2    1    2    0    0  0.00000000000E+00  0.00000000000E+00  0.97642563230E+02  0.65993507879E+03  0.65267161580E+03 0.  0.
        3    1    3    3  502    0 -0.32470582744E+03  0.23735804281E+02  0.26261854763E+02  0.32662969552E+03  0.10100000352E+00 0.  1.
       -3    1    3    3    0  502  0.32470582744E+03 -0.23735804281E+02  0.71380708466E+02  0.33330538327E+03  0.10100000352E+00 0. -1.
</event>
<event>
 5   0  0.1237686E-02  0.6818628E+03  0.7818609E-02  0.9748762E-01
       -1   -1    0    0    0  501  0.00000000000E+00  0.00000000000E+00  0.14978572886E+03  0.14978572895E+03  0.50400001928E-02 0. -1.
        1   -1    0    0  501    0  0.00000000000E+00  0.00000000000E+00 -0.77600334830E+03  0.77600334831E+03  0.50400001928E-02 0.  1.
    10030    2    1    2    0    0  0.00000000000E+00  0.00000000000E+00 -0.62621761944E+03  0.92578907726E+03  0.68186282248E+03 0.  0.
        5    1    3    3  502    0  0.33495410271E+03  0.63033898668E+02 -0.30404000637E+03  0.45676026401E+03  0.46999998093E+01 0.  1.
       -5    1    3    3    0  502 -0.33495410271E+03 -0.63033898668E+02 -0.32217761306E+03  0.46902881325E+03  0.46999998093E+01 0. -1.
</event>
<event>
 5   0  0.1197259E-02  0.6825903E+03  0.7818609E-02  0.9747477E-01
        1   -1    0    0  501    0  0.00000000000E+00  0.00000000000E+00  0.26080882877E+03  0.26080882881E+03  0.50400001928E-02 0. -1.
       -1   -1    0    0    0  501  0.00000000000E+00  0.00000000000E+00 -0.44661982447E+03  0.44661982450E+03  0.50400001928E-02 0.  1.
    10030    2    1    2    0    0  0.00000000000E+00  0.00000000000E+00 -0.18581099571E+03  0.70742865331E+03  0.68259034084E+03 0.  0.
        3    1    3    3  502    0  0.10546464723E+02  0.26601781925E+03 -0.31423125175E+03  0.41184705639E+03  0.10100000352E+00 0.  1.
       -3    1    3    3    0  502 -0.10546464723E+02 -0.26601781925E+03  0.12842025604E+03  0.29558159693E+03  0.10100000352E+00 0. -1.
</event>
<event>
 5   0  0.1973067E-02  0.6901049E+03  0.7818609E-02  0.9734305E-01
        2   -1    0    0  501    0  0.00000000000E+00  0.00000000000E+00  0.19391614626E+03  0.19391614627E+03  0.25500000920E-02 0.  1.
       -2   -1    0    0    0  501  0.00000000000E+00  0.00000000000E+00 -0.61398291984E+03  0.61398291984E+03  0.25500000920E-02 0. -1.
    10030    2    1    2    0    0  0.00000000000E+00  0.00000000000E+00 -0.42006677358E+03  0.80789906611E+03  0.69010492446E+03 0.  0.
        5    1    3    3  502    0  0.37066483601E+02  0.25893424771E+03 -0.47342110031E+03  0.54089786195E+03  0.46999998093E+01 0. -1.
       -5    1    3    3    0  502 -0.37066483601E+02 -0.25893424771E+03  0.53354326730E+02  0.26700120416E+03  0.46999998093E+01 0.  1.
</event>
<event>
 5   0  0.1909053E-02  0.6919260E+03  0.7818609E-02  0.9731140E-01
       -2   -1    0    0    0  501  0.00000000000E+00  0.00000000000E+00  0.17734722372E+03  0.17734722373E+03  0.25500000920E-02 0. -1.
        2   -1    0    0  501    0  0.00000000000E+00  0.00000000000E+00 -0.67489304504E+03  0.67489304504E+03  0.25500000920E-02 0.  1.
    10030    2    1    2    0    0  0.00000000000E+00  0.00000000000E+00 -0.49754582132E+03  0.85224026878E+03  0.69192603030E+03 0.  0.
        1    1    3    3  502    0  0.28911574267E+03 -0.18982200872E+03 -0.23846045891E+03  0.42009962883E+03  0.50400001928E-02 0.  1.
       -1    1    3    3    0  502 -0.28911574267E+03  0.18982200872E+03 -0.25908536241E+03  0.43214063994E+03  0.50400001928E-02 0. -1.
</event>
<event>
 5   0  0.1909053E-02  0.7029690E+03  0.7818609E-02  0.9712168E-01
        2   -1    0    0  501    0  0.00000000000E+00  0.00000000000E+00  0.27791400908E+03  0.27791400909E+03  0.25500000920E-02 0. -1.
       -2   -1    0    0    0  501  0.00000000000E+00  0.00000000000E+00 -0.44453081621E+03  0.44453081621E+03  0.25500000920E-02 0.  1.
    10030    2    1    2    0    0  0.00000000000E+00  0.00000000000E+00 -0.16661680712E+03  0.72244482531E+03  0.70296896460E+03 0.  0.
        1    1    3    3  502    0 -0.70592857999E+02 -0.14321258828E+03  0.23849321340E+03  0.28700559212E+03  0.50400001928E-02 0. -1.
       -1    1    3    3    0  502  0.70592857999E+02  0.14321258828E+03 -0.40511002053E+03  0.43543923319E+03  0.50400001928E-02 0.  1.
</event>
<event>
 5   0  0.1223742E-02  0.7145000E+03  0.7818609E-02  0.9692752E-01
       -1   -1    0    0    0  501  0.00000000000E+00  0.00000000000E+00  0.41416304160E+03  0.41416304163E+03  0.50400001928E-02 0.  1.
        1   -1    0    0  501    0  0.00000000000E+00  0.00000000000E+00 -0.30815780812E+03  0.30815780816E+03  0.50400001928E-02 0. -1.
    10030    2    1    2    0    0  0.00000000000E+00  0.00000000000E+00  0.10600523348E+03  0.72232084980E+03  0.71450003536E+03 0.  0.
        2    1    3    3  502    0  0.23449533940E+03 -0.26812705485E+03  0.25364877119E+02  0.35710440874E+03  0.25500000920E-02 0.  1.
       -2    1    3    3    0  502 -0.23449533940E+03  0.26812705485E+03  0.80640356359E+02  0.36521644106E+03  0.25500000920E-02 0. -1.
</event>
<event>
 5   0  0.1973067E-02  0.6972761E+03  0.7818609E-02  0.9721902E-01
        2   -1    0    0  501    0  0.00000000000E+00  0.00000000000E+00  0.15675666293E+04  0.15675666293E+04  0.25500000920E-02 0.  1.
       -2   -1    0    0    0  501  0.00000000000E+00  0.00000000000E+00 -0.77539608266E+02  0.77539608308E+02  0.25500000920E-02 0. -1.
    10030    2    1    2    0    0  0.00000000000E+00  0.00000000000E+00  0.14900270211E+04  0.16451062376E+04  0.69727613585E+03 0.  0.
        5    1    3    3  502    0 -0.77230442500E+02  0.21808312100E+03  0.12976752601E+03  0.26530452261E+03  0.46999998093E+01 0. -1.
       -5    1    3    3    0  502  0.77230442500E+02 -0.21808312100E+03  0.13602594950E+04  0.13798017150E+04  0.46999998093E+01 0.  1.
</event>
<event>
 5   0  0.2026361E-02  0.7078770E+03  0.7818609E-02  0.9703856E-01
        2   -1    0    0  501    0  0.00000000000E+00  0.00000000000E+00  0.15513285530E+04  0.15513285530E+04  0.25500000920E-02 0. -1.
       -2   -1    0    0    0  501  0.00000000000E+00  0.00000000000E+00 -0.80751728634E+02  0.80751728674E+02  0.25500000920E-02 0.  1.
    10030    2    1    2    0    0  0.00000000000E+00  0.00000000000E+00  0.14705768244E+04  0.16320802817E+04  0.70787700165E+03 0.  0.
        2    1    3    3  502    0 -0.16157349062E+03 -0.31198122155E+03  0.63654559638E+03  0.72706847804E+03  0.25500000920E-02 0.  1.
       -2    1    3    3    0  502  0.16157349062E+03  0.31198122155E+03  0.83403122797E+03  0.90501180363E+03  0.25500000920E-02 0. -1.
</event>
<event>
 5   0  0.1237686E-02  0.6800041E+03  0.7818609E-02  0.9752052E-01
       -1   -1    0    0    0  501  0.00000000000E+00  0.00000000000E+00  0.14485140993E+03  0.14485141002E+03  0.50400001928E-02 0. -1.
        1   -1    0    0  501    0  0.00000000000E+00  0.00000000000E+00 -0.79806874247E+03  0.79806874249E+03  0.50400001928E-02 0.  1.
    10030    2    1    2    0    0  0.00000000000E+00  0.00000000000E+00 -0.65321733254E+03  0.94292015250E+03  0.68000406650E+03 0.  0.
        5    1    3    3  502    0  0.25747642295E+03  0.11004414716E+03 -0.59396571677E+03  0.65667433739E+03  0.46999998093E+01 0.  1.
       -5    1    3    3    0  502 -0.25747642295E+03 -0.11004414716E+03 -0.59251615774E+02  0.28624581511E+03  0.46999998093E+01 0. -1.
</event>
<event>
 5   0  0.1226303E-02  0.6765899E+03  0.7818609E-02  0.9758126E-01
       -1   -1    0    0    0  501  0.00000000000E+00  0.00000000000E+00  0.10069625083E+03  0.10069625096E+03  0.50400001928E-02 0. -1.
        1   -1    0    0  501    0  0.00000000000E+00  0.00000000000E+00 -0.11365217799E+04  0.11365217799E+04  0.50400001928E-02 0.  1.
    10030    2    1    2    0    0  0.00000000000E+00  0.00000000000E+00 -0.10358255291E+04  0.12372180309E+04  0.67658992695E+03 0.  0.
        4    1    3    3  502    0  0.20391317934E+03  0.96805381205E+02 -0.97867129695E+03  0.10043659626E+04  0.12699999809E+01 0.  1.
       -4    1    3    3    0  502 -0.20391317934E+03 -0.96805381205E+02 -0.57154232138E+02  0.23285206825E+03  0.12699999809E+01 0. -1.
</event>
<event>
 5   0  0.1197259E-02  0.7060956E+03  0.7818609E-02  0.9706864E-01
       -1   -1    0    0    0  501  0.00000000000E+00  0.00000000000E+00  0.12067296274E+03  0.12067296284E+03  0.50400001928E-02 0. -1.
        1   -1    0    0  501    0  0.00000000000E+00  0.00000000000E+00 -0.10328969298E+04  0.10328969298E+04  0.50400001928E-02 0.  1.
    10030    2    1    2    0    0  0.00000000000E+00  0.00000000000E+00 -0.91222396705E+03  0.11535698926E+04  0.70609555384E+03 0.  0.
        3    1    3    3  502    0 -0.26797613785E+03 -0.10791354681E+03 -0.78766744402E+03  0.83897351366E+03  0.10100000352E+00 0.  1.
       -3    1    3    3    0  502  0.26797613785E+03  0.10791354681E+03 -0.12455652302E+03  0.31459637898E+03  0.10100000352E+00 0. -1.
</event>
<event>
 5   0  0.1197259E-02  0.7008204E+03  0.7818609E-02  0.9715830E-01
        1   -1    0    0  501    0  0.00000000000E+00  0.00000000000E+00  0.38737092825E+03  0.38737092828E+03  0.50400001928E-02 0.  1.
       -1   -1    0    0    0  501  0.00000000000E+00  0.00000000000E+00 -0.31697602444E+03  0.31697602448E+03  0.50400001928E-02 0. -1.
    10030    2    1    2    0    0  0.00000000000E+00  0.00000000000E+00  0.70394903804E+02  0.70434695276E+03  0.70082036741E+03 0.  0.
        3    1    3    3  502    0  0.52259933009E+02  0.32734419493E+03 -0.78960939240E+02  0.34076408655E+03  0.10100000352E+00 0. -1.
       -3    1    3    3    0  502 -0.52259933009E+02 -0.32734419493E+03  0.14935584304E+03  0.36358286621E+03  0.10100000352E+00 0.  1.
</event>
<event>
 5   0  0.2026361E-02  0.7008420E+03  0.7818609E-02  0.9715793E-01
        2   -1    0    0  501    0  0.00000000000E+00  0.00000000000E+00  0.73166442789E+03  0.73166442789E+03  0.25500000920E-02 0. -1.
       -2   -1    0    0    0  501  0.00000000000E+00  0.00000000000E+00 -0.16782947984E+03  0.16782947986E+03  0.25500000920E-02 0.  1.
    10030    2    1    2    0    0  0.00000000000E+00  0.00000000000E+00  0.56383494805E+03  0.89949390775E+03  0.70084195183E+03 0.  0.
        2    1    3    3  502    0  0.44393285783E+02 -0.10997228501E+03 -0.14128988934E+03  0.18446544426E+03  0.25500000920E-02 0.  1.
       -2    1    3    3    0  502 -0.44393285783E+02  0.10997228501E+03  0.70512483739E+03  0.71502846349E+03  0.25500000920E-02 0. -1.
</event>
<event>
 5   0  0.2026361E-02  0.7151720E+03  0.7818609E-02  0.9691632E-01
        2   -1    0    0  501    0  0.00000000000E+00  0.00000000000E+00  0.76212271123E+03  0.76212271124E+03  0.25500000920E-02 0. -1.
       -2   -1    0    0    0  501  0.00000000000E+00  0.00000000000E+00 -0.16777843457E+03  0.16777843459E+03  0.25500000920E-02 0.  1.
    10030    2    1    2    0    0  0.00000000000E+00  0.00000000000E+00  0.59434427667E+03  0.92990114582E+03  0.71517202252E+03 0.  0.
        2    1    3    3  502    0 -0.18066647381E+03  0.23582256626E+03  0.55596758634E+03  0.63035911557E+03  0.25500000920E-02 0. -1.
       -2    1    3    3    0  502  0.18066647381E+03 -0.23582256626E+03  0.38376690326E+02  0.29954203025E+03  0.25500000920E-02 0.  1.
</event>
<event>
 5   0  0.1226303E-02  0.7007755E+03  0.7818609E-02  0.9715907E-01
        1   -1    0    0  501    0  0.00000000000E+00  0.00000000000E+00  0.12068164203E+04  0.12068164204E+04  0.50400001928E-02 0. -1.
       -1   -1    0    0    0  501  0.00000000000E+00  0.00000000000E+00 -0.10173176057E+03  0.10173176069E+03  0.50400001928E-02 0.  1.
    10030    2    1    2    0    0  0.00000000000E+00  0.00000000000E+00  0.11050846598E+04  0.13085481810E+04  0.70077545394E+03 0.  0.
        4    1    3    3  502    0  0.34303946541E+03  0.56339700765E+02  0.47072814554E+03  0.58518102893E+03  0.12699999809E+01 0.  1.
       -4    1    3    3    0  502 -0.34303946541E+03 -0.56339700765E+02  0.63435651424E+03  0.72336715212E+03  0.12699999809E+01 0. -1.
</event>
<event>
 5   0  0.1257442E-02  0.7018715E+03  0.7818609E-02  0.9714037E-01
        1   -1    0    0  501    0  0.00000000000E+00  0.00000000000E+00  0.58296785643E+03  0.58296785646E+03  0.50400001928E-02 0.  1.
       -1   -1    0    0    0  501  0.00000000000E+00  0.00000000000E+00 -0.21125676501E+03  0.21125676507E+03  0.50400001928E-02 0. -1.
    10030    2    1    2    0    0  0.00000000000E+00  0.00000000000E+00  0.37171109142E+03  0.79422462153E+03  0.70187150815E+03 0.  0.
        1    1    3    3  502    0  0.43571703336E+02 -0.17192142780E+03  0.52852187007E+03  0.55748617726E+03  0.50400001928E-02 0.  1.
       -1    1    3    3    0  502 -0.43571703336E+02  0.17192142780E+03 -0.15681077865E+03  0.23673844426E+03  0.50400001928E-02 0. -1.
</event>
<event>
 5   0  0.1226303E-02  0.6721234E+03  0.7818609E-02  0.9766129E-01
       -1   -1    0    0    0  501  0.00000000000E+00  0.00000000000E+00  0.18150628854E+04  0.18150628854E+04  0.50400001928E-02 0.  1.
        1   -1    0    0  501    0  0.00000000000E+00  0.00000000000E+00 -0.62222351729E+02  0.62222351933E+02  0.50400001928E-02 0. -1.
    10030    2    1    2    0    0  0.00000000000E+00  0.00000000000E+00  0.17528405337E+04  0.18772852374E+04  0.67212344540E+03 0.  0.
        4    1    3    3  502    0 -0.27120582648E+03 -0.55017743743E+02  0.14089834693E+04  0.14359023581E+04  0.12699999809E+01 0.  1.
       -4    1    3    3    0  502  0.27120582648E+03  0.55017743743E+02  0.34385706441E+03  0.44138287925E+03  0.12699999809E+01 0. -1.
</event>
<event>
 5   0  0.7947250E-03  0.6987805E+03  0.7818609E-02  0.9719320E-01
        3   -1    0    0  501    0  0.00000000000E+00  0.00000000000E+00  0.13070125215E+03  0.13070129118E+03  0.10100000352E+00 0.  1.
       -3   -1    0    0    0  501  0.00000000000E+00  0.00000000000E+00 -0.93398887609E+03  0.93398888155E+03  0.10100000352E+00 0. -1.
    10030    2    1    2    0    0  0.00000000000E+00  0.00000000000E+00 -0.80328762394E+03  0.10646901727E+04  0.69878047851E+03 0.  0.
        5    1    3    3  502    0 -0.21781276050E+03  0.21021398830E+03 -0.66738316570E+03  0.73284015950E+03  0.46999998093E+01 0. -1.
       -5    1    3    3    0  502  0.21781276050E+03 -0.21021398830E+03 -0.13590445823E+03  0.33185001323E+03  0.46999998093E+01 0.  1.
</event>
<event>
 5   0  0.7947250E-03  0.7209849E+03  0.7818609E-02  0.9682003E-01
        3   -1    0    0  501    0  0.00000000000E+00  0.00000000000E+00  0.22669309385E+03  0.22669311635E+03  0.10100000352E+00 0. -1.
       -3   -1    0    0    0  501  0.00000000000E+00  0.00000000000E+00 -0.57326321556E+03  0.57326322446E+03  0.10100000352E+00 0.  1.
    10030    2    1    2    0    0  0.00000000000E+00  0.00000000000E+00 -0.34657012171E+03  0.79995634082E+03  0.72098494988E+03 0.  0.
        4    1    3    3  502    0 -0.20400918592E+02  0.23319110485E+03 -0.47746485335E+03  0.53175989690E+03  0.12699999809E+01 0.  1.
       -4    1    3    3    0  502  0.20400918592E+02 -0.23319110485E+03  0.13089473164E+03  0.26819644392E+03  0.12699999809E+01 0. -1.
</event>
<event>
 5   0  0.1237686E-02  0.6953054E+03  0.7818609E-02  0.9725294E-01
       -1   -1    0    0    0  501  0.00000000000E+00  0.00000000000E+00  0.28744340460E+03  0.28744340464E+03  0.50400001928E-02 0.  1.
        1   -1    0    0  501    0  0.00000000000E+00  0.00000000000E+00 -0.42047370791E+03  0.42047370794E+03  0.50400001928E-02 0. -1.
    10030    2    1    2    0    0  0.00000000000E+00  0.00000000000E+00 -0.13303030331E+03  0.70791711258E+03  0.69530538376E+03 0.  0.
        5    1    3    3  502    0  0.26662342647E+03 -0.12871812096E+03  0.11895350153E+03  0.31910567486E+03  0.46999998093E+01 0.  1.
       -5    1    3    3    0  502 -0.26662342647E+03  0.12871812096E+03 -0.25198380484E+03  0.38881143772E+03  0.46999998093E+01 0. -1.
</event>
<event>
 5   0  0.1909053E-02  0.6839866E+03  0.7818609E-02  0.9745016E-01
        2   -1    0    0  501    0  0.00000000000E+00  0.00000000000E+00  0.18511638983E+04  0.18511638983E+04  0.25500000920E-02 0. -1.
       -2   -1    0    0    0  501  0.00000000000E+00  0.00000000000E+00 -0.63181554228E+02  0.63181554279E+02  0.25500000920E-02 0.  1.
    10030    2    1    2    0    0  0.00000000000E+00  0.00000000000E+00  0.17879823440E+04  0.19143454525E+04  0.68398658547E+03 0.  0.
        1    1    3    3  502    0 -0.46006186866E+02  0.15942871343E+02  0.18414133831E+04  0.18420570002E+04  0.50400001928E-02 0. -1.
       -1    1    3    3    0  502  0.46006186866E+02 -0.15942871343E+02 -0.53431039103E+02  0.72288452339E+02  0.50400001928E-02 0.  1.
</event>
<event>
 5   0  0.1948138E-02  0.6992950E+03  0.7818609E-02  0.9718439E-01
        2   -1    0    0  501    0  0.00000000000E+00  0.00000000000E+00  0.77519908971E+03  0.77519908971E+03  0.25500000920E-02 0.  1.
       -2   -1    0    0    0  501  0.00000000000E+00  0.00000000000E+00 -0.15770576634E+03  0.15770576636E+03  0.25500000920E-02 0. -1.
    10030    2    1    2    0    0  0.00000000000E+00  0.00000000000E+00  0.61749332337E+03  0.93290485607E+03  0.69929497786E+03 0.  0.
        3    1    3    3  502    0  0.34557237704E+03 -0.52646074522E+02  0.31920690274E+03  0.47337610194E+03  0.10100000352E+00 0. -1.
       -3    1    3    3    0  502 -0.34557237704E+03  0.52646074522E+02  0.29828642063E+03  0.45952875412E+03  0.10100000352E+00 0.  1.
</event>
<event>
 5   0  0.1909053E-02  0.7019065E+03  0.7818609E-02  0.9713977E-01
        2   -1    0    0  501    0  0.00000000000E+00  0.00000000000E+00  0.84445108677E+03  0.84445108678E+03  0.25500000920E-02 0.  1.
       -2   -1    0    0    0  501  0.00000000000E+00  0.00000000000E+00 -0.14585589946E+03  0.14585589948E+03  0.25500000920E-02 0. -1.
    10030    2    1    2    0    0  0.00000000000E+00  0.00000000000E+00  0.69859518731E+03  0.99030698626E+03  0.70190646905E+03 0.  0.
        1    1    3    3  502    0  0.24106664726E+03 -0.24877758951E+03  0.42866837724E+03  0.55114425982E+03  0.50400001928E-02 0. -1.
       -1    1    3    3    0  502 -0.24106664726E+03  0.24877758951E+03  0.26992681008E+03  0.43916272644E+03  0.50400001928E-02 0.  1.
</event>
<event>
 5   0  0.7947250E-03  0.6999675E+03  0.7818609E-02  0.9717288E-01
        3   -1    0    0  501    0  0.00000000000E+00  0.00000000000E+00  0.29467246166E+03  0.29467247897E+03  0.10100000352E+00 0.  1.
       -3   -1    0    0    0  501  0.00000000000E+00  0.00000000000E+00 -0.41567717412E+03  0.41567718639E+03  0.10100000352E+00 0. -1.
    10030    2    1    2    0    0  0.00000000000E+00  0.00000000000E+00 -0.12100471246E+03  0.71034966537E+03  0.69996750399E+03 0.  0.
        3    1    3    3  502    0 -0.37424049547E+02 -0.34050987140E+02  0.29094126139E+03  0.29530807133E+03  0.10100000352E+00 0.  1.
       -3    1    3    3    0  502  0.37424049547E+02  0.34050987140E+02 -0.41194597385E+03  0.41504159404E+03  0.10100000352E+00 0. -1.
</event>
<event>
 5   0  0.1948138E-02  0.7014405E+03  0.7818609E-02  0.9714772E-01
       -2   -1    0    0    0  501  0.00000000000E+00  0.00000000000E+00  0.77973232506E+02  0.77973232548E+02  0.25500000920E-02 0.  1.
        2   -1    0    0  501    0  0.00000000000E+00  0.00000000000E+00 -0.15775243971E+04  0.15775243971E+04  0.25500000920E-02 0. -1.
    10030    2    1    2    0    0  0.00000000000E+00  0.00000000000E+00 -0.14995511646E+04  0.16554976296E+04  0.70144045116E+03 0.  0.
        3    1    3    3  502    0  0.48708401030E+02 -0.33957607281E+03 -0.92192427544E+03  0.98368124786E+03  0.10100000352E+00 0. -1.
       -3    1    3    3    0  502 -0.48708401030E+02  0.33957607281E+03 -0.57762688912E+03  0.67181638175E+03  0.10100000352E+00 0.  1.
</event>
<event>
 5   0  0.1973067E-02  0.6277741E+03  0.7818609E-02  0.9849402E-01
        2   -1    0    0  501    0  0.00000000000E+00  0.00000000000E+00  0.27424932654E+03  0.27424932655E+03  0.25500000920E-02 0. -1.
       -2   -1    0    0    0  501  0.00000000000E+00  0.00000000000E+00 -0.35925366135E+03  0.35925366136E+03  0.25500000920E-02 0.  1.
    10030    2    1    2    0    0  0.00000000000E+00  0.00000000000E+00 -0.85004334819E+02  0.63350298791E+03  0.62777408258E+03 0.  0.
        5    1    3    3  502    0 -0.31164790945E+03  0.19475144866E+02 -0.74402098349E+02  0.32103187221E+03  0.46999998093E+01 0. -1.
       -5    1    3    3    0  502  0.31164790945E+03 -0.19475144866E+02 -0.10602236470E+02  0.31247111571E+03  0.46999998093E+01 0.  1.
</event>
<event>
 5   0  0.1973067E-02  0.6990122E+03  0.7818609E-02  0.9718923E-01
       -2   -1    0    0    0  501  0.00000000000E+00  0.00000000000E+00  0.13205505577E+03  0.13205505579E+03  0.25500000920E-02 0. -1.
        2   -1    0    0  501    0  0.00000000000E+00  0.00000000000E+00 -0.92502707635E+03  0.92502707635E+03  0.25500000920E-02 0.  1.
    10030    2    1    2    0    0  0.00000000000E+00  0.00000000000E+00 -0.79297202058E+03  0.10570821321E+04  0.69901216633E+03 0.  0.
        5    1    3    3  502    0  0.44719467314E+02 -0.22354137021E+03  0.40803494069E+01  0.22805550685E+03  0.46999998093E+01 0. -1.
       -5    1    3    3    0  502 -0.44719467314E+02  0.22354137021E+03 -0.79705236999E+03  0.82902662530E+03  0.46999998093E+01 0.  1.
</event>
<event>
 5   0  0.1257442E-02  0.7029207E+03  0.7818609E-02  0.9712250E-01
       -1   -1    0    0    0  501  0.00000000000E+00  0.00000000000E+00  0.22263693572E+03  0.22263693577E+03  0.50400001928E-02 0. -1.
        1   -1    0    0  501    0  0.00000000000E+00  0.00000000000E+00 -0.55482430959E+03  0.55482430961E+03  0.50400001928E-02 0.  1.
    10030    2    1    2    0    0  0.00000000000E+00  0.00000000000E+00 -0.33218737387E+03  0.77746124538E+03  0.70292071866E+03 0.  0.
        1    1    3    3  502    0  0.16911179876E+03 -0.21505303787E+03 -0.41012062065E+03  0.49299648385E+03  0.50400001928E-02 0.  1.
       -1    1    3    3    0  502 -0.16911179876E+03  0.21505303787E+03  0.77933246784E+02  0.28446476154E+03  0.50400001928E-02 0. -1.
</event>
<event>
 5   0  0.1909053E-02  0.6977788E+03  0.7818609E-02  0.9721038E-01
        2   -1    0    0  501    0  0.00000000000E+00  0.00000000000E+00  0.33140250266E+03  0.33140250267E+03  0.25500000920E-02 0. -1.
       -2   -1    0    0    0  501  0.00000000000E+00  0.00000000000E+00 -0.36729903217E+03  0.36729903217E+03  0.25500000920E-02 0.  1.
    10030    2    1    2    0    0  0.00000000000E+00  0.00000000000E+00 -0.35896529507E+02  0.69870153484E+03  0.69777881450E+03 0.  0.
        1    1    3    3  502    0 -0.20865648588E+03 -0.11179961824E+03 -0.27458219609E+03  0.36253560677E+03  0.50400001928E-02 0.  1.
       -1    1    3    3    0  502  0.20865648588E+03  0.11179961824E+03  0.23868566659E+03  0.33616592807E+03  0.50400001928E-02 0. -1.
</event>
<event>
 5   0  0.1197259E-02  0.6941299E+03  0.7818609E-02  0.9727324E-01
       -1   -1    0    0    0  501  0.00000000000E+00  0.00000000000E+00  0.85790393548E+02  0.85790393696E+02  0.50400001928E-02 0. -1.
        1   -1    0    0  501    0  0.00000000000E+00  0.00000000000E+00 -0.14040507972E+04  0.14040507972E+04  0.50400001928E-02 0.  1.
    10030    2    1    2    0    0  0.00000000000E+00  0.00000000000E+00 -0.13182604036E+04  0.14898411909E+04  0.69412987421E+03 0.  0.
        3    1    3    3  502    0  0.12130100834E+03  0.31576526347E+03 -0.49242652630E+03  0.59741570974E+03  0.10100000352E+00 0. -1.
       -3    1    3    3    0  502 -0.12130100834E+03 -0.31576526347E+03 -0.82583387731E+03  0.89242548112E+03  0.10100000352E+00 0.  1.
</event>
<event>
 5   0  0.1223742E-02  0.7102278E+03  0.7818609E-02  0.9699899E-01
        1   -1    0    0  501    0  0.00000000000E+00  0.00000000000E+00  0.42566036271E+03  0.42566036274E+03  0.50400001928E-02 0. -1.
       -1   -1    0    0    0  501  0.00000000000E+00  0.00000000000E+00 -0.29625937335E+03  0.29625937340E+03  0.50400001928E-02 0.  1.
    10030    2    1    2    0    0  0.00000000000E+00  0.00000000000E+00  0.12940098936E+03  0.72191973614E+03  0.71022777289E+03 0.  0.
        2    1    3    3  502    0 -0.20962088248E+03 -0.10011696764E+03 -0.20831292869E+03  0.31202339311E+03  0.25500000920E-02 0.  1.
       -2    1    3    3    0  502  0.20962088248E+03  0.10011696764E+03  0.33771391805E+03  0.40989634303E+03  0.25500000920E-02 0. -1.
</event>
<event>
 5   0  0.1226303E-02  0.7011464E+03  0.7818609E-02  0.9715274E-01
       -1   -1    0    0    0  501  0.00000000000E+00  0.00000000000E+00  0.45970439156E+03  0.45970439159E+03  0.50400001928E-02 0. -1.
        1   -1    0    0  501    0  0.00000000000E+00  0.00000000000E+00 -0.26734910217E+03  0.26734910222E+03  0.50400001928E-02 0.  1.
    10030    2    1    2    0    0  0.00000000000E+00  0.00000000000E+00  0.19235528938E+03  0.72705349381E+03  0.70114636525E+03 0.  0.
        4    1    3    3  502    0 -0.25625141032E+03 -0.83587412681E+02 -0.13626637479E+03  0.30202943341E+03  0.12699999809E+01 0.  1.
       -4    1    3    3    0  502  0.25625141032E+03  0.83587412681E+02  0.32862166417E+03  0.42502406039E+03  0.12699999809E+01 0. -1.
</event>
<event>
 5   0  0.2006362E-02  0.7003633E+03  0.7818609E-02  0.9716611E-01
        2   -1    0    0  501    0  0.00000000000E+00  0.00000000000E+00  0.11260262150E+04  0.11260262150E+04  0.25500000920E-02 0. -1.
       -2   -1    0    0    0  501  0.00000000000E+00  0.00000000000E+00 -0.10890260127E+03  0.10890260130E+03  0.25500000920E-02 0.  1.
    10030    2    1    2    0    0  0.00000000000E+00  0.00000000000E+00  0.10171236138E+04  0.12349288163E+04  0.70036328841E+03 0.  0.
        4    1    3    3  502    0 -0.13668617250E+03  0.30823540529E+03  0.67522006935E+03  0.75472904394E+03  0.12699999809E+01 0.  1.
       -4    1    3    3    0  502  0.13668617250E+03 -0.30823540529E+03  0.34190354442E+03  0.48019977240E+03  0.12699999809E+01 0. -1.
</event>
<event>
 5   0  0.1237686E-02  0.6764959E+03  0.7818609E-02  0.9758294E-01
       -1   -1    0    0    0  501  0.00000000000E+00  0.00000000000E+00  0.90872535105E+02  0.90872535245E+02  0.50400001928E-02 0.  1.
        1   -1    0    0  501    0  0.00000000000E+00  0.00000000000E+00 -0.12590346768E+04  0.12590346768E+04  0.50400001928E-02 0. -1.
    10030    2    1    2    0    0  0.00000000000E+00  0.00000000000E+00 -0.11681621417E+04  0.13499072120E+04  0.67649589198E+03 0.  0.
        5    1    3    3  502    0 -0.25751993470E+03  0.21818195476E+03 -0.54083472535E+03  0.63752974228E+03  0.46999998093E+01 0.  1.
       -5    1    3    3    0  502  0.25751993470E+03 -0.21818195476E+03 -0.62732741634E+03  0.71237746977E+03  0.46999998093E+01 0. -1.
</event>
<event>
 5   0  0.1197259E-02  0.6961907E+03  0.7818609E-02  0.9723769E-01
       -1   -1    0    0    0  501  0.00000000000E+00  0.00000000000E+00  0.19547571999E+03  0.19547572005E+03  0.50400001928E-02 0.  1.
        1   -1    0    0  501    0  0.00000000000E+00  0.00000000000E+00 -0.61987425792E+03  0.61987425794E+03  0.50400001928E-02 0. -1.
    10030    2    1    2    0    0  0.00000000000E+00  0.00000000000E+00 -0.42439853793E+03  0.81534997799E+03  0.69619068337E+03 0.  0.
        3    1    3    3  502    0  0.13781050067E+02 -0.63787436807E+02  0.18824737928E+03  0.19923815007E+03  0.10100000352E+00 0.  1.
       -3    1    3    3    0  502 -0.13781050067E+02  0.63787436807E+02 -0.61264591721E+03  0.61611182793E+03  0.10100000352E+00 0. -1.
</event>
<event>
 5   0  0.1237686E-02  0.7041451E+03  0.7818609E-02  0.9710170E-01
        1   -1    0    0  501    0  0.00000000000E+00  0.00000000000E+00  0.41245403762E+03  0.41245403765E+03  0.50400001928E-02 0. -1.
       -1   -1    0    0    0  501  0.00000000000E+00  0.00000000000E+00 -0.30053066498E+03  0.30053066502E+03  0.50400001928E-02 0.  1.
    10030    2    1    2    0    0  0.00000000000E+00  0.00000000000E+00  0.11192337265E+03  0.71298470267E+03  0.70414511636E+03 0.  0.
        5    1    3    3  502    0 -0.50099177237E+02  0.32628265456E+03 -0.67896009294E+02  0.33704933808E+03  0.46999998093E+01 0.  1.
       -5    1    3    3    0  502  0.50099177237E+02 -0.32628265456E+03  0.17981938194E+03  0.37593536459E+03  0.46999998093E+01 0. -1.
</event>
<event>
 5   0  0.1973067E-02  0.7000774E+03  0.7818609E-02  0.9717100E-01
        2   -1    0    0  501    0  0.00000000000E+00  0.00000000000E+00  0.98894759496E+03  0.98894759497E+03  0.25500000920E-02 0.  1.
       -2   -1    0    0    0  501  0.00000000000E+00  0.00000000000E+00 -0.12389646273E+03  0.12389646276E+03  0.25500000920E-02 0. -1.
    10030    2    1    2    0    0  0.00000000000E+00  0.00000000000E+00  0.86505113223E+03  0.11128440577E+04  0.70007744961E+03 0.  0.
        5    1    3    3  502    0  0.77589941515E+02 -0.66491262705E+01 -0.10990038161E+03  0.13477608757E+03  0.46999998093E+01 0. -1.
       -5    1    3    3    0  502 -0.77589941515E+02  0.66491262705E+01  0.97495151384E+03  0.97806797016E+03  0.46999998093E+01 0.  1.
</event>
<event>
 5   0  0.1909053E-02  0.6935045E+03  0.7818609E-02  0.9728405E-01
       -2   -1    0    0    0  501  0.00000000000E+00  0.00000000000E+00  0.68235891931E+02  0.68235891979E+02  0.25500000920E-02 0. -1.
        2   -1    0    0  501    0  0.00000000000E+00  0.00000000000E+00 -0.17620804089E+04  0.17620804089E+04  0.25500000920E-02 0.  1.
    10030    2    1    2    0    0  0.00000000000E+00  0.00000000000E+00 -0.16938445169E+04  0.18303163009E+04  0.69350451592E+03 0.  0.
        1    1    3    3  502    0  0.22854351436E+03 -0.99750672339E+02 -0.21101190268E+03  0.32666245222E+03  0.50400001928E-02 0. -1.
       -1    1    3    3    0  502 -0.22854351436E+03  0.99750672339E+02 -0.14828326143E+04  0.15036538486E+04  0.50400001928E-02 0.  1.
</event>
<event>
 5   0  0.7947250E-03  0.7000628E+03  0.7818609E-02  0.9717125E-01
       -4   -1    0    0    0  501  0.00000000000E+00  0.00000000000E+00  0.19840250360E+03  0.19840656828E+03  0.12699999809E+01 0.  1.
        4   -1    0    0  501    0  0.00000000000E+00  0.00000000000E+00 -0.61753148019E+03  0.61753278611E+03  0.12699999809E+01 0. -1.
    10030    2    1    2    0    0  0.00000000000E+00  0.00000000000E+00 -0.41912897659E+03  0.81593935439E+03  0.70006280506E+03 0.  0.
        5    1    3    3  502    0  0.81215723257E+02 -0.29116886484E+02  0.18578002182E+03  0.20489044216E+03  0.46999998093E+01 0.  1.
       -5    1    3    3    0  502 -0.81215723257E+02  0.29116886484E+02 -0.60490899841E+03  0.61104891223E+03  0.46999998093E+01 0. -1.
</event>
<event>
 5   0  0.1973067E-02  0.6969699E+03  0.7818609E-02  0.9722428E-01
        2   -1    0    0  501    0  0.00000000000E+00  0.00000000000E+00  0.13784869443E+03  0.13784869446E+03  0.25500000920E-02 0. -1.
       -2   -1    0    0    0  501  0.00000000000E+00  0.00000000000E+00 -0.88097872142E+03  0.88097872142E+03  0.25500000920E-02 0.  1.
    10030    2    1    2    0    0  0.00000000000E+00  0.00000000000E+00 -0.74313002698E+03  0.10188274159E+04  0.69696991781E+03 0.  0.
        5    1    3    3  502    0 -0.20521301319E+02  0.40676535039E+02 -0.87655972924E+03  0.87775552019E+03  0.46999998093E+01 0.  1.
       -5    1    3    3    0  502  0.20521301319E+02 -0.40676535039E+02  0.13342970225E+03  0.14107189568E+03  0.46999998093E+01 0. -1.
</event>
<event>
 5   0  0.1909053E-02  0.7221911E+03  0.7818609E-02  0.9680017E-01
       -2   -1    0    0    0  501  0.00000000000E+00  0.00000000000E+00  0.21646321963E+03  0.21646321964E+03  0.25500000920E-02 0. -1.
        2   -1    0    0  501    0  0.00000000000E+00  0.00000000000E+00 -0.60236562959E+03  0.60236562960E+03  0.25500000920E-02 0.  1.
    10030    2    1    2    0    0  0.00000000000E+00  0.00000000000E+00 -0.38590240996E+03  0.81882884924E+03  0.72219112037E+03 0.  0.
        1    1    3    3  502    0  0.57559755665E+02 -0.94288708611E+02 -0.58273605857E+03  0.59311449150E+03  0.50400001928E-02 0.  1.
       -1    1    3    3    0  502 -0.57559755665E+02  0.94288708611E+02  0.19683364861E+03  0.22571435775E+03  0.50400001928E-02 0. -1.
</event>
<event>
 5   0  0.7947250E-03  0.7036502E+03  0.7818609E-02  0.9711010E-01
        3   -1    0    0  501    0  0.00000000000E+00  0.00000000000E+00  0.93755956019E+03  0.93755956563E+03  0.10100000352E+00 0.  1.
       -3   -1    0    0    0  501  0.00000000000E+00  0.00000000000E+00 -0.13202453142E+03  0.13202457005E+03  0.10100000352E+00 0. -1.
    10030    2    1    2    0    0  0.00000000000E+00  0.00000000000E+00  0.80553502877E+03  0.10695841357E+04  0.70365015506E+03 0.  0.
        2    1    3    3  502    0  0.15885948244E+03 -0.70918298693E+02 -0.62067827696E+02  0.18471100533E+03  0.25500000920E-02 0. -1.
       -2    1    3    3    0  502 -0.15885948244E+03  0.70918298693E+02  0.86760285647E+03  0.88487313035E+03  0.25500000920E-02 0.  1.
</event>
<event>
 5   0  0.1909053E-02  0.6903781E+03  0.7818609E-02  0.9733830E-01
        2   -1    0    0  501    0  0.00000000000E+00  0.00000000000E+00  0.11303248474E+04  0.11303248474E+04  0.25500000920E-02 0.  1.
       -2   -1    0    0    0  501  0.00000000000E+00  0.00000000000E+00 -0.10541701445E+03  0.10541701448E+03  0.25500000920E-02 0. -1.
    10030    2    1    2    0    0  0.00000000000E+00  0.00000000000E+00  0.10249078330E+04  0.12357418619E+04  0.69037807265E+03 0.  0.
        1    1    3    3  502    0  0.30332740430E+03  0.16071015832E+03  0.57749097561E+03  0.67181180112E+03  0.50400001928E-02 0. -1.
       -1    1    3    3    0  502 -0.30332740430E+03 -0.16071015832E+03  0.44741685738E+03  0.56393006081E+03  0.50400001928E-02 0.  1.
</event>
<event>
 5   0  0.1948138E-02  0.7035541E+03  0.7818609E-02  0.9711173E-01
       -2   -1    0    0    0  501  0.00000000000E+00  0.00000000000E+00  0.43151663615E+03  0.43151663616E+03  0.25500000920E-02 0. -1.
        2   -1    0    0  501    0  0.00000000000E+00  0.00000000000E+00 -0.28677249428E+03  0.28677249429E+03  0.25500000920E-02 0.  1.
    10030    2    1    2    0    0  0.00000000000E+00  0.00000000000E+00  0.14474414187E+03  0.71828913046E+03  0.70355412608E+03 0.  0.
        3    1    3    3  502    0 -0.16588160650E+02 -0.35047115277E+03  0.46505784919E+02  0.35393218874E+03  0.10100000352E+00 0.  1.
       -3    1    3    3    0  502  0.16588160650E+02  0.35047115277E+03  0.98238356953E+02  0.36435694171E+03  0.10100000352E+00 0. -1.
</event>
<event>
 5   0  0.1226303E-02  0.7067765E+03  0.7818609E-02  0.9705713E-01
        1   -1    0    0  501    0  0.00000000000E+00  0.00000000000E+00  0.40780427717E+03  0.40780427720E+03  0.50400001928E-02 0. -1.
       -1   -1    0    0    0  501  0.00000000000E+00  0.00000000000E+00 -0.30623328036E+03  0.30623328040E+03  0.50400001928E-02 0.  1.
    10030    2    1    2    0    0  0.00000000000E+00  0.00000000000E+00  0.10157099681E+03  0.71403755761E+03  0.70677646132E+03 0.  0.
        4    1    3    3  502    0 -0.95933143239E+02  0.70618927109E+02 -0.28533575421E+03  0.30920592874E+03  0.12699999809E+01 0.  1.
       -4    1    3    3    0  502  0.95933143239E+02 -0.70618927109E+02  0.38690675103E+03  0.40483162886E+03  0.12699999809E+01 0. -1.
</event>
<event>
 5   0  0.1226303E-02  0.7006494E+03  0.7818609E-02  0.9716122E-01
       -1   -1    0    0    0  501  0.00000000000E+00  0.00000000000E+00  0.10969740390E+03  0.10969740401E+03  0.50400001928E-02 0. -1.
        1   -1    0    0  501    0  0.00000000000E+00  0.00000000000E+00 -0.11187810630E+04  0.11187810631E+04  0.50400001928E-02 0.  1.
    10030    2    1    2    0    0  0.00000000000E+00  0.00000000000E+00 -0.10090836592E+04  0.12284784671E+04  0.70064935088E+03 0.  0.
        4    1    3    3  502    0  0.11527048207E+03  0.27778158309E+03 -0.18954525865E+03  0.35549811521E+03  0.12699999809E+01 0.  1.
       -4    1    3    3    0  502 -0.11527048207E+03 -0.27778158309E+03 -0.81953840050E+03  0.87298035186E+03  0.12699999809E+01 0. -1.
</event>
<event>
 5   0  0.1257442E-02  0.7174662E+03  0.7818609E-02  0.9687820E-01
        1   -1    0    0  501    0  0.00000000000E+00  0.00000000000E+00  0.44672794914E+03  0.44672794916E+03  0.50400001928E-02 0.  1.
       -1   -1    0    0    0  501  0.00000000000E+00  0.00000000000E+00 -0.28807117047E+03  0.28807117052E+03  0.50400001928E-02 0. -1.
    10030    2    1    2    0    0  0.00000000000E+00  0.00000000000E+00  0.15865677866E+03  0.73479911968E+03  0.71746621723E+03 0.  0.
        1    1    3    3  502    0  0.92048675558E+02 -0.15352808598E+03 -0.23906074599E+03  0.29865343152E+03  0.50400001928E-02 0. -1.
       -1    1    3    3    0  502 -0.92048675558E+02  0.15352808598E+03  0.39771752466E+03  0.43614568816E+03  0.50400001928E-02 0.  1.
</event>
<event>
 5   0  0.1973067E-02  0.6287717E+03  0.7818609E-02  0.9847449E-01
       -2   -1    0    0    0  501  0.00000000000E+00  0.00000000000E+00  0.13757880240E+03  0.13757880242E+03  0.25500000920E-02 0.  1.
        2   -1    0    0  501    0  0.00000000000E+00  0.00000000000E+00 -0.71841336247E+03  0.71841336248E+03  0.25500000920E-02 0. -1.
    10030    2    1    2    0    0  0.00000000000E+00  0.00000000000E+00 -0.58083456007E+03  0.85599216490E+03  0.62877165982E+03 0.  0.
        5    1    3    3  502    0 -0.26539461432E+03  0.51378443783E+02 -0.50884141506E+03  0.57620805398E+03  0.46999998093E+01 0. -1.
       -5    1    3    3    0  502  0.26539461432E+03 -0.51378443783E+02 -0.71993145006E+02  0.27978411091E+03  0.46999998093E+01 0.  1.
</event>
<event>
 5   0  0.1257442E-02  0.7001213E+03  0.7818609E-02  0.9717025E-01
       -1   -1    0    0    0  501  0.00000000000E+00  0.00000000000E+00  0.91237459462E+02  0.91237459601E+02  0.50400001928E-02 0.  1.
        1   -1    0    0  501    0  0.00000000000E+00  0.00000000000E+00 -0.13431156580E+04  0.13431156580E+04  0.50400001928E-02 0. -1.
    10030    2    1    2    0    0  0.00000000000E+00  0.00000000000E+00 -0.12518781986E+04  0.14343531176E+04  0.70012130523E+03 0.  0.
        1    1    3    3  502    0 -0.26187032925E+03 -0.21238406511E+03 -0.81877369153E+03  0.88547920270E+03  0.50400001928E-02 0. -1.
       -1    1    3    3    0  502  0.26187032925E+03  0.21238406511E+03 -0.43310450703E+03  0.54887391493E+03  0.50400001928E-02 0.  1.
</event>
<event>
 5   0  0.7947250E-03  0.7011615E+03  0.7818609E-02  0.9715248E-01
        3   -1    0    0  501    0  0.00000000000E+00  0.00000000000E+00  0.59530722281E+03  0.59530723138E+03  0.10100000352E+00 0. -1.
       -3   -1    0    0    0  501  0.00000000000E+00  0.00000000000E+00 -0.20645954692E+03  0.20645957162E+03  0.10100000352E+00 0.  1.
    10030    2    1    2    0    0  0.00000000000E+00  0.00000000000E+00  0.38884767589E+03  0.80176680300E+03  0.70116153013E+03 0.  0.
        4    1    3    3  502    0  0.19857639056E+03 -0.26351533788E+03  0.32987885576E+03  0.46657752686E+03  0.12699999809E+01 0. -1.
       -4    1    3    3    0  502 -0.19857639056E+03  0.26351533788E+03  0.58968820128E+02  0.33518927614E+03  0.12699999809E+01 0.  1.
</event>
<event>
 5   0  0.1973067E-02  0.7020961E+03  0.7818609E-02  0.9713654E-01
        2   -1    0    0  501    0  0.00000000000E+00  0.00000000000E+00  0.11577551091E+04  0.11577551091E+04  0.25500000920E-02 0.  1.
       -2   -1    0    0    0  501  0.00000000000E+00  0.00000000000E+00 -0.10644284289E+03  0.10644284292E+03  0.25500000920E-02 0. -1.
    10030    2    1    2    0    0  0.00000000000E+00  0.00000000000E+00  0.10513122662E+04  0.12641979520E+04  0.70209613360E+03 0.  0.
        5    1    3    3  502    0 -0.26599834227E+03  0.11989923340E+03  0.87703588119E+03  0.92430783355E+03  0.46999998093E+01 0.  1.
       -5    1    3    3    0  502  0.26599834227E+03 -0.11989923340E+03  0.17427638500E+03  0.33989011846E+03  0.46999998093E+01 0. -1.
</event>
<event>
 5   0  0.1909053E-02  0.6975782E+03  0.7818609E-02  0.9721383E-01
        2   -1    0    0  501    0  0.00000000000E+00  0.00000000000E+00  0.68345463199E+03  0.68345463200E+03  0.25500000920E-02 0.  1.
       -2   -1    0    0    0  501  0.00000000000E+00  0.00000000000E+00 -0.17799840200E+03  0.17799840202E+03  0.25500000920E-02 0. -1.
    10030    2    1    2    0    0  0.00000000000E+00  0.00000000000E+00  0.50545623000E+03  0.86145303402E+03  0.69757818872E+03 0.  0.
        1    1    3    3  502    0  0.11931752940E+03 -0.99865920478E+02 -0.13276459413E+03  0.20453926854E+03  0.50400001928E-02 0. -1.
       -1    1    3    3    0  502 -0.11931752940E+03  0.99865920478E+02  0.63822082413E+03  0.65691376548E+03  0.50400001928E-02 0.  1.
</event>
<event>
 5   0  0.2006362E-02  0.7256782E+03  0.7818609E-02  0.9674300E-01
       -2   -1    0    0    0  501  0.00000000000E+00  0.00000000000E+00  0.23211655546E+03  0.23211655547E+03  0.25500000920E-02 0.  1.
        2   -1    0    0  501    0  0.00000000000E+00  0.00000000000E+00 -0.56718145854E+03  0.56718145854E+03  0.25500000920E-02 0. -1.
    10030    2    1    2    0    0  0.00000000000E+00  0.00000000000E+00 -0.33506490308E+03  0.79929801401E+03  0.72567818345E+03 0.  0.
        4    1    3    3  502    0  0.27165439383E+03 -0.85192332207E+02  0.80224574731E+02  0.29578951713E+03  0.12699999809E+01 0.  1.
       -4    1    3    3    0  502 -0.27165439383E+03  0.85192332207E+02 -0.41528947781E+03  0.50350849688E+03  0.12699999809E+01 0. -1.
</event>
<event>
 5   0  0.1973067E-02  0.7014246E+03  0.7818609E-02  0.9714799E-01
       -2   -1    0    0    0  501  0.00000000000E+00  0.00000000000E+00  0.29280077987E+03  0.29280077988E+03  0.25500000920E-02 0. -1.
        2   -1    0    0  501    0  0.00000000000E+00  0.00000000000E+00 -0.42007785781E+03  0.42007785782E+03  0.25500000920E-02 0.  1.
    10030    2    1    2    0    0  0.00000000000E+00  0.00000000000E+00 -0.12727707794E+03  0.71287863769E+03  0.70142461998E+03 0.  0.
        5    1    3    3  502    0 -0.79953495418E+02 -0.31923745882E+03 -0.18674420394E+03  0.37841855695E+03  0.46999998093E+01 0.  1.
       -5    1    3    3    0  502  0.79953495418E+02  0.31923745882E+03  0.59467125993E+02  0.33446008075E+03  0.46999998093E+01 0. -1.
</event>
<event>
 5   0  0.1226303E-02  0.7045247E+03  0.7818609E-02  0.9709526E-01
        1   -1    0    0  501    0  0.00000000000E+00  0.00000000000E+00  0.38590815356E+03  0.38590815359E+03  0.50400001928E-02 0.  1.
       -1   -1    0    0    0  501  0.00000000000E+00  0.00000000000E+00 -0.32154997261E+03  0.32154997265E+03  0.50400001928E-02 0. -1.
    10030    2    1    2    0    0  0.00000000000E+00  0.00000000000E+00  0.64358180948E+02  0.70745812624E+03  0.70452468014E+03 0.  0.
        4    1    3    3  502    0 -0.63565839630E+02 -0.25220824369E+03 -0.20637590982E+03  0.33202747357E+03  0.12699999809E+01 0. -1.
       -4    1    3    3    0  502  0.63565839630E+02  0.25220824369E+03  0.27073409077E+03  0.37543065266E+03  0.12699999809E+01 0.  1.
</event>
<event>
 5   0  0.1909053E-02  0.6846903E+03  0.7818609E-02  0.9743778E-01
       -2   -1    0    0    0  501  0.00000000000E+00  0.00000000000E+00  0.12950717678E+03  0.12950717680E+03  0.25500000920E-02 0.  1.
        2   -1    0    0  501    0  0.00000000000E+00  0.00000000000E+00 -0.90497080594E+03  0.90497080594E+03  0.25500000920E-02 0. -1.
    10030    2    1    2    0    0  0.00000000000E+00  0.00000000000E+00 -0.77546362916E+03  0.10344779827E+04  0.68469033631E+03 0.  0.
        1    1    3    3  502    0  0.97322747151E+02  0.31418029894E+03 -0.24424501540E+03  0.40967866057E+03  0.50400001928E-02 0.  1.
       -1    1    3    3    0  502 -0.97322747151E+02 -0.31418029894E+03 -0.53121861377E+03  0.62479932218E+03  0.50400001928E-02 0. -1.
</event>
<event>
 5   0  0.1226303E-02  0.7273911E+03  0.7818609E-02  0.9671503E-01
       -1   -1    0    0    0  501  0.00000000000E+00  0.00000000000E+00  0.93351452463E+02  0.93351452599E+02  0.50400001928E-02 0.  1.
        1   -1    0    0  501    0  0.00000000000E+00  0.00000000000E+00 -0.14169513180E+04  0.14169513180E+04  0.50400001928E-02 0. -1.
    10030    2    1    2    0    0  0.00000000000E+00  0.00000000000E+00 -0.13235998655E+04  0.15103027706E+04  0.72739112920E+03 0.  0.
        4    1    3    3  502    0 -0.16566406009E+03 -0.52244273036E+02  0.16472438154E+01  0.17371923090E+03  0.12699999809E+01 0.  1.
       -4    1    3    3    0  502  0.16566406009E+03  0.52244273036E+02 -0.13252471093E+04  0.13365835397E+04  0.12699999809E+01 0. -1.
</event>
<event>
 5   0  0.1223742E-02  0.7023123E+03  0.7818609E-02  0.9713286E-01
        1   -1    0    0  501    0  0.00000000000E+00  0.00000000000E+00  0.24480894809E+03  0.24480894815E+03  0.50400001928E-02 0.  1.
       -1   -1    0    0    0  501  0.00000000000E+00  0.00000000000E+00 -0.50370151465E+03  0.50370151467E+03  0.50400001928E-02 0. -1.
    10030    2    1    2    0    0  0.00000000000E+00  0.00000000000E+00 -0.25889256656E+03  0.74851046282E+03  0.70231228947E+03 0.  0.
        2    1    3    3  502    0 -0.99117781769E+02  0.23069286307E+03 -0.39108847405E+03  0.46475125204E+03  0.25500000920E-02 0. -1.
       -2    1    3    3    0  502  0.99117781769E+02 -0.23069286307E+03  0.13219590750E+03  0.28375921078E+03  0.25500000920E-02 0.  1.
</event>
<event>
 5   0  0.7947250E-03  0.7071377E+03  0.7818609E-02  0.9705103E-01
       -4   -1    0    0    0  501  0.00000000000E+00  0.00000000000E+00  0.26541487354E+03  0.26541791198E+03  0.12699999809E+01 0. -1.
        4   -1    0    0  501    0  0.00000000000E+00  0.00000000000E+00 -0.47099543842E+03  0.47099715064E+03  0.12699999809E+01 0.  1.
    10030    2    1    2    0    0  0.00000000000E+00  0.00000000000E+00 -0.20558056488E+03  0.73641506262E+03  0.70713773467E+03 0.  0.
        4    1    3    3  502    0 -0.15846263290E+03  0.19944042730E+03  0.15256035856E+03  0.29692282832E+03  0.12699999809E+01 0. -1.
       -4    1    3    3    0  502  0.15846263290E+03 -0.19944042730E+03 -0.35814092344E+03  0.43949223430E+03  0.12699999809E+01 0.  1.
</event>
<event>
 5   0  0.1226303E-02  0.7014548E+03  0.7818609E-02  0.9714748E-01
        1   -1    0    0  501    0  0.00000000000E+00  0.00000000000E+00  0.31462007887E+03  0.31462007891E+03  0.50400001928E-02 0. -1.
       -1   -1    0    0    0  501  0.00000000000E+00  0.00000000000E+00 -0.39097852054E+03  0.39097852058E+03  0.50400001928E-02 0.  1.
    10030    2    1    2    0    0  0.00000000000E+00  0.00000000000E+00 -0.76358441676E+02  0.70559859949E+03  0.70145475405E+03 0.  0.
        4    1    3    3  502    0  0.70375361514E+02 -0.29379922253E+03  0.14102315246E+03  0.33340638431E+03  0.12699999809E+01 0. -1.
       -4    1    3    3    0  502 -0.70375361514E+02  0.29379922253E+03 -0.21738159414E+03  0.37219221518E+03  0.12699999809E+01 0.  1.
</event>
<event>
 5   0  0.1226303E-02  0.6991945E+03  0.7818609E-02  0.9718611E-01
        1   -1    0    0  501    0  0.00000000000E+00  0.00000000000E+00  0.20503041135E+03  0.20503041141E+03  0.50400001928E-02 0. -1.
       -1   -1    0    0    0  501  0.00000000000E+00  0.00000000000E+00 -0.59609810442E+03  0.59609810445E+03  0.50400001928E-02 0.  1.
    10030    2    1    2    0    0  0.00000000000E+00  0.00000000000E+00 -0.39106769307E+03  0.80112851586E+03  0.69919450681E+03 0.  0.
        4    1    3    3  502    0  0.29489918570E+03 -0.18674341045E+03 -0.21781037762E+03  0.41143845782E+03  0.12699999809E+01 0. -1.
       -4    1    3    3    0  502 -0.29489918570E+03  0.18674341045E+03 -0.17325731545E+03  0.38969005804E+03  0.12699999809E+01 0.  1.
</event>
<event>
 5   0  0.2006362E-02  0.6961408E+03  0.7818609E-02  0.9723855E-01
        2   -1    0    0  501    0  0.00000000000E+00  0.00000000000E+00  0.26320248218E+03  0.26320248219E+03  0.25500000920E-02 0. -1.
       -2   -1    0    0    0  501  0.00000000000E+00  0.00000000000E+00 -0.46030345925E+03  0.46030345926E+03  0.25500000920E-02 0.  1.
    10030    2    1    2    0    0  0.00000000000E+00  0.00000000000E+00 -0.19710097707E+03  0.72350594145E+03  0.69614082781E+03 0.  0.
        4    1    3    3  502    0  0.22597960617E+03 -0.71979011298E+02 -0.36332704061E+03  0.43388467570E+03  0.12699999809E+01 0.  1.
       -4    1    3    3    0  502 -0.22597960617E+03  0.71979011298E+02  0.16622606354E+03  0.28962126574E+03  0.12699999809E+01 0. -1.
</event>
<event>
 5   0  0.2006362E-02  0.6953104E+03  0.7818609E-02  0.9725286E-01
        2   -1    0    0  501    0  0.00000000000E+00  0.00000000000E+00  0.37625790190E+03  0.37625790191E+03  0.25500000920E-02 0.  1.
       -2   -1    0    0    0  501  0.00000000000E+00  0.00000000000E+00 -0.32122684083E+03  0.32122684084E+03  0.25500000920E-02 0. -1.
    10030    2    1    2    0    0  0.00000000000E+00  0.00000000000E+00  0.55031061072E+02  0.69748474275E+03  0.69531039737E+03 0.  0.
        4    1    3    3  502    0  0.12595683491E+03 -0.10074011866E+03  0.33645398810E+03  0.37311740080E+03  0.12699999809E+01 0.  1.
       -4    1    3    3    0  502 -0.12595683491E+03  0.10074011866E+03 -0.28142292703E+03  0.32436734195E+03  0.12699999809E+01 0. -1.
</event>
<event>
 5   0  0.1197259E-02  0.6518717E+03  0.7818609E-02  0.9803273E-01
       -1   -1    0    0    0  501  0.00000000000E+00  0.00000000000E+00  0.79969164698E+02  0.79969164856E+02  0.50400001928E-02 0.  1.
        1   -1    0    0  501    0  0.00000000000E+00  0.00000000000E+00 -0.13284393765E+04  0.13284393765E+04  0.50400001928E-02 0. -1.
    10030    2    1    2    0    0  0.00000000000E+00  0.00000000000E+00 -0.12484702118E+04  0.14084085414E+04  0.65187172790E+03 0.  0.
        3    1    3    3  502    0  0.28510437796E+03  0.13628841704E+03 -0.45172628439E+03  0.55128548426E+03  0.10100000352E+00 0.  1.
       -3    1    3    3    0  502 -0.28510437796E+03 -0.13628841704E+03 -0.79674392743E+03  0.85712305712E+03  0.10100000352E+00 0. -1.
</event>
<event>
 5   0  0.2026361E-02  0.6866494E+03  0.7818609E-02  0.9740340E-01
        2   -1    0    0  501    0  0.00000000000E+00  0.00000000000E+00  0.65311231460E+03  0.65311231460E+03  0.25500000920E-02 0. -1.
       -2   -1    0    0    0  501  0.00000000000E+00  0.00000000000E+00 -0.18047715819E+03  0.18047715821E+03  0.25500000920E-02 0.  1.
    10030    2    1    2    0    0  0.00000000000E+00  0.00000000000E+00  0.47263515641E+03  0.83358947281E+03  0.68664941426E+03 0.  0.
        2    1    3    3  502    0  0.53886232955E+02  0.33322956734E+03  0.16024949294E+03  0.37366505141E+03  0.25500000920E-02 0.  1.
       -2    1    3    3    0  502 -0.53886232955E+02 -0.33322956734E+03  0.31238566347E+03  0.45992442140E+03  0.25500000920E-02 0. -1.
</event>
<event>
 5   0  0.1237686E-02  0.7009150E+03  0.7818609E-02  0.9715669E-01
        1   -1    0    0  501    0  0.00000000000E+00  0.00000000000E+00  0.13911157571E+04  0.13911157572E+04  0.50400001928E-02 0.  1.
       -1   -1    0    0    0  501  0.00000000000E+00  0.00000000000E+00 -0.88289183493E+02  0.88289183636E+02  0.50400001928E-02 0. -1.
    10030    2    1    2    0    0  0.00000000000E+00  0.00000000000E+00  0.13028265737E+04  0.14794049408E+04  0.70091504323E+03 0.  0.
        5    1    3    3  502    0 -0.15108818590E+02  0.33558363118E+03  0.44083445557E+03  0.55425784354E+03  0.46999998093E+01 0. -1.
       -5    1    3    3    0  502  0.15108818590E+02 -0.33558363118E+03  0.86199211808E+03  0.92514709725E+03  0.46999998093E+01 0.  1.
</event>
<event>
 5   0  0.1909053E-02  0.6962070E+03  0.7818609E-02  0.9723741E-01
        2   -1    0    0  501    0  0.00000000000E+00  0.00000000000E+00  0.44004796385E+03  0.44004796386E+03  0.25500000920E-02 0. -1.
       -2   -1    0    0    0  501  0.00000000000E+00  0.00000000000E+00 -0.27537005401E+03  0.27537005403E+03  0.25500000920E-02 0.  1.
    10030    2    1    2    0    0  0.00000000000E+00  0.00000000000E+00  0.16467790984E+03  0.71541801789E+03  0.69620695654E+03 0.  0.
        1    1    3    3  502    0  0.15142492758E+03  0.14371349624E+03  0.36858049366E+03  0.42359728284E+03  0.50400001928E-02 0. -1.
       -1    1    3    3    0  502 -0.15142492758E+03 -0.14371349624E+03 -0.20390258382E+03  0.29182073505E+03  0.50400001928E-02 0.  1.
</event>
<event>
 5   0  0.2006362E-02  0.7023933E+03  0.7818609E-02  0.9713148E-01
       -2   -1    0    0    0  501  0.00000000000E+00  0.00000000000E+00  0.13948061135E+03  0.13948061138E+03  0.25500000920E-02 0.  1.
        2   -1    0    0  501    0  0.00000000000E+00  0.00000000000E+00 -0.88427406461E+03  0.88427406462E+03  0.25500000920E-02 0. -1.
    10030    2    1    2    0    0  0.00000000000E+00  0.00000000000E+00 -0.74479345326E+03  0.10237546760E+04  0.70239330051E+03 0.  0.
        4    1    3    3  502    0 -0.10708492930E+03 -0.28870267023E+02 -0.85807536932E+03  0.86521420858E+03  0.12699999809E+01 0. -1.
       -4    1    3    3    0  502  0.10708492930E+03  0.28870267023E+02  0.11328191606E+03  0.15854046741E+03  0.12699999809E+01 0.  1.
</event>
<event>
 5   0  0.1197259E-02  0.7031616E+03  0.7818609E-02  0.9711841E-01
        1   -1    0    0  501    0  0.00000000000E+00  0.00000000000E+00  0.57436891597E+03  0.57436891599E+03  0.50400001928E-02 0.  1.
       -1   -1    0    0    0  501  0.00000000000E+00  0.00000000000E+00 -0.21520845686E+03  0.21520845692E+03  0.50400001928E-02 0. -1.
    10030    2    1    2    0    0  0.00000000000E+00  0.00000000000E+00  0.35916045911E+03  0.78957737291E+03  0.70316156922E+03 0.  0.
        3    1    3    3  502    0  0.16069988786E+03 -0.31042071073E+03  0.22194729812E+03  0.41406048466E+03  0.10100000352E+00 0. -1.
       -3    1    3    3    0  502 -0.16069988786E+03  0.31042071073E+03  0.13721316098E+03  0.37551688825E+03  0.10100000352E+00 0.  1.
</event>
<event>
 5   0  0.2006362E-02  0.6953824E+03  0.7818609E-02  0.9725162E-01
       -2   -1    0    0    0  501  0.00000000000E+00  0.00000000000E+00  0.14028394396E+03  0.14028394399E+03  0.25500000920E-02 0.  1.
        2   -1    0    0  501    0  0.00000000000E+00  0.00000000000E+00 -0.86174635490E+03  0.86174635490E+03  0.25500000920E-02 0. -1.
    10030    2    1    2    0    0  0.00000000000E+00  0.00000000000E+00 -0.72146241093E+03  0.10020302989E+04  0.69538241961E+03 0.  0.
        4    1    3    3  502    0  0.24527190869E+02  0.10225535846E+03  0.11681707854E+03  0.15718010105E+03  0.12699999809E+01 0.  1.
       -4    1    3    3    0  502 -0.24527190869E+02 -0.10225535846E+03 -0.83827948947E+03  0.84485019784E+03  0.12699999809E+01 0. -1.
</event>
<event>
 5   0  0.1973067E-02  0.6727461E+03  0.7818609E-02  0.9765010E-01
       -2   -1    0    0    0  501  0.00000000000E+00  0.00000000000E+00  0.23973566062E+03  0.23973566063E+03  0.25500000920E-02 0.  1.
        2   -1    0    0  501    0  0.00000000000E+00  0.00000000000E+00 -0.47196489540E+03  0.47196489541E+03  0.25500000920E-02 0. -1.
    10030    2    1    2    0    0  0.00000000000E+00  0.00000000000E+00 -0.23222923479E+03  0.71170055604E+03  0.67274606203E+03 0.  0.
        5    1    3    3  502    0  0.80098492947E+02 -0.19164725894E+03  0.16374097896E+03  0.26453286870E+03  0.46999998093E+01 0.  1.
       -5    1    3    3    0  502 -0.80098492947E+02  0.19164725894E+03 -0.39597021375E+03  0.44716768735E+03  0.46999998093E+01 0. -1.
</event>
<event>
 5   0  0.1909053E-02  0.6989485E+03  0.7818609E-02  0.9719032E-01
        2   -1    0    0  501    0  0.00000000000E+00  0.00000000000E+00  0.10202683181E+04  0.10202683181E+04  0.25500000920E-02 0. -1.
       -2   -1    0    0    0  501  0.00000000000E+00  0.00000000000E+00 -0.11970601988E+03  0.11970601991E+03  0.25500000920E-02 0.  1.
    10030    2    1    2    0    0  0.00000000000E+00  0.00000000000E+00  0.90056229824E+03  0.11399743380E+04  0.69894852340E+03 0.  0.
        1    1    3    3  502    0  0.34414008468E+02 -0.19903322775E+03  0.91542274044E+03  0.93744191471E+03  0.50400001928E-02 0. -1.
       -1    1    3    3    0  502 -0.34414008468E+02  0.19903322775E+03 -0.14860442201E+02  0.20253242332E+03  0.50400001928E-02 0.  1.
</event>
<event>
 5   0  0.1226303E-02  0.6986813E+03  0.7818609E-02  0.9719490E-01
        1   -1    0    0  501    0  0.00000000000E+00  0.00000000000E+00  0.40096475198E+03  0.40096475201E+03  0.50400001928E-02 0. -1.
       -1   -1    0    0    0  501  0.00000000000E+00  0.00000000000E+00 -0.30436312985E+03  0.30436312989E+03  0.50400001928E-02 0.  1.
    10030    2    1    2    0    0  0.00000000000E+00  0.00000000000E+00  0.96601622130E+02  0.70532788190E+03  0.69868129185E+03 0.  0.
        4    1    3    3  502    0 -0.15115683040E+03  0.20293016519E+03  0.29144100680E+03  0.38596439300E+03  0.12699999809E+01 0. -1.
       -4    1    3    3    0  502  0.15115683040E+03 -0.20293016519E+03 -0.19483938467E+03  0.31936348890E+03  0.12699999809E+01 0.  1.
</event>
<event>
 5   0  0.1909053E-02  0.7002150E+03  0.7818609E-02  0.9716865E-01
        2   -1    0    0  501    0  0.00000000000E+00  0.00000000000E+00  0.67649539825E+03  0.67649539826E+03  0.25500000920E-02 0.  1.
       -2   -1    0    0    0  501  0.00000000000E+00  0.00000000000E+00 -0.18119154399E+03  0.18119154401E+03  0.25500000920E-02 0. -1.
    10030    2    1    2    0    0  0.00000000000E+00  0.00000000000E+00  0.49530385426E+03  0.85768694227E+03  0.70021495477E+03 0.  0.
        1    1    3    3  502    0  0.34770331069E+03 -0.28395540781E+00  0.19748261985E+03  0.39987130187E+03  0.50400001928E-02 0. -1.
       -1    1    3    3    0  502 -0.34770331069E+03  0.28395540781E+00  0.29782123442E+03  0.45781564039E+03  0.50400001928E-02 0.  1.
</event>
<event>
 5   0  0.1223742E-02  0.6664604E+03  0.7818609E-02  0.9776373E-01
        1   -1    0    0  501    0  0.00000000000E+00  0.00000000000E+00  0.43453637033E+03  0.43453637035E+03  0.50400001928E-02 0. -1.
       -1   -1    0    0    0  501  0.00000000000E+00  0.00000000000E+00 -0.25554217156E+03  0.25554217161E+03  0.50400001928E-02 0.  1.
    10030    2    1    2    0    0  0.00000000000E+00  0.00000000000E+00  0.17899419876E+03  0.69007854197E+03  0.66646040460E+03 0.  0.
        2    1    3    3  502    0 -0.16032048880E+03 -0.12041448894E+03 -0.18609301131E+03  0.27355605850E+03  0.25500000920E-02 0.  1.
       -2    1    3    3    0  502  0.16032048880E+03  0.12041448894E+03  0.36508721007E+03  0.41652248347E+03  0.25500000920E-02 0. -1.
</event>
<event>
 5   0  0.1948138E-02  0.6950286E+03  0.7818609E-02  0.9725772E-01
        2   -1    0    0  501    0  0.00000000000E+00  0.00000000000E+00  0.59674828630E+03  0.59674828630E+03  0.25500000920E-02 0. -1.
       -2   -1    0    0    0  501  0.00000000000E+00  0.00000000000E+00 -0.20237373774E+03  0.20237373776E+03  0.25500000920E-02 0.  1.
    10030    2    1    2    0    0  0.00000000000E+00  0.00000000000E+00  0.39437454855E+03  0.79912202406E+03  0.69502857840E+03 0.  0.
        3    1    3    3  502    0  0.95096046581E+01 -0.23949549264E+03 -0.92128972731E+02  0.25678060946E+03  0.10100000352E+00 0.  1.
       -3    1    3    3    0  502 -0.95096046581E+01  0.23949549264E+03  0.48650352129E+03  0.54234141461E+03  0.10100000352E+00 0. -1.
</event>
<event>
 5   0  0.1226303E-02  0.7012037E+03  0.7818609E-02  0.9715176E-01
        1   -1    0    0  501    0  0.00000000000E+00  0.00000000000E+00  0.18252872326E+03  0.18252872333E+03  0.50400001928E-02 0.  1.
       -1   -1    0    0    0  501  0.00000000000E+00  0.00000000000E+00 -0.67343735865E+03  0.67343735867E+03  0.50400001928E-02 0. -1.
    10030    2    1    2    0    0  0.00000000000E+00  0.00000000000E+00 -0.49090863539E+03  0.85596608199E+03  0.70120371165E+03 0.  0.
        4    1    3    3  502    0 -0.36430606756E+02 -0.34412155784E+03 -0.31421844625E+03  0.46742023977E+03  0.12699999809E+01 0. -1.
       -4    1    3    3    0  502  0.36430606756E+02  0.34412155784E+03 -0.17669018913E+03  0.38854584223E+03  0.12699999809E+01 0.  1.
</event>
<event>
 5   0  0.1226303E-02  0.7046520E+03  0.7818609E-02  0.9709310E-01
        1   -1    0    0  501    0  0.00000000000E+00  0.00000000000E+00  0.42476978268E+03  0.42476978271E+03  0.50400001928E-02 0.  1.
       -1   -1    0    0    0  501  0.00000000000E+00  0.00000000000E+00 -0.29223741693E+03  0.29223741697E+03  0.50400001928E-02 0. -1.
    10030    2    1    2    0    0  0.00000000000E+00  0.00000000000E+00  0.13253236575E+03  0.71700719968E+03  0.70465203925E+03 0.  0.
        4    1    3    3  502    0  0.14851275588E+03  0.53044682198E+02  0.38684943230E+03  0.41776054522E+03  0.12699999809E+01 0.  1.
       -4    1    3    3    0  502 -0.14851275588E+03 -0.53044682198E+02 -0.25431706655E+03  0.29924665446E+03  0.12699999809E+01 0. -1.
</event>
<event>
 5   0  0.1909053E-02  0.6952149E+03  0.7818609E-02  0.9725450E-01
       -2   -1    0    0    0  501  0.00000000000E+00  0.00000000000E+00  0.28339384096E+03  0.28339384097E+03  0.25500000920E-02 0.  1.
        2   -1    0    0  501    0  0.00000000000E+00  0.00000000000E+00 -0.42637111563E+03  0.42637111564E+03  0.25500000920E-02 0. -1.
    10030    2    1    2    0    0  0.00000000000E+00  0.00000000000E+00 -0.14297727467E+03  0.70976495661E+03  0.69521492545E+03 0.  0.
        1    1    3    3  502    0  0.13826264371E+03 -0.22806665013E+03 -0.29908935523E+03  0.40073107939E+03  0.50400001928E-02 0. -1.
       -1    1    3    3    0  502 -0.13826264371E+03  0.22806665013E+03  0.15611208056E+03  0.30903387722E+03  0.50400001928E-02 0.  1.
</event>
<event>
 5   0  0.2006362E-02  0.6923257E+03  0.7818609E-02  0.9730447E-01
       -2   -1    0    0    0  501  0.00000000000E+00  0.00000000000E+00  0.25956612310E+03  0.25956612312E+03  0.25500000920E-02 0.  1.
        2   -1    0    0  501    0  0.00000000000E+00  0.00000000000E+00 -0.46165004830E+03  0.46165004830E+03  0.25500000920E-02 0. -1.
    10030    2    1    2    0    0  0.00000000000E+00  0.00000000000E+00 -0.20208392519E+03  0.72121617142E+03  0.69232568427E+03 0.  0.
        4    1    3    3  502    0 -0.11290989835E+03 -0.22242806753E+02 -0.44113710958E+03  0.45590234694E+03  0.12699999809E+01 0. -1.
       -4    1    3    3    0  502  0.11290989835E+03  0.22242806753E+02  0.23905318438E+03  0.26531382448E+03  0.12699999809E+01 0.  1.
</event>
<event>
 5   0  0.1237686E-02  0.6993489E+03  0.7818609E-02  0.9718346E-01
       -1   -1    0    0    0  501  0.00000000000E+00  0.00000000000E+00  0.89697618508E+03  0.89697618509E+03  0.50400001928E-02 0. -1.
        1   -1    0    0  501    0  0.00000000000E+00  0.00000000000E+00 -0.13631602728E+03  0.13631602738E+03  0.50400001928E-02 0.  1.
    10030    2    1    2    0    0  0.00000000000E+00  0.00000000000E+00  0.76066015779E+03  0.10332922125E+04  0.69934892628E+03 0.  0.
        5    1    3    3  502    0 -0.33954154275E+03 -0.31084872899E+02  0.26592672785E+03  0.43242784734E+03  0.46999998093E+01 0. -1.
       -5    1    3    3    0  502  0.33954154275E+03  0.31084872899E+02  0.49473342994E+03  0.60086436512E+03  0.46999998093E+01 0.  1.
</event>
<event>
 5   0  0.1909053E-02  0.7027103E+03  0.7818609E-02  0.9712608E-01
       -2   -1    0    0    0  501  0.00000000000E+00  0.00000000000E+00  0.13706330712E+03  0.13706330715E+03  0.25500000920E-02 0. -1.
        2   -1    0    0  501    0  0.00000000000E+00  0.00000000000E+00 -0.90068195504E+03  0.90068195504E+03  0.25500000920E-02 0.  1.
    10030    2    1    2    0    0  0.00000000000E+00  0.00000000000E+00 -0.76361864791E+03  0.10377452622E+04  0.70271031709E+03 0.  0.
        1    1    3    3  502    0 -0.19176070970E+03 -0.18240139131E+03 -0.40523988300E+02  0.26773985693E+03  0.50400001928E-02 0. -1.
       -1    1    3    3    0  502  0.19176070970E+03  0.18240139131E+03 -0.72309465961E+03  0.77000540526E+03  0.50400001928E-02 0.  1.
</event>
<event>
 5   0  0.1948138E-02  0.6946695E+03  0.7818609E-02  0.9726392E-01
       -2   -1    0    0    0  501  0.00000000000E+00  0.00000000000E+00  0.18676725653E+03  0.18676725655E+03  0.25500000920E-02 0. -1.
        2   -1    0    0  501    0  0.00000000000E+00  0.00000000000E+00 -0.64594520992E+03  0.64594520992E+03  0.25500000920E-02 0.  1.
    10030    2    1    2    0    0  0.00000000000E+00  0.00000000000E+00 -0.45917795339E+03  0.83271246647E+03  0.69466946020E+03 0.  0.
        3    1    3    3  502    0  0.15912780436E+03  0.58701351648E+02  0.13375078827E+03  0.21600182955E+03  0.10100000352E+00 0. -1.
       -3    1    3    3    0  502 -0.15912780436E+03 -0.58701351648E+02 -0.59292874166E+03  0.61671063692E+03  0.10100000352E+00 0.  1.
</event>
<event>
 5   0  0.1257442E-02  0.6965748E+03  0.7818609E-02  0.9723108E-01
        1   -1    0    0  501    0  0.00000000000E+00  0.00000000000E+00  0.28423525597E+03  0.28423525601E+03  0.50400001928E-02 0. -1.
       -1   -1    0    0    0  501  0.00000000000E+00  0.00000000000E+00 -0.42677361274E+03  0.42677361277E+03  0.50400001928E-02 0.  1.
    10030    2    1    2    0    0  0.00000000000E+00  0.00000000000E+00 -0.14253835677E+03  0.71100886878E+03  0.69657478302E+03 0.  0.
        1    1    3    3  502    0 -0.15679478576E+03  0.23097980644E+03  0.14129551063E+03  0.31289087103E+03  0.50400001928E-02 0. -1.
       -1    1    3    3    0  502  0.15679478576E+03 -0.23097980644E+03 -0.28383386740E+03  0.39811799775E+03  0.50400001928E-02 0.  1.
</event>
<event>
 5   0  0.1226303E-02  0.6982644E+03  0.7818609E-02  0.9720205E-01
        1   -1    0    0  501    0  0.00000000000E+00  0.00000000000E+00  0.45815382902E+03  0.45815382905E+03  0.50400001928E-02 0.  1.
       -1   -1    0    0    0  501  0.00000000000E+00  0.00000000000E+00 -0.26605323626E+03  0.26605323630E+03  0.50400001928E-02 0. -1.
    10030    2    1    2    0    0  0.00000000000E+00  0.00000000000E+00  0.19210059277E+03  0.72420706536E+03  0.69826444544E+03 0.  0.
        4    1    3    3  502    0  0.24703923022E+03 -0.54859927500E+02 -0.15341400699E+03  0.29593151801E+03  0.12699999809E+01 0.  1.
       -4    1    3    3    0  502 -0.24703923022E+03  0.54859927500E+02  0.34551459975E+03  0.42827554735E+03  0.12699999809E+01 0. -1.
</event>
<event>
 5   0  0.1197259E-02  0.6964772E+03  0.7818609E-02  0.9723276E-01
        1   -1    0    0  501    0  0.00000000000E+00  0.00000000000E+00  0.54417082640E+03  0.54417082642E+03  0.50400001928E-02 0. -1.
       -1   -1    0    0    0  501  0.00000000000E+00  0.00000000000E+00 -0.22285303782E+03  0.22285303788E+03  0.50400001928E-02 0.  1.
    10030    2    1    2    0    0  0.00000000000E+00  0.00000000000E+00  0.32131778858E+03  0.76702386430E+03  0.69647719787E+03 0.  0.
        3    1    3    3  502    0  0.29949812796E+03 -0.17192860220E+03  0.21005198107E+03  0.40420343623E+03  0.10100000352E+00 0.  1.
       -3    1    3    3    0  502 -0.29949812796E+03  0.17192860220E+03  0.11126580751E+03  0.36282042808E+03  0.10100000352E+00 0. -1.
</event>
<event>
 5   0  0.1237686E-02  0.6978754E+03  0.7818609E-02  0.9720872E-01
        1   -1    0    0  501    0  0.00000000000E+00  0.00000000000E+00  0.40313184787E+03  0.40313184791E+03  0.50400001928E-02 0. -1.
       -1   -1    0    0    0  501  0.00000000000E+00  0.00000000000E+00 -0.30202905436E+03  0.30202905440E+03  0.50400001928E-02 0.  1.
    10030    2    1    2    0    0  0.00000000000E+00  0.00000000000E+00  0.10110279352E+03  0.70516090230E+03  0.69787543536E+03 0.  0.
        5    1    3    3  502    0 -0.26631730597E+03 -0.18690807128E+03 -0.76763603704E+02  0.33432659992E+03  0.46999998093E+01 0. -1.
       -5    1    3    3    0  502  0.26631730597E+03  0.18690807128E+03  0.17786639722E+03  0.37083430238E+03  0.46999998093E+01 0.  1.
</event>
<event>
 5   0  0.7947250E-03  0.6956992E+03  0.7818609E-02  0.9724616E-01
       -3   -1    0    0    0  501  0.00000000000E+00  0.00000000000E+00  0.13749092982E+03  0.13749096692E+03  0.10100000352E+00 0. -1.
        3   -1    0    0  501    0  0.00000000000E+00  0.00000000000E+00 -0.88005302330E+03  0.88005302909E+03  0.10100000352E+00 0.  1.
    10030    2    1    2    0    0  0.00000000000E+00  0.00000000000E+00 -0.74256209348E+03  0.10175439960E+04  0.69569915995E+03 0.  0.
        1    1    3    3  502    0 -0.15574113064E+03 -0.26770907429E+03 -0.13966970303E+03  0.33975148889E+03  0.50400001928E-02 0.  1.
       -1    1    3    3    0  502  0.15574113064E+03  0.26770907429E+03 -0.60289239045E+03  0.67779250713E+03  0.50400001928E-02 0. -1.
</event>
<event>
 5   0  0.1197259E-02  0.7038460E+03  0.7818609E-02  0.9710678E-01
        1   -1    0    0  501    0  0.00000000000E+00  0.00000000000E+00  0.49506154235E+03  0.49506154237E+03  0.50400001928E-02 0.  1.
       -1   -1    0    0    0  501  0.00000000000E+00  0.00000000000E+00 -0.25017050688E+03  0.25017050693E+03  0.50400001928E-02 0. -1.
    10030    2    1    2    0    0  0.00000000000E+00  0.00000000000E+00  0.24489103547E+03  0.74523204931E+03  0.70384599741E+03 0.  0.
        3    1    3    3  502    0 -0.30449171282E+03  0.10487022456E+03 -0.27802696415E+02  0.32324289212E+03  0.10100000352E+00 0.  1.
       -3    1    3    3    0  502  0.30449171282E+03 -0.10487022456E+03  0.27269373188E+03  0.42198915719E+03  0.10100000352E+00 0. -1.
</event>
<event>
 5   0  0.2006362E-02  0.6984508E+03  0.7818609E-02  0.9719885E-01
        2   -1    0    0  501    0  0.00000000000E+00  0.00000000000E+00  0.19154857354E+04  0.19154857354E+04  0.25500000920E-02 0. -1.
       -2   -1    0    0    0  501  0.00000000000E+00  0.00000000000E+00 -0.63669696812E+02  0.63669696863E+02  0.25500000920E-02 0.  1.
    10030    2    1    2    0    0  0.00000000000E+00  0.00000000000E+00  0.18518160386E+04  0.19791554322E+04  0.69845084600E+03 0.  0.
        4    1    3    3  502    0 -0.34220508161E+03  0.66316553945E+02  0.86549240450E+03  0.93304925827E+03  0.12699999809E+01 0. -1.
       -4    1    3    3    0  502  0.34220508161E+03 -0.66316553945E+02  0.98632363405E+03  0.10461061740E+04  0.12699999809E+01 0.  1.
</event>
<event>
 5   0  0.1909053E-02  0.7008128E+03  0.7818609E-02  0.9715843E-01
        2   -1    0    0  501    0  0.00000000000E+00  0.00000000000E+00  0.43676808800E+03  0.43676808800E+03  0.25500000920E-02 0. -1.
       -2   -1    0    0    0  501  0.00000000000E+00  0.00000000000E+00 -0.28112095030E+03  0.28112095031E+03  0.25500000920E-02 0.  1.
    10030    2    1    2    0    0  0.00000000000E+00  0.00000000000E+00  0.15564713769E+03  0.71788903832E+03  0.70081284225E+03 0.  0.
        1    1    3    3  502    0  0.14128712692E+03 -0.30411732318E+03 -0.26316054856E+02  0.33636577302E+03  0.50400001928E-02 0.  1.
       -1    1    3    3    0  502 -0.14128712692E+03  0.30411732318E+03  0.18196319255E+03  0.38152326530E+03  0.50400001928E-02 0. -1.
</event>
<event>
 5   0  0.1223742E-02  0.6954194E+03  0.7818609E-02  0.9725098E-01
       -1   -1    0    0    0  501  0.00000000000E+00  0.00000000000E+00  0.89424416583E+03  0.89424416584E+03  0.50400001928E-02 0.  1.
        1   -1    0    0  501    0  0.00000000000E+00  0.00000000000E+00 -0.13520023191E+03  0.13520023200E+03  0.50400001928E-02 0. -1.
    10030    2    1    2    0    0  0.00000000000E+00  0.00000000000E+00  0.75904393392E+03  0.10294443978E+04  0.69541935163E+03 0.  0.
        2    1    3    3  502    0 -0.20569109074E+01  0.33317949425E+03  0.52673185240E+03  0.62326499228E+03  0.25500000920E-02 0.  1.
       -2    1    3    3    0  502  0.20569109074E+01 -0.33317949425E+03  0.23231208152E+03  0.40617940556E+03  0.25500000920E-02 0. -1.
</event>
<event>
 5   0  0.1973067E-02  0.6977219E+03  0.7818609E-02  0.9721136E-01
        2   -1    0    0  501    0  0.00000000000E+00  0.00000000000E+00  0.16978339182E+04  0.16978339182E+04  0.25500000920E-02 0.  1.
       -2   -1    0    0    0  501  0.00000000000E+00  0.00000000000E+00 -0.71681898095E+02  0.71681898140E+02  0.25500000920E-02 0. -1.
    10030    2    1    2    0    0  0.00000000000E+00  0.00000000000E+00  0.16261520201E+04  0.17695158163E+04  0.69772188713E+03 0.  0.
        5    1    3    3  502    0  0.32452468177E+03 -0.87321862164E+01  0.11367620356E+04  0.11822193264E+04  0.46999998093E+01 0. -1.
       -5    1    3    3    0  502 -0.32452468177E+03  0.87321862164E+01  0.48938998451E+03  0.58729648994E+03  0.46999998093E+01 0.  1.
</event>
<event>
 5   0  0.7947250E-03  0.7029383E+03  0.7818609E-02  0.9712221E-01
        3   -1    0    0  501    0  0.00000000000E+00  0.00000000000E+00  0.25295271605E+03  0.25295273622E+03  0.10100000352E+00 0.  1.
       -3   -1    0    0    0  501  0.00000000000E+00  0.00000000000E+00 -0.48835428448E+03  0.48835429492E+03  0.10100000352E+00 0. -1.
    10030    2    1    2    0    0  0.00000000000E+00  0.00000000000E+00 -0.23540156842E+03  0.74130703114E+03  0.70293827325E+03 0.  0.
        5    1    3    3  502    0  0.34154648637E+03  0.72971158766E+02 -0.76454955224E+02  0.35755592924E+03  0.46999998093E+01 0.  1.
       -5    1    3    3    0  502 -0.34154648637E+03 -0.72971158766E+02 -0.15894661320E+03  0.38375110190E+03  0.46999998093E+01 0. -1.
</event>
<event>
 5   0  0.7947250E-03  0.7012019E+03  0.7818609E-02  0.9715179E-01
       -3   -1    0    0    0  501  0.00000000000E+00  0.00000000000E+00  0.98910652069E+03  0.98910652585E+03  0.10100000352E+00 0.  1.
        3   -1    0    0  501    0  0.00000000000E+00  0.00000000000E+00 -0.12427477939E+03  0.12427482043E+03  0.10100000352E+00 0. -1.
    10030    2    1    2    0    0  0.00000000000E+00  0.00000000000E+00  0.86483174130E+03  0.11133813463E+04  0.70120188354E+03 0.  0.
        5    1    3    3  502    0  0.41082004992E+02 -0.13127449467E+03  0.94441830682E+03  0.95439444274E+03  0.46999998093E+01 0.  1.
       -5    1    3    3    0  502 -0.41082004992E+02  0.13127449467E+03 -0.79586565522E+02  0.15898690353E+03  0.46999998093E+01 0. -1.
</event>
<event>
 5   0  0.1223742E-02  0.7041067E+03  0.7818609E-02  0.9710235E-01
        1   -1    0    0  501    0  0.00000000000E+00  0.00000000000E+00  0.32850210229E+03  0.32850210233E+03  0.50400001928E-02 0. -1.
       -1   -1    0    0    0  501  0.00000000000E+00  0.00000000000E+00 -0.37729306690E+03  0.37729306693E+03  0.50400001928E-02 0.  1.
    10030    2    1    2    0    0  0.00000000000E+00  0.00000000000E+00 -0.48790964609E+02  0.70579516926E+03  0.70410671260E+03 0.  0.
        2    1    3    3  502    0 -0.73473739883E+02  0.29794284894E+03 -0.19735847942E+03  0.36485435600E+03  0.25500000920E-02 0.  1.
       -2    1    3    3    0  502  0.73473739883E+02 -0.29794284894E+03  0.14856751481E+03  0.34094081326E+03  0.25500000920E-02 0. -1.
</event>
<event>
 5   0  0.2026361E-02  0.6983186E+03  0.7818609E-02  0.9720112E-01
        2   -1    0    0  501    0  0.00000000000E+00  0.00000000000E+00  0.16737446058E+04  0.16737446058E+04  0.25500000920E-02 0.  1.
       -2   -1    0    0    0  501  0.00000000000E+00  0.00000000000E+00 -0.72838003952E+02  0.72838003996E+02  0.25500000920E-02 0. -1.
    10030    2    1    2    0    0  0.00000000000E+00  0.00000000000E+00  0.16009066019E+04  0.17465826098E+04  0.69831859850E+03 0.  0.
        2    1    3    3  502    0 -0.32576514890E+02 -0.34522289323E+03  0.69817771899E+03  0.77954615170E+03  0.25500000920E-02 0. -1.
       -2    1    3    3    0  502  0.32576514890E+02  0.34522289323E+03  0.90272888289E+03  0.96703645813E+03  0.25500000920E-02 0.  1.
</event>
<event>
 5   0  0.1948138E-02  0.6739323E+03  0.7818609E-02  0.9762880E-01
        2   -1    0    0  501    0  0.00000000000E+00  0.00000000000E+00  0.10456858073E+04  0.10456858074E+04  0.25500000920E-02 0.  1.
       -2   -1    0    0    0  501  0.00000000000E+00  0.00000000000E+00 -0.10858537516E+03  0.10858537519E+03  0.25500000920E-02 0. -1.
    10030    2    1    2    0    0  0.00000000000E+00  0.00000000000E+00  0.93710043219E+03  0.11542711825E+04  0.67393229840E+03 0.  0.
        3    1    3    3  502    0 -0.23250897735E+03 -0.10390128265E+03  0.90619061916E+02  0.27031042464E+03  0.10100000352E+00 0. -1.
       -3    1    3    3    0  502  0.23250897735E+03  0.10390128265E+03  0.84648137027E+03  0.88396075790E+03  0.10100000352E+00 0.  1.
</event>
<event>
 5   0  0.7947250E-03  0.6978151E+03  0.7818609E-02  0.9720976E-01
        3   -1    0    0  501    0  0.00000000000E+00  0.00000000000E+00  0.10664755739E+04  0.10664755787E+04  0.10100000352E+00 0. -1.
       -3   -1    0    0    0  501  0.00000000000E+00  0.00000000000E+00 -0.11414836873E+03  0.11414841341E+03  0.10100000352E+00 0.  1.
    10030    2    1    2    0    0  0.00000000000E+00  0.00000000000E+00  0.95232720519E+03  0.11806239921E+04  0.69781509372E+03 0.  0.
        2    1    3    3  502    0 -0.33920431141E+03  0.44348626256E+01  0.33811930788E+03  0.47896127114E+03  0.25500000920E-02 0. -1.
       -2    1    3    3    0  502  0.33920431141E+03 -0.44348626256E+01  0.61420789731E+03  0.70166272098E+03  0.25500000920E-02 0.  1.
</event>
<event>
 5   0  0.1909053E-02  0.6992899E+03  0.7818609E-02  0.9718447E-01
       -2   -1    0    0    0  501  0.00000000000E+00  0.00000000000E+00  0.11339249329E+03  0.11339249332E+03  0.25500000920E-02 0.  1.
        2   -1    0    0  501    0  0.00000000000E+00  0.00000000000E+00 -0.10781276662E+04  0.10781276662E+04  0.25500000920E-02 0. -1.
    10030    2    1    2    0    0  0.00000000000E+00  0.00000000000E+00 -0.96473517291E+03  0.11915201595E+04  0.69928988031E+03 0.  0.
        1    1    3    3  502    0  0.34213481013E+03 -0.48811145711E+02 -0.39199936565E+03  0.52259186652E+03  0.50400001928E-02 0.  1.
       -1    1    3    3    0  502 -0.34213481013E+03  0.48811145711E+02 -0.57273580725E+03  0.66892829301E+03  0.50400001928E-02 0. -1.
</event>
<event>
 5   0  0.2006362E-02  0.7090757E+03  0.7818609E-02  0.9701836E-01
        2   -1    0    0  501    0  0.00000000000E+00  0.00000000000E+00  0.13369453109E+03  0.13369453112E+03  0.25500000920E-02 0.  1.
       -2   -1    0    0    0  501  0.00000000000E+00  0.00000000000E+00 -0.94018116978E+03  0.94018116978E+03  0.25500000920E-02 0. -1.
    10030    2    1    2    0    0  0.00000000000E+00  0.00000000000E+00 -0.80648663868E+03  0.10738757009E+04  0.70907568186E+03 0.  0.
        4    1    3    3  502    0 -0.23030851855E+03  0.75435154258E+02 -0.79514655387E+03  0.83125936461E+03  0.12699999809E+01 0. -1.
       -4    1    3    3    0  502  0.23030851855E+03 -0.75435154258E+02 -0.11340084811E+02  0.24261633629E+03  0.12699999809E+01 0.  1.
</event>
<event>
 5   0  0.1237686E-02  0.7045681E+03  0.7818609E-02  0.9709452E-01
        1   -1    0    0  501    0  0.00000000000E+00  0.00000000000E+00  0.10326948779E+04  0.10326948779E+04  0.50400001928E-02 0.  1.
       -1   -1    0    0    0  501  0.00000000000E+00  0.00000000000E+00 -0.12017493739E+03  0.12017493750E+03  0.50400001928E-02 0. -1.
    10030    2    1    2    0    0  0.00000000000E+00  0.00000000000E+00  0.91251994052E+03  0.11528698154E+04  0.70456807297E+03 0.  0.
        5    1    3    3  502    0 -0.24627762079E+03 -0.10862953645E+03  0.82805517644E+03  0.87071838611E+03  0.46999998093E+01 0.  1.
       -5    1    3    3    0  502  0.24627762079E+03  0.10862953645E+03  0.84464764086E+02  0.28215142931E+03  0.46999998093E+01 0. -1.
</event>
<event>
 5   0  0.1223742E-02  0.6938850E+03  0.7818609E-02  0.9727747E-01
        1   -1    0    0  501    0  0.00000000000E+00  0.00000000000E+00  0.79653018265E+02  0.79653018424E+02  0.50400001928E-02 0.  1.
       -1   -1    0    0    0  501  0.00000000000E+00  0.00000000000E+00 -0.15111679024E+04  0.15111679024E+04  0.50400001928E-02 0. -1.
    10030    2    1    2    0    0  0.00000000000E+00  0.00000000000E+00 -0.14315148841E+04  0.15908209208E+04  0.69388496067E+03 0.  0.
        2    1    3    3  502    0  0.22369190497E+03 -0.25411395966E+03 -0.88971213567E+03  0.95194519653E+03  0.25500000920E-02 0.  1.
       -2    1    3    3    0  502 -0.22369190497E+03  0.25411395966E+03 -0.54180274844E+03  0.63887572427E+03  0.25500000920E-02 0. -1.
</event>
<event>
 5   0  0.1237686E-02  0.6623420E+03  0.7818609E-02  0.9783892E-01
       -1   -1    0    0    0  501  0.00000000000E+00  0.00000000000E+00  0.55147067014E+03  0.55147067016E+03  0.50400001928E-02 0.  1.
        1   -1    0    0  501    0  0.00000000000E+00  0.00000000000E+00 -0.19887590344E+03  0.19887590350E+03  0.50400001928E-02 0. -1.
    10030    2    1    2    0    0  0.00000000000E+00  0.00000000000E+00  0.35259476670E+03  0.75034657366E+03  0.66234198953E+03 0.  0.
        5    1    3    3  502    0  0.85335862142E+02  0.29416600669E+03  0.31886021854E+03  0.44216487629E+03  0.46999998093E+01 0. -1.
       -5    1    3    3    0  502 -0.85335862142E+02 -0.29416600669E+03  0.33734548166E+02  0.30818169737E+03  0.46999998093E+01 0.  1.
</event>
<event>
 5   0  0.1948138E-02  0.7006747E+03  0.7818609E-02  0.9716079E-01
       -2   -1    0    0    0  501  0.00000000000E+00  0.00000000000E+00  0.65160655284E+02  0.65160655334E+02  0.25500000920E-02 0.  1.
        2   -1    0    0  501    0  0.00000000000E+00  0.00000000000E+00 -0.18835943710E+04  0.18835943710E+04  0.25500000920E-02 0. -1.
    10030    2    1    2    0    0  0.00000000000E+00  0.00000000000E+00 -0.18184337157E+04  0.19487550263E+04  0.70067465647E+03 0.  0.
        3    1    3    3  502    0  0.34168982181E+03 -0.38078343130E+01 -0.11241090859E+04  0.11748990089E+04  0.10100000352E+00 0. -1.
       -3    1    3    3    0  502 -0.34168982181E+03  0.38078343130E+01 -0.69432462978E+03  0.77385601739E+03  0.10100000352E+00 0.  1.
</event>
<event>
 5   0  0.2026361E-02  0.7018465E+03  0.7818609E-02  0.9714080E-01
        2   -1    0    0  501    0  0.00000000000E+00  0.00000000000E+00  0.67666953199E+03  0.67666953200E+03  0.25500000920E-02 0. -1.
       -2   -1    0    0    0  501  0.00000000000E+00  0.00000000000E+00 -0.18199007727E+03  0.18199007729E+03  0.25500000920E-02 0.  1.
    10030    2    1    2    0    0  0.00000000000E+00  0.00000000000E+00  0.49467945473E+03  0.85865960929E+03  0.70184653714E+03 0.  0.
        2    1    3    3  502    0 -0.66203081570E+02  0.46130469160E+02 -0.17048649119E+03  0.18861736897E+03  0.25500000920E-02 0.  1.
       -2    1    3    3    0  502  0.66203081570E+02 -0.46130469160E+02  0.66516594591E+03  0.67004224031E+03  0.25500000920E-02 0. -1.
</event>
<event>
 5   0  0.1973067E-02  0.6991396E+03  0.7818609E-02  0.9718705E-01
       -2   -1    0    0    0  501  0.00000000000E+00  0.00000000000E+00  0.40679293965E+03  0.40679293966E+03  0.25500000920E-02 0.  1.
        2   -1    0    0  501    0  0.00000000000E+00  0.00000000000E+00 -0.30039615890E+03  0.30039615891E+03  0.25500000920E-02 0. -1.
    10030    2    1    2    0    0  0.00000000000E+00  0.00000000000E+00  0.10639678075E+03  0.70718909857E+03  0.69913957560E+03 0.  0.
        5    1    3    3  502    0  0.13889914639E+03 -0.99792377677E+02 -0.25514810665E+03  0.30720373994E+03  0.46999998093E+01 0. -1.
       -5    1    3    3    0  502 -0.13889914639E+03  0.99792377677E+02  0.36154488740E+03  0.39998535862E+03  0.46999998093E+01 0.  1.
</event>
<event>
 5   0  0.1226303E-02  0.7001507E+03  0.7818609E-02  0.9716974E-01
       -1   -1    0    0    0  501  0.00000000000E+00  0.00000000000E+00  0.16601557947E+03  0.16601557955E+03  0.50400001928E-02 0.  1.
        1   -1    0    0  501    0  0.00000000000E+00  0.00000000000E+00 -0.73820040119E+03  0.73820040120E+03  0.50400001928E-02 0. -1.
    10030    2    1    2    0    0  0.00000000000E+00  0.00000000000E+00 -0.57218482171E+03  0.90421598075E+03  0.70015074781E+03 0.  0.
        4    1    3    3  502    0  0.49886217164E+02  0.60648524908E+02  0.15449063042E+03  0.17330852843E+03  0.12699999809E+01 0.  1.
       -4    1    3    3    0  502 -0.49886217164E+02 -0.60648524908E+02 -0.72667545213E+03  0.73090745233E+03  0.12699999809E+01 0. -1.
</event>
<event>
 5   0  0.1257442E-02  0.7176340E+03  0.7818609E-02  0.9687542E-01
       -1   -1    0    0    0  501  0.00000000000E+00  0.00000000000E+00  0.17540980794E+03  0.17540980801E+03  0.50400001928E-02 0.  1.
        1   -1    0    0  501    0  0.00000000000E+00  0.00000000000E+00 -0.73399336587E+03  0.73399336589E+03  0.50400001928E-02 0. -1.
    10030    2    1    2    0    0  0.00000000000E+00  0.00000000000E+00 -0.55858355793E+03  0.90940317391E+03  0.71763398855E+03 0.  0.
        1    1    3    3  502    0 -0.77491536940E+02 -0.18847415999E+02 -0.72262012090E+03  0.72700756704E+03  0.50400001928E-02 0. -1.
       -1    1    3    3    0  502  0.77491536940E+02  0.18847415999E+02  0.16403656297E+03  0.18239560686E+03  0.50400001928E-02 0.  1.
</event>
<event>
 5   0  0.2026361E-02  0.7004238E+03  0.7818609E-02  0.9716508E-01
        2   -1    0    0  501    0  0.00000000000E+00  0.00000000000E+00  0.31400215819E+03  0.31400215820E+03  0.25500000920E-02 0.  1.
       -2   -1    0    0    0  501  0.00000000000E+00  0.00000000000E+00 -0.39059727740E+03  0.39059727740E+03  0.25500000920E-02 0. -1.
    10030    2    1    2    0    0  0.00000000000E+00  0.00000000000E+00 -0.76595119201E+02  0.70459943561E+03  0.70042383767E+03 0.  0.
        2    1    3    3  502    0 -0.13994458480E+03  0.51664095212E+02 -0.35703774049E+03  0.38694910995E+03  0.25500000920E-02 0. -1.
       -2    1    3    3    0  502  0.13994458480E+03 -0.51664095212E+02  0.28044262129E+03  0.31765032566E+03  0.25500000920E-02 0.  1.
</event>
<event>
 5   0  0.7947250E-03  0.6987823E+03  0.7818609E-02  0.9719317E-01
       -3   -1    0    0    0  501  0.00000000000E+00  0.00000000000E+00  0.55186013453E+03  0.55186014378E+03  0.10100000352E+00 0.  1.
        3   -1    0    0  501    0  0.00000000000E+00  0.00000000000E+00 -0.22120491699E+03  0.22120494005E+03  0.10100000352E+00 0. -1.
    10030    2    1    2    0    0  0.00000000000E+00  0.00000000000E+00  0.33065521754E+03  0.77306508383E+03  0.69878233446E+03 0.  0.
        2    1    3    3  502    0 -0.21219048365E+03  0.26343040727E+03  0.68541530735E+02  0.34513522317E+03  0.25500000920E-02 0.  1.
       -2    1    3    3    0  502  0.21219048365E+03 -0.26343040727E+03  0.26211368681E+03  0.42792986066E+03  0.25500000920E-02 0. -1.
</event>
<event>
 5   0  0.1226303E-02  0.7000100E+03  0.7818609E-02  0.9717215E-01
        1   -1    0    0  501    0  0.00000000000E+00  0.00000000000E+00  0.89710559513E+03  0.89710559515E+03  0.50400001928E-02 0.  1.
       -1   -1    0    0    0  501  0.00000000000E+00  0.00000000000E+00 -0.13655416051E+03  0.13655416060E+03  0.50400001928E-02 0. -1.
    10030    2    1    2    0    0  0.00000000000E+00  0.00000000000E+00  0.76055143462E+03  0.10336597558E+04  0.70001000418E+03 0.  0.
        4    1    3    3  502    0 -0.88509983320E+02  0.23307983932E+01 -0.11974033678E+03  0.14892552138E+03  0.12699999809E+01 0. -1.
       -4    1    3    3    0  502  0.88509983320E+02 -0.23307983932E+01  0.88029177140E+03  0.88473423437E+03  0.12699999809E+01 0.  1.
</event>
<event>
 5   0  0.2006362E-02  0.7004182E+03  0.7818609E-02  0.9716517E-01
       -2   -1    0    0    0  501  0.00000000000E+00  0.00000000000E+00  0.77088660747E+02  0.77088660789E+02  0.25500000920E-02 0. -1.
        2   -1    0    0  501    0  0.00000000000E+00  0.00000000000E+00 -0.15909788346E+04  0.15909788346E+04  0.25500000920E-02 0.  1.
    10030    2    1    2    0    0  0.00000000000E+00  0.00000000000E+00 -0.15138901738E+04  0.16680674954E+04  0.70041823983E+03 0.  0.
        4    1    3    3  502    0  0.91985370169E+02 -0.99495505515E+02 -0.15260141242E+04  0.15320187283E+04  0.12699999809E+01 0.  1.
       -4    1    3    3    0  502 -0.91985370169E+02  0.99495505515E+02  0.12123950317E+02  0.13604876704E+03  0.12699999809E+01 0. -1.
</event>
<event>
 5   0  0.1237686E-02  0.7177461E+03  0.7818609E-02  0.9687356E-01
       -1   -1    0    0    0  501  0.00000000000E+00  0.00000000000E+00  0.98796265059E+02  0.98796265188E+02  0.50400001928E-02 0.  1.
        1   -1    0    0  501    0  0.00000000000E+00  0.00000000000E+00 -0.13035906117E+04  0.13035906118E+04  0.50400001928E-02 0. -1.
    10030    2    1    2    0    0  0.00000000000E+00  0.00000000000E+00 -0.12047943467E+04  0.14023868769E+04  0.71774614929E+03 0.  0.
        5    1    3    3  502    0 -0.25516146751E+03  0.33004611262E+02 -0.11365038744E+03  0.28130975709E+03  0.46999998093E+01 0.  1.
       -5    1    3    3    0  502  0.25516146751E+03 -0.33004611262E+02 -0.10911439592E+04  0.11210771199E+04  0.46999998093E+01 0. -1.
</event>
<event>
 5   0  0.1948138E-02  0.7003194E+03  0.7818609E-02  0.9716686E-01
       -2   -1    0    0    0  501  0.00000000000E+00  0.00000000000E+00  0.22145360338E+03  0.22145360340E+03  0.25500000920E-02 0.  1.
        2   -1    0    0  501    0  0.00000000000E+00  0.00000000000E+00 -0.55366825343E+03  0.55366825344E+03  0.25500000920E-02 0. -1.
    10030    2    1    2    0    0  0.00000000000E+00  0.00000000000E+00 -0.33221465005E+03  0.77512185684E+03  0.70031944086E+03 0.  0.
        3    1    3    3  502    0 -0.83908580549E+02 -0.25847396225E+03  0.78301143944E+02  0.28280827144E+03  0.10100000352E+00 0.  1.
       -3    1    3    3    0  502  0.83908580549E+02  0.25847396225E+03 -0.41051579399E+03  0.49231358540E+03  0.10100000352E+00 0. -1.
</event>
<event>
 5   0  0.1909053E-02  0.7031585E+03  0.7818609E-02  0.9711846E-01
       -2   -1    0    0    0  501  0.00000000000E+00  0.00000000000E+00  0.54690863654E+03  0.54690863654E+03  0.25500000920E-02 0.  1.
        2   -1    0    0  501    0  0.00000000000E+00  0.00000000000E+00 -0.22601212245E+03  0.22601212247E+03  0.25500000920E-02 0. -1.
    10030    2    1    2    0    0  0.00000000000E+00  0.00000000000E+00  0.32089651408E+03  0.77292075901E+03  0.70315853614E+03 0.  0.
        1    1    3    3  502    0 -0.97790097755E+02  0.48040307117E+02 -0.20698682941E+03  0.23391092728E+03  0.50400001928E-02 0. -1.
       -1    1    3    3    0  502  0.97790097755E+02 -0.48040307117E+02  0.52788334350E+03  0.53900983172E+03  0.50400001928E-02 0.  1.
</event>
<event>
 5   0  0.1257442E-02  0.7003075E+03  0.7818609E-02  0.9716707E-01
       -1   -1    0    0    0  501  0.00000000000E+00  0.00000000000E+00  0.15232502745E+03  0.15232502753E+03  0.50400001928E-02 0.  1.
        1   -1    0    0  501    0  0.00000000000E+00  0.00000000000E+00 -0.80490804183E+03  0.80490804185E+03  0.50400001928E-02 0. -1.
    10030    2    1    2    0    0  0.00000000000E+00  0.00000000000E+00 -0.65258301438E+03  0.95723306938E+03  0.70030747423E+03 0.  0.
        1    1    3    3  502    0  0.30306238742E+03  0.12051412614E+03 -0.15211717309E+03  0.35987511673E+03  0.50400001928E-02 0.  1.
       -1    1    3    3    0  502 -0.30306238742E+03 -0.12051412614E+03 -0.50046584129E+03  0.59735795265E+03  0.50400001928E-02 0. -1.
</event>
<event>
 5   0  0.7947250E-03  0.6976855E+03  0.7818609E-02  0.9721199E-01
       -3   -1    0    0    0  501  0.00000000000E+00  0.00000000000E+00  0.68749133126E+03  0.68749133868E+03  0.10100000352E+00 0.  1.
        3   -1    0    0  501    0  0.00000000000E+00  0.00000000000E+00 -0.17700766489E+03  0.17700769371E+03  0.10100000352E+00 0. -1.
    10030    2    1    2    0    0  0.00000000000E+00  0.00000000000E+00  0.51048366636E+03  0.86449903239E+03  0.69768546163E+03 0.  0.
        1    1    3    3  502    0 -0.12004087438E+03 -0.74031705576E+02  0.65059053607E+03  0.66570154770E+03  0.50400001928E-02 0.  1.
       -1    1    3    3    0  502  0.12004087438E+03  0.74031705576E+02 -0.14010686971E+03  0.19879748469E+03  0.50400001928E-02 0. -1.
</event>
<event>
 5   0  0.1223742E-02  0.6994251E+03  0.7818609E-02  0.9718216E-01
       -1   -1    0    0    0  501  0.00000000000E+00  0.00000000000E+00  0.61911707887E+03  0.61911707889E+03  0.50400001928E-02 0. -1.
        1   -1    0    0  501    0  0.00000000000E+00  0.00000000000E+00 -0.19753754445E+03  0.19753754451E+03  0.50400001928E-02 0.  1.
    10030    2    1    2    0    0  0.00000000000E+00  0.00000000000E+00  0.42157953442E+03  0.81665462340E+03  0.69942509969E+03 0.  0.
        2    1    3    3  502    0 -0.13424113310E+03  0.11016996034E+03 -0.14363423043E+03  0.22536391489E+03  0.25500000920E-02 0.  1.
       -2    1    3    3    0  502  0.13424113310E+03 -0.11016996034E+03  0.56521376486E+03  0.59129070851E+03  0.25500000920E-02 0. -1.
</event>
<event>
 5   0  0.1226303E-02  0.6285465E+03  0.7818609E-02  0.9847889E-01
        1   -1    0    0  501    0  0.00000000000E+00  0.00000000000E+00  0.34673895259E+03  0.34673895262E+03  0.50400001928E-02 0.  1.
       -1   -1    0    0    0  501  0.00000000000E+00  0.00000000000E+00 -0.28484733811E+03  0.28484733816E+03  0.50400001928E-02 0. -1.
    10030    2    1    2    0    0  0.00000000000E+00  0.00000000000E+00  0.61891614477E+02  0.63158629078E+03  0.62854647462E+03 0.  0.
        4    1    3    3  502    0  0.47411360796E+02 -0.56283761653E+02  0.33795634943E+03  0.34587831094E+03  0.12699999809E+01 0.  1.
       -4    1    3    3    0  502 -0.47411360796E+02  0.56283761653E+02 -0.27606473495E+03  0.28570797984E+03  0.12699999809E+01 0. -1.
</event>
<event>
 5   0  0.1226303E-02  0.7265720E+03  0.7818609E-02  0.9672839E-01
       -1   -1    0    0    0  501  0.00000000000E+00  0.00000000000E+00  0.21961868079E+03  0.21961868085E+03  0.50400001928E-02 0. -1.
        1   -1    0    0  501    0  0.00000000000E+00  0.00000000000E+00 -0.60093576351E+03  0.60093576353E+03  0.50400001928E-02 0.  1.
    10030    2    1    2    0    0  0.00000000000E+00  0.00000000000E+00 -0.38131708272E+03  0.82055444438E+03  0.72657200511E+03 0.  0.
        4    1    3    3  502    0  0.18766293924E+03  0.11801090466E+03  0.13437306829E+03  0.25923288134E+03  0.12699999809E+01 0. -1.
       -4    1    3    3    0  502 -0.18766293924E+03 -0.11801090466E+03 -0.51569015101E+03  0.56132156304E+03  0.12699999809E+01 0.  1.
</event>
<event>
 5   0  0.1257442E-02  0.7202688E+03  0.7818609E-02  0.9683184E-01
        1   -1    0    0  501    0  0.00000000000E+00  0.00000000000E+00  0.50063432937E+03  0.50063432940E+03  0.50400001928E-02 0.  1.
       -1   -1    0    0    0  501  0.00000000000E+00  0.00000000000E+00 -0.25906489839E+03  0.25906489844E+03  0.50400001928E-02 0. -1.
    10030    2    1    2    0    0  0.00000000000E+00  0.00000000000E+00  0.24156943098E+03  0.75969922784E+03  0.72026878788E+03 0.  0.
        1    1    3    3  502    0  0.62621117681E+02  0.21059646943E+03 -0.18018628457E+03  0.28414674815E+03  0.50400001928E-02 0. -1.
       -1    1    3    3    0  502 -0.62621117681E+02 -0.21059646943E+03  0.42175571554E+03  0.47555247969E+03  0.50400001928E-02 0.  1.
</event>
<event>
 5   0  0.1973067E-02  0.7032407E+03  0.7818609E-02  0.9711706E-01
       -2   -1    0    0    0  501  0.00000000000E+00  0.00000000000E+00  0.28278287464E+03  0.28278287466E+03  0.25500000920E-02 0. -1.
        2   -1    0    0  501    0  0.00000000000E+00  0.00000000000E+00 -0.43721484647E+03  0.43721484647E+03  0.25500000920E-02 0.  1.
    10030    2    1    2    0    0  0.00000000000E+00  0.00000000000E+00 -0.15443197182E+03  0.71999772113E+03  0.70324070169E+03 0.  0.
        5    1    3    3  502    0  0.12849580895E+03 -0.32291401436E+03 -0.22749210840E+02  0.34831630765E+03  0.46999998093E+01 0.  1.
       -5    1    3    3    0  502 -0.12849580895E+03  0.32291401436E+03 -0.13168276098E+03  0.37168141348E+03  0.46999998093E+01 0. -1.
</event>
<event>
 5   0  0.2026361E-02  0.6933243E+03  0.7818609E-02  0.9728717E-01
       -2   -1    0    0    0  501  0.00000000000E+00  0.00000000000E+00  0.16497995565E+03  0.16497995567E+03  0.25500000920E-02 0. -1.
        2   -1    0    0  501    0  0.00000000000E+00  0.00000000000E+00 -0.72841960063E+03  0.72841960064E+03  0.25500000920E-02 0.  1.
    10030    2    1    2    0    0  0.00000000000E+00  0.00000000000E+00 -0.56343964498E+03  0.89339955630E+03  0.69332426300E+03 0.  0.
        2    1    3    3  502    0 -0.91397912967E+02  0.26816419960E+03 -0.24298303299E+02  0.28435193685E+03  0.25500000920E-02 0. -1.
       -2    1    3    3    0  502  0.91397912967E+02 -0.26816419960E+03 -0.53914134168E+03  0.60904761945E+03  0.25500000920E-02 0.  1.
</event>
<event>
 5   0  0.1223742E-02  0.6900975E+03  0.7818609E-02  0.9734318E-01
       -1   -1    0    0    0  501  0.00000000000E+00  0.00000000000E+00  0.40089838061E+03  0.40089838064E+03  0.50400001928E-02 0. -1.
        1   -1    0    0  501    0  0.00000000000E+00  0.00000000000E+00 -0.29697957482E+03  0.29697957486E+03  0.50400001928E-02 0.  1.
    10030    2    1    2    0    0  0.00000000000E+00  0.00000000000E+00  0.10391880579E+03  0.69787795550E+03  0.69009747325E+03 0.  0.
        2    1    3    3  502    0 -0.29400469578E+02 -0.31995193159E+03  0.17917517669E+03  0.36788227749E+03  0.25500000920E-02 0. -1.
       -2    1    3    3    0  502  0.29400469578E+02  0.31995193159E+03 -0.75256370894E+02  0.32999567802E+03  0.25500000920E-02 0.  1.
</event>
<event>
 5   0  0.1226303E-02  0.7003768E+03  0.7818609E-02  0.9716588E-01
        1   -1    0    0  501    0  0.00000000000E+00  0.00000000000E+00  0.34135936159E+03  0.34135936163E+03  0.50400001928E-02 0.  1.
       -1   -1    0    0    0  501  0.00000000000E+00  0.00000000000E+00 -0.35924581315E+03  0.35924581318E+03  0.50400001928E-02 0. -1.
    10030    2    1    2    0    0  0.00000000000E+00  0.00000000000E+00 -0.17886451560E+02  0.70060517481E+03  0.70037681702E+03 0.  0.
        4    1    3    3  502    0  0.20446172275E+03  0.27994933761E+03 -0.58498058258E+02  0.35156772238E+03  0.12699999809E+01 0.  1.
       -4    1    3    3    0  502 -0.20446172275E+03 -0.27994933761E+03  0.40611606698E+02  0.34903745243E+03  0.12699999809E+01 0. -1.
</event>
<event>
 5   0  0.1197259E-02  0.6978310E+03  0.7818609E-02  0.9720949E-01
        1   -1    0    0  501    0  0.00000000000E+00  0.00000000000E+00  0.21295091898E+03  0.21295091904E+03  0.50400001928E-02 0.  1.
       -1   -1    0    0    0  501  0.00000000000E+00  0.00000000000E+00 -0.57169058100E+03  0.57169058102E+03  0.50400001928E-02 0. -1.
    10030    2    1    2    0    0  0.00000000000E+00  0.00000000000E+00 -0.35873966201E+03  0.78464150006E+03  0.69783102433E+03 0.  0.
        3    1    3    3  502    0 -0.12438767801E+03 -0.94491910338E+02 -0.53017737365E+03  0.55271065965E+03  0.10100000352E+00 0. -1.
       -3    1    3    3    0  502  0.12438767801E+03  0.94491910338E+02  0.17143771164E+03  0.23193084041E+03  0.10100000352E+00 0.  1.
</event>
<event>
 5   0  0.1257442E-02  0.7076646E+03  0.7818609E-02  0.9704214E-01
       -1   -1    0    0    0  501  0.00000000000E+00  0.00000000000E+00  0.37567555896E+03  0.37567555900E+03  0.50400001928E-02 0.  1.
        1   -1    0    0  501    0  0.00000000000E+00  0.00000000000E+00 -0.33325913821E+03  0.33325913825E+03  0.50400001928E-02 0. -1.
    10030    2    1    2    0    0  0.00000000000E+00  0.00000000000E+00  0.42416420753E+02  0.70893469724E+03  0.70766464671E+03 0.  0.
        1    1    3    3  502    0 -0.79346213207E+02  0.13914817009E+03  0.33727289756E+03  0.37337788130E+03  0.50400001928E-02 0.  1.
       -1    1    3    3    0  502  0.79346213207E+02 -0.13914817009E+03 -0.29485647681E+03  0.33555681595E+03  0.50400001928E-02 0. -1.
</event>
<event>
 5   0  0.1223742E-02  0.6991393E+03  0.7818609E-02  0.9718705E-01
        1   -1    0    0  501    0  0.00000000000E+00  0.00000000000E+00  0.10904806907E+04  0.10904806907E+04  0.50400001928E-02 0. -1.
       -1   -1    0    0    0  501  0.00000000000E+00  0.00000000000E+00 -0.11205969909E+03  0.11205969921E+03  0.50400001928E-02 0.  1.
    10030    2    1    2    0    0  0.00000000000E+00  0.00000000000E+00  0.97842099162E+03  0.12025403899E+04  0.69913929412E+03 0.  0.
        2    1    3    3  502    0  0.10577618608E+03 -0.14014383326E+03  0.10091321120E+04  0.10242931783E+04  0.25500000920E-02 0. -1.
       -2    1    3    3    0  502 -0.10577618608E+03  0.14014383326E+03 -0.30711120401E+02  0.17824721166E+03  0.25500000920E-02 0.  1.
</event>
<event>
 5   0  0.1226303E-02  0.7039397E+03  0.7818609E-02  0.9710518E-01
       -1   -1    0    0    0  501  0.00000000000E+00  0.00000000000E+00  0.34482038751E+03  0.34482038754E+03  0.50400001928E-02 0.  1.
        1   -1    0    0  501    0  0.00000000000E+00  0.00000000000E+00 -0.35926757137E+03  0.35926757141E+03  0.50400001928E-02 0. -1.
    10030    2    1    2    0    0  0.00000000000E+00  0.00000000000E+00 -0.14447183866E+02  0.70408795895E+03  0.70393972243E+03 0.  0.
        4    1    3    3  502    0 -0.76694675448E+02  0.27879359331E+03  0.19350057889E+03  0.34792531935E+03  0.12699999809E+01 0.  1.
       -4    1    3    3    0  502  0.76694675448E+02 -0.27879359331E+03 -0.20794776275E+03  0.35616263960E+03  0.12699999809E+01 0. -1.
</event>
<event>
 5   0  0.1197259E-02  0.7114321E+03  0.7818609E-02  0.9697879E-01
        1   -1    0    0  501    0  0.00000000000E+00  0.00000000000E+00  0.58158865406E+03  0.58158865408E+03  0.50400001928E-02 0.  1.
       -1   -1    0    0    0  501  0.00000000000E+00  0.00000000000E+00 -0.21756600374E+03  0.21756600379E+03  0.50400001928E-02 0. -1.
    10030    2    1    2    0    0  0.00000000000E+00  0.00000000000E+00  0.36402265033E+03  0.79915465788E+03  0.71143213117E+03 0.  0.
        3    1    3    3  502    0 -0.19671219683E+03 -0.29522011238E+03  0.15264801788E+03  0.38620205942E+03  0.10100000352E+00 0.  1.
       -3    1    3    3    0  502  0.19671219683E+03  0.29522011238E+03  0.21137463245E+03  0.41295259846E+03  0.10100000352E+00 0. -1.
</event>
<event>
 5   0  0.2026361E-02  0.6996619E+03  0.7818609E-02  0.9717811E-01
        2   -1    0    0  501    0  0.00000000000E+00  0.00000000000E+00  0.31763622022E+03  0.31763622023E+03  0.25500000920E-02 0.  1.
       -2   -1    0    0    0  501  0.00000000000E+00  0.00000000000E+00 -0.38528880933E+03  0.38528880934E+03  0.25500000920E-02 0. -1.
    10030    2    1    2    0    0  0.00000000000E+00  0.00000000000E+00 -0.67652589111E+02  0.70292502958E+03  0.69966186433E+03 0.  0.
        2    1    3    3  502    0 -0.12694731851E+03 -0.29225196078E+03 -0.17891190748E+03  0.36542619078E+03  0.25500000920E-02 0. -1.
       -2    1    3    3    0  502  0.12694731851E+03  0.29225196078E+03  0.11125931837E+03  0.33749883880E+03  0.25500000920E-02 0.  1.
</event>
<event>
 5   0  0.1237686E-02  0.6934598E+03  0.7818609E-02  0.9728483E-01
        1   -1    0    0  501    0  0.00000000000E+00  0.00000000000E+00  0.19247439504E+03  0.19247439511E+03  0.50400001928E-02 0.  1.
       -1   -1    0    0    0  501  0.00000000000E+00  0.00000000000E+00 -0.62461103693E+03  0.62461103695E+03  0.50400001928E-02 0. -1.
    10030    2    1    2    0    0  0.00000000000E+00  0.00000000000E+00 -0.43213664189E+03  0.81708543206E+03  0.69345982294E+03 0.  0.
        5    1    3    3  502    0  0.24105676819E+03 -0.24250461655E+03 -0.28357720029E+03  0.44424652285E+03  0.46999998093E+01 0. -1.
       -5    1    3    3    0  502 -0.24105676819E+03  0.24250461655E+03 -0.14855944159E+03  0.37283890921E+03  0.46999998093E+01 0.  1.
</event>
<event>
 5   0  0.1909053E-02  0.6918445E+03  0.7818609E-02  0.9731282E-01
       -2   -1    0    0    0  501  0.00000000000E+00  0.00000000000E+00  0.16358579892E+03  0.16358579894E+03  0.25500000920E-02 0.  1.
        2   -1    0    0  501    0  0.00000000000E+00  0.00000000000E+00 -0.73149508965E+03  0.73149508966E+03  0.25500000920E-02 0. -1.
    10030    2    1    2    0    0  0.00000000000E+00  0.00000000000E+00 -0.56790929074E+03  0.89508088859E+03  0.69184451622E+03 0.  0.
        1    1    3    3  502    0  0.31819605647E+03  0.11630833653E+03 -0.19352229724E+03  0.39016309289E+03  0.50400001928E-02 0.  1.
       -1    1    3    3    0  502 -0.31819605647E+03 -0.11630833653E+03 -0.37438699350E+03  0.50491779571E+03  0.50400001928E-02 0. -1.
</event>
<event>
 5   0  0.1197259E-02  0.7036481E+03  0.7818609E-02  0.9711014E-01
       -1   -1    0    0    0  501  0.00000000000E+00  0.00000000000E+00  0.24883222916E+03  0.24883222921E+03  0.50400001928E-02 0.  1.
        1   -1    0    0  501    0  0.00000000000E+00  0.00000000000E+00 -0.49744421442E+03  0.49744421445E+03  0.50400001928E-02 0. -1.
    10030    2    1    2    0    0  0.00000000000E+00  0.00000000000E+00 -0.24861198526E+03  0.74627644366E+03  0.70364807336E+03 0.  0.
        3    1    3    3  502    0  0.51820367671E+02  0.29579754699E+03  0.70097848755E+02  0.30837519017E+03  0.10100000352E+00 0.  1.
       -3    1    3    3    0  502 -0.51820367671E+02 -0.29579754699E+03 -0.31870983402E+03  0.43790125349E+03  0.10100000352E+00 0. -1.
</event>
<event>
 5   0  0.1909053E-02  0.6948843E+03  0.7818609E-02  0.9726021E-01
        2   -1    0    0  501    0  0.00000000000E+00  0.00000000000E+00  0.51970247707E+03  0.51970247708E+03  0.25500000920E-02 0.  1.
       -2   -1    0    0    0  501  0.00000000000E+00  0.00000000000E+00 -0.23227917456E+03  0.23227917457E+03  0.25500000920E-02 0. -1.
    10030    2    1    2    0    0  0.00000000000E+00  0.00000000000E+00  0.28742330252E+03  0.75198165165E+03  0.69488434260E+03 0.  0.
        1    1    3    3  502    0 -0.14269295454E+03 -0.21820153883E+03 -0.10481708032E+03  0.28099788465E+03  0.50400001928E-02 0. -1.
       -1    1    3    3    0  502  0.14269295454E+03  0.21820153883E+03  0.39224038284E+03  0.47098376700E+03  0.50400001928E-02 0.  1.
</event>
<event>
 5   0  0.1257442E-02  0.7056892E+03  0.7818609E-02  0.9707552E-01
       -1   -1    0    0    0  501  0.00000000000E+00  0.00000000000E+00  0.18803209643E+03  0.18803209650E+03  0.50400001928E-02 0. -1.
        1   -1    0    0  501    0  0.00000000000E+00  0.00000000000E+00 -0.66211735772E+03  0.66211735774E+03  0.50400001928E-02 0.  1.
    10030    2    1    2    0    0  0.00000000000E+00  0.00000000000E+00 -0.47408526128E+03  0.85014945424E+03  0.70568920891E+03 0.  0.
        1    1    3    3  502    0 -0.29847034327E+03 -0.18362445161E+03 -0.18741758162E+03  0.39740135250E+03  0.50400001928E-02 0.  1.
       -1    1    3    3    0  502  0.29847034327E+03  0.18362445161E+03 -0.28666767966E+03  0.45274810174E+03  0.50400001928E-02 0. -1.
</event>
<event>
 5   0  0.1973067E-02  0.6981695E+03  0.7818609E-02  0.9720368E-01
        2   -1    0    0  501    0  0.00000000000E+00  0.00000000000E+00  0.30359049808E+03  0.30359049809E+03  0.25500000920E-02 0. -1.
       -2   -1    0    0    0  501  0.00000000000E+00  0.00000000000E+00 -0.40139648151E+03  0.40139648151E+03  0.25500000920E-02 0.  1.
    10030    2    1    2    0    0  0.00000000000E+00  0.00000000000E+00 -0.97805983425E+02  0.70498697960E+03  0.69816948588E+03 0.  0.
        5    1    3    3  502    0  0.26536232510E+03  0.89355695970E+01 -0.27770121461E+03  0.38423568625E+03  0.46999998093E+01 0.  1.
       -5    1    3    3    0  502 -0.26536232510E+03 -0.89355695970E+01  0.17989523119E+03  0.32075129336E+03  0.46999998093E+01 0. -1.
</event>
<event>
 5   0  0.1223742E-02  0.7218602E+03  0.7818609E-02  0.9680562E-01
       -1   -1    0    0    0  501  0.00000000000E+00  0.00000000000E+00  0.21636689040E+03  0.21636689045E+03  0.50400001928E-02 0. -1.
        1   -1    0    0  501    0  0.00000000000E+00  0.00000000000E+00 -0.60208162043E+03  0.60208162045E+03  0.50400001928E-02 0.  1.
    10030    2    1    2    0    0  0.00000000000E+00  0.00000000000E+00 -0.38571473003E+03  0.81844851091E+03  0.72186017485E+03 0.  0.
        2    1    3    3  502    0  0.15804444513E+03 -0.11426332970E+03  0.15148415213E+03  0.24694453528E+03  0.25500000920E-02 0. -1.
       -2    1    3    3    0  502 -0.15804444513E+03  0.11426332970E+03 -0.53719888217E+03  0.57150397563E+03  0.25500000920E-02 0.  1.
</event>
<event>
 5   0  0.1948138E-02  0.6949388E+03  0.7818609E-02  0.9725927E-01
        2   -1    0    0  501    0  0.00000000000E+00  0.00000000000E+00  0.78682369009E+03  0.78682369010E+03  0.25500000920E-02 0. -1.
       -2   -1    0    0    0  501  0.00000000000E+00  0.00000000000E+00 -0.15344602466E+03  0.15344602468E+03  0.25500000920E-02 0.  1.
    10030    2    1    2    0    0  0.00000000000E+00  0.00000000000E+00  0.63337766543E+03  0.94026971478E+03  0.69493875232E+03 0.  0.
        3    1    3    3  502    0 -0.43468642359E+02 -0.14618645713E+03  0.73911658025E+03  0.75468757279E+03  0.10100000352E+00 0. -1.
       -3    1    3    3    0  502  0.43468642359E+02  0.14618645713E+03 -0.10573891482E+03  0.18558214199E+03  0.10100000352E+00 0.  1.
</event>
<event>
 5   0  0.2026361E-02  0.7079569E+03  0.7818609E-02  0.9703721E-01
       -2   -1    0    0    0  501  0.00000000000E+00  0.00000000000E+00  0.12194977354E+03  0.12194977356E+03  0.25500000920E-02 0.  1.
        2   -1    0    0  501    0  0.00000000000E+00  0.00000000000E+00 -0.10274783893E+04  0.10274783893E+04  0.25500000920E-02 0. -1.
    10030    2    1    2    0    0  0.00000000000E+00  0.00000000000E+00 -0.90552861578E+03  0.11494281629E+04  0.70795693911E+03 0.  0.
        2    1    3    3  502    0  0.29115030587E+03  0.18102053030E+03 -0.30970608389E+03  0.46201167886E+03  0.25500000920E-02 0.  1.
       -2    1    3    3    0  502 -0.29115030587E+03 -0.18102053030E+03 -0.59582253188E+03  0.68741648402E+03  0.25500000920E-02 0. -1.
</event>
<event>
 5   0  0.7947250E-03  0.7009373E+03  0.7818609E-02  0.9715631E-01
        4   -1    0    0  501    0  0.00000000000E+00  0.00000000000E+00  0.48487792167E+03  0.48487958487E+03  0.12699999809E+01 0.  1.
       -4   -1    0    0    0  501  0.00000000000E+00  0.00000000000E+00 -0.25331426056E+03  0.25331744414E+03  0.12699999809E+01 0. -1.
    10030    2    1    2    0    0  0.00000000000E+00  0.00000000000E+00  0.23156366111E+03  0.73819702900E+03  0.70093731851E+03 0.  0.
        4    1    3    3  502    0 -0.21379615157E+03 -0.20864561866E+03 -0.77221590937E+02  0.30855562808E+03  0.12699999809E+01 0. -1.
       -4    1    3    3    0  502  0.21379615157E+03  0.20864561866E+03  0.30878525205E+03  0.42964140093E+03  0.12699999809E+01 0.  1.
</event>
<event>
 5   0  0.1973067E-02  0.6953152E+03  0.7818609E-02  0.9725278E-01
       -2   -1    0    0    0  501  0.00000000000E+00  0.00000000000E+00  0.16061554814E+03  0.16061554816E+03  0.25500000920E-02 0. -1.
        2   -1    0    0  501    0  0.00000000000E+00  0.00000000000E+00 -0.75251623924E+03  0.75251623924E+03  0.25500000920E-02 0.  1.
    10030    2    1    2    0    0  0.00000000000E+00  0.00000000000E+00 -0.59190069109E+03  0.91313178740E+03  0.69531520410E+03 0.  0.
        5    1    3    3  502    0  0.24429545439E+03  0.21458888024E+03 -0.13449341282E+03  0.35190797753E+03  0.46999998093E+01 0. -1.
       -5    1    3    3    0  502 -0.24429545439E+03 -0.21458888024E+03 -0.45740727827E+03  0.56122380987E+03  0.46999998093E+01 0.  1.
</event>
<event>
 5   0  0.1973067E-02  0.7010382E+03  0.7818609E-02  0.9715458E-01
        2   -1    0    0  501    0  0.00000000000E+00  0.00000000000E+00  0.73040236452E+03  0.73040236452E+03  0.25500000920E-02 0.  1.
       -2   -1    0    0    0  501  0.00000000000E+00  0.00000000000E+00 -0.16821365550E+03  0.16821365552E+03  0.25500000920E-02 0. -1.
    10030    2    1    2    0    0  0.00000000000E+00  0.00000000000E+00  0.56218870902E+03  0.89861602004E+03  0.70103823499E+03 0.  0.
        5    1    3    3  502    0  0.10322662673E+03 -0.25268585660E+03  0.56291083180E+03  0.62561695401E+03  0.46999998093E+01 0.  1.
       -5    1    3    3    0  502 -0.10322662673E+03  0.25268585660E+03 -0.72212277768E+00  0.27299906603E+03  0.46999998093E+01 0. -1.
</event>
<event>
 5   0  0.1948138E-02  0.7004167E+03  0.7818609E-02  0.9716520E-01
       -2   -1    0    0    0  501  0.00000000000E+00  0.00000000000E+00  0.52209784492E+03  0.52209784492E+03  0.25500000920E-02 0. -1.
        2   -1    0    0  501    0  0.00000000000E+00  0.00000000000E+00 -0.23490977809E+03  0.23490977811E+03  0.25500000920E-02 0.  1.
    10030    2    1    2    0    0  0.00000000000E+00  0.00000000000E+00  0.28718806683E+03  0.75700762303E+03  0.70041670140E+03 0.  0.
        3    1    3    3  502    0  0.33103556494E+03 -0.10214082406E+03  0.88181907334E+02  0.35748196063E+03  0.10100000352E+00 0.  1.
       -3    1    3    3    0  502 -0.33103556494E+03  0.10214082406E+03  0.19900615949E+03  0.39952566240E+03  0.10100000352E+00 0. -1.
</event>
<event>
 5   0  0.1909053E-02  0.7034529E+03  0.7818609E-02  0.9711345E-01
        2   -1    0    0  501    0  0.00000000000E+00  0.00000000000E+00  0.27581509931E+03  0.27581509932E+03  0.25500000920E-02 0.  1.
       -2   -1    0    0    0  501  0.00000000000E+00  0.00000000000E+00 -0.44853053994E+03  0.44853053994E+03  0.25500000920E-02 0. -1.
    10030    2    1    2    0    0  0.00000000000E+00  0.00000000000E+00 -0.17271544063E+03  0.72434563926E+03  0.70345289941E+03 0.  0.
        1    1    3    3  502    0 -0.42173812579E+02 -0.20966355028E+03 -0.37388953253E+03  0.43073288398E+03  0.50400001928E-02 0. -1.
       -1    1    3    3    0  502  0.42173812579E+02  0.20966355028E+03  0.20117409190E+03  0.29361275528E+03  0.50400001928E-02 0.  1.
</event>
<event>
 5   0  0.1237686E-02  0.6387756E+03  0.7818609E-02  0.9828072E-01
       -1   -1    0    0    0  501  0.00000000000E+00  0.00000000000E+00  0.26247055957E+03  0.26247055962E+03  0.50400001928E-02 0.  1.
        1   -1    0    0  501    0  0.00000000000E+00  0.00000000000E+00 -0.38864765844E+03  0.38864765847E+03  0.50400001928E-02 0. -1.
    10030    2    1    2    0    0  0.00000000000E+00  0.00000000000E+00 -0.12617709887E+03  0.65111821809E+03  0.63877560509E+03 0.  0.
        5    1    3    3  502    0 -0.15331267899E+03 -0.12492408444E+02 -0.34836341061E+03  0.38084116592E+03  0.46999998093E+01 0. -1.
       -5    1    3    3    0  502  0.15331267899E+03  0.12492408444E+02  0.22218631174E+03  0.27027705217E+03  0.46999998093E+01 0.  1.
</event>
<event>
 5   0  0.1257442E-02  0.6824666E+03  0.7818609E-02  0.9747695E-01
       -1   -1    0    0    0  501  0.00000000000E+00  0.00000000000E+00  0.10403753920E+04  0.10403753920E+04  0.50400001928E-02 0.  1.
        1   -1    0    0  501    0  0.00000000000E+00  0.00000000000E+00 -0.11192131327E+03  0.11192131338E+03  0.50400001928E-02 0. -1.
    10030    2    1    2    0    0  0.00000000000E+00  0.00000000000E+00  0.92845407876E+03  0.11522967054E+04  0.68246664458E+03 0.  0.
        1    1    3    3  502    0  0.30807773724E+03  0.41063793473E+01  0.71186515306E+03  0.77568083043E+03  0.50400001928E-02 0.  1.
       -1    1    3    3    0  502 -0.30807773724E+03 -0.41063793473E+01  0.21658892569E+03  0.37661587498E+03  0.50400001928E-02 0. -1.
</event>
<event>
 5   0  0.7947250E-03  0.6792151E+03  0.7818609E-02  0.9753452E-01
        3   -1    0    0  501    0  0.00000000000E+00  0.00000000000E+00  0.19448534184E+03  0.19448536806E+03  0.10100000352E+00 0. -1.
       -3   -1    0    0    0  501  0.00000000000E+00  0.00000000000E+00 -0.59301790935E+03  0.59301791795E+03  0.10100000352E+00 0.  1.
    10030    2    1    2    0    0  0.00000000000E+00  0.00000000000E+00 -0.39853256751E+03  0.78750328601E+03  0.67921514862E+03 0.  0.
        4    1    3    3  502    0  0.76920282962E+02  0.20881279596E+03 -0.49670544162E+03  0.54427697207E+03  0.12699999809E+01 0.  1.
       -4    1    3    3    0  502 -0.76920282962E+02 -0.20881279596E+03  0.98172874108E+02  0.24322631395E+03  0.12699999809E+01 0. -1.
</event>
<event>
 5   0  0.2026361E-02  0.6999587E+03  0.7818609E-02  0.9717303E-01
       -2   -1    0    0    0  501  0.00000000000E+00  0.00000000000E+00  0.15335468991E+03  0.15335468993E+03  0.25500000920E-02 0.  1.
        2   -1    0    0  501    0  0.00000000000E+00  0.00000000000E+00 -0.79870743045E+03  0.79870743046E+03  0.25500000920E-02 0. -1.
    10030    2    1    2    0    0  0.00000000000E+00  0.00000000000E+00 -0.64535274054E+03  0.95206212039E+03  0.69995865690E+03 0.  0.
        2    1    3    3  502    0  0.22896933676E+03  0.18190796739E+03 -0.61155559432E+02  0.29875988391E+03  0.25500000920E-02 0.  1.
       -2    1    3    3    0  502 -0.22896933676E+03 -0.18190796739E+03 -0.58419718111E+03  0.65330223649E+03  0.25500000920E-02 0. -1.
</event>
<event>
 5   0  0.7947250E-03  0.6993840E+03  0.7818609E-02  0.9718286E-01
       -4   -1    0    0    0  501  0.00000000000E+00  0.00000000000E+00  0.17883518493E+03  0.17883969433E+03  0.12699999809E+01 0.  1.
        4   -1    0    0  501    0  0.00000000000E+00  0.00000000000E+00 -0.68376957062E+03  0.68377075004E+03  0.12699999809E+01 0. -1.
    10030    2    1    2    0    0  0.00000000000E+00  0.00000000000E+00 -0.50493438570E+03  0.86261044437E+03  0.69938404677E+03 0.  0.
        5    1    3    3  502    0  0.13505624350E+03  0.90198328084E+02 -0.63439186110E+03  0.65486720084E+03  0.46999998093E+01 0. -1.
       -5    1    3    3    0  502 -0.13505624350E+03 -0.90198328084E+02  0.12945747541E+03  0.20774324354E+03  0.46999998093E+01 0.  1.
</event>
<event>
 5   0  0.1909053E-02  0.6948789E+03  0.7818609E-02  0.9726030E-01
        2   -1    0    0  501    0  0.00000000000E+00  0.00000000000E+00  0.73875083151E+03  0.73875083152E+03  0.25500000920E-02 0. -1.
       -2   -1    0    0    0  501  0.00000000000E+00  0.00000000000E+00 -0.16340310087E+03  0.16340310089E+03  0.25500000920E-02 0.  1.
    10030    2    1    2    0    0  0.00000000000E+00  0.00000000000E+00  0.57534773064E+03  0.90215393240E+03  0.69487891506E+03 0.  0.
        1    1    3    3  502    0  0.75672532619E+02 -0.22264326985E+03 -0.44388412290E+02  0.23930459456E+03  0.50400001928E-02 0.  1.
       -1    1    3    3    0  502 -0.75672532619E+02  0.22264326985E+03  0.61973614293E+03  0.66284933785E+03  0.50400001928E-02 0. -1.
</event>
<event>
 5   0  0.1973067E-02  0.7016191E+03  0.7818609E-02  0.9714467E-01
       -2   -1    0    0    0  501  0.00000000000E+00  0.00000000000E+00  0.61234726872E+02  0.61234726925E+02  0.25500000920E-02 0. -1.
        2   -1    0    0  501    0  0.00000000000E+00  0.00000000000E+00 -0.20097637644E+04  0.20097637644E+04  0.25500000920E-02 0.  1.
    10030    2    1    2    0    0  0.00000000000E+00  0.00000000000E+00 -0.19485290375E+04  0.20709984913E+04  0.70161908539E+03 0.  0.
        5    1    3    3  502    0  0.22919076038E+03  0.12072873302E+03 -0.16724086743E+04  0.16923583236E+04  0.46999998093E+01 0.  1.
       -5    1    3    3    0  502 -0.22919076038E+03 -0.12072873302E+03 -0.27612036321E+03  0.37864016770E+03  0.46999998093E+01 0. -1.
</event>
<event>
 5   0  0.7947250E-03  0.7021980E+03  0.7818609E-02  0.9713481E-01
        3   -1    0    0  501    0  0.00000000000E+00  0.00000000000E+00  0.29809731066E+03  0.29809732777E+03  0.10100000352E+00 0. -1.
       -3   -1    0    0    0  501  0.00000000000E+00  0.00000000000E+00 -0.41352438651E+03  0.41352439885E+03  0.10100000352E+00 0.  1.
    10030    2    1    2    0    0  0.00000000000E+00  0.00000000000E+00 -0.11542707585E+03  0.71162172662E+03  0.70219802902E+03 0.  0.
        4    1    3    3  502    0 -0.17678708468E+03 -0.27974980674E+03  0.61143326730E+02  0.33653194051E+03  0.12699999809E+01 0. -1.
       -4    1    3    3    0  502  0.17678708468E+03  0.27974980674E+03 -0.17657040258E+03  0.37508978611E+03  0.12699999809E+01 0.  1.
</event>
<event>
 5   0  0.1197259E-02  0.6759590E+03  0.7818609E-02  0.9759252E-01
       -1   -1    0    0    0  501  0.00000000000E+00  0.00000000000E+00  0.22201053494E+03  0.22201053500E+03  0.50400001928E-02 0. -1.
        1   -1    0    0  501    0  0.00000000000E+00  0.00000000000E+00 -0.51452575283E+03  0.51452575286E+03  0.50400001928E-02 0.  1.
    10030    2    1    2    0    0  0.00000000000E+00  0.00000000000E+00 -0.29251521789E+03  0.73653628785E+03  0.67595898591E+03 0.  0.
        3    1    3    3  502    0  0.18128643541E+03  0.36917290212E+02 -0.45445254552E+03  0.49066769234E+03  0.10100000352E+00 0.  1.
       -3    1    3    3    0  502 -0.18128643541E+03 -0.36917290212E+02  0.16193732763E+03  0.24586859551E+03  0.10100000352E+00 0. -1.
</event>
<event>
 5   0  0.1237686E-02  0.6951275E+03  0.7818609E-02  0.9725601E-01
        1   -1    0    0  501    0  0.00000000000E+00  0.00000000000E+00  0.12019101188E+04  0.12019101188E+04  0.50400001928E-02 0.  1.
       -1   -1    0    0    0  501  0.00000000000E+00  0.00000000000E+00 -0.10050716092E+03  0.10050716104E+03  0.50400001928E-02 0. -1.
    10030    2    1    2    0    0  0.00000000000E+00  0.00000000000E+00  0.11014029579E+04  0.13024172798E+04  0.69512753881E+03 0.  0.
        5    1    3    3  502    0 -0.16857618975E+03 -0.15657124117E+03  0.10387328891E+04  0.10639175674E+04  0.46999998093E+01 0.  1.
       -5    1    3    3    0  502  0.16857618975E+03  0.15657124117E+03  0.62670068752E+02  0.23849971243E+03  0.46999998093E+01 0. -1.
</event>
<event>
 5   0  0.1909053E-02  0.6977014E+03  0.7818609E-02  0.9721171E-01
       -2   -1    0    0    0  501  0.00000000000E+00  0.00000000000E+00  0.11852636764E+03  0.11852636766E+03  0.25500000920E-02 0. -1.
        2   -1    0    0  501    0  0.00000000000E+00  0.00000000000E+00 -0.10267488530E+04  0.10267488530E+04  0.25500000920E-02 0.  1.
    10030    2    1    2    0    0  0.00000000000E+00  0.00000000000E+00 -0.90822248540E+03  0.11452752207E+04  0.69770140330E+03 0.  0.
        1    1    3    3  502    0  0.10591584351E+03 -0.18964315680E+03 -0.60271215828E+01  0.21729937654E+03  0.50400001928E-02 0. -1.
       -1    1    3    3    0  502 -0.10591584351E+03  0.18964315680E+03 -0.90219536382E+03  0.92797584416E+03  0.50400001928E-02 0.  1.
</event>
<event>
 5   0  0.2006362E-02  0.6969093E+03  0.7818609E-02  0.9722532E-01
        2   -1    0    0  501    0  0.00000000000E+00  0.00000000000E+00  0.59263936034E+03  0.59263936034E+03  0.25500000920E-02 0.  1.
       -2   -1    0    0    0  501  0.00000000000E+00  0.00000000000E+00 -0.20488118780E+03  0.20488118781E+03  0.25500000920E-02 0. -1.
    10030    2    1    2    0    0  0.00000000000E+00  0.00000000000E+00  0.38775817254E+03  0.79752054816E+03  0.69690933726E+03 0.  0.
        4    1    3    3  502    0 -0.66813412137E+02  0.12522361591E+03 -0.17029974897E+03  0.22169484303E+03  0.12699999809E+01 0. -1.
       -4    1    3    3    0  502  0.66813412137E+02 -0.12522361591E+03  0.55805792152E+03  0.57582570513E+03  0.12699999809E+01 0.  1.
</event>
<event>
 5   0  0.7947250E-03  0.6979987E+03  0.7818609E-02  0.9720661E-01
        4   -1    0    0  501    0  0.00000000000E+00  0.00000000000E+00  0.10201991769E+04  0.10201999674E+04  0.12699999809E+01 0. -1.
       -4   -1    0    0    0  501  0.00000000000E+00  0.00000000000E+00 -0.11938478770E+03  0.11939154256E+03  0.12699999809E+01 0.  1.
    10030    2    1    2    0    0  0.00000000000E+00  0.00000000000E+00  0.90081438924E+03  0.11395915100E+04  0.69799874338E+03 0.  0.
        2    1    3    3  502    0 -0.16388582112E+03  0.22245493562E+03  0.10231905940E+03  0.29464207213E+03  0.25500000920E-02 0.  1.
       -2    1    3    3    0  502  0.16388582112E+03 -0.22245493562E+03  0.79849532984E+03  0.84494943785E+03  0.25500000920E-02 0. -1.
</event>
<event>
 5   0  0.1223742E-02  0.7005312E+03  0.7818609E-02  0.9716324E-01
        1   -1    0    0  501    0  0.00000000000E+00  0.00000000000E+00  0.27879553002E+03  0.27879553007E+03  0.50400001928E-02 0. -1.
       -1   -1    0    0    0  501  0.00000000000E+00  0.00000000000E+00 -0.44005727320E+03  0.44005727322E+03  0.50400001928E-02 0.  1.
    10030    2    1    2    0    0  0.00000000000E+00  0.00000000000E+00 -0.16126174317E+03  0.71885280329E+03  0.70053122913E+03 0.  0.
        2    1    3    3  502    0  0.89485874653E+02  0.65211066243E+02  0.26036391488E+03  0.28293033259E+03  0.25500000920E-02 0. -1.
       -2    1    3    3    0  502 -0.89485874653E+02 -0.65211066243E+02 -0.42162565806E+03  0.43592247070E+03  0.25500000920E-02 0.  1.
</event>
<event>
 5   0  0.1948138E-02  0.7017500E+03  0.7818609E-02  0.9714244E-01
        2   -1    0    0  501    0  0.00000000000E+00  0.00000000000E+00  0.22259409076E+03  0.22259409078E+03  0.25500000920E-02 0. -1.
       -2   -1    0    0    0  501  0.00000000000E+00  0.00000000000E+00 -0.55308415327E+03  0.55308415328E+03  0.25500000920E-02 0.  1.
    10030    2    1    2    0    0  0.00000000000E+00  0.00000000000E+00 -0.33049006251E+03  0.77567824406E+03  0.70174999600E+03 0.  0.
        3    1    3    3  502    0 -0.17415541484E+03  0.17823037250E+03  0.10779410502E+03  0.27150645200E+03  0.10100000352E+00 0. -1.
       -3    1    3    3    0  502  0.17415541484E+03 -0.17823037250E+03 -0.43828416753E+03  0.50417179206E+03  0.10100000352E+00 0.  1.
</event>
<event>
 5   0  0.1226303E-02  0.7034983E+03  0.7818609E-02  0.9711268E-01
       -1   -1    0    0    0  501  0.00000000000E+00  0.00000000000E+00  0.13794994745E+03  0.13794994755E+03  0.50400001928E-02 0.  1.
        1   -1    0    0  501    0  0.00000000000E+00  0.00000000000E+00 -0.89690108056E+03  0.89690108057E+03  0.50400001928E-02 0. -1.
    10030    2    1    2    0    0  0.00000000000E+00  0.00000000000E+00 -0.75895113310E+03  0.10348510281E+04  0.70349827857E+03 0.  0.
        4    1    3    3  502    0 -0.24769819140E+02  0.23525888183E+03  0.34543595498E+01  0.23658789259E+03  0.12699999809E+01 0.  1.
       -4    1    3    3    0  502  0.24769819140E+02 -0.23525888183E+03 -0.76240549265E+03  0.79826313553E+03  0.12699999809E+01 0. -1.
</event>
<event>
 5   0  0.1948138E-02  0.7018771E+03  0.7818609E-02  0.9714027E-01
       -2   -1    0    0    0  501  0.00000000000E+00  0.00000000000E+00  0.11490046172E+03  0.11490046175E+03  0.25500000920E-02 0.  1.
        2   -1    0    0  501    0  0.00000000000E+00  0.00000000000E+00 -0.10718657069E+04  0.10718657069E+04  0.25500000920E-02 0. -1.
    10030    2    1    2    0    0  0.00000000000E+00  0.00000000000E+00 -0.95696524515E+03  0.11867661686E+04  0.70187709649E+03 0.  0.
        3    1    3    3  502    0  0.16099372726E+03 -0.18604322665E+03 -0.55342536962E+02  0.25217824846E+03  0.10100000352E+00 0.  1.
       -3    1    3    3    0  502 -0.16099372726E+03  0.18604322665E+03 -0.90162270819E+03  0.93458792017E+03  0.10100000352E+00 0. -1.
</event>
<event>
 5   0  0.1223742E-02  0.6410103E+03  0.7818609E-02  0.9823796E-01
       -1   -1    0    0    0  501  0.00000000000E+00  0.00000000000E+00  0.96176726119E+02  0.96176726251E+02  0.50400001928E-02 0. -1.
        1   -1    0    0  501    0  0.00000000000E+00  0.00000000000E+00 -0.10680706802E+04  0.10680706803E+04  0.50400001928E-02 0.  1.
    10030    2    1    2    0    0  0.00000000000E+00  0.00000000000E+00 -0.97189395412E+03  0.11642474065E+04  0.64101026941E+03 0.  0.
        2    1    3    3  502    0 -0.15036551522E+03 -0.29199455771E+02  0.25393842016E+02  0.15526507528E+03  0.25500000920E-02 0. -1.
       -2    1    3    3    0  502  0.15036551522E+03  0.29199455771E+02 -0.99728779614E+03  0.10089823312E+04  0.25500000920E-02 0.  1.
</event>
<event>
 5   0  0.1909053E-02  0.7029073E+03  0.7818609E-02  0.9712273E-01
       -2   -1    0    0    0  501  0.00000000000E+00  0.00000000000E+00  0.52870142318E+02  0.52870142380E+02  0.25500000920E-02 0. -1.
        2   -1    0    0  501    0  0.00000000000E+00  0.00000000000E+00 -0.23362840263E+04  0.23362840263E+04  0.25500000920E-02 0.  1.
    10030    2    1    2    0    0  0.00000000000E+00  0.00000000000E+00 -0.22834138840E+04  0.23891541687E+04  0.70290730269E+03 0.  0.
        1    1    3    3  502    0  0.26166890159E+03 -0.14541826105E+03 -0.51586808793E+03  0.59643689429E+03  0.50400001928E-02 0.  1.
       -1    1    3    3    0  502 -0.26166890159E+03  0.14541826105E+03 -0.17675457961E+04  0.17927172744E+04  0.50400001928E-02 0. -1.
</event>
<event>
 5   0  0.2026361E-02  0.7085056E+03  0.7818609E-02  0.9702796E-01
        2   -1    0    0  501    0  0.00000000000E+00  0.00000000000E+00  0.31914966275E+03  0.31914966276E+03  0.25500000920E-02 0.  1.
       -2   -1    0    0    0  501  0.00000000000E+00  0.00000000000E+00 -0.39321694216E+03  0.39321694217E+03  0.25500000920E-02 0. -1.
    10030    2    1    2    0    0  0.00000000000E+00  0.00000000000E+00 -0.74067279412E+02  0.71236660492E+03  0.70850562307E+03 0.  0.
        2    1    3    3  502    0  0.34263506609E+03 -0.54425195145E+02  0.35009913337E+02  0.34869267904E+03  0.25500000920E-02 0.  1.
       -2    1    3    3    0  502 -0.34263506609E+03  0.54425195145E+02 -0.10907719275E+03  0.36367392588E+03  0.25500000920E-02 0. -1.
</event>
<event>
 5   0  0.1237686E-02  0.6925274E+03  0.7818609E-02  0.9730097E-01
       -1   -1    0    0    0  501  0.00000000000E+00  0.00000000000E+00  0.85723736914E+02  0.85723737062E+02  0.50400001928E-02 0. -1.
        1   -1    0    0  501    0  0.00000000000E+00  0.00000000000E+00 -0.13986623838E+04  0.13986623839E+04  0.50400001928E-02 0.  1.
    10030    2    1    2    0    0  0.00000000000E+00  0.00000000000E+00 -0.13129386469E+04  0.14843861209E+04  0.69252744737E+03 0.  0.
        5    1    3    3  502    0  0.25523829729E+03  0.23121903707E+03 -0.73278410948E+03  0.80969344360E+03  0.46999998093E+01 0.  1.
       -5    1    3    3    0  502 -0.25523829729E+03 -0.23121903707E+03 -0.58015453745E+03  0.67469267732E+03  0.46999998093E+01 0. -1.
</event>
<event>
 5   0  0.1226303E-02  0.7033928E+03  0.7818609E-02  0.9711448E-01
        1   -1    0    0  501    0  0.00000000000E+00  0.00000000000E+00  0.26763513385E+03  0.26763513390E+03  0.50400001928E-02 0.  1.
       -1   -1    0    0    0  501  0.00000000000E+00  0.00000000000E+00 -0.46216040095E+03  0.46216040097E+03  0.50400001928E-02 0. -1.
    10030    2    1    2    0    0  0.00000000000E+00  0.00000000000E+00 -0.19452526709E+03  0.72979553487E+03  0.70339280859E+03 0.  0.
        4    1    3    3  502    0 -0.28890166848E+03  0.35731361969E+02 -0.30202257035E+03  0.41947604244E+03  0.12699999809E+01 0. -1.
       -4    1    3    3    0  502  0.28890166848E+03 -0.35731361969E+02  0.10749730325E+03  0.31031949244E+03  0.12699999809E+01 0.  1.
</event>
<event>
 5   0  0.7947250E-03  0.6966888E+03  0.7818609E-02  0.9722912E-01
        3   -1    0    0  501    0  0.00000000000E+00  0.00000000000E+00  0.15712196191E+03  0.15712199437E+03  0.10100000352E+00 0.  1.
       -3   -1    0    0    0  501  0.00000000000E+00  0.00000000000E+00 -0.77229058533E+03  0.77229059193E+03  0.10100000352E+00 0. -1.
    10030    2    1    2    0    0  0.00000000000E+00  0.00000000000E+00 -0.61516862342E+03  0.92941258630E+03  0.69668882604E+03 0.  0.
        4    1    3    3  502    0  0.22092406668E+02 -0.58793305551E+02  0.14950294137E+03  0.16216494563E+03  0.12699999809E+01 0.  1.
       -4    1    3    3    0  502 -0.22092406668E+02  0.58793305551E+02 -0.76467156480E+03  0.76724764068E+03  0.12699999809E+01 0. -1.
</event>
<event>
 5   0  0.2006362E-02  0.7038626E+03  0.7818609E-02  0.9710649E-01
        2   -1    0    0  501    0  0.00000000000E+00  0.00000000000E+00  0.46798381018E+03  0.46798381019E+03  0.25500000920E-02 0.  1.
       -2   -1    0    0    0  501  0.00000000000E+00  0.00000000000E+00 -0.26465793755E+03  0.26465793757E+03  0.25500000920E-02 0. -1.
    10030    2    1    2    0    0  0.00000000000E+00  0.00000000000E+00  0.20332587262E+03  0.73264174775E+03  0.70386257186E+03 0.  0.
        4    1    3    3  502    0 -0.85073029461E+02  0.94902589508E+02  0.44311543733E+03  0.46108223295E+03  0.12699999809E+01 0.  1.
       -4    1    3    3    0  502  0.85073029461E+02 -0.94902589508E+02 -0.23978956471E+03  0.27155951480E+03  0.12699999809E+01 0. -1.
</event>
<event>
 5   0  0.1973067E-02  0.7036510E+03  0.7818609E-02  0.9711009E-01
        2   -1    0    0  501    0  0.00000000000E+00  0.00000000000E+00  0.15071500774E+04  0.15071500774E+04  0.25500000920E-02 0.  1.
       -2   -1    0    0    0  501  0.00000000000E+00  0.00000000000E+00 -0.82129305358E+02  0.82129305397E+02  0.25500000920E-02 0. -1.
    10030    2    1    2    0    0  0.00000000000E+00  0.00000000000E+00  0.14250207721E+04  0.15892793828E+04  0.70365101851E+03 0.  0.
        5    1    3    3  502    0  0.16173540694E+03  0.18165381073E+03  0.12865846741E+04  0.13093810226E+04  0.46999998093E+01 0.  1.
       -5    1    3    3    0  502 -0.16173540694E+03 -0.18165381073E+03  0.13843609794E+03  0.27989836016E+03  0.46999998093E+01 0. -1.
</event>
<event>
 5   0  0.1226303E-02  0.6980027E+03  0.7818609E-02  0.9720654E-01
       -1   -1    0    0    0  501  0.00000000000E+00  0.00000000000E+00  0.19446858890E+03  0.19446858896E+03  0.50400001928E-02 0.  1.
        1   -1    0    0  501    0  0.00000000000E+00  0.00000000000E+00 -0.62633217998E+03  0.62633218000E+03  0.50400001928E-02 0. -1.
    10030    2    1    2    0    0  0.00000000000E+00  0.00000000000E+00 -0.43186359108E+03  0.82080076897E+03  0.69800267982E+03 0.  0.
        4    1    3    3  502    0 -0.11920290833E+03  0.17252326543E+03  0.11212195386E+03  0.23779519740E+03  0.12699999809E+01 0.  1.
       -4    1    3    3    0  502  0.11920290833E+03 -0.17252326543E+03 -0.54398554494E+03  0.58300557157E+03  0.12699999809E+01 0. -1.
</event>
<event>
 5   0  0.2006362E-02  0.7027049E+03  0.7818609E-02  0.9712618E-01
       -2   -1    0    0    0  501  0.00000000000E+00  0.00000000000E+00  0.74370416204E+03  0.74370416204E+03  0.25500000920E-02 0. -1.
        2   -1    0    0  501    0  0.00000000000E+00  0.00000000000E+00 -0.16599147025E+03  0.16599147027E+03  0.25500000920E-02 0.  1.
    10030    2    1    2    0    0  0.00000000000E+00  0.00000000000E+00  0.57771269179E+03  0.90969563232E+03  0.70270490905E+03 0.  0.
        4    1    3    3  502    0 -0.27343459254E+03  0.22043471065E+03  0.30106897606E+03  0.46260358765E+03  0.12699999809E+01 0. -1.
       -4    1    3    3    0  502  0.27343459254E+03 -0.22043471065E+03  0.27664371573E+03  0.44709204467E+03  0.12699999809E+01 0.  1.
</event>
<event>
 5   0  0.7947250E-03  0.6970570E+03  0.7818609E-02  0.9722278E-01
       -3   -1    0    0    0  501  0.00000000000E+00  0.00000000000E+00  0.20176109592E+03  0.20176112120E+03  0.10100000352E+00 0.  1.
        3   -1    0    0  501    0  0.00000000000E+00  0.00000000000E+00 -0.60205913308E+03  0.60205914155E+03  0.10100000352E+00 0. -1.
    10030    2    1    2    0    0  0.00000000000E+00  0.00000000000E+00 -0.40029803716E+03  0.80382026274E+03  0.69705702510E+03 0.  0.
        2    1    3    3  502    0 -0.11620207256E+03  0.14143351988E+02 -0.57871179334E+03  0.59043229572E+03  0.25500000920E-02 0. -1.
       -2    1    3    3    0  502  0.11620207256E+03 -0.14143351988E+02  0.17841375618E+03  0.21338796703E+03  0.25500000920E-02 0.  1.
</event>
<event>
 5   0  0.1197259E-02  0.7013884E+03  0.7818609E-02  0.9714861E-01
       -1   -1    0    0    0  501  0.00000000000E+00  0.00000000000E+00  0.51334227860E+03  0.51334227862E+03  0.50400001928E-02 0. -1.
        1   -1    0    0  501    0  0.00000000000E+00  0.00000000000E+00 -0.23957979672E+03  0.23957979677E+03  0.50400001928E-02 0.  1.
    10030    2    1    2    0    0  0.00000000000E+00  0.00000000000E+00  0.27376248188E+03  0.75292207539E+03  0.70138844810E+03 0.  0.
        3    1    3    3  502    0 -0.24708290373E+03 -0.20974615616E+03  0.28067470929E+03  0.42874434570E+03  0.10100000352E+00 0. -1.
       -3    1    3    3    0  502  0.24708290373E+03  0.20974615616E+03 -0.69122274034E+01  0.32417772969E+03  0.10100000352E+00 0.  1.
</event>
<event>
 5   0  0.1223742E-02  0.7025137E+03  0.7818609E-02  0.9712943E-01
        1   -1    0    0  501    0  0.00000000000E+00  0.00000000000E+00  0.52775215269E+03  0.52775215271E+03  0.50400001928E-02 0. -1.
       -1   -1    0    0    0  501  0.00000000000E+00  0.00000000000E+00 -0.23378655585E+03  0.23378655591E+03  0.50400001928E-02 0.  1.
    10030    2    1    2    0    0  0.00000000000E+00  0.00000000000E+00  0.29396559683E+03  0.76153870862E+03  0.70251365297E+03 0.  0.
        2    1    3    3  502    0 -0.96263105260E+02 -0.31423533345E+03  0.12586515511E+02  0.32889033218E+03  0.25500000920E-02 0.  1.
       -2    1    3    3    0  502  0.96263105260E+02  0.31423533345E+03  0.28137908132E+03  0.43264837644E+03  0.25500000920E-02 0. -1.
</event>
<event>
 5   0  0.1223742E-02  0.6865332E+03  0.7818609E-02  0.9740544E-01
        1   -1    0    0  501    0  0.00000000000E+00  0.00000000000E+00  0.65362922400E+03  0.65362922402E+03  0.50400001928E-02 0.  1.
       -1   -1    0    0    0  501  0.00000000000E+00  0.00000000000E+00 -0.18027336993E+03  0.18027337000E+03  0.50400001928E-02 0. -1.
    10030    2    1    2    0    0  0.00000000000E+00  0.00000000000E+00  0.47335585408E+03  0.83390259402E+03  0.68653315413E+03 0.  0.
        2    1    3    3  502    0 -0.13391558129E+03  0.19918399881E+03 -0.61406763005E+02  0.24774672317E+03  0.25500000920E-02 0. -1.
       -2    1    3    3    0  502  0.13391558129E+03 -0.19918399881E+03  0.53476261708E+03  0.58615587085E+03  0.25500000920E-02 0.  1.
</event>
<event>
 5   0  0.1257442E-02  0.6994444E+03  0.7818609E-02  0.9718183E-01
       -1   -1    0    0    0  501  0.00000000000E+00  0.00000000000E+00  0.40692085246E+03  0.40692085249E+03  0.50400001928E-02 0. -1.
        1   -1    0    0  501    0  0.00000000000E+00  0.00000000000E+00 -0.30056362390E+03  0.30056362394E+03  0.50400001928E-02 0.  1.
    10030    2    1    2    0    0  0.00000000000E+00  0.00000000000E+00  0.10635722856E+03  0.70748447643E+03  0.69944436829E+03 0.  0.
        1    1    3    3  502    0  0.25941078141E+03  0.23027270020E+03  0.81002406877E+01  0.34696553704E+03  0.50400001928E-02 0.  1.
       -1    1    3    3    0  502 -0.25941078141E+03 -0.23027270020E+03  0.98256987870E+02  0.36051893939E+03  0.50400001928E-02 0. -1.
</event>
<event>
 5   0  0.1237686E-02  0.6749223E+03  0.7818609E-02  0.9761106E-01
       -1   -1    0    0    0  501  0.00000000000E+00  0.00000000000E+00  0.18384582912E+03  0.18384582919E+03  0.50400001928E-02 0. -1.
        1   -1    0    0  501    0  0.00000000000E+00  0.00000000000E+00 -0.61943211743E+03  0.61943211745E+03  0.50400001928E-02 0.  1.
    10030    2    1    2    0    0  0.00000000000E+00  0.00000000000E+00 -0.43558628831E+03  0.80327794664E+03  0.67492225107E+03 0.  0.
        5    1    3    3  502    0 -0.93891933478E+02  0.31990854050E+03 -0.27964524198E+03  0.43517895264E+03  0.46999998093E+01 0.  1.
       -5    1    3    3    0  502  0.93891933478E+02 -0.31990854050E+03 -0.15594104633E+03  0.36809899400E+03  0.46999998093E+01 0. -1.
</event>
<event>
 5   0  0.1223742E-02  0.6997608E+03  0.7818609E-02  0.9717641E-01
        1   -1    0    0  501    0  0.00000000000E+00  0.00000000000E+00  0.21867314325E+04  0.21867314325E+04  0.50400001928E-02 0.  1.
       -1   -1    0    0    0  501  0.00000000000E+00  0.00000000000E+00 -0.55981398779E+02  0.55981399006E+02  0.50400001928E-02 0. -1.
    10030    2    1    2    0    0  0.00000000000E+00  0.00000000000E+00  0.21307500337E+04  0.22427128315E+04  0.69976077228E+03 0.  0.
        2    1    3    3  502    0 -0.18799332698E+03  0.24915573508E+03  0.15720870128E+04  0.16027718637E+04  0.25500000920E-02 0.  1.
       -2    1    3    3    0  502  0.18799332698E+03 -0.24915573508E+03  0.55866302095E+03  0.63994096782E+03  0.25500000920E-02 0. -1.
</event>
<event>
 5   0  0.2006362E-02  0.6991623E+03  0.7818609E-02  0.9718666E-01
        2   -1    0    0  501    0  0.00000000000E+00  0.00000000000E+00  0.14990687556E+04  0.14990687556E+04  0.25500000920E-02 0.  1.
       -2   -1    0    0    0  501  0.00000000000E+00  0.00000000000E+00 -0.81521926892E+02  0.81521926932E+02  0.25500000920E-02 0. -1.
    10030    2    1    2    0    0  0.00000000000E+00  0.00000000000E+00  0.14175468287E+04  0.15805906825E+04  0.69916228025E+03 0.  0.
        4    1    3    3  502    0  0.28354052037E+02 -0.22088434353E+03  0.99595461815E+02  0.24395637807E+03  0.12699999809E+01 0. -1.
       -4    1    3    3    0  502 -0.28354052037E+02  0.22088434353E+03  0.13179513669E+04  0.13366343045E+04  0.12699999809E+01 0.  1.
</event>
<event>
 5   0  0.2006362E-02  0.6673094E+03  0.7818609E-02  0.9774831E-01
       -2   -1    0    0    0  501  0.00000000000E+00  0.00000000000E+00  0.88099004852E+02  0.88099004888E+02  0.25500000920E-02 0.  1.
        2   -1    0    0  501    0  0.00000000000E+00  0.00000000000E+00 -0.12636403898E+04  0.12636403898E+04  0.25500000920E-02 0. -1.
    10030    2    1    2    0    0  0.00000000000E+00  0.00000000000E+00 -0.11755413850E+04  0.13517393947E+04  0.66730940608E+03 0.  0.
        4    1    3    3  502    0 -0.13231848436E+03 -0.96060713550E+02  0.13714883676E+01  0.16352166790E+03  0.12699999809E+01 0.  1.
       -4    1    3    3    0  502  0.13231848436E+03  0.96060713550E+02 -0.11769128734E+04  0.11882177268E+04  0.12699999809E+01 0. -1.
</event>
<event>
 5   0  0.1909053E-02  0.7000383E+03  0.7818609E-02  0.9717167E-01
       -2   -1    0    0    0  501  0.00000000000E+00  0.00000000000E+00  0.81464670556E+03  0.81464670557E+03  0.25500000920E-02 0. -1.
        2   -1    0    0  501    0  0.00000000000E+00  0.00000000000E+00 -0.15038839555E+03  0.15038839557E+03  0.25500000920E-02 0.  1.
    10030    2    1    2    0    0  0.00000000000E+00  0.00000000000E+00  0.66425831001E+03  0.96503510114E+03  0.70003831611E+03 0.  0.
        1    1    3    3  502    0  0.55945141280E+02 -0.19413230200E+03  0.72615275152E+03  0.75373405660E+03  0.50400001928E-02 0. -1.
       -1    1    3    3    0  502 -0.55945141280E+02  0.19413230200E+03 -0.61894441507E+02  0.21130104455E+03  0.50400001928E-02 0.  1.
</event>
<event>
 5   0  0.1226303E-02  0.7024943E+03  0.7818609E-02  0.9712976E-01
        1   -1    0    0  501    0  0.00000000000E+00  0.00000000000E+00  0.81548096808E+03  0.81548096810E+03  0.50400001928E-02 0.  1.
       -1   -1    0    0    0  501  0.00000000000E+00  0.00000000000E+00 -0.15129054225E+03  0.15129054233E+03  0.50400001928E-02 0. -1.
    10030    2    1    2    0    0  0.00000000000E+00  0.00000000000E+00  0.66419042584E+03  0.96677151043E+03  0.70249429294E+03 0.  0.
        4    1    3    3  502    0  0.15225813787E+03  0.19481279139E+03 -0.11233547921E+02  0.24751236280E+03  0.12699999809E+01 0. -1.
       -4    1    3    3    0  502 -0.15225813787E+03 -0.19481279139E+03  0.67542397376E+03  0.71925914764E+03  0.12699999809E+01 0.  1.
</event>
<event>
 5   0  0.1226303E-02  0.7031454E+03  0.7818609E-02  0.9711868E-01
       -1   -1    0    0    0  501  0.00000000000E+00  0.00000000000E+00  0.48475760925E+03  0.48475760927E+03  0.50400001928E-02 0.  1.
        1   -1    0    0  501    0  0.00000000000E+00  0.00000000000E+00 -0.25497973014E+03  0.25497973019E+03  0.50400001928E-02 0. -1.
    10030    2    1    2    0    0  0.00000000000E+00  0.00000000000E+00  0.22977787911E+03  0.73973733947E+03  0.70314540294E+03 0.  0.
        4    1    3    3  502    0  0.27754423376E+03 -0.15962528576E+03 -0.37895132689E+02  0.32241074351E+03  0.12699999809E+01 0. -1.
       -4    1    3    3    0  502 -0.27754423376E+03  0.15962528576E+03  0.26767301179E+03  0.41732659596E+03  0.12699999809E+01 0.  1.
</event>
<event>
 5   0  0.1973067E-02  0.6978250E+03  0.7818609E-02  0.9720959E-01
       -2   -1    0    0    0  501  0.00000000000E+00  0.00000000000E+00  0.83256159037E+02  0.83256159076E+02  0.25500000920E-02 0.  1.
        2   -1    0    0  501    0  0.00000000000E+00  0.00000000000E+00 -0.14622334006E+04  0.14622334006E+04  0.25500000920E-02 0. -1.
    10030    2    1    2    0    0  0.00000000000E+00  0.00000000000E+00 -0.13789772416E+04  0.15454895597E+04  0.69782501125E+03 0.  0.
        5    1    3    3  502    0  0.10596131554E+02  0.30335146768E+03 -0.10704175848E+04  0.11126321435E+04  0.46999998093E+01 0. -1.
       -5    1    3    3    0  502 -0.10596131554E+02 -0.30335146768E+03 -0.30855965680E+03  0.43285741619E+03  0.46999998093E+01 0.  1.
</event>
<event>
 5   0  0.1237686E-02  0.7217310E+03  0.7818609E-02  0.9680774E-01
        1   -1    0    0  501    0  0.00000000000E+00  0.00000000000E+00  0.11431047741E+03  0.11431047752E+03  0.50400001928E-02 0.  1.
       -1   -1    0    0    0  501  0.00000000000E+00  0.00000000000E+00 -0.11392124226E+04  0.11392124226E+04  0.50400001928E-02 0. -1.
    10030    2    1    2    0    0  0.00000000000E+00  0.00000000000E+00 -0.10249019452E+04  0.12535229001E+04  0.72173101908E+03 0.  0.
        5    1    3    3  502    0 -0.21488176547E+03  0.90435737424E+02 -0.99078570595E+03  0.10178561789E+04  0.46999998093E+01 0. -1.
       -5    1    3    3    0  502  0.21488176547E+03 -0.90435737424E+02 -0.34116239235E+02  0.23566672127E+03  0.46999998093E+01 0.  1.
</event>
<event>
 5   0  0.1237686E-02  0.6912817E+03  0.7818609E-02  0.9732259E-01
        1   -1    0    0  501    0  0.00000000000E+00  0.00000000000E+00  0.57826596606E+03  0.57826596608E+03  0.50400001928E-02 0.  1.
       -1   -1    0    0    0  501  0.00000000000E+00  0.00000000000E+00 -0.20659628923E+03  0.20659628930E+03  0.50400001928E-02 0. -1.
    10030    2    1    2    0    0  0.00000000000E+00  0.00000000000E+00  0.37166967682E+03  0.78486225538E+03  0.69128171627E+03 0.  0.
        5    1    3    3  502    0  0.21613462097E+03  0.24825717122E+03  0.66217455920E+02  0.33578659728E+03  0.46999998093E+01 0. -1.
       -5    1    3    3    0  502 -0.21613462097E+03 -0.24825717122E+03  0.30545222090E+03  0.44907565810E+03  0.46999998093E+01 0.  1.
</event>
<event>
 5   0  0.2026361E-02  0.6987681E+03  0.7818609E-02  0.9719341E-01
       -2   -1    0    0    0  501  0.00000000000E+00  0.00000000000E+00  0.24561379128E+03  0.24561379130E+03  0.25500000920E-02 0. -1.
        2   -1    0    0  501    0  0.00000000000E+00  0.00000000000E+00 -0.49699654262E+03  0.49699654263E+03  0.25500000920E-02 0.  1.
    10030    2    1    2    0    0  0.00000000000E+00  0.00000000000E+00 -0.25138275134E+03  0.74261033392E+03  0.69876807338E+03 0.  0.
        2    1    3    3  502    0  0.71042544856E+02 -0.51006022365E+01 -0.48919915706E+03  0.49435703151E+03  0.25500000920E-02 0.  1.
       -2    1    3    3    0  502 -0.71042544856E+02  0.51006022365E+01  0.23781640572E+03  0.24825330242E+03  0.25500000920E-02 0. -1.
</event>
<event>
 5   0  0.1197259E-02  0.7026445E+03  0.7818609E-02  0.9712720E-01
       -1   -1    0    0    0  501  0.00000000000E+00  0.00000000000E+00  0.68071134965E+02  0.68071135151E+02  0.50400001928E-02 0.  1.
        1   -1    0    0  501    0  0.00000000000E+00  0.00000000000E+00 -0.18132106393E+04  0.18132106393E+04  0.50400001928E-02 0. -1.
    10030    2    1    2    0    0  0.00000000000E+00  0.00000000000E+00 -0.17451395043E+04  0.18812817744E+04  0.70264445156E+03 0.  0.
        3    1    3    3  502    0 -0.33893573453E+02  0.17275898492E+03 -0.58556621412E+02  0.18553525084E+03  0.10100000352E+00 0.  1.
       -3    1    3    3    0  502  0.33893573453E+02 -0.17275898492E+03 -0.16865828829E+04  0.16957465236E+04  0.10100000352E+00 0. -1.
</event>
<event>
 5   0  0.1948138E-02  0.6995235E+03  0.7818609E-02  0.9718047E-01
       -2   -1    0    0    0  501  0.00000000000E+00  0.00000000000E+00  0.17330467096E+03  0.17330467098E+03  0.25500000920E-02 0. -1.
        2   -1    0    0  501    0  0.00000000000E+00  0.00000000000E+00 -0.70588562597E+03  0.70588562598E+03  0.25500000920E-02 0.  1.
    10030    2    1    2    0    0  0.00000000000E+00  0.00000000000E+00 -0.53258095501E+03  0.87919029696E+03  0.69952348397E+03 0.  0.
        3    1    3    3  502    0  0.22776688630E+03  0.13548606710E+03  0.20586327707E+02  0.26581579329E+03  0.10100000352E+00 0. -1.
       -3    1    3    3    0  502 -0.22776688630E+03 -0.13548606710E+03 -0.55316728272E+03  0.61337450366E+03  0.10100000352E+00 0.  1.
</event>
<event>
 5   0  0.7947250E-03  0.6838996E+03  0.7818609E-02  0.9745169E-01
       -3   -1    0    0    0  501  0.00000000000E+00  0.00000000000E+00  0.47451567456E+03  0.47451568531E+03  0.10100000352E+00 0.  1.
        3   -1    0    0  501    0  0.00000000000E+00  0.00000000000E+00 -0.24641896778E+03  0.24641898848E+03  0.10100000352E+00 0. -1.
    10030    2    1    2    0    0  0.00000000000E+00  0.00000000000E+00  0.22809670678E+03  0.72093467379E+03  0.68389962438E+03 0.  0.
        4    1    3    3  502    0 -0.21710415731E+03 -0.24606121197E+03  0.12675650731E+02  0.32839400144E+03  0.12699999809E+01 0. -1.
       -4    1    3    3    0  502  0.21710415731E+03  0.24606121197E+03  0.21542105605E+03  0.39254067235E+03  0.12699999809E+01 0.  1.
</event>
<event>
 5   0  0.2006362E-02  0.7015879E+03  0.7818609E-02  0.9714521E-01
       -2   -1    0    0    0  501  0.00000000000E+00  0.00000000000E+00  0.41434341442E+03  0.41434341443E+03  0.25500000920E-02 0. -1.
        2   -1    0    0  501    0  0.00000000000E+00  0.00000000000E+00 -0.29699127339E+03  0.29699127340E+03  0.25500000920E-02 0.  1.
    10030    2    1    2    0    0  0.00000000000E+00  0.00000000000E+00  0.11735214103E+03  0.71133468783E+03  0.70158785131E+03 0.  0.
        4    1    3    3  502    0  0.32568451702E+03 -0.13010266239E+03  0.66374846398E+02  0.35693744623E+03  0.12699999809E+01 0. -1.
       -4    1    3    3    0  502 -0.32568451702E+03  0.13010266239E+03  0.50977294632E+02  0.35439724160E+03  0.12699999809E+01 0.  1.
</event>
<event>
 5   0  0.2006362E-02  0.7004418E+03  0.7818609E-02  0.9716477E-01
        2   -1    0    0  501    0  0.00000000000E+00  0.00000000000E+00  0.11777338197E+04  0.11777338197E+04  0.25500000920E-02 0. -1.
       -2   -1    0    0    0  501  0.00000000000E+00  0.00000000000E+00 -0.10414463896E+03  0.10414463899E+03  0.25500000920E-02 0.  1.
    10030    2    1    2    0    0  0.00000000000E+00  0.00000000000E+00  0.10735891807E+04  0.12818784587E+04  0.70044175622E+03 0.  0.
        4    1    3    3  502    0  0.34843425407E+03 -0.32388766016E+02  0.56251963828E+03  0.66248427749E+03  0.12699999809E+01 0. -1.
       -4    1    3    3    0  502 -0.34843425407E+03  0.32388766016E+02  0.51106954243E+03  0.61939418117E+03  0.12699999809E+01 0.  1.
</event>
<event>
 5   0  0.1223742E-02  0.6976345E+03  0.7818609E-02  0.9721286E-01
        1   -1    0    0  501    0  0.00000000000E+00  0.00000000000E+00  0.12276996146E+03  0.12276996156E+03  0.50400001928E-02 0. -1.
       -1   -1    0    0    0  501  0.00000000000E+00  0.00000000000E+00 -0.99106870995E+03  0.99106870996E+03  0.50400001928E-02 0.  1.
    10030    2    1    2    0    0  0.00000000000E+00  0.00000000000E+00 -0.86829874850E+03  0.11138386715E+04  0.69763448133E+03 0.  0.
        2    1    3    3  502    0  0.28136811333E+03 -0.17569581689E+03 -0.26192116968E+03  0.42265794019E+03  0.25500000920E-02 0.  1.
       -2    1    3    3    0  502 -0.28136811333E+03  0.17569581689E+03 -0.60637757881E+03  0.69118073133E+03  0.25500000920E-02 0. -1.
</event>
<event>
 5   0  0.1909053E-02  0.6993642E+03  0.7818609E-02  0.9718320E-01
       -2   -1    0    0    0  501  0.00000000000E+00  0.00000000000E+00  0.16914299585E+03  0.16914299587E+03  0.25500000920E-02 0.  1.
        2   -1    0    0  501    0  0.00000000000E+00  0.00000000000E+00 -0.72292427299E+03  0.72292427299E+03  0.25500000920E-02 0. -1.
    10030    2    1    2    0    0  0.00000000000E+00  0.00000000000E+00 -0.55378127713E+03  0.89206726886E+03  0.69936421790E+03 0.  0.
        1    1    3    3  502    0  0.32246930726E+03 -0.88923826801E+02 -0.40686861301E+03  0.52672190896E+03  0.50400001928E-02 0.  1.
       -1    1    3    3    0  502 -0.32246930726E+03  0.88923826801E+02 -0.14691266413E+03  0.36534535991E+03  0.50400001928E-02 0. -1.
</event>
<event>
 5   0  0.1257442E-02  0.7610927E+03  0.7818609E-02  0.9618107E-01
       -1   -1    0    0    0  501  0.00000000000E+00  0.00000000000E+00  0.26283411789E+03  0.26283411794E+03  0.50400001928E-02 0.  1.
        1   -1    0    0  501    0  0.00000000000E+00  0.00000000000E+00 -0.55097691787E+03  0.55097691790E+03  0.50400001928E-02 0. -1.
    10030    2    1    2    0    0  0.00000000000E+00  0.00000000000E+00 -0.28814279999E+03  0.81381103583E+03  0.76109272028E+03 0.  0.
        1    1    3    3  502    0 -0.13707396088E+03  0.93398770625E+02  0.22214723447E+03  0.27723995909E+03  0.50400001928E-02 0.  1.
       -1    1    3    3    0  502  0.13707396088E+03 -0.93398770625E+02 -0.51029003446E+03  0.53657107674E+03  0.50400001928E-02 0. -1.
</event>
<event>
 5   0  0.1237686E-02  0.7022472E+03  0.7818609E-02  0.9713397E-01
        1   -1    0    0  501    0  0.00000000000E+00  0.00000000000E+00  0.42540106121E+03  0.42540106124E+03  0.50400001928E-02 0.  1.
       -1   -1    0    0    0  501  0.00000000000E+00  0.00000000000E+00 -0.28981536889E+03  0.28981536893E+03  0.50400001928E-02 0. -1.
    10030    2    1    2    0    0  0.00000000000E+00  0.00000000000E+00  0.13558569232E+03  0.71521643017E+03  0.70224715167E+03 0.  0.
        5    1    3    3  502    0 -0.33512797456E+03 -0.69541219089E+02 -0.11875429420E+02  0.34250526464E+03  0.46999998093E+01 0. -1.
       -5    1    3    3    0  502  0.33512797456E+03  0.69541219089E+02  0.14746112174E+03  0.37271116553E+03  0.46999998093E+01 0.  1.
</event>
<event>
 5   0  0.1909053E-02  0.6949701E+03  0.7818609E-02  0.9725873E-01
        2   -1    0    0  501    0  0.00000000000E+00  0.00000000000E+00  0.72647883168E+03  0.72647883168E+03  0.25500000920E-02 0. -1.
       -2   -1    0    0    0  501  0.00000000000E+00  0.00000000000E+00 -0.16620697338E+03  0.16620697339E+03  0.25500000920E-02 0.  1.
    10030    2    1    2    0    0  0.00000000000E+00  0.00000000000E+00  0.56027185830E+03  0.89268580508E+03  0.69497006510E+03 0.  0.
        1    1    3    3  502    0  0.75309231791E+02  0.58987081623E+02 -0.14896029010E+03  0.17703142163E+03  0.50400001928E-02 0.  1.
       -1    1    3    3    0  502 -0.75309231791E+02 -0.58987081623E+02  0.70923214840E+03  0.71565438345E+03  0.50400001928E-02 0. -1.
</event>
<event>
 5   0  0.1237686E-02  0.7007690E+03  0.7818609E-02  0.9715918E-01
        1   -1    0    0  501    0  0.00000000000E+00  0.00000000000E+00  0.15120460189E+04  0.15120460189E+04  0.50400001928E-02 0. -1.
       -1   -1    0    0    0  501  0.00000000000E+00  0.00000000000E+00 -0.81194145736E+02  0.81194145892E+02  0.50400001928E-02 0.  1.
    10030    2    1    2    0    0  0.00000000000E+00  0.00000000000E+00  0.14308518732E+04  0.15932401648E+04  0.70076896321E+03 0.  0.
        5    1    3    3  502    0 -0.16538331334E+03  0.16430489723E+03  0.12081525145E+03  0.26261407915E+03  0.46999998093E+01 0.  1.
       -5    1    3    3    0  502  0.16538331334E+03 -0.16430489723E+03  0.13100366217E+04  0.13306260857E+04  0.46999998093E+01 0. -1.
</event>
<event>
 5   0  0.1197259E-02  0.6846030E+03  0.7818609E-02  0.9743932E-01
        1   -1    0    0  501    0  0.00000000000E+00  0.00000000000E+00  0.61623341831E+03  0.61623341833E+03  0.50400001928E-02 0.  1.
       -1   -1    0    0    0  501  0.00000000000E+00  0.00000000000E+00 -0.19013948816E+03  0.19013948823E+03  0.50400001928E-02 0. -1.
    10030    2    1    2    0    0  0.00000000000E+00  0.00000000000E+00  0.42609393014E+03  0.80637290656E+03  0.68460297043E+03 0.  0.
        3    1    3    3  502    0  0.10092054575E+03 -0.20815887838E+03  0.51022326060E+03  0.56021679827E+03  0.10100000352E+00 0.  1.
       -3    1    3    3    0  502 -0.10092054575E+03  0.20815887838E+03 -0.84129330456E+02  0.24615610829E+03  0.10100000352E+00 0. -1.
</event>
<event>
 5   0  0.1226303E-02  0.7000132E+03  0.7818609E-02  0.9717210E-01
        1   -1    0    0  501    0  0.00000000000E+00  0.00000000000E+00  0.93525177536E+03  0.93525177537E+03  0.50400001928E-02 0. -1.
       -1   -1    0    0    0  501  0.00000000000E+00  0.00000000000E+00 -0.13098572888E+03  0.13098572897E+03  0.50400001928E-02 0.  1.
    10030    2    1    2    0    0  0.00000000000E+00  0.00000000000E+00  0.80426604648E+03  0.10662375043E+04  0.70001324427E+03 0.  0.
        4    1    3    3  502    0 -0.10729390982E+03  0.22597836323E+03  0.77499754561E+03  0.81437154441E+03  0.12699999809E+01 0. -1.
       -4    1    3    3    0  502  0.10729390982E+03 -0.22597836323E+03  0.29268500868E+02  0.25186595994E+03  0.12699999809E+01 0.  1.
</event>
<event>
 5   0  0.1973067E-02  0.6972287E+03  0.7818609E-02  0.9721983E-01
        2   -1    0    0  501    0  0.00000000000E+00  0.00000000000E+00  0.69690797787E+03  0.69690797788E+03  0.25500000920E-02 0. -1.
       -2   -1    0    0    0  501  0.00000000000E+00  0.00000000000E+00 -0.17438739125E+03  0.17438739127E+03  0.25500000920E-02 0.  1.
    10030    2    1    2    0    0  0.00000000000E+00  0.00000000000E+00  0.52252058662E+03  0.87129536915E+03  0.69722869767E+03 0.  0.
        5    1    3    3  502    0  0.19595655882E+03  0.28674358160E+03  0.29852054972E+03  0.45799286364E+03  0.46999998093E+01 0. -1.
       -5    1    3    3    0  502 -0.19595655882E+03 -0.28674358160E+03  0.22400003690E+03  0.41330250551E+03  0.46999998093E+01 0.  1.
</event>
<event>
 5   0  0.1909053E-02  0.6996396E+03  0.7818609E-02  0.9717849E-01
       -2   -1    0    0    0  501  0.00000000000E+00  0.00000000000E+00  0.20821129089E+03  0.20821129091E+03  0.25500000920E-02 0. -1.
        2   -1    0    0  501    0  0.00000000000E+00  0.00000000000E+00 -0.58773903744E+03  0.58773903744E+03  0.25500000920E-02 0.  1.
    10030    2    1    2    0    0  0.00000000000E+00  0.00000000000E+00 -0.37952774655E+03  0.79595032835E+03  0.69963963210E+03 0.  0.
        1    1    3    3  502    0 -0.66232659942E+02  0.30295547413E+03 -0.37392782810E+03  0.48578884837E+03  0.50400001928E-02 0.  1.
       -1    1    3    3    0  502  0.66232659942E+02 -0.30295547413E+03 -0.55999184455E+01  0.31016147998E+03  0.50400001928E-02 0. -1.
</event>
<event>
 5   0  0.1223742E-02  0.7025961E+03  0.7818609E-02  0.9712803E-01
        1   -1    0    0  501    0  0.00000000000E+00  0.00000000000E+00  0.38832546653E+03  0.38832546657E+03  0.50400001928E-02 0. -1.
       -1   -1    0    0    0  501  0.00000000000E+00  0.00000000000E+00 -0.31780121645E+03  0.31780121649E+03  0.50400001928E-02 0.  1.
    10030    2    1    2    0    0  0.00000000000E+00  0.00000000000E+00  0.70524250079E+02  0.70612668306E+03  0.70259605940E+03 0.  0.
        2    1    3    3  502    0 -0.33181683901E+02 -0.11294915056E+03 -0.29738717534E+03  0.31984006444E+03  0.25500000920E-02 0.  1.
       -2    1    3    3    0  502  0.33181683901E+02  0.11294915056E+03  0.36791142542E+03  0.38628661861E+03  0.25500000920E-02 0. -1.
</event>
<event>
 5   0  0.1237686E-02  0.6990779E+03  0.7818609E-02  0.9718810E-01
        1   -1    0    0  501    0  0.00000000000E+00  0.00000000000E+00  0.52976715240E+03  0.52976715242E+03  0.50400001928E-02 0. -1.
       -1   -1    0    0    0  501  0.00000000000E+00  0.00000000000E+00 -0.23062484298E+03  0.23062484304E+03  0.50400001928E-02 0.  1.
    10030    2    1    2    0    0  0.00000000000E+00  0.00000000000E+00  0.29914230942E+03  0.76039199546E+03  0.69907786797E+03 0.  0.
        5    1    3    3  502    0 -0.15706345876E+03 -0.65054807854E+02 -0.18258817786E+03  0.24952272601E+03  0.46999998093E+01 0.  1.
       -5    1    3    3    0  502  0.15706345876E+03  0.65054807854E+02  0.48173048728E+03  0.51086926945E+03  0.46999998093E+01 0. -1.
</event>
<event>
 5   0  0.1948138E-02  0.7393512E+03  0.7818609E-02  0.9652206E-01
       -2   -1    0    0    0  501  0.00000000000E+00  0.00000000000E+00  0.12257795609E+03  0.12257795612E+03  0.25500000920E-02 0. -1.
        2   -1    0    0  501    0  0.00000000000E+00  0.00000000000E+00 -0.11148826940E+04  0.11148826940E+04  0.25500000920E-02 0.  1.
    10030    2    1    2    0    0  0.00000000000E+00  0.00000000000E+00 -0.99230473790E+03  0.12374606501E+04  0.73935118025E+03 0.  0.
        3    1    3    3  502    0  0.33659283499E+03 -0.11039377718E+03 -0.67311133420E+03  0.76063158036E+03  0.10100000352E+00 0.  1.
       -3    1    3    3    0  502 -0.33659283499E+03  0.11039377718E+03 -0.31919340370E+03  0.47682906976E+03  0.10100000352E+00 0. -1.
</event>
<event>
 5   0  0.1909053E-02  0.6994038E+03  0.7818609E-02  0.9718252E-01
       -2   -1    0    0    0  501  0.00000000000E+00  0.00000000000E+00  0.18234645712E+03  0.18234645714E+03  0.25500000920E-02 0. -1.
        2   -1    0    0  501    0  0.00000000000E+00  0.00000000000E+00 -0.67065415741E+03  0.67065415742E+03  0.25500000920E-02 0.  1.
    10030    2    1    2    0    0  0.00000000000E+00  0.00000000000E+00 -0.48830770030E+03  0.85300061456E+03  0.69940377341E+03 0.  0.
        1    1    3    3  502    0 -0.14576106398E+03  0.26443679666E+03 -0.29009809467E+02  0.30333920992E+03  0.50400001928E-02 0. -1.
       -1    1    3    3    0  502  0.14576106398E+03 -0.26443679666E+03 -0.45929789083E+03  0.54966140464E+03  0.50400001928E-02 0.  1.
</event>
<event>
 5   0  0.7947250E-03  0.6849511E+03  0.7818609E-02  0.9743320E-01
        3   -1    0    0  501    0  0.00000000000E+00  0.00000000000E+00  0.14160240728E+03  0.14160244330E+03  0.10100000352E+00 0.  1.
       -3   -1    0    0    0  501  0.00000000000E+00  0.00000000000E+00 -0.82830141659E+03  0.82830142275E+03  0.10100000352E+00 0. -1.
    10030    2    1    2    0    0  0.00000000000E+00  0.00000000000E+00 -0.68669900931E+03  0.96990386606E+03  0.68495107855E+03 0.  0.
        1    1    3    3  502    0  0.21435628178E+03 -0.11596712566E+03 -0.68405591768E+03  0.72617455774E+03  0.50400001928E-02 0. -1.
       -1    1    3    3    0  502 -0.21435628178E+03  0.11596712566E+03 -0.26430916291E+01  0.24372930831E+03  0.50400001928E-02 0.  1.
</event>
<event>
 5   0  0.1237686E-02  0.6971372E+03  0.7818609E-02  0.9722141E-01
       -1   -1    0    0    0  501  0.00000000000E+00  0.00000000000E+00  0.49106892604E+03  0.49106892606E+03  0.50400001928E-02 0. -1.
        1   -1    0    0  501    0  0.00000000000E+00  0.00000000000E+00 -0.24741958384E+03  0.24741958389E+03  0.50400001928E-02 0.  1.
    10030    2    1    2    0    0  0.00000000000E+00  0.00000000000E+00  0.24364934220E+03  0.73848850995E+03  0.69713720126E+03 0.  0.
        5    1    3    3  502    0  0.13699748327E+03 -0.19258372034E+03 -0.14953637228E+03  0.27971416910E+03  0.46999998093E+01 0.  1.
       -5    1    3    3    0  502 -0.13699748327E+03  0.19258372034E+03  0.39318571448E+03  0.45877434086E+03  0.46999998093E+01 0. -1.
</event>
<event>
 5   0  0.1223742E-02  0.7010681E+03  0.7818609E-02  0.9715407E-01
       -1   -1    0    0    0  501  0.00000000000E+00  0.00000000000E+00  0.22128930681E+03  0.22128930687E+03  0.50400001928E-02 0.  1.
        1   -1    0    0  501    0  0.00000000000E+00  0.00000000000E+00 -0.55526453214E+03  0.55526453217E+03  0.50400001928E-02 0. -1.
    10030    2    1    2    0    0  0.00000000000E+00  0.00000000000E+00 -0.33397522533E+03  0.77655383904E+03  0.70106805218E+03 0.  0.
        2    1    3    3  502    0 -0.23886684888E+03  0.12204114417E+03  0.82970402614E+02  0.28077660173E+03  0.25500000920E-02 0.  1.
       -2    1    3    3    0  502  0.23886684888E+03 -0.12204114417E+03 -0.41694562795E+03  0.49577723731E+03  0.25500000920E-02 0. -1.
</event>
<event>
 5   0  0.1237686E-02  0.7040257E+03  0.7818609E-02  0.9710372E-01
        1   -1    0    0  501    0  0.00000000000E+00  0.00000000000E+00  0.57406231642E+03  0.57406231644E+03  0.50400001928E-02 0.  1.
       -1   -1    0    0    0  501  0.00000000000E+00  0.00000000000E+00 -0.21585296122E+03  0.21585296128E+03  0.50400001928E-02 0. -1.
    10030    2    1    2    0    0  0.00000000000E+00  0.00000000000E+00  0.35820935520E+03  0.78991527772E+03  0.70402571247E+03 0.  0.
        5    1    3    3  502    0 -0.20526163971E+02 -0.10539305222E+03 -0.19699383108E+03  0.22440516559E+03  0.46999998093E+01 0. -1.
       -5    1    3    3    0  502  0.20526163971E+02  0.10539305222E+03  0.55520318628E+03  0.56551011212E+03  0.46999998093E+01 0.  1.
</event>
<event>
 5   0  0.1223742E-02  0.6845897E+03  0.7818609E-02  0.9743955E-01
        1   -1    0    0  501    0  0.00000000000E+00  0.00000000000E+00  0.18720815941E+04  0.18720815941E+04  0.50400001928E-02 0.  1.
       -1   -1    0    0    0  501  0.00000000000E+00  0.00000000000E+00 -0.62585817235E+02  0.62585817438E+02  0.50400001928E-02 0. -1.
    10030    2    1    2    0    0  0.00000000000E+00  0.00000000000E+00  0.18094957768E+04  0.19346674115E+04  0.68458967769E+03 0.  0.
        2    1    3    3  502    0 -0.15691322603E+03 -0.29701337056E+03  0.10906447775E+04  0.11412031956E+04  0.25500000920E-02 0.  1.
       -2    1    3    3    0  502  0.15691322603E+03  0.29701337056E+03  0.71885099931E+03  0.79346421596E+03  0.25500000920E-02 0. -1.
</event>
<event>
 5   0  0.1237686E-02  0.7036933E+03  0.7818609E-02  0.9710937E-01
        1   -1    0    0  501    0  0.00000000000E+00  0.00000000000E+00  0.65868217940E+03  0.65868217942E+03  0.50400001928E-02 0.  1.
       -1   -1    0    0    0  501  0.00000000000E+00  0.00000000000E+00 -0.18794505198E+03  0.18794505204E+03  0.50400001928E-02 0. -1.
    10030    2    1    2    0    0  0.00000000000E+00  0.00000000000E+00  0.47073712743E+03  0.84662723146E+03  0.70369327545E+03 0.  0.
        5    1    3    3  502    0 -0.22465471772E+03  0.25553347157E+03  0.12771207789E+03  0.36345503453E+03  0.46999998093E+01 0. -1.
       -5    1    3    3    0  502  0.22465471772E+03 -0.25553347157E+03  0.34302504954E+03  0.48317219694E+03  0.46999998093E+01 0.  1.
</event>
<event>
 5   0  0.7947250E-03  0.6753122E+03  0.7818609E-02  0.9760409E-01
       -4   -1    0    0    0  501  0.00000000000E+00  0.00000000000E+00  0.37764394953E+03  0.37764608500E+03  0.12699999809E+01 0. -1.
        4   -1    0    0  501    0  0.00000000000E+00  0.00000000000E+00 -0.30189815104E+03  0.30190082229E+03  0.12699999809E+01 0.  1.
    10030    2    1    2    0    0  0.00000000000E+00  0.00000000000E+00  0.75745798494E+02  0.67954690730E+03  0.67531220426E+03 0.  0.
        4    1    3    3  502    0  0.21196305532E+03 -0.25100410378E+03 -0.40581593790E+02  0.33102851175E+03  0.12699999809E+01 0. -1.
       -4    1    3    3    0  502 -0.21196305532E+03  0.25100410378E+03  0.11632739228E+03  0.34851839554E+03  0.12699999809E+01 0.  1.
</event>
<event>
 5   0  0.1948138E-02  0.7234404E+03  0.7818609E-02  0.9677965E-01
       -2   -1    0    0    0  501  0.00000000000E+00  0.00000000000E+00  0.50041294176E+03  0.50041294177E+03  0.25500000920E-02 0.  1.
        2   -1    0    0  501    0  0.00000000000E+00  0.00000000000E+00 -0.26146709432E+03  0.26146709433E+03  0.25500000920E-02 0. -1.
    10030    2    1    2    0    0  0.00000000000E+00  0.00000000000E+00  0.23894584745E+03  0.76188003610E+03  0.72344044080E+03 0.  0.
        3    1    3    3  502    0  0.13478742864E+03 -0.14910250929E+03 -0.19724278662E+03  0.28160954577E+03  0.10100000352E+00 0. -1.
       -3    1    3    3    0  502 -0.13478742864E+03  0.14910250929E+03  0.43618863407E+03  0.48027049033E+03  0.10100000352E+00 0.  1.
</event>
<event>
 5   0  0.2026361E-02  0.7077398E+03  0.7818609E-02  0.9704087E-01
        2   -1    0    0  501    0  0.00000000000E+00  0.00000000000E+00  0.12876076951E+04  0.12876076951E+04  0.25500000920E-02 0. -1.
       -2   -1    0    0    0  501  0.00000000000E+00  0.00000000000E+00 -0.97253139723E+02  0.97253139757E+02  0.25500000920E-02 0.  1.
    10030    2    1    2    0    0  0.00000000000E+00  0.00000000000E+00  0.11903545553E+04  0.13848608348E+04  0.70773975754E+03 0.  0.
        2    1    3    3  502    0 -0.17126638248E+03 -0.18636476619E+03  0.10790887213E+04  0.11083755989E+04  0.25500000920E-02 0. -1.
       -2    1    3    3    0  502  0.17126638248E+03  0.18636476619E+03  0.11126583406E+03  0.27648523592E+03  0.25500000920E-02 0.  1.
</event>
<event>
 5   0  0.1909053E-02  0.7484118E+03  0.7818609E-02  0.9637845E-01
       -2   -1    0    0    0  501  0.00000000000E+00  0.00000000000E+00  0.60828591417E+02  0.60828591470E+02  0.25500000920E-02 0.  1.
        2   -1    0    0  501    0  0.00000000000E+00  0.00000000000E+00 -0.23020431131E+04  0.23020431131E+04  0.25500000920E-02 0. -1.
    10030    2    1    2    0    0  0.00000000000E+00  0.00000000000E+00 -0.22412145217E+04  0.23628717046E+04  0.74841175838E+03 0.  0.
        1    1    3    3  502    0 -0.47292664356E+02  0.18866795681E+03 -0.21299075801E+04  0.21387703229E+04  0.50400001928E-02 0. -1.
       -1    1    3    3    0  502  0.47292664356E+02 -0.18866795681E+03 -0.11130694158E+03  0.22410138174E+03  0.50400001928E-02 0.  1.
</event>
<event>
 5   0  0.1223742E-02  0.6989359E+03  0.7818609E-02  0.9719054E-01
       -1   -1    0    0    0  501  0.00000000000E+00  0.00000000000E+00  0.24684702872E+03  0.24684702877E+03  0.50400001928E-02 0.  1.
        1   -1    0    0  501    0  0.00000000000E+00  0.00000000000E+00 -0.49475110331E+03  0.49475110334E+03  0.50400001928E-02 0. -1.
    10030    2    1    2    0    0  0.00000000000E+00  0.00000000000E+00 -0.24790407459E+03  0.74159813211E+03  0.69893587642E+03 0.  0.
        2    1    3    3  502    0 -0.17809449556E+03  0.45631157614E+02  0.19138897877E+03  0.26538574396E+03  0.25500000920E-02 0.  1.
       -2    1    3    3    0  502  0.17809449556E+03 -0.45631157614E+02 -0.43929305336E+03  0.47621238816E+03  0.25500000920E-02 0. -1.
</event>
<event>
 5   0  0.2006362E-02  0.7011898E+03  0.7818609E-02  0.9715200E-01
       -2   -1    0    0    0  501  0.00000000000E+00  0.00000000000E+00  0.12608657930E+04  0.12608657931E+04  0.25500000920E-02 0.  1.
        2   -1    0    0  501    0  0.00000000000E+00  0.00000000000E+00 -0.97486013205E+02  0.97486013238E+02  0.25500000920E-02 0. -1.
    10030    2    1    2    0    0  0.00000000000E+00  0.00000000000E+00  0.11633797798E+04  0.13583518063E+04  0.70118978708E+03 0.  0.
        4    1    3    3  502    0 -0.34353921594E+03  0.21591229573E+02  0.71062416095E+03  0.78960349867E+03  0.12699999809E+01 0.  1.
       -4    1    3    3    0  502  0.34353921594E+03 -0.21591229573E+02  0.45275561889E+03  0.56874830762E+03  0.12699999809E+01 0. -1.
</event>
<event>
 5   0  0.1226303E-02  0.6985142E+03  0.7818609E-02  0.9719776E-01
       -1   -1    0    0    0  501  0.00000000000E+00  0.00000000000E+00  0.16816075974E+03  0.16816075981E+03  0.50400001928E-02 0. -1.
        1   -1    0    0  501    0  0.00000000000E+00  0.00000000000E+00 -0.72538046606E+03  0.72538046608E+03  0.50400001928E-02 0.  1.
    10030    2    1    2    0    0  0.00000000000E+00  0.00000000000E+00 -0.55721970632E+03  0.89354122589E+03  0.69851422409E+03 0.  0.
        4    1    3    3  502    0 -0.11635569907E+03  0.16905701919E+03 -0.64010625110E+03  0.67220275962E+03  0.12699999809E+01 0.  1.
       -4    1    3    3    0  502  0.11635569907E+03 -0.16905701919E+03  0.82886544780E+02  0.22133846627E+03  0.12699999809E+01 0. -1.
</event>
<event>
 5   0  0.1223742E-02  0.7104889E+03  0.7818609E-02  0.9699461E-01
        1   -1    0    0  501    0  0.00000000000E+00  0.00000000000E+00  0.86272003146E+03  0.86272003148E+03  0.50400001928E-02 0.  1.
       -1   -1    0    0    0  501  0.00000000000E+00  0.00000000000E+00 -0.14627992513E+03  0.14627992522E+03  0.50400001928E-02 0. -1.
    10030    2    1    2    0    0  0.00000000000E+00  0.00000000000E+00  0.71644010633E+03  0.10089999567E+04  0.71048890678E+03 0.  0.
        2    1    3    3  502    0  0.35439341084E+03 -0.24341674862E+02  0.35342195179E+03  0.50109308795E+03  0.25500000920E-02 0. -1.
       -2    1    3    3    0  502 -0.35439341084E+03  0.24341674862E+02  0.36301815454E+03  0.50790686875E+03  0.25500000920E-02 0.  1.
</event>
<event>
 5   0  0.1948138E-02  0.6990040E+03  0.7818609E-02  0.9718937E-01
       -2   -1    0    0    0  501  0.00000000000E+00  0.00000000000E+00  0.12354549042E+03  0.12354549045E+03  0.25500000920E-02 0. -1.
        2   -1    0    0  501    0  0.00000000000E+00  0.00000000000E+00 -0.98871799042E+03  0.98871799042E+03  0.25500000920E-02 0.  1.
    10030    2    1    2    0    0  0.00000000000E+00  0.00000000000E+00 -0.86517250000E+03  0.11122634809E+04  0.69900400294E+03 0.  0.
        3    1    3    3  502    0 -0.63776312439E+02 -0.15361280407E+03 -0.92170554737E+03  0.93659246093E+03  0.10100000352E+00 0.  1.
       -3    1    3    3    0  502  0.63776312439E+02  0.15361280407E+03  0.56533047377E+02  0.17567101994E+03  0.10100000352E+00 0. -1.
</event>
<event>
 5   0  0.1237686E-02  0.7029144E+03  0.7818609E-02  0.9712261E-01
        1   -1    0    0  501    0  0.00000000000E+00  0.00000000000E+00  0.22570972214E+03  0.22570972220E+03  0.50400001928E-02 0.  1.
       -1   -1    0    0    0  501  0.00000000000E+00  0.00000000000E+00 -0.54726109575E+03  0.54726109577E+03  0.50400001928E-02 0. -1.
    10030    2    1    2    0    0  0.00000000000E+00  0.00000000000E+00 -0.32155137360E+03  0.77297081797E+03  0.70291436148E+03 0.  0.
        5    1    3    3  502    0 -0.21688622084E+02  0.13260466204E+02 -0.54621412286E+03  0.54682556113E+03  0.46999998093E+01 0. -1.
       -5    1    3    3    0  502  0.21688622084E+02 -0.13260466204E+02  0.22466274926E+03  0.22614525685E+03  0.46999998093E+01 0.  1.
</event>
<event>
 5   0  0.1948138E-02  0.7094656E+03  0.7818609E-02  0.9701180E-01
       -2   -1    0    0    0  501  0.00000000000E+00  0.00000000000E+00  0.11824966988E+03  0.11824966991E+03  0.25500000920E-02 0. -1.
        2   -1    0    0  501    0  0.00000000000E+00  0.00000000000E+00 -0.10641498682E+04  0.10641498682E+04  0.25500000920E-02 0.  1.
    10030    2    1    2    0    0  0.00000000000E+00  0.00000000000E+00 -0.94590019836E+03  0.11823995382E+04  0.70946563171E+03 0.  0.
        3    1    3    3  502    0 -0.35369685941E+03 -0.26727359400E+02 -0.46558295790E+03  0.58530617713E+03  0.10100000352E+00 0. -1.
       -3    1    3    3    0  502  0.35369685941E+03  0.26727359400E+02 -0.48031724046E+03  0.59709336103E+03  0.10100000352E+00 0.  1.
</event>
<event>
 5   0  0.7947250E-03  0.6978093E+03  0.7818609E-02  0.9720986E-01
        3   -1    0    0  501    0  0.00000000000E+00  0.00000000000E+00  0.30040747501E+03  0.30040749199E+03  0.10100000352E+00 0.  1.
       -3   -1    0    0    0  501  0.00000000000E+00  0.00000000000E+00 -0.40523109380E+03  0.40523110639E+03  0.10100000352E+00 0. -1.
    10030    2    1    2    0    0  0.00000000000E+00  0.00000000000E+00 -0.10482361879E+03  0.70563859838E+03  0.69780931526E+03 0.  0.
        1    1    3    3  502    0  0.27908469261E+03  0.19734481856E+03 -0.12320598567E+03  0.36333587490E+03  0.50400001928E-02 0.  1.
       -1    1    3    3    0  502 -0.27908469261E+03 -0.19734481856E+03  0.18382366877E+02  0.34230272348E+03  0.50400001928E-02 0. -1.
</event>
<event>
 5   0  0.1226303E-02  0.6966335E+03  0.7818609E-02  0.9723007E-01
        1   -1    0    0  501    0  0.00000000000E+00  0.00000000000E+00  0.56547365852E+03  0.56547365855E+03  0.50400001928E-02 0.  1.
       -1   -1    0    0    0  501  0.00000000000E+00  0.00000000000E+00 -0.21455386328E+03  0.21455386334E+03  0.50400001928E-02 0. -1.
    10030    2    1    2    0    0  0.00000000000E+00  0.00000000000E+00  0.35091979524E+03  0.78002752189E+03  0.69663349921E+03 0.  0.
        4    1    3    3  502    0 -0.46390914879E+02  0.99939906885E+02  0.54544375104E+03  0.55646257774E+03  0.12699999809E+01 0.  1.
       -4    1    3    3    0  502  0.46390914879E+02 -0.99939906885E+02 -0.19452395580E+03  0.22356494415E+03  0.12699999809E+01 0. -1.
</event>
<event>
 5   0  0.1237686E-02  0.6967220E+03  0.7818609E-02  0.9722854E-01
       -1   -1    0    0    0  501  0.00000000000E+00  0.00000000000E+00  0.92296913973E+03  0.92296913974E+03  0.50400001928E-02 0. -1.
        1   -1    0    0  501    0  0.00000000000E+00  0.00000000000E+00 -0.13148368998E+03  0.13148369008E+03  0.50400001928E-02 0.  1.
    10030    2    1    2    0    0  0.00000000000E+00  0.00000000000E+00  0.79148544975E+03  0.10544528298E+04  0.69672200565E+03 0.  0.
        5    1    3    3  502    0  0.59718466850E+02  0.11928320748E+03 -0.91245661222E+02  0.16168685649E+03  0.46999998093E+01 0.  1.
       -5    1    3    3    0  502 -0.59718466850E+02 -0.11928320748E+03  0.88273111097E+03  0.89276597333E+03  0.46999998093E+01 0. -1.
</event>
<event>
 5   0  0.1948138E-02  0.7048375E+03  0.7818609E-02  0.9708995E-01
        2   -1    0    0  501    0  0.00000000000E+00  0.00000000000E+00  0.14254576155E+04  0.14254576155E+04  0.25500000920E-02 0. -1.
       -2   -1    0    0    0  501  0.00000000000E+00  0.00000000000E+00 -0.87129201754E+02  0.87129201791E+02  0.25500000920E-02 0.  1.
    10030    2    1    2    0    0  0.00000000000E+00  0.00000000000E+00  0.13383284138E+04  0.15125868173E+04  0.70483752513E+03 0.  0.
        3    1    3    3  502    0  0.24563870686E+03  0.24629482156E+03  0.54777790668E+03  0.64889148452E+03  0.10100000352E+00 0.  1.
       -3    1    3    3    0  502 -0.24563870686E+03 -0.24629482156E+03  0.79055050711E+03  0.86369533282E+03  0.10100000352E+00 0. -1.
</event>
<event>
 5   0  0.1257442E-02  0.6986111E+03  0.7818609E-02  0.9719610E-01
        1   -1    0    0  501    0  0.00000000000E+00  0.00000000000E+00  0.12120992597E+04  0.12120992598E+04  0.50400001928E-02 0.  1.
       -1   -1    0    0    0  501  0.00000000000E+00  0.00000000000E+00 -0.10066366227E+03  0.10066366240E+03  0.50400001928E-02 0. -1.
    10030    2    1    2    0    0  0.00000000000E+00  0.00000000000E+00  0.11114355975E+04  0.13127629221E+04  0.69861105234E+03 0.  0.
        1    1    3    3  502    0 -0.89106610543E+02 -0.11062642250E+03  0.11553733400E+04  0.11640729136E+04  0.50400001928E-02 0.  1.
       -1    1    3    3    0  502  0.89106610543E+02  0.11062642250E+03 -0.43937742525E+02  0.14869000854E+03  0.50400001928E-02 0. -1.
</event>
<event>
 5   0  0.1973067E-02  0.6984605E+03  0.7818609E-02  0.9719869E-01
        2   -1    0    0  501    0  0.00000000000E+00  0.00000000000E+00  0.14940232546E+04  0.14940232546E+04  0.25500000920E-02 0.  1.
       -2   -1    0    0    0  501  0.00000000000E+00  0.00000000000E+00 -0.81633108561E+02  0.81633108600E+02  0.25500000920E-02 0. -1.
    10030    2    1    2    0    0  0.00000000000E+00  0.00000000000E+00  0.14123901460E+04  0.15756563632E+04  0.69846048582E+03 0.  0.
        5    1    3    3  502    0 -0.41142696139E+02  0.93721393279E+02 -0.46961932339E+02  0.11271173005E+03  0.46999998093E+01 0. -1.
       -5    1    3    3    0  502  0.41142696139E+02 -0.93721393279E+02  0.14593520783E+04  0.14629446331E+04  0.46999998093E+01 0.  1.
</event>
<event>
 5   0  0.1223742E-02  0.7002480E+03  0.7818609E-02  0.9716808E-01
        1   -1    0    0  501    0  0.00000000000E+00  0.00000000000E+00  0.40880048141E+03  0.40880048144E+03  0.50400001928E-02 0.  1.
       -1   -1    0    0    0  501  0.00000000000E+00  0.00000000000E+00 -0.29986951130E+03  0.29986951134E+03  0.50400001928E-02 0. -1.
    10030    2    1    2    0    0  0.00000000000E+00  0.00000000000E+00  0.10893097010E+03  0.70866999278E+03  0.70024795781E+03 0.  0.
        2    1    3    3  502    0 -0.31659076525E+03 -0.77134536382E+02 -0.75166278911E+02  0.33440905914E+03  0.25500000920E-02 0. -1.
       -2    1    3    3    0  502  0.31659076525E+03  0.77134536382E+02  0.18409724902E+03  0.37426093364E+03  0.25500000920E-02 0.  1.
</event>
<event>
 5   0  0.1197259E-02  0.6995028E+03  0.7818609E-02  0.9718083E-01
       -1   -1    0    0    0  501  0.00000000000E+00  0.00000000000E+00  0.86648957107E+02  0.86648957253E+02  0.50400001928E-02 0. -1.
        1   -1    0    0  501    0  0.00000000000E+00  0.00000000000E+00 -0.14117429059E+04  0.14117429059E+04  0.50400001928E-02 0.  1.
    10030    2    1    2    0    0  0.00000000000E+00  0.00000000000E+00 -0.13250939488E+04  0.14983918631E+04  0.69950282520E+03 0.  0.
        3    1    3    3  502    0  0.73967489970E+02 -0.16539612422E+03 -0.13033801087E+04  0.13159129095E+04  0.10100000352E+00 0.  1.
       -3    1    3    3    0  502 -0.73967489970E+02  0.16539612422E+03 -0.21713840122E+02  0.18247895367E+03  0.10100000352E+00 0. -1.
</event>
<event>
 5   0  0.7947250E-03  0.7002493E+03  0.7818609E-02  0.9716806E-01
       -3   -1    0    0    0  501  0.00000000000E+00  0.00000000000E+00  0.11294295291E+03  0.11294299807E+03  0.10100000352E+00 0.  1.
        3   -1    0    0  501    0  0.00000000000E+00  0.00000000000E+00 -0.10853906602E+04  0.10853906649E+04  0.10100000352E+00 0. -1.
    10030    2    1    2    0    0  0.00000000000E+00  0.00000000000E+00 -0.97244770727E+03  0.11983336629E+04  0.70024925874E+03 0.  0.
        1    1    3    3  502    0 -0.21898498031E+03  0.27008953654E+03 -0.41598820340E+03  0.54217060483E+03  0.50400001928E-02 0.  1.
       -1    1    3    3    0  502  0.21898498031E+03 -0.27008953654E+03 -0.55645950388E+03  0.65616305811E+03  0.50400001928E-02 0. -1.
</event>
<event>
 5   0  0.1237686E-02  0.7067529E+03  0.7818609E-02  0.9705753E-01
        1   -1    0    0  501    0  0.00000000000E+00  0.00000000000E+00  0.14999792879E+03  0.14999792887E+03  0.50400001928E-02 0.  1.
       -1   -1    0    0    0  501  0.00000000000E+00  0.00000000000E+00 -0.83251083391E+03  0.83251083392E+03  0.50400001928E-02 0. -1.
    10030    2    1    2    0    0  0.00000000000E+00  0.00000000000E+00 -0.68251290512E+03  0.98250876279E+03  0.70675285872E+03 0.  0.
        5    1    3    3  502    0 -0.17743341196E+03  0.30395889921E+03 -0.38475760208E+03  0.52147303904E+03  0.46999998093E+01 0. -1.
       -5    1    3    3    0  502  0.17743341196E+03 -0.30395889921E+03 -0.29775530304E+03  0.46103572375E+03  0.46999998093E+01 0.  1.
</event>
<event>
 5   0  0.2026361E-02  0.7031120E+03  0.7818609E-02  0.9711925E-01
        2   -1    0    0  501    0  0.00000000000E+00  0.00000000000E+00  0.47355632019E+03  0.47355632019E+03  0.25500000920E-02 0.  1.
       -2   -1    0    0    0  501  0.00000000000E+00  0.00000000000E+00 -0.26098609774E+03  0.26098609775E+03  0.25500000920E-02 0. -1.
    10030    2    1    2    0    0  0.00000000000E+00  0.00000000000E+00  0.21257022244E+03  0.73454241795E+03  0.70311198560E+03 0.  0.
        2    1    3    3  502    0 -0.16052081855E+03  0.31163498194E+03  0.78481102882E+02  0.35922496945E+03  0.25500000920E-02 0. -1.
       -2    1    3    3    0  502  0.16052081855E+03 -0.31163498194E+03  0.13408911956E+03  0.37531744850E+03  0.25500000920E-02 0.  1.
</event>
<event>
 5   0  0.1909053E-02  0.6918082E+03  0.7818609E-02  0.9731345E-01
        2   -1    0    0  501    0  0.00000000000E+00  0.00000000000E+00  0.79326361377E+03  0.79326361378E+03  0.25500000920E-02 0. -1.
       -2   -1    0    0    0  501  0.00000000000E+00  0.00000000000E+00 -0.15083215098E+03  0.15083215101E+03  0.25500000920E-02 0.  1.
    10030    2    1    2    0    0  0.00000000000E+00  0.00000000000E+00  0.64243146279E+03  0.94409576478E+03  0.69180823116E+03 0.  0.
        1    1    3    3  502    0  0.25041376447E+03  0.20746261240E+03  0.48211975613E+03  0.58153869025E+03  0.50400001928E-02 0. -1.
       -1    1    3    3    0  502 -0.25041376447E+03 -0.20746261240E+03  0.16031170666E+03  0.36255707453E+03  0.50400001928E-02 0.  1.
</event>
<event>
 5   0  0.1226303E-02  0.6981938E+03  0.7818609E-02  0.9720326E-01
       -1   -1    0    0    0  501  0.00000000000E+00  0.00000000000E+00  0.59498011173E+03  0.59498011175E+03  0.50400001928E-02 0.  1.
        1   -1    0    0  501    0  0.00000000000E+00  0.00000000000E+00 -0.20482807928E+03  0.20482807934E+03  0.50400001928E-02 0. -1.
    10030    2    1    2    0    0  0.00000000000E+00  0.00000000000E+00  0.39015203245E+03  0.79980819110E+03  0.69819376546E+03 0.  0.
        4    1    3    3  502    0 -0.13567255810E+03  0.11724943153E+03  0.53818846702E+03  0.56727675005E+03  0.12699999809E+01 0.  1.
       -4    1    3    3    0  502  0.13567255810E+03 -0.11724943153E+03 -0.14803643457E+03  0.23253144105E+03  0.12699999809E+01 0. -1.
</event>
<event>
 5   0  0.1197259E-02  0.6907808E+03  0.7818609E-02  0.9733129E-01
        1   -1    0    0  501    0  0.00000000000E+00  0.00000000000E+00  0.11107518954E+04  0.11107518954E+04  0.50400001928E-02 0. -1.
       -1   -1    0    0    0  501  0.00000000000E+00  0.00000000000E+00 -0.10739979173E+03  0.10739979185E+03  0.50400001928E-02 0.  1.
    10030    2    1    2    0    0  0.00000000000E+00  0.00000000000E+00  0.10033521037E+04  0.12181516873E+04  0.69078078232E+03 0.  0.
        3    1    3    3  502    0 -0.22723436937E+03 -0.13609584348E+03  0.89257574717E+03  0.93104726618E+03  0.10100000352E+00 0. -1.
       -3    1    3    3    0  502  0.22723436937E+03  0.13609584348E+03  0.11077635650E+03  0.28710442107E+03  0.10100000352E+00 0.  1.
</event>
<event>
 5   0  0.1197259E-02  0.7153527E+03  0.7818609E-02  0.9691331E-01
       -1   -1    0    0    0  501  0.00000000000E+00  0.00000000000E+00  0.10050812198E+03  0.10050812211E+03  0.50400001928E-02 0. -1.
        1   -1    0    0  501    0  0.00000000000E+00  0.00000000000E+00 -0.12728559465E+04  0.12728559465E+04  0.50400001928E-02 0.  1.
    10030    2    1    2    0    0  0.00000000000E+00  0.00000000000E+00 -0.11723478245E+04  0.13733640686E+04  0.71535267058E+03 0.  0.
        3    1    3    3  502    0  0.31644606205E+03 -0.57197559025E+02 -0.88681576597E+03  0.94331960858E+03  0.10100000352E+00 0. -1.
       -3    1    3    3    0  502 -0.31644606205E+03  0.57197559025E+02 -0.28553205849E+03  0.43004445999E+03  0.10100000352E+00 0.  1.
</event>
<event>
 5   0  0.1223742E-02  0.6995889E+03  0.7818609E-02  0.9717935E-01
       -1   -1    0    0    0  501  0.00000000000E+00  0.00000000000E+00  0.98282888531E+02  0.98282888660E+02  0.50400001928E-02 0. -1.
        1   -1    0    0  501    0  0.00000000000E+00  0.00000000000E+00 -0.12449385770E+04  0.12449385770E+04  0.50400001928E-02 0.  1.
    10030    2    1    2    0    0  0.00000000000E+00  0.00000000000E+00 -0.11466556885E+04  0.13432214657E+04  0.69958890639E+03 0.  0.
        2    1    3    3  502    0 -0.29434610923E+02 -0.34826218598E+03 -0.54595748972E+03  0.64824573049E+03  0.25500000920E-02 0. -1.
       -2    1    3    3    0  502  0.29434610923E+02  0.34826218598E+03 -0.60069819875E+03  0.69497573518E+03  0.25500000920E-02 0.  1.
</event>
<event>
 5   0  0.1909053E-02  0.7119505E+03  0.7818609E-02  0.9697011E-01
        2   -1    0    0  501    0  0.00000000000E+00  0.00000000000E+00  0.19465175656E+04  0.19465175656E+04  0.25500000920E-02 0.  1.
       -2   -1    0    0    0  501  0.00000000000E+00  0.00000000000E+00 -0.65100038472E+02  0.65100038522E+02  0.25500000920E-02 0. -1.
    10030    2    1    2    0    0  0.00000000000E+00  0.00000000000E+00  0.18814175272E+04  0.20116176042E+04  0.71195047148E+03 0.  0.
        1    1    3    3  502    0  0.26359111126E+03 -0.57182588625E+02  0.15971030583E+04  0.16197185871E+04  0.50400001928E-02 0.  1.
       -1    1    3    3    0  502 -0.26359111126E+03  0.57182588625E+02  0.28431446885E+03  0.39189901710E+03  0.50400001928E-02 0. -1.
</event>
<event>
 5   0  0.1948138E-02  0.6986771E+03  0.7818609E-02  0.9719497E-01
       -2   -1    0    0    0  501  0.00000000000E+00  0.00000000000E+00  0.24209780466E+03  0.24209780467E+03  0.25500000920E-02 0. -1.
        2   -1    0    0  501    0  0.00000000000E+00  0.00000000000E+00 -0.50408307455E+03  0.50408307456E+03  0.25500000920E-02 0.  1.
    10030    2    1    2    0    0  0.00000000000E+00  0.00000000000E+00 -0.26198526989E+03  0.74618087923E+03  0.69867705193E+03 0.  0.
        3    1    3    3  502    0 -0.33279480857E+03  0.66764924160E+02 -0.21923905293E+03  0.40407389454E+03  0.10100000352E+00 0.  1.
       -3    1    3    3    0  502  0.33279480857E+03 -0.66764924160E+02 -0.42746216953E+02  0.34210698469E+03  0.10100000352E+00 0. -1.
</event>
<event>
 5   0  0.1197259E-02  0.7006853E+03  0.7818609E-02  0.9716061E-01
       -1   -1    0    0    0  501  0.00000000000E+00  0.00000000000E+00  0.17613118860E+03  0.17613118867E+03  0.50400001928E-02 0. -1.
        1   -1    0    0  501    0  0.00000000000E+00  0.00000000000E+00 -0.69686677197E+03  0.69686677199E+03  0.50400001928E-02 0.  1.
    10030    2    1    2    0    0  0.00000000000E+00  0.00000000000E+00 -0.52073558338E+03  0.87299796066E+03  0.70068530134E+03 0.  0.
        3    1    3    3  502    0 -0.13169552312E+03  0.29474911036E+03 -0.90816346876E+02  0.33536303900E+03  0.10100000352E+00 0. -1.
       -3    1    3    3    0  502  0.13169552312E+03 -0.29474911036E+03 -0.42991923650E+03  0.53763492165E+03  0.10100000352E+00 0.  1.
</event>
<event>
 5   0  0.2006362E-02  0.6975005E+03  0.7818609E-02  0.9721516E-01
        2   -1    0    0  501    0  0.00000000000E+00  0.00000000000E+00  0.27685190788E+03  0.27685190789E+03  0.25500000920E-02 0. -1.
       -2   -1    0    0    0  501  0.00000000000E+00  0.00000000000E+00 -0.43932052767E+03  0.43932052768E+03  0.25500000920E-02 0.  1.
    10030    2    1    2    0    0  0.00000000000E+00  0.00000000000E+00 -0.16246861979E+03  0.71617243558E+03  0.69750046958E+03 0.  0.
        4    1    3    3  502    0  0.31817538053E+03 -0.56315232078E+02  0.53496262369E+02  0.32752166513E+03  0.12699999809E+01 0. -1.
       -4    1    3    3    0  502 -0.31817538053E+03  0.56315232078E+02 -0.21596488216E+03  0.38865077045E+03  0.12699999809E+01 0.  1.
</event>
<event>
 5   0  0.1197259E-02  0.6962475E+03  0.7818609E-02  0.9723671E-01
       -1   -1    0    0    0  501  0.00000000000E+00  0.00000000000E+00  0.84359702446E+02  0.84359702597E+02  0.50400001928E-02 0.  1.
        1   -1    0    0  501    0  0.00000000000E+00  0.00000000000E+00 -0.14365880328E+04  0.14365880328E+04  0.50400001928E-02 0. -1.
    10030    2    1    2    0    0  0.00000000000E+00  0.00000000000E+00 -0.13522283303E+04  0.15209477354E+04  0.69624748216E+03 0.  0.
        3    1    3    3  502    0  0.68370995831E+02 -0.30494984092E+03 -0.34108721235E+03  0.46261160295E+03  0.10100000352E+00 0. -1.
       -3    1    3    3    0  502 -0.68370995831E+02  0.30494984092E+03 -0.10111411180E+04  0.10583361324E+04  0.10100000352E+00 0.  1.
</event>
<event>
 5   0  0.1197259E-02  0.7035752E+03  0.7818609E-02  0.9711138E-01
       -1   -1    0    0    0  501  0.00000000000E+00  0.00000000000E+00  0.87294468378E+02  0.87294468523E+02  0.50400001928E-02 0. -1.
        1   -1    0    0  501    0  0.00000000000E+00  0.00000000000E+00 -0.14176674856E+04  0.14176674856E+04  0.50400001928E-02 0.  1.
    10030    2    1    2    0    0  0.00000000000E+00  0.00000000000E+00 -0.13303730172E+04  0.15049619541E+04  0.70357524006E+03 0.  0.
        3    1    3    3  502    0 -0.21278864085E+03 -0.27924086716E+03 -0.61735407383E+03  0.71019752903E+03  0.10100000352E+00 0.  1.
       -3    1    3    3    0  502  0.21278864085E+03  0.27924086716E+03 -0.71301894335E+03  0.79476442506E+03  0.10100000352E+00 0. -1.
</event>
<event>
 5   0  0.1948138E-02  0.6924000E+03  0.7818609E-02  0.9730318E-01
       -2   -1    0    0    0  501  0.00000000000E+00  0.00000000000E+00  0.16920503797E+03  0.16920503799E+03  0.25500000920E-02 0. -1.
        2   -1    0    0  501    0  0.00000000000E+00  0.00000000000E+00 -0.70833839523E+03  0.70833839524E+03  0.25500000920E-02 0.  1.
    10030    2    1    2    0    0  0.00000000000E+00  0.00000000000E+00 -0.53913335727E+03  0.87754343322E+03  0.69239995687E+03 0.  0.
        3    1    3    3  502    0 -0.38822052608E+02  0.31386597973E+03 -0.44806419513E+03  0.54843462524E+03  0.10100000352E+00 0.  1.
       -3    1    3    3    0  502  0.38822052608E+02 -0.31386597973E+03 -0.91069162139E+02  0.32910880799E+03  0.10100000352E+00 0. -1.
</event>
<event>
 5   0  0.1226303E-02  0.6963745E+03  0.7818609E-02  0.9723452E-01
       -1   -1    0    0    0  501  0.00000000000E+00  0.00000000000E+00  0.19646742451E+03  0.19646742457E+03  0.50400001928E-02 0.  1.
        1   -1    0    0  501    0  0.00000000000E+00  0.00000000000E+00 -0.61707102232E+03  0.61707102234E+03  0.50400001928E-02 0. -1.
    10030    2    1    2    0    0  0.00000000000E+00  0.00000000000E+00 -0.42060359781E+03  0.81353844691E+03  0.69637448123E+03 0.  0.
        4    1    3    3  502    0  0.29099069820E+03 -0.19118865636E+03 -0.21265368628E+03  0.40798516143E+03  0.12699999809E+01 0. -1.
       -4    1    3    3    0  502 -0.29099069820E+03  0.19118865636E+03 -0.20794991153E+03  0.40555328548E+03  0.12699999809E+01 0.  1.
</event>
<event>
 5   0  0.1197259E-02  0.6948259E+03  0.7818609E-02  0.9726122E-01
        1   -1    0    0  501    0  0.00000000000E+00  0.00000000000E+00  0.33239519851E+03  0.33239519855E+03  0.50400001928E-02 0.  1.
       -1   -1    0    0    0  501  0.00000000000E+00  0.00000000000E+00 -0.36310919065E+03  0.36310919069E+03  0.50400001928E-02 0. -1.
    10030    2    1    2    0    0  0.00000000000E+00  0.00000000000E+00 -0.30713992141E+02  0.69550438923E+03  0.69482588188E+03 0.  0.
        3    1    3    3  502    0 -0.22746379626E+02 -0.35142766092E+02 -0.36057539457E+03  0.36299729636E+03  0.10100000352E+00 0. -1.
       -3    1    3    3    0  502  0.22746379626E+02  0.35142766092E+02  0.32986140243E+03  0.33250709287E+03  0.10100000352E+00 0.  1.
</event>
<event>
 5   0  0.2026361E-02  0.7047896E+03  0.7818609E-02  0.9709076E-01
       -2   -1    0    0    0  501  0.00000000000E+00  0.00000000000E+00  0.20511134165E+03  0.20511134166E+03  0.25500000920E-02 0. -1.
        2   -1    0    0  501    0  0.00000000000E+00  0.00000000000E+00 -0.60543740816E+03  0.60543740817E+03  0.25500000920E-02 0.  1.
    10030    2    1    2    0    0  0.00000000000E+00  0.00000000000E+00 -0.40032606651E+03  0.81054874983E+03  0.70478955463E+03 0.  0.
        2    1    3    3  502    0 -0.10788599683E+03 -0.29219197749E+03 -0.10607337647E+02  0.31165374318E+03  0.25500000920E-02 0.  1.
       -2    1    3    3    0  502  0.10788599683E+03  0.29219197749E+03 -0.38971872887E+03  0.49889500665E+03  0.25500000920E-02 0. -1.
</event>
<event>
 5   0  0.1226303E-02  0.6962155E+03  0.7818609E-02  0.9723726E-01
        1   -1    0    0  501    0  0.00000000000E+00  0.00000000000E+00  0.14300087188E+04  0.14300087188E+04  0.50400001928E-02 0.  1.
       -1   -1    0    0    0  501  0.00000000000E+00  0.00000000000E+00 -0.84740041189E+02  0.84740041339E+02  0.50400001928E-02 0. -1.
    10030    2    1    2    0    0  0.00000000000E+00  0.00000000000E+00  0.13452686776E+04  0.15147487601E+04  0.69621547771E+03 0.  0.
        4    1    3    3  502    0  0.88295074766E+02  0.43274949806E+02  0.13991604008E+04  0.14026119141E+04  0.12699999809E+01 0.  1.
       -4    1    3    3    0  502 -0.88295074766E+02 -0.43274949806E+02 -0.53891723203E+02  0.11213684603E+03  0.12699999809E+01 0. -1.
</event>
<event>
 5   0  0.1909053E-02  0.6980528E+03  0.7818609E-02  0.9720568E-01
        2   -1    0    0  501    0  0.00000000000E+00  0.00000000000E+00  0.29780660753E+03  0.29780660754E+03  0.25500000920E-02 0. -1.
       -2   -1    0    0    0  501  0.00000000000E+00  0.00000000000E+00 -0.40905545424E+03  0.40905545425E+03  0.25500000920E-02 0.  1.
    10030    2    1    2    0    0  0.00000000000E+00  0.00000000000E+00 -0.11124884671E+03  0.70686206179E+03  0.69805276914E+03 0.  0.
        1    1    3    3  502    0 -0.25862022794E+03  0.89453242053E+02  0.16375005252E+03  0.31890497729E+03  0.50400001928E-02 0. -1.
       -1    1    3    3    0  502  0.25862022794E+03 -0.89453242053E+02 -0.27499889923E+03  0.38795708450E+03  0.50400001928E-02 0.  1.
</event>
<event>
 5   0  0.7947250E-03  0.7181499E+03  0.7818609E-02  0.9686687E-01
       -4   -1    0    0    0  501  0.00000000000E+00  0.00000000000E+00  0.37398473294E+03  0.37398688930E+03  0.12699999809E+01 0. -1.
        4   -1    0    0  501    0  0.00000000000E+00  0.00000000000E+00 -0.34475530702E+03  0.34475764621E+03  0.12699999809E+01 0.  1.
    10030    2    1    2    0    0  0.00000000000E+00  0.00000000000E+00  0.29229425914E+02  0.71874453551E+03  0.71814994812E+03 0.  0.
        4    1    3    3  502    0 -0.19090625564E+02  0.32057797769E+03  0.17536691188E+03  0.36590963153E+03  0.12699999809E+01 0. -1.
       -4    1    3    3    0  502  0.19090625564E+02 -0.32057797769E+03 -0.14613748597E+03  0.35283490398E+03  0.12699999809E+01 0.  1.
</event>
<event>
 5   0  0.1226303E-02  0.7022859E+03  0.7818609E-02  0.9713331E-01
       -1   -1    0    0    0  501  0.00000000000E+00  0.00000000000E+00  0.21061045457E+03  0.21061045463E+03  0.50400001928E-02 0.  1.
        1   -1    0    0  501    0  0.00000000000E+00  0.00000000000E+00 -0.58544756216E+03  0.58544756218E+03  0.50400001928E-02 0. -1.
    10030    2    1    2    0    0  0.00000000000E+00  0.00000000000E+00 -0.37483710759E+03  0.79605801682E+03  0.70228591678E+03 0.  0.
        4    1    3    3  502    0 -0.28690622623E+03  0.50851421623E+02  0.34702182374E+02  0.29343977933E+03  0.12699999809E+01 0.  1.
       -4    1    3    3    0  502  0.28690622623E+03 -0.50851421623E+02 -0.40953928996E+03  0.50261823749E+03  0.12699999809E+01 0. -1.
</event>
<event>
 5   0  0.1948138E-02  0.7009357E+03  0.7818609E-02  0.9715633E-01
        2   -1    0    0  501    0  0.00000000000E+00  0.00000000000E+00  0.19346812300E+03  0.19346812301E+03  0.25500000920E-02 0.  1.
       -2   -1    0    0    0  501  0.00000000000E+00  0.00000000000E+00 -0.63487321912E+03  0.63487321912E+03  0.25500000920E-02 0. -1.
    10030    2    1    2    0    0  0.00000000000E+00  0.00000000000E+00 -0.44140509612E+03  0.82834134213E+03  0.70093574613E+03 0.  0.
        3    1    3    3  502    0 -0.26035771777E+02 -0.21145753961E+01  0.19231610278E+03  0.19408200955E+03  0.10100000352E+00 0.  1.
       -3    1    3    3    0  502  0.26035771777E+02  0.21145753961E+01 -0.63372119890E+03  0.63425933259E+03  0.10100000352E+00 0. -1.
</event>
<event>
 5   0  0.1197259E-02  0.7145757E+03  0.7818609E-02  0.9692626E-01
        1   -1    0    0  501    0  0.00000000000E+00  0.00000000000E+00  0.19728937693E+03  0.19728937700E+03  0.50400001928E-02 0. -1.
       -1   -1    0    0    0  501  0.00000000000E+00  0.00000000000E+00 -0.64704240389E+03  0.64704240391E+03  0.50400001928E-02 0.  1.
    10030    2    1    2    0    0  0.00000000000E+00  0.00000000000E+00 -0.44975302695E+03  0.84433178090E+03  0.71457565799E+03 0.  0.
        3    1    3    3  502    0 -0.30687301469E+02  0.11410003237E+03  0.17353675755E+03  0.20994176402E+03  0.10100000352E+00 0. -1.
       -3    1    3    3    0  502  0.30687301469E+02 -0.11410003237E+03 -0.62328978450E+03  0.63439001688E+03  0.10100000352E+00 0.  1.
</event>
<event>
 5   0  0.2026361E-02  0.7041440E+03  0.7818609E-02  0.9710172E-01
       -2   -1    0    0    0  501  0.00000000000E+00  0.00000000000E+00  0.97677324966E+02  0.97677325000E+02  0.25500000920E-02 0. -1.
        2   -1    0    0  501    0  0.00000000000E+00  0.00000000000E+00 -0.12690220864E+04  0.12690220864E+04  0.25500000920E-02 0.  1.
    10030    2    1    2    0    0  0.00000000000E+00  0.00000000000E+00 -0.11713447614E+04  0.13666994114E+04  0.70414397036E+03 0.  0.
        2    1    3    3  502    0  0.25530318534E+03 -0.11997176469E+02 -0.10556479899E+04  0.10861474704E+04  0.25500000920E-02 0.  1.
       -2    1    3    3    0  502 -0.25530318534E+03  0.11997176469E+02 -0.11569677151E+03  0.28055194106E+03  0.25500000920E-02 0. -1.
</event>
<event>
 5   0  0.1948138E-02  0.7120945E+03  0.7818609E-02  0.9696770E-01
       -2   -1    0    0    0  501  0.00000000000E+00  0.00000000000E+00  0.63892306726E+02  0.63892306777E+02  0.25500000920E-02 0. -1.
        2   -1    0    0  501    0  0.00000000000E+00  0.00000000000E+00 -0.19841141725E+04  0.19841141725E+04  0.25500000920E-02 0.  1.
    10030    2    1    2    0    0  0.00000000000E+00  0.00000000000E+00 -0.19202218658E+04  0.20480064793E+04  0.71209446380E+03 0.  0.
        3    1    3    3  502    0 -0.14393635690E+03 -0.71763566659E+02 -0.46537486103E+02  0.16743187316E+03  0.10100000352E+00 0. -1.
       -3    1    3    3    0  502  0.14393635690E+03  0.71763566659E+02 -0.18736843797E+04  0.18805746061E+04  0.10100000352E+00 0.  1.
</event>
<event>
 5   0  0.2026361E-02  0.6944180E+03  0.7818609E-02  0.9726826E-01
       -2   -1    0    0    0  501  0.00000000000E+00  0.00000000000E+00  0.22850589884E+03  0.22850589885E+03  0.25500000920E-02 0. -1.
        2   -1    0    0  501    0  0.00000000000E+00  0.00000000000E+00 -0.52757537818E+03  0.52757537819E+03  0.25500000920E-02 0.  1.
    10030    2    1    2    0    0  0.00000000000E+00  0.00000000000E+00 -0.29906947935E+03  0.75608127704E+03  0.69441798941E+03 0.  0.
        2    1    3    3  502    0 -0.21785025881E+03  0.11650918863E+03 -0.41516801861E+03  0.48311241961E+03  0.25500000920E-02 0.  1.
       -2    1    3    3    0  502  0.21785025881E+03 -0.11650918863E+03  0.11609853927E+03  0.27296885743E+03  0.25500000920E-02 0. -1.
</event>
<event>
 5   0  0.2026361E-02  0.6369871E+03  0.7818609E-02  0.9831508E-01
        2   -1    0    0  501    0  0.00000000000E+00  0.00000000000E+00  0.77330031538E+03  0.77330031539E+03  0.25500000920E-02 0. -1.
       -2   -1    0    0    0  501  0.00000000000E+00  0.00000000000E+00 -0.13117560598E+03  0.13117560600E+03  0.25500000920E-02 0.  1.
    10030    2    1    2    0    0  0.00000000000E+00  0.00000000000E+00  0.64212470941E+03  0.90447592139E+03  0.63698708774E+03 0.  0.
        2    1    3    3  502    0 -0.12402687107E+03 -0.22899525257E+03  0.58140395968E+03  0.63706518881E+03  0.25500000920E-02 0. -1.
       -2    1    3    3    0  502  0.12402687107E+03  0.22899525257E+03  0.60720749724E+02  0.26741073258E+03  0.25500000920E-02 0.  1.
</event>
<event>
 5   0  0.1237686E-02  0.6933908E+03  0.7818609E-02  0.9728602E-01
       -1   -1    0    0    0  501  0.00000000000E+00  0.00000000000E+00  0.31879387716E+03  0.31879387720E+03  0.50400001928E-02 0. -1.
        1   -1    0    0  501    0  0.00000000000E+00  0.00000000000E+00 -0.37703888291E+03  0.37703888294E+03  0.50400001928E-02 0.  1.
    10030    2    1    2    0    0  0.00000000000E+00  0.00000000000E+00 -0.58245005750E+02  0.69583276014E+03  0.69339076241E+03 0.  0.
        5    1    3    3  502    0 -0.30816209103E+03 -0.79846566125E+01 -0.18826210647E+03  0.36123723482E+03  0.46999998093E+01 0.  1.
       -5    1    3    3    0  502  0.30816209103E+03  0.79846566125E+01  0.13001710072E+03  0.33459552532E+03  0.46999998093E+01 0. -1.
</event>
<event>
 5   0  0.1226303E-02  0.7155665E+03  0.7818609E-02  0.9690976E-01
        1   -1    0    0  501    0  0.00000000000E+00  0.00000000000E+00  0.11422796606E+04  0.11422796607E+04  0.50400001928E-02 0.  1.
       -1   -1    0    0    0  501  0.00000000000E+00  0.00000000000E+00 -0.11206436887E+03  0.11206436899E+03  0.50400001928E-02 0. -1.
    10030    2    1    2    0    0  0.00000000000E+00  0.00000000000E+00  0.10302152918E+04  0.12543440296E+04  0.71556648699E+03 0.  0.
        4    1    3    3  502    0 -0.32495868649E+03 -0.13739402752E+03  0.61928544050E+03  0.71273510958E+03  0.12699999809E+01 0. -1.
       -4    1    3    3    0  502  0.32495868649E+03  0.13739402752E+03  0.41092985128E+03  0.54160892006E+03  0.12699999809E+01 0.  1.
</event>
<event>
 5   0  0.2026361E-02  0.7011122E+03  0.7818609E-02  0.9715332E-01
        2   -1    0    0  501    0  0.00000000000E+00  0.00000000000E+00  0.14548075200E+04  0.14548075200E+04  0.25500000920E-02 0. -1.
       -2   -1    0    0    0  501  0.00000000000E+00  0.00000000000E+00 -0.84471374163E+02  0.84471374202E+02  0.25500000920E-02 0.  1.
    10030    2    1    2    0    0  0.00000000000E+00  0.00000000000E+00  0.13703361459E+04  0.15392788942E+04  0.70111223179E+03 0.  0.
        2    1    3    3  502    0 -0.43521241314E+02 -0.33141901963E+03  0.91706875960E+03  0.97608799545E+03  0.25500000920E-02 0. -1.
       -2    1    3    3    0  502  0.43521241314E+02  0.33141901963E+03  0.45326738627E+03  0.56319089879E+03  0.25500000920E-02 0.  1.
</event>
<event>
 5   0  0.2026361E-02  0.7033107E+03  0.7818609E-02  0.9711587E-01
        2   -1    0    0  501    0  0.00000000000E+00  0.00000000000E+00  0.72808761586E+03  0.72808761586E+03  0.25500000920E-02 0. -1.
       -2   -1    0    0    0  501  0.00000000000E+00  0.00000000000E+00 -0.16984425636E+03  0.16984425638E+03  0.25500000920E-02 0.  1.
    10030    2    1    2    0    0  0.00000000000E+00  0.00000000000E+00  0.55824335950E+03  0.89793187225E+03  0.70331074126E+03 0.  0.
        2    1    3    3  502    0 -0.18002564597E+03  0.27466235042E+03  0.11857499333E+03  0.34915421950E+03  0.25500000920E-02 0.  1.
       -2    1    3    3    0  502  0.18002564597E+03 -0.27466235042E+03  0.43966836617E+03  0.54877765275E+03  0.25500000920E-02 0. -1.
</event>
<event>
 5   0  0.7947250E-03  0.6891770E+03  0.7818609E-02  0.9735922E-01
       -3   -1    0    0    0  501  0.00000000000E+00  0.00000000000E+00  0.45125435965E+03  0.45125437096E+03  0.10100000352E+00 0. -1.
        3   -1    0    0  501    0  0.00000000000E+00  0.00000000000E+00 -0.26313588221E+03  0.26313590160E+03  0.10100000352E+00 0.  1.
    10030    2    1    2    0    0  0.00000000000E+00  0.00000000000E+00  0.18811847744E+03  0.71439027255E+03  0.68917697289E+03 0.  0.
        2    1    3    3  502    0 -0.15776590899E+03 -0.30624208961E+03  0.10253933095E+03  0.35942817626E+03  0.25500000920E-02 0. -1.
       -2    1    3    3    0  502  0.15776590899E+03  0.30624208961E+03  0.85579146491E+02  0.35496209630E+03  0.25500000920E-02 0.  1.
</event>
<event>
 5   0  0.1948138E-02  0.7006718E+03  0.7818609E-02  0.9716084E-01
        2   -1    0    0  501    0  0.00000000000E+00  0.00000000000E+00  0.63717777223E+03  0.63717777223E+03  0.25500000920E-02 0.  1.
       -2   -1    0    0    0  501  0.00000000000E+00  0.00000000000E+00 -0.19262326064E+03  0.19262326066E+03  0.25500000920E-02 0. -1.
    10030    2    1    2    0    0  0.00000000000E+00  0.00000000000E+00  0.44455451159E+03  0.82980103289E+03  0.70067184930E+03 0.  0.
        3    1    3    3  502    0 -0.27361470747E+03  0.21876040055E+03  0.21782568224E+03  0.41251564702E+03  0.10100000352E+00 0. -1.
       -3    1    3    3    0  502  0.27361470747E+03 -0.21876040055E+03  0.22672882935E+03  0.41728538586E+03  0.10100000352E+00 0.  1.
</event>
<event>
 5   0  0.7947250E-03  0.7001260E+03  0.7818609E-02  0.9717017E-01
       -4   -1    0    0    0  501  0.00000000000E+00  0.00000000000E+00  0.43998959357E+03  0.43999142645E+03  0.12699999809E+01 0. -1.
        4   -1    0    0  501    0  0.00000000000E+00  0.00000000000E+00 -0.27851203478E+03  0.27851493033E+03  0.12699999809E+01 0.  1.
    10030    2    1    2    0    0  0.00000000000E+00  0.00000000000E+00  0.16147755879E+03  0.71850635678E+03  0.70012597634E+03 0.  0.
        2    1    3    3  502    0 -0.14229379187E+03 -0.16295135295E+03  0.36317923589E+03  0.42272901961E+03  0.25500000920E-02 0. -1.
       -2    1    3    3    0  502  0.14229379187E+03  0.16295135295E+03 -0.20170167710E+03  0.29577733717E+03  0.25500000920E-02 0.  1.
</event>
<event>
 5   0  0.1226303E-02  0.7004098E+03  0.7818609E-02  0.9716532E-01
       -1   -1    0    0    0  501  0.00000000000E+00  0.00000000000E+00  0.17753132323E+03  0.17753132330E+03  0.50400001928E-02 0. -1.
        1   -1    0    0  501    0  0.00000000000E+00  0.00000000000E+00 -0.69082730819E+03  0.69082730820E+03  0.50400001928E-02 0.  1.
    10030    2    1    2    0    0  0.00000000000E+00  0.00000000000E+00 -0.51329598496E+03  0.86835863151E+03  0.70040984055E+03 0.  0.
        4    1    3    3  502    0 -0.12964153657E+03 -0.28746062550E+03 -0.67803916726E+02  0.32255158229E+03  0.12699999809E+01 0. -1.
       -4    1    3    3    0  502  0.12964153657E+03  0.28746062550E+03 -0.44549206823E+03  0.54580704921E+03  0.12699999809E+01 0.  1.
</event>
<event>
 5   0  0.2026361E-02  0.7052308E+03  0.7818609E-02  0.9708328E-01
       -2   -1    0    0    0  501  0.00000000000E+00  0.00000000000E+00  0.49704215833E+02  0.49704215898E+02  0.25500000920E-02 0. -1.
        2   -1    0    0  501    0  0.00000000000E+00  0.00000000000E+00 -0.25015506963E+04  0.25015506963E+04  0.25500000920E-02 0.  1.
    10030    2    1    2    0    0  0.00000000000E+00  0.00000000000E+00 -0.24518464805E+04  0.25512549122E+04  0.70523078722E+03 0.  0.
        2    1    3    3  502    0  0.30630096597E+03  0.80534933397E+02 -0.66511723473E+03  0.73667298932E+03  0.25500000920E-02 0. -1.
       -2    1    3    3    0  502 -0.30630096597E+03 -0.80534933397E+02 -0.17867292457E+04  0.18145819229E+04  0.25500000920E-02 0.  1.
</event>
<event>
 5   0  0.1973067E-02  0.7034037E+03  0.7818609E-02  0.9711429E-01
        2   -1    0    0  501    0  0.00000000000E+00  0.00000000000E+00  0.27988987753E+03  0.27988987754E+03  0.25500000920E-02 0.  1.
       -2   -1    0    0    0  501  0.00000000000E+00  0.00000000000E+00 -0.44193876951E+03  0.44193876952E+03  0.25500000920E-02 0. -1.
    10030    2    1    2    0    0  0.00000000000E+00  0.00000000000E+00 -0.16204889199E+03  0.72182864706E+03  0.70340369086E+03 0.  0.
        5    1    3    3  502    0  0.16250284252E+03  0.16513804145E+03  0.19047001161E+03  0.29996443436E+03  0.46999998093E+01 0.  1.
       -5    1    3    3    0  502 -0.16250284252E+03 -0.16513804145E+03 -0.35251890360E+03  0.42186421270E+03  0.46999998093E+01 0. -1.
</event>
<event>
 5   0  0.7947250E-03  0.6985415E+03  0.7818609E-02  0.9719730E-01
       -4   -1    0    0    0  501  0.00000000000E+00  0.00000000000E+00  0.21225432300E+03  0.21225812242E+03  0.12699999809E+01 0.  1.
        4   -1    0    0  501    0  0.00000000000E+00  0.00000000000E+00 -0.57472572042E+03  0.57472712361E+03  0.12699999809E+01 0. -1.
    10030    2    1    2    0    0  0.00000000000E+00  0.00000000000E+00 -0.36247139741E+03  0.78698524603E+03  0.69854152599E+03 0.  0.
        2    1    3    3  502    0 -0.18243361096E+03 -0.26435485724E+03 -0.33580978828E+03  0.46468669753E+03  0.25500000920E-02 0. -1.
       -2    1    3    3    0  502  0.18243361096E+03  0.26435485724E+03 -0.26661609136E+02  0.32229854850E+03  0.25500000920E-02 0.  1.
</event>
<event>
 5   0  0.1237686E-02  0.7014648E+03  0.7818609E-02  0.9714731E-01
        1   -1    0    0  501    0  0.00000000000E+00  0.00000000000E+00  0.21024169847E+04  0.21024169847E+04  0.50400001928E-02 0.  1.
       -1   -1    0    0    0  501  0.00000000000E+00  0.00000000000E+00 -0.58510372786E+02  0.58510373003E+02  0.50400001928E-02 0. -1.
    10030    2    1    2    0    0  0.00000000000E+00  0.00000000000E+00  0.20439066119E+04  0.21609273577E+04  0.70146475825E+03 0.  0.
        5    1    3    3  502    0 -0.72456558868E+02 -0.33200861335E+03  0.75496275113E+03  0.82793146930E+03  0.46999998093E+01 0. -1.
       -5    1    3    3    0  502  0.72456558868E+02  0.33200861335E+03  0.12889438607E+04  0.13329958884E+04  0.46999998093E+01 0.  1.
</event>
<event>
 5   0  0.2006362E-02  0.6996020E+03  0.7818609E-02  0.9717913E-01
        2   -1    0    0  501    0  0.00000000000E+00  0.00000000000E+00  0.10782425643E+04  0.10782425643E+04  0.25500000920E-02 0. -1.
       -2   -1    0    0    0  501  0.00000000000E+00  0.00000000000E+00 -0.11348163454E+03  0.11348163457E+03  0.25500000920E-02 0.  1.
    10030    2    1    2    0    0  0.00000000000E+00  0.00000000000E+00  0.96476092979E+03  0.11917241989E+04  0.69960196870E+03 0.  0.
        4    1    3    3  502    0  0.24343806196E+03  0.15589305946E+03  0.14686762768E+03  0.32424751187E+03  0.12699999809E+01 0.  1.
       -4    1    3    3    0  502 -0.24343806196E+03 -0.15589305946E+03  0.81789330211E+03  0.86747668703E+03  0.12699999809E+01 0. -1.
</event>
<event>
 5   0  0.1197259E-02  0.7004430E+03  0.7818609E-02  0.9716475E-01
       -1   -1    0    0    0  501  0.00000000000E+00  0.00000000000E+00  0.34123599685E+03  0.34123599688E+03  0.50400001928E-02 0.  1.
        1   -1    0    0  501    0  0.00000000000E+00  0.00000000000E+00 -0.35944356263E+03  0.35944356267E+03  0.50400001928E-02 0. -1.
    10030    2    1    2    0    0  0.00000000000E+00  0.00000000000E+00 -0.18207565785E+02  0.70067955955E+03  0.70044295251E+03 0.  0.
        3    1    3    3  502    0  0.87373147116E+02 -0.12517029984E+03  0.30620643767E+03  0.34214626035E+03  0.10100000352E+00 0.  1.
       -3    1    3    3    0  502 -0.87373147116E+02  0.12517029984E+03 -0.32441400345E+03  0.35853329920E+03  0.10100000352E+00 0. -1.
</event>
<event>
 5   0  0.1223742E-02  0.6985247E+03  0.7818609E-02  0.9719758E-01
        1   -1    0    0  501    0  0.00000000000E+00  0.00000000000E+00  0.20856089246E+03  0.20856089252E+03  0.50400001928E-02 0. -1.
       -1   -1    0    0    0  501  0.00000000000E+00  0.00000000000E+00 -0.58488527387E+03  0.58488527389E+03  0.50400001928E-02 0.  1.
    10030    2    1    2    0    0  0.00000000000E+00  0.00000000000E+00 -0.37632438142E+03  0.79344616641E+03  0.69852471606E+03 0.  0.
        2    1    3    3  502    0 -0.26184514139E+02  0.34806580450E+03 -0.17430799774E+03  0.39015216407E+03  0.25500000920E-02 0. -1.
       -2    1    3    3    0  502  0.26184514139E+02 -0.34806580450E+03 -0.20201638368E+03  0.40329400234E+03  0.25500000920E-02 0.  1.
</event>
<event>
 5   0  0.2026361E-02  0.6869153E+03  0.7818609E-02  0.9739874E-01
       -2   -1    0    0    0  501  0.00000000000E+00  0.00000000000E+00  0.12223787429E+03  0.12223787432E+03  0.25500000920E-02 0. -1.
        2   -1    0    0  501    0  0.00000000000E+00  0.00000000000E+00 -0.96502956571E+03  0.96502956572E+03  0.25500000920E-02 0.  1.
    10030    2    1    2    0    0  0.00000000000E+00  0.00000000000E+00 -0.84279169142E+03  0.10872674400E+04  0.68691531577E+03 0.  0.
        2    1    3    3  502    0 -0.27294420772E+03 -0.83064109770E+02 -0.72406337294E+03  0.77824543358E+03  0.25500000920E-02 0.  1.
       -2    1    3    3    0  502  0.27294420772E+03  0.83064109770E+02 -0.11872831848E+03  0.30902200645E+03  0.25500000920E-02 0. -1.
</event>
<event>
 5   0  0.1948138E-02  0.7045245E+03  0.7818609E-02  0.9709526E-01
       -2   -1    0    0    0  501  0.00000000000E+00  0.00000000000E+00  0.15164700892E+03  0.15164700894E+03  0.25500000920E-02 0.  1.
        2   -1    0    0  501    0  0.00000000000E+00  0.00000000000E+00 -0.81827318120E+03  0.81827318121E+03  0.25500000920E-02 0. -1.
    10030    2    1    2    0    0  0.00000000000E+00  0.00000000000E+00 -0.66662617228E+03  0.96992019015E+03  0.70452446493E+03 0.  0.
        3    1    3    3  502    0  0.16809290760E+03  0.26702865128E+03 -0.11769702024E+03  0.33676716729E+03  0.10100000352E+00 0. -1.
       -3    1    3    3    0  502 -0.16809290760E+03 -0.26702865128E+03 -0.54892915204E+03  0.63315302286E+03  0.10100000352E+00 0.  1.
</event>
<event>
 5   0  0.1226303E-02  0.7038423E+03  0.7818609E-02  0.9710684E-01
        1   -1    0    0  501    0  0.00000000000E+00  0.00000000000E+00  0.99993269841E+02  0.99993269968E+02  0.50400001928E-02 0.  1.
       -1   -1    0    0    0  501  0.00000000000E+00  0.00000000000E+00 -0.12385682126E+04  0.12385682126E+04  0.50400001928E-02 0. -1.
    10030    2    1    2    0    0  0.00000000000E+00  0.00000000000E+00 -0.11385749428E+04  0.13385614826E+04  0.70384227095E+03 0.  0.
        4    1    3    3  502    0  0.12730945578E+02  0.67706151340E+02  0.87039248708E+02  0.11101190756E+03  0.12699999809E+01 0.  1.
       -4    1    3    3    0  502 -0.12730945578E+02 -0.67706151340E+02 -0.12256141915E+04  0.12275495750E+04  0.12699999809E+01 0. -1.
</event>
<event>
 5   0  0.1948138E-02  0.7146000E+03  0.7818609E-02  0.9692585E-01
       -2   -1    0    0    0  501  0.00000000000E+00  0.00000000000E+00  0.35342178745E+03  0.35342178746E+03  0.25500000920E-02 0.  1.
        2   -1    0    0  501    0  0.00000000000E+00  0.00000000000E+00 -0.36122078233E+03  0.36122078234E+03  0.25500000920E-02 0. -1.
    10030    2    1    2    0    0  0.00000000000E+00  0.00000000000E+00 -0.77989948791E+01  0.71464256980E+03  0.71460001277E+03 0.  0.
        3    1    3    3  502    0  0.90765856782E+02  0.36919833672E+02  0.33972214321E+03  0.35357129361E+03  0.10100000352E+00 0.  1.
       -3    1    3    3    0  502 -0.90765856782E+02 -0.36919833672E+02 -0.34752113809E+03  0.36107127620E+03  0.10100000352E+00 0. -1.
</event>
<event>
 5   0  0.7947250E-03  0.6996580E+03  0.7818609E-02  0.9717817E-01
       -3   -1    0    0    0  501  0.00000000000E+00  0.00000000000E+00  0.15149356398E+03  0.15149359765E+03  0.10100000352E+00 0. -1.
        3   -1    0    0  501    0  0.00000000000E+00  0.00000000000E+00 -0.80782509745E+03  0.80782510377E+03  0.10100000352E+00 0.  1.
    10030    2    1    2    0    0  0.00000000000E+00  0.00000000000E+00 -0.65633153347E+03  0.95931870142E+03  0.69965798006E+03 0.  0.
        3    1    3    3  502    0 -0.25525470577E+03  0.52854127281E+02 -0.82737358623E+01  0.26080066813E+03  0.10100000352E+00 0. -1.
       -3    1    3    3    0  502  0.25525470577E+03 -0.52854127281E+02 -0.64805779761E+03  0.69851803329E+03  0.10100000352E+00 0.  1.
</event>
<event>
 5   0  0.1197259E-02  0.6955670E+03  0.7818609E-02  0.9724843E-01
       -1   -1    0    0    0  501  0.00000000000E+00  0.00000000000E+00  0.62282204411E+02  0.62282204615E+02  0.50400001928E-02 0.  1.
        1   -1    0    0  501    0  0.00000000000E+00  0.00000000000E+00 -0.19420211976E+04  0.19420211977E+04  0.50400001928E-02 0. -1.
    10030    2    1    2    0    0  0.00000000000E+00  0.00000000000E+00 -0.18797389932E+04  0.20043034023E+04  0.69556699580E+03 0.  0.
        3    1    3    3  502    0 -0.34708671584E+03 -0.66064288018E+01 -0.10003487368E+04  0.10588722485E+04  0.10100000352E+00 0.  1.
       -3    1    3    3    0  502  0.34708671584E+03  0.66064288018E+01 -0.87939025641E+03  0.94543115375E+03  0.10100000352E+00 0. -1.
</event>
<event>
 5   0  0.2026361E-02  0.7005533E+03  0.7818609E-02  0.9716286E-01
       -2   -1    0    0    0  501  0.00000000000E+00  0.00000000000E+00  0.21157225841E+03  0.21157225843E+03  0.25500000920E-02 0.  1.
        2   -1    0    0  501    0  0.00000000000E+00  0.00000000000E+00 -0.57991406971E+03  0.57991406971E+03  0.25500000920E-02 0. -1.
    10030    2    1    2    0    0  0.00000000000E+00  0.00000000000E+00 -0.36834181130E+03  0.79148632814E+03  0.70055329396E+03 0.  0.
        2    1    3    3  502    0 -0.47825004402E+02  0.33449227966E+03 -0.79877211523E+02  0.34720697736E+03  0.25500000920E-02 0.  1.
       -2    1    3    3    0  502  0.47825004402E+02 -0.33449227966E+03 -0.28846459978E+03  0.44427935078E+03  0.25500000920E-02 0. -1.
</event>
<event>
 5   0  0.1948138E-02  0.6975425E+03  0.7818609E-02  0.9721444E-01
       -2   -1    0    0    0  501  0.00000000000E+00  0.00000000000E+00  0.13995269780E+03  0.13995269782E+03  0.25500000920E-02 0. -1.
        2   -1    0    0  501    0  0.00000000000E+00  0.00000000000E+00 -0.86916081836E+03  0.86916081837E+03  0.25500000920E-02 0.  1.
    10030    2    1    2    0    0  0.00000000000E+00  0.00000000000E+00 -0.72920812056E+03  0.10091135162E+04  0.69754254742E+03 0.  0.
        3    1    3    3  502    0 -0.29065360912E+03 -0.12952813067E+03 -0.15805768215E+03  0.35530170028E+03  0.10100000352E+00 0. -1.
       -3    1    3    3    0  502  0.29065360912E+03  0.12952813067E+03 -0.57115043841E+03  0.65381181591E+03  0.10100000352E+00 0.  1.
</event>
<event>
 5   0  0.1909053E-02  0.7037926E+03  0.7818609E-02  0.9710768E-01
        2   -1    0    0  501    0  0.00000000000E+00  0.00000000000E+00  0.16203904885E+04  0.16203904885E+04  0.25500000920E-02 0.  1.
       -2   -1    0    0    0  501  0.00000000000E+00  0.00000000000E+00 -0.76420477166E+02  0.76420477208E+02  0.25500000920E-02 0. -1.
    10030    2    1    2    0    0  0.00000000000E+00  0.00000000000E+00  0.15439700114E+04  0.16968109658E+04  0.70379262391E+03 0.  0.
        1    1    3    3  502    0  0.19078757044E+03 -0.18805710858E+03  0.13221137810E+04  0.13489811796E+04  0.50400001928E-02 0.  1.
       -1    1    3    3    0  502 -0.19078757044E+03  0.18805710858E+03  0.22185623040E+03  0.34782978612E+03  0.50400001928E-02 0. -1.
</event>
<event>
 5   0  0.1226303E-02  0.7053036E+03  0.7818609E-02  0.9708205E-01
       -1   -1    0    0    0  501  0.00000000000E+00  0.00000000000E+00  0.12260214661E+03  0.12260214672E+03  0.50400001928E-02 0. -1.
        1   -1    0    0  501    0  0.00000000000E+00  0.00000000000E+00 -0.10143646507E+04  0.10143646507E+04  0.50400001928E-02 0.  1.
    10030    2    1    2    0    0  0.00000000000E+00  0.00000000000E+00 -0.89176250411E+03  0.11369667974E+04  0.70530357632E+03 0.  0.
        4    1    3    3  502    0 -0.32635662933E+03  0.10305751927E+03 -0.30879118795E+03  0.46095890538E+03  0.12699999809E+01 0. -1.
       -4    1    3    3    0  502  0.32635662933E+03 -0.10305751927E+03 -0.58297131615E+03  0.67600789207E+03  0.12699999809E+01 0.  1.
</event>
<event>
 5   0  0.1948138E-02  0.7028424E+03  0.7818609E-02  0.9712384E-01
       -2   -1    0    0    0  501  0.00000000000E+00  0.00000000000E+00  0.20263357381E+03  0.20263357383E+03  0.25500000920E-02 0.  1.
        2   -1    0    0  501    0  0.00000000000E+00  0.00000000000E+00 -0.60945910544E+03  0.60945910545E+03  0.25500000920E-02 0. -1.
    10030    2    1    2    0    0  0.00000000000E+00  0.00000000000E+00 -0.40682553163E+03  0.81209267927E+03  0.70284244788E+03 0.  0.
        3    1    3    3  502    0  0.10717473235E+03  0.19088680046E+03 -0.52104897433E+03  0.56516921156E+03  0.10100000352E+00 0. -1.
       -3    1    3    3    0  502 -0.10717473235E+03 -0.19088680046E+03  0.11422344270E+03  0.24692346771E+03  0.10100000352E+00 0.  1.
</event>
<event>
 5   0  0.1226303E-02  0.6996619E+03  0.7818609E-02  0.9717811E-01
       -1   -1    0    0    0  501  0.00000000000E+00  0.00000000000E+00  0.73432643392E+02  0.73432643565E+02  0.50400001928E-02 0. -1.
        1   -1    0    0  501    0  0.00000000000E+00  0.00000000000E+00 -0.16665844590E+04  0.16665844591E+04  0.50400001928E-02 0.  1.
    10030    2    1    2    0    0  0.00000000000E+00  0.00000000000E+00 -0.15931518157E+04  0.17400171026E+04  0.69966192528E+03 0.  0.
        4    1    3    3  502    0  0.10374371132E+03  0.22591635817E+03 -0.18446968349E+03  0.30956685150E+03  0.12699999809E+01 0. -1.
       -4    1    3    3    0  502 -0.10374371132E+03 -0.22591635817E+03 -0.14086821322E+04  0.14304502511E+04  0.12699999809E+01 0.  1.
</event>
<event>
 5   0  0.1973067E-02  0.7039467E+03  0.7818609E-02  0.9710507E-01
        2   -1    0    0  501    0  0.00000000000E+00  0.00000000000E+00  0.54512760635E+03  0.54512760636E+03  0.25500000920E-02 0. -1.
       -2   -1    0    0    0  501  0.00000000000E+00  0.00000000000E+00 -0.22725914948E+03  0.22725914950E+03  0.25500000920E-02 0.  1.
    10030    2    1    2    0    0  0.00000000000E+00  0.00000000000E+00  0.31786845687E+03  0.77238675586E+03  0.70394669170E+03 0.  0.
        5    1    3    3  502    0  0.21393095503E+03 -0.67957042195E+02 -0.13848927489E+03  0.26379155097E+03  0.46999998093E+01 0.  1.
       -5    1    3    3    0  502 -0.21393095503E+03  0.67957042195E+02  0.45635773176E+03  0.50859520489E+03  0.46999998093E+01 0. -1.
</event>
<event>
 5   0  0.1226303E-02  0.6948628E+03  0.7818609E-02  0.9726058E-01
       -1   -1    0    0    0  501  0.00000000000E+00  0.00000000000E+00  0.12157385329E+03  0.12157385339E+03  0.50400001928E-02 0.  1.
        1   -1    0    0  501    0  0.00000000000E+00  0.00000000000E+00 -0.99288259760E+03  0.99288259762E+03  0.50400001928E-02 0. -1.
    10030    2    1    2    0    0  0.00000000000E+00  0.00000000000E+00 -0.87130874432E+03  0.11144564510E+04  0.69486275858E+03 0.  0.
        4    1    3    3  502    0  0.20760480307E+03  0.33884978142E+02 -0.87913881094E+03  0.90395498107E+03  0.12699999809E+01 0. -1.
       -4    1    3    3    0  502 -0.20760480307E+03 -0.33884978142E+02  0.78300666254E+01  0.21050146993E+03  0.12699999809E+01 0.  1.
</event>
<event>
 5   0  0.1197259E-02  0.7022270E+03  0.7818609E-02  0.9713431E-01
        1   -1    0    0  501    0  0.00000000000E+00  0.00000000000E+00  0.61071747128E+03  0.61071747130E+03  0.50400001928E-02 0. -1.
       -1   -1    0    0    0  501  0.00000000000E+00  0.00000000000E+00 -0.20186204608E+03  0.20186204614E+03  0.50400001928E-02 0.  1.
    10030    2    1    2    0    0  0.00000000000E+00  0.00000000000E+00  0.40885542520E+03  0.81257951744E+03  0.70222696719E+03 0.  0.
        3    1    3    3  502    0 -0.23330658049E+03  0.10619316507E+03 -0.73219275974E+02  0.26658961230E+03  0.10100000352E+00 0.  1.
       -3    1    3    3    0  502  0.23330658049E+03 -0.10619316507E+03  0.48207470118E+03  0.54598990515E+03  0.10100000352E+00 0. -1.
</event>
<event>
 5   0  0.1909053E-02  0.6970322E+03  0.7818609E-02  0.9722321E-01
        2   -1    0    0  501    0  0.00000000000E+00  0.00000000000E+00  0.11172543910E+04  0.11172543910E+04  0.25500000920E-02 0.  1.
       -2   -1    0    0    0  501  0.00000000000E+00  0.00000000000E+00 -0.10871604848E+03  0.10871604851E+03  0.25500000920E-02 0. -1.
    10030    2    1    2    0    0  0.00000000000E+00  0.00000000000E+00  0.10085383425E+04  0.12259704395E+04  0.69703223039E+03 0.  0.
        1    1    3    3  502    0 -0.17611288041E+03  0.16830280896E+03  0.94264793232E+03  0.97361527643E+03  0.50400001928E-02 0.  1.
       -1    1    3    3    0  502  0.17611288041E+03 -0.16830280896E+03  0.65890410195E+02  0.25235516308E+03  0.50400001928E-02 0. -1.
</event>
<event>
 5   0  0.2006362E-02  0.7000563E+03  0.7818609E-02  0.9717136E-01
       -2   -1    0    0    0  501  0.00000000000E+00  0.00000000000E+00  0.21689419557E+03  0.21689419559E+03  0.25500000920E-02 0.  1.
        2   -1    0    0  501    0  0.00000000000E+00  0.00000000000E+00 -0.56488231677E+03  0.56488231678E+03  0.25500000920E-02 0. -1.
    10030    2    1    2    0    0  0.00000000000E+00  0.00000000000E+00 -0.34798812120E+03  0.78177651237E+03  0.70005627116E+03 0.  0.
        4    1    3    3  502    0 -0.24016857111E+03 -0.14271829373E+02  0.10991441274E+03  0.26451355105E+03  0.12699999809E+01 0.  1.
       -4    1    3    3    0  502  0.24016857111E+03  0.14271829373E+02 -0.45790253394E+03  0.51726296131E+03  0.12699999809E+01 0. -1.
</event>
<event>
 5   0  0.1948138E-02  0.7008404E+03  0.7818609E-02  0.9715796E-01
        2   -1    0    0  501    0  0.00000000000E+00  0.00000000000E+00  0.21958285773E+04  0.21958285773E+04  0.25500000920E-02 0.  1.
       -2   -1    0    0    0  501  0.00000000000E+00  0.00000000000E+00 -0.55921638177E+02  0.55921638235E+02  0.25500000920E-02 0. -1.
    10030    2    1    2    0    0  0.00000000000E+00  0.00000000000E+00  0.21399069391E+04  0.22517502155E+04  0.70084044194E+03 0.  0.
        3    1    3    3  502    0  0.33434561898E+03 -0.15490634137E+02  0.14033459837E+04  0.14427081870E+04  0.10100000352E+00 0.  1.
       -3    1    3    3    0  502 -0.33434561898E+03  0.15490634137E+02  0.73656095537E+03  0.80904202849E+03  0.10100000352E+00 0. -1.
</event>
<event>
 5   0  0.1223742E-02  0.6946565E+03  0.7818609E-02  0.9726414E-01
        1   -1    0    0  501    0  0.00000000000E+00  0.00000000000E+00  0.34823612182E+03  0.34823612186E+03  0.50400001928E-02 0. -1.
       -1   -1    0    0    0  501  0.00000000000E+00  0.00000000000E+00 -0.34642269644E+03  0.34642269648E+03  0.50400001928E-02 0.  1.
    10030    2    1    2    0    0  0.00000000000E+00  0.00000000000E+00  0.18134253826E+01  0.69465881833E+03  0.69465645133E+03 0.  0.
        2    1    3    3  502    0 -0.15222450663E+02  0.19284515808E+03  0.28937938981E+03  0.34808247479E+03  0.25500000920E-02 0. -1.
       -2    1    3    3    0  502  0.15222450663E+02 -0.19284515808E+03 -0.28756596443E+03  0.34657634354E+03  0.25500000920E-02 0.  1.
</event>
<event>
 5   0  0.1223742E-02  0.6795380E+03  0.7818609E-02  0.9752879E-01
       -1   -1    0    0    0  501  0.00000000000E+00  0.00000000000E+00  0.19900479366E+03  0.19900479372E+03  0.50400001928E-02 0.  1.
        1   -1    0    0  501    0  0.00000000000E+00  0.00000000000E+00 -0.58010148152E+03  0.58010148154E+03  0.50400001928E-02 0. -1.
    10030    2    1    2    0    0  0.00000000000E+00  0.00000000000E+00 -0.38109668786E+03  0.77910627526E+03  0.67953800678E+03 0.  0.
        2    1    3    3  502    0 -0.52909004739E+02 -0.11205056832E+03  0.17217421775E+03  0.21212886157E+03  0.25500000920E-02 0.  1.
       -2    1    3    3    0  502  0.52909004739E+02  0.11205056832E+03 -0.55327090561E+03  0.56697741370E+03  0.25500000920E-02 0. -1.
</event>
<event>
 5   0  0.1973067E-02  0.6993274E+03  0.7818609E-02  0.9718383E-01
       -2   -1    0    0    0  501  0.00000000000E+00  0.00000000000E+00  0.11480260841E+03  0.11480260844E+03  0.25500000920E-02 0. -1.
        2   -1    0    0  501    0  0.00000000000E+00  0.00000000000E+00 -0.10649993299E+04  0.10649993299E+04  0.25500000920E-02 0.  1.
    10030    2    1    2    0    0  0.00000000000E+00  0.00000000000E+00 -0.95019672146E+03  0.11798019383E+04  0.69932739412E+03 0.  0.
        5    1    3    3  502    0 -0.16885233286E+03 -0.16339072041E+03 -0.38301725077E+02  0.23811079348E+03  0.46999998093E+01 0. -1.
       -5    1    3    3    0  502  0.16885233286E+03  0.16339072041E+03 -0.91189499638E+03  0.94169114483E+03  0.46999998093E+01 0.  1.
</event>
<event>
 5   0  0.1257442E-02  0.7266586E+03  0.7818609E-02  0.9672698E-01
       -1   -1    0    0    0  501  0.00000000000E+00  0.00000000000E+00  0.24603143275E+03  0.24603143281E+03  0.50400001928E-02 0. -1.
        1   -1    0    0  501    0  0.00000000000E+00  0.00000000000E+00 -0.53655001940E+03  0.53655001942E+03  0.50400001928E-02 0.  1.
    10030    2    1    2    0    0  0.00000000000E+00  0.00000000000E+00 -0.29051858664E+03  0.78258145223E+03  0.72665857195E+03 0.  0.
        1    1    3    3  502    0  0.44362708310E+02 -0.26412882990E+03  0.11914691893E+03  0.29313491260E+03  0.50400001928E-02 0. -1.
       -1    1    3    3    0  502 -0.44362708310E+02  0.26412882990E+03 -0.40966550557E+03  0.48944653962E+03  0.50400001928E-02 0.  1.
</event>
<event>
 5   0  0.1948138E-02  0.6997938E+03  0.7818609E-02  0.9717585E-01
        2   -1    0    0  501    0  0.00000000000E+00  0.00000000000E+00  0.17681875663E+04  0.17681875663E+04  0.25500000920E-02 0.  1.
       -2   -1    0    0    0  501  0.00000000000E+00  0.00000000000E+00 -0.69239178577E+02  0.69239178624E+02  0.25500000920E-02 0. -1.
    10030    2    1    2    0    0  0.00000000000E+00  0.00000000000E+00  0.16989483877E+04  0.18374267449E+04  0.69979384023E+03 0.  0.
        3    1    3    3  502    0  0.20442766267E+03 -0.15332279533E+03  0.22189382075E+03  0.33843083004E+03  0.10100000352E+00 0.  1.
       -3    1    3    3    0  502 -0.20442766267E+03  0.15332279533E+03  0.14770545670E+04  0.14989959149E+04  0.10100000352E+00 0. -1.
</event>
<event>
 5   0  0.7947250E-03  0.7073026E+03  0.7818609E-02  0.9704825E-01
        4   -1    0    0  501    0  0.00000000000E+00  0.00000000000E+00  0.12921486978E+03  0.12922111079E+03  0.12699999809E+01 0.  1.
       -4   -1    0    0    0  501  0.00000000000E+00  0.00000000000E+00 -0.96788683104E+03  0.96788766425E+03  0.12699999809E+01 0. -1.
    10030    2    1    2    0    0  0.00000000000E+00  0.00000000000E+00 -0.83867196126E+03  0.10971087750E+04  0.70730262665E+03 0.  0.
        1    1    3    3  502    0  0.34301519751E+03 -0.84502881014E+02 -0.44478037997E+03  0.56800506076E+03  0.50400001928E-02 0.  1.
       -1    1    3    3    0  502 -0.34301519751E+03  0.84502881014E+02 -0.39389158129E+03  0.52910371427E+03  0.50400001928E-02 0. -1.
</event>
<event>
 5   0  0.1226303E-02  0.7633787E+03  0.7818609E-02  0.9614592E-01
        1   -1    0    0  501    0  0.00000000000E+00  0.00000000000E+00  0.53192798830E+03  0.53192798833E+03  0.50400001928E-02 0. -1.
       -1   -1    0    0    0  501  0.00000000000E+00  0.00000000000E+00 -0.27388433701E+03  0.27388433706E+03  0.50400001928E-02 0.  1.
    10030    2    1    2    0    0  0.00000000000E+00  0.00000000000E+00  0.25804365129E+03  0.80581232538E+03  0.76337865949E+03 0.  0.
        4    1    3    3  502    0 -0.13215211294E+03  0.24786110582E+03  0.40181659038E+03  0.49026267850E+03  0.12699999809E+01 0. -1.
       -4    1    3    3    0  502  0.13215211294E+03 -0.24786110582E+03 -0.14377293909E+03  0.31554964688E+03  0.12699999809E+01 0.  1.
</event>
<event>
 5   0  0.1237686E-02  0.7030906E+03  0.7818609E-02  0.9711961E-01
       -1   -1    0    0    0  501  0.00000000000E+00  0.00000000000E+00  0.55663833245E+03  0.55663833247E+03  0.50400001928E-02 0.  1.
        1   -1    0    0  501    0  0.00000000000E+00  0.00000000000E+00 -0.22201866925E+03  0.22201866931E+03  0.50400001928E-02 0. -1.
    10030    2    1    2    0    0  0.00000000000E+00  0.00000000000E+00  0.33461966320E+03  0.77865700178E+03  0.70309061110E+03 0.  0.
        5    1    3    3  502    0  0.16511061030E+03 -0.96724770190E+02 -0.15924547359E+03  0.24899479043E+03  0.46999998093E+01 0. -1.
       -5    1    3    3    0  502 -0.16511061030E+03  0.96724770190E+02  0.49386513678E+03  0.52966221135E+03  0.46999998093E+01 0.  1.
</event>
<event>
 5   0  0.2006362E-02  0.6992437E+03  0.7818609E-02  0.9718526E-01
       -2   -1    0    0    0  501  0.00000000000E+00  0.00000000000E+00  0.16582565516E+04  0.16582565516E+04  0.25500000920E-02 0. -1.
        2   -1    0    0  501    0  0.00000000000E+00  0.00000000000E+00 -0.73713233643E+02  0.73713233687E+02  0.25500000920E-02 0.  1.
    10030    2    1    2    0    0  0.00000000000E+00  0.00000000000E+00  0.15845433179E+04  0.17319697853E+04  0.69924374196E+03 0.  0.
        4    1    3    3  502    0  0.11546129247E+03 -0.52906181568E+02  0.15990913851E+04  0.16041275651E+04  0.12699999809E+01 0. -1.
       -4    1    3    3    0  502 -0.11546129247E+03  0.52906181568E+02 -0.14548067198E+02  0.12784222020E+03  0.12699999809E+01 0.  1.
</event>
<event>
 5   0  0.1237686E-02  0.7121260E+03  0.7818609E-02  0.9696717E-01
       -1   -1    0    0    0  501  0.00000000000E+00  0.00000000000E+00  0.32901048862E+03  0.32901048866E+03  0.50400001928E-02 0. -1.
        1   -1    0    0  501    0  0.00000000000E+00  0.00000000000E+00 -0.38533991887E+03  0.38533991891E+03  0.50400001928E-02 0.  1.
    10030    2    1    2    0    0  0.00000000000E+00  0.00000000000E+00 -0.56329430250E+02  0.71435040757E+03  0.71212604227E+03 0.  0.
        5    1    3    3  502    0  0.20806630972E+03  0.14783012439E+03  0.22083118307E+03  0.33754086617E+03  0.46999998093E+01 0. -1.
       -5    1    3    3    0  502 -0.20806630972E+03 -0.14783012439E+03 -0.27716061332E+03  0.37680954140E+03  0.46999998093E+01 0.  1.
</event>
<event>
 5   0  0.2026361E-02  0.7028676E+03  0.7818609E-02  0.9712341E-01
        2   -1    0    0  501    0  0.00000000000E+00  0.00000000000E+00  0.13566810759E+03  0.13566810761E+03  0.25500000920E-02 0. -1.
       -2   -1    0    0    0  501  0.00000000000E+00  0.00000000000E+00 -0.91035195141E+03  0.91035195141E+03  0.25500000920E-02 0.  1.
    10030    2    1    2    0    0  0.00000000000E+00  0.00000000000E+00 -0.77468384382E+03  0.10460200590E+04  0.70286763050E+03 0.  0.
        2    1    3    3  502    0 -0.27707504964E+03  0.16681292423E+03 -0.18269931408E+03  0.37145144258E+03  0.25500000920E-02 0. -1.
       -2    1    3    3    0  502  0.27707504964E+03 -0.16681292423E+03 -0.59198452974E+03  0.67456861644E+03  0.25500000920E-02 0.  1.
</event>
<event>
 5   0  0.1223742E-02  0.7008994E+03  0.7818609E-02  0.9715695E-01
        1   -1    0    0  501    0  0.00000000000E+00  0.00000000000E+00  0.31365932614E+03  0.31365932618E+03  0.50400001928E-02 0.  1.
       -1   -1    0    0    0  501  0.00000000000E+00  0.00000000000E+00 -0.39155541226E+03  0.39155541229E+03  0.50400001928E-02 0. -1.
    10030    2    1    2    0    0  0.00000000000E+00  0.00000000000E+00 -0.77896086118E+02  0.70521473847E+03  0.70089944152E+03 0.  0.
        2    1    3    3  502    0 -0.16791235604E+03 -0.18746496775E+03  0.20643322733E+03  0.32550322701E+03  0.25500000920E-02 0.  1.
       -2    1    3    3    0  502  0.16791235604E+03  0.18746496775E+03 -0.28432931345E+03  0.37971151146E+03  0.25500000920E-02 0. -1.
</event>
<event>
 5   0  0.1226303E-02  0.7012251E+03  0.7818609E-02  0.9715139E-01
        1   -1    0    0  501    0  0.00000000000E+00  0.00000000000E+00  0.11690020683E+04  0.11690020683E+04  0.50400001928E-02 0.  1.
       -1   -1    0    0    0  501  0.00000000000E+00  0.00000000000E+00 -0.10515734073E+03  0.10515734085E+03  0.50400001928E-02 0. -1.
    10030    2    1    2    0    0  0.00000000000E+00  0.00000000000E+00  0.10638447276E+04  0.12741594091E+04  0.70122506770E+03 0.  0.
        4    1    3    3  502    0  0.42408663165E+02  0.84891379579E+00 -0.10047373282E+03  0.10906786535E+03  0.12699999809E+01 0. -1.
       -4    1    3    3    0  502 -0.42408663165E+02 -0.84891379579E+00  0.11643184604E+04  0.11650915438E+04  0.12699999809E+01 0.  1.
</event>
<event>
 5   0  0.2026361E-02  0.6986485E+03  0.7818609E-02  0.9719546E-01
       -2   -1    0    0    0  501  0.00000000000E+00  0.00000000000E+00  0.95116280475E+02  0.95116280510E+02  0.25500000920E-02 0.  1.
        2   -1    0    0  501    0  0.00000000000E+00  0.00000000000E+00 -0.12829288782E+04  0.12829288782E+04  0.25500000920E-02 0. -1.
    10030    2    1    2    0    0  0.00000000000E+00  0.00000000000E+00 -0.11878125977E+04  0.13780451587E+04  0.69864847536E+03 0.  0.
        2    1    3    3  502    0 -0.21966829995E+03  0.20737397501E+03 -0.93989626995E+03  0.98725028528E+03  0.25500000920E-02 0. -1.
       -2    1    3    3    0  502  0.21966829995E+03 -0.20737397501E+03 -0.24791632775E+03  0.39079487341E+03  0.25500000920E-02 0.  1.
</event>
<event>
 5   0  0.1909053E-02  0.7014935E+03  0.7818609E-02  0.9714682E-01
       -2   -1    0    0    0  501  0.00000000000E+00  0.00000000000E+00  0.15514519023E+03  0.15514519025E+03  0.25500000920E-02 0. -1.
        2   -1    0    0  501    0  0.00000000000E+00  0.00000000000E+00 -0.79295575033E+03  0.79295575034E+03  0.25500000920E-02 0.  1.
    10030    2    1    2    0    0  0.00000000000E+00  0.00000000000E+00 -0.63781056011E+03  0.94810094058E+03  0.70149346608E+03 0.  0.
        1    1    3    3  502    0  0.14265134209E+02 -0.26593175150E+03 -0.62740171040E+03  0.68158352148E+03  0.50400001928E-02 0.  1.
       -1    1    3    3    0  502 -0.14265134209E+02  0.26593175150E+03 -0.10408849703E+02  0.26651741911E+03  0.50400001928E-02 0. -1.
</event>
<event>
 5   0  0.1223742E-02  0.7004236E+03  0.7818609E-02  0.9716508E-01
        1   -1    0    0  501    0  0.00000000000E+00  0.00000000000E+00  0.14780980999E+04  0.14780980999E+04  0.50400001928E-02 0. -1.
       -1   -1    0    0    0  501  0.00000000000E+00  0.00000000000E+00 -0.82977115072E+02  0.82977115225E+02  0.50400001928E-02 0.  1.
    10030    2    1    2    0    0  0.00000000000E+00  0.00000000000E+00  0.13951209848E+04  0.15610752151E+04  0.70042363253E+03 0.  0.
        2    1    3    3  502    0  0.48263543291E+02 -0.11512042563E+03 -0.31711108278E+02  0.12879315355E+03  0.25500000920E-02 0.  1.
       -2    1    3    3    0  502 -0.48263543291E+02  0.11512042563E+03  0.14268320931E+04  0.14322820616E+04  0.25500000920E-02 0. -1.
</event>
<event>
 5   0  0.1257442E-02  0.6964168E+03  0.7818609E-02  0.9723380E-01
       -1   -1    0    0    0  501  0.00000000000E+00  0.00000000000E+00  0.22140643776E+03  0.22140643782E+03  0.50400001928E-02 0. -1.
        1   -1    0    0  501    0  0.00000000000E+00  0.00000000000E+00 -0.54763123688E+03  0.54763123690E+03  0.50400001928E-02 0.  1.
    10030    2    1    2    0    0  0.00000000000E+00  0.00000000000E+00 -0.32622479911E+03  0.76903767472E+03  0.69641677578E+03 0.  0.
        1    1    3    3  502    0  0.19266253054E+03  0.21314438099E+03 -0.38034860647E+03  0.47667015880E+03  0.50400001928E-02 0.  1.
       -1    1    3    3    0  502 -0.19266253054E+03 -0.21314438099E+03  0.54123807353E+02  0.29236751592E+03  0.50400001928E-02 0. -1.
</event>
<event>
 5   0  0.1226303E-02  0.7319162E+03  0.7818609E-02  0.9664156E-01
       -1   -1    0    0    0  501  0.00000000000E+00  0.00000000000E+00  0.20258155434E+03  0.20258155440E+03  0.50400001928E-02 0. -1.
        1   -1    0    0  501    0  0.00000000000E+00  0.00000000000E+00 -0.66109348051E+03  0.66109348053E+03  0.50400001928E-02 0.  1.
    10030    2    1    2    0    0  0.00000000000E+00  0.00000000000E+00 -0.45851192617E+03  0.86367503492E+03  0.73191623804E+03 0.  0.
        4    1    3    3  502    0  0.18300867968E+03 -0.23605780952E+03 -0.47876305564E+03  0.56429703403E+03  0.12699999809E+01 0.  1.
       -4    1    3    3    0  502 -0.18300867968E+03  0.23605780952E+03  0.20251129465E+02  0.29937800089E+03  0.12699999809E+01 0. -1.
</event>
<event>
 5   0  0.2006362E-02  0.7001922E+03  0.7818609E-02  0.9716904E-01
       -2   -1    0    0    0  501  0.00000000000E+00  0.00000000000E+00  0.22749797103E+03  0.22749797104E+03  0.25500000920E-02 0.  1.
        2   -1    0    0  501    0  0.00000000000E+00  0.00000000000E+00 -0.53876205441E+03  0.53876205441E+03  0.25500000920E-02 0. -1.
    10030    2    1    2    0    0  0.00000000000E+00  0.00000000000E+00 -0.31126408338E+03  0.76626002546E+03  0.70019218577E+03 0.  0.
        4    1    3    3  502    0 -0.78837945461E+02  0.13771896950E+03  0.18587691763E+03  0.24440494596E+03  0.12699999809E+01 0.  1.
       -4    1    3    3    0  502  0.78837945461E+02 -0.13771896950E+03 -0.49714100101E+03  0.52185507949E+03  0.12699999809E+01 0. -1.
</event>
<event>
 5   0  0.1197259E-02  0.7020091E+03  0.7818609E-02  0.9713803E-01
        1   -1    0    0  501    0  0.00000000000E+00  0.00000000000E+00  0.15479127767E+04  0.15479127767E+04  0.50400001928E-02 0. -1.
       -1   -1    0    0    0  501  0.00000000000E+00  0.00000000000E+00 -0.79593746243E+02  0.79593746402E+02  0.50400001928E-02 0.  1.
    10030    2    1    2    0    0  0.00000000000E+00  0.00000000000E+00  0.14683190304E+04  0.16275065231E+04  0.70200905091E+03 0.  0.
        3    1    3    3  502    0  0.20815095352E+03 -0.16498178713E+03  0.20215700765E+03  0.33378627216E+03  0.10100000352E+00 0.  1.
       -3    1    3    3    0  502 -0.20815095352E+03  0.16498178713E+03  0.12661620228E+04  0.12937202509E+04  0.10100000352E+00 0. -1.
</event>
<event>
 5   0  0.1257442E-02  0.7007042E+03  0.7818609E-02  0.9716029E-01
       -1   -1    0    0    0  501  0.00000000000E+00  0.00000000000E+00  0.48121447794E+03  0.48121447796E+03  0.50400001928E-02 0.  1.
        1   -1    0    0  501    0  0.00000000000E+00  0.00000000000E+00 -0.25507665764E+03  0.25507665769E+03  0.50400001928E-02 0. -1.
    10030    2    1    2    0    0  0.00000000000E+00  0.00000000000E+00  0.22613782030E+03  0.73629113565E+03  0.70070416202E+03 0.  0.
        1    1    3    3  502    0  0.22632047171E+03 -0.12598924814E+03  0.36095751693E+03  0.44427983931E+03  0.50400001928E-02 0.  1.
       -1    1    3    3    0  502 -0.22632047171E+03  0.12598924814E+03 -0.13481969663E+03  0.29201129634E+03  0.50400001928E-02 0. -1.
</event>
<event>
 5   0  0.1257442E-02  0.7122251E+03  0.7818609E-02  0.9696551E-01
       -1   -1    0    0    0  501  0.00000000000E+00  0.00000000000E+00  0.95433045955E+03  0.95433045957E+03  0.50400001928E-02 0. -1.
        1   -1    0    0  501    0  0.00000000000E+00  0.00000000000E+00 -0.13288494082E+03  0.13288494091E+03  0.50400001928E-02 0.  1.
    10030    2    1    2    0    0  0.00000000000E+00  0.00000000000E+00  0.82144551874E+03  0.10872154005E+04  0.71222509560E+03 0.  0.
        1    1    3    3  502    0  0.18304142564E+03  0.14499160008E+03  0.82114953974E+03  0.85370562505E+03  0.50400001928E-02 0. -1.
       -1    1    3    3    0  502 -0.18304142564E+03 -0.14499160008E+03  0.29597899198E+00  0.23350977543E+03  0.50400001928E-02 0.  1.
</event>
<event>
 5   0  0.2006362E-02  0.6950858E+03  0.7818609E-02  0.9725673E-01
        2   -1    0    0  501    0  0.00000000000E+00  0.00000000000E+00  0.12668195914E+04  0.12668195914E+04  0.25500000920E-02 0. -1.
       -2   -1    0    0    0  501  0.00000000000E+00  0.00000000000E+00 -0.95345902124E+02  0.95345902159E+02  0.25500000920E-02 0.  1.
    10030    2    1    2    0    0  0.00000000000E+00  0.00000000000E+00  0.11714736893E+04  0.13621654936E+04  0.69508576967E+03 0.  0.
        4    1    3    3  502    0 -0.17994455759E+03  0.22021336402E+03  0.97723968949E+03  0.10177784597E+04  0.12699999809E+01 0. -1.
       -4    1    3    3    0  502  0.17994455759E+03 -0.22021336402E+03  0.19423399983E+03  0.34438703386E+03  0.12699999809E+01 0.  1.
</event>
<event>
 5   0  0.1948138E-02  0.7031387E+03  0.7818609E-02  0.9711880E-01
        2   -1    0    0  501    0  0.00000000000E+00  0.00000000000E+00  0.73306712206E+03  0.73306712206E+03  0.25500000920E-02 0.  1.
       -2   -1    0    0    0  501  0.00000000000E+00  0.00000000000E+00 -0.16860801786E+03  0.16860801788E+03  0.25500000920E-02 0. -1.
    10030    2    1    2    0    0  0.00000000000E+00  0.00000000000E+00  0.56445910419E+03  0.90167513994E+03  0.70313866178E+03 0.  0.
        3    1    3    3  502    0  0.24088560312E+03  0.61818129722E+02 -0.36439846635E+02  0.25134682727E+03  0.10100000352E+00 0. -1.
       -3    1    3    3    0  502 -0.24088560312E+03 -0.61818129722E+02  0.60089895083E+03  0.65032831267E+03  0.10100000352E+00 0.  1.
</event>
<event>
 5   0  0.7947250E-03  0.6989310E+03  0.7818609E-02  0.9719062E-01
       -3   -1    0    0    0  501  0.00000000000E+00  0.00000000000E+00  0.63542805349E+03  0.63542806152E+03  0.10100000352E+00 0.  1.
        3   -1    0    0  501    0  0.00000000000E+00  0.00000000000E+00 -0.19219506565E+03  0.19219509219E+03  0.10100000352E+00 0. -1.
    10030    2    1    2    0    0  0.00000000000E+00  0.00000000000E+00  0.44323298784E+03  0.82762315371E+03  0.69893104313E+03 0.  0.
        3    1    3    3  502    0  0.67690796893E+02  0.22635737053E+03 -0.83296652103E+02  0.25051555966E+03  0.10100000352E+00 0. -1.
       -3    1    3    3    0  502 -0.67690796893E+02 -0.22635737053E+03  0.52652963994E+03  0.57710759406E+03  0.10100000352E+00 0.  1.
</event>
<event>
 5   0  0.1973067E-02  0.6738517E+03  0.7818609E-02  0.9763025E-01
       -2   -1    0    0    0  501  0.00000000000E+00  0.00000000000E+00  0.59931714524E+02  0.59931714578E+02  0.25500000920E-02 0.  1.
        2   -1    0    0  501    0  0.00000000000E+00  0.00000000000E+00 -0.18941397476E+04  0.18941397476E+04  0.25500000920E-02 0. -1.
    10030    2    1    2    0    0  0.00000000000E+00  0.00000000000E+00 -0.18342080330E+04  0.19540714621E+04  0.67385174237E+03 0.  0.
        5    1    3    3  502    0  0.56921284050E+02  0.26705563150E+03 -0.34488264118E+03  0.43991461566E+03  0.46999998093E+01 0.  1.
       -5    1    3    3    0  502 -0.56921284050E+02 -0.26705563150E+03 -0.14893253919E+04  0.15141568465E+04  0.46999998093E+01 0. -1.
</event>
<event>
 5   0  0.1948138E-02  0.6987409E+03  0.7818609E-02  0.9719388E-01
        2   -1    0    0  501    0  0.00000000000E+00  0.00000000000E+00  0.12226713359E+04  0.12226713359E+04  0.25500000920E-02 0.  1.
       -2   -1    0    0    0  501  0.00000000000E+00  0.00000000000E+00 -0.99830364058E+02  0.99830364090E+02  0.25500000920E-02 0. -1.
    10030    2    1    2    0    0  0.00000000000E+00  0.00000000000E+00  0.11228409718E+04  0.13225017000E+04  0.69874093800E+03 0.  0.
        3    1    3    3  502    0  0.66785465386E+02 -0.18676175596E+03  0.11057775992E+04  0.11234252806E+04  0.10100000352E+00 0.  1.
       -3    1    3    3    0  502 -0.66785465386E+02  0.18676175596E+03  0.17063372598E+02  0.19907641940E+03  0.10100000352E+00 0. -1.
</event>
<event>
 5   0  0.1197259E-02  0.7059666E+03  0.7818609E-02  0.9707083E-01
        1   -1    0    0  501    0  0.00000000000E+00  0.00000000000E+00  0.48321553231E+03  0.48321553234E+03  0.50400001928E-02 0.  1.
       -1   -1    0    0    0  501  0.00000000000E+00  0.00000000000E+00 -0.25785019799E+03  0.25785019804E+03  0.50400001928E-02 0. -1.
    10030    2    1    2    0    0  0.00000000000E+00  0.00000000000E+00  0.22536533432E+03  0.74106573038E+03  0.70596663011E+03 0.  0.
        3    1    3    3  502    0 -0.35056020538E+03 -0.26494610107E+02  0.14592390901E+03  0.38064185185E+03  0.10100000352E+00 0. -1.
       -3    1    3    3    0  502  0.35056020538E+03  0.26494610107E+02  0.79441425314E+02  0.36042387853E+03  0.10100000352E+00 0.  1.
</event>
<event>
 5   0  0.1973067E-02  0.6975050E+03  0.7818609E-02  0.9721509E-01
        2   -1    0    0  501    0  0.00000000000E+00  0.00000000000E+00  0.88760315354E+02  0.88760315391E+02  0.25500000920E-02 0.  1.
       -2   -1    0    0    0  501  0.00000000000E+00  0.00000000000E+00 -0.13703003741E+04  0.13703003741E+04  0.25500000920E-02 0. -1.
    10030    2    1    2    0    0  0.00000000000E+00  0.00000000000E+00 -0.12815400588E+04  0.14590606895E+04  0.69750496304E+03 0.  0.
        5    1    3    3  502    0 -0.21965699772E+03 -0.12970806395E+03 -0.14340368055E+03  0.29267744035E+03  0.46999998093E+01 0. -1.
       -5    1    3    3    0  502  0.21965699772E+03  0.12970806395E+03 -0.11381363782E+04  0.11663832492E+04  0.46999998093E+01 0.  1.
</event>
<event>
 5   0  0.2026361E-02  0.7015741E+03  0.7818609E-02  0.9714544E-01
       -2   -1    0    0    0  501  0.00000000000E+00  0.00000000000E+00  0.38598227604E+03  0.38598227605E+03  0.25500000920E-02 0. -1.
        2   -1    0    0  501    0  0.00000000000E+00  0.00000000000E+00 -0.31880104281E+03  0.31880104282E+03  0.25500000920E-02 0.  1.
    10030    2    1    2    0    0  0.00000000000E+00  0.00000000000E+00  0.67181233226E+02  0.70478331887E+03  0.70157409335E+03 0.  0.
        2    1    3    3  502    0  0.77384936382E+02  0.13463058759E+03 -0.28239189051E+03  0.32227162972E+03  0.25500000920E-02 0.  1.
       -2    1    3    3    0  502 -0.77384936382E+02 -0.13463058759E+03  0.34957312373E+03  0.38251168915E+03  0.25500000920E-02 0. -1.
</event>
<event>
 5   0  0.1973067E-02  0.6988502E+03  0.7818609E-02  0.9719200E-01
        2   -1    0    0  501    0  0.00000000000E+00  0.00000000000E+00  0.12860294302E+03  0.12860294304E+03  0.25500000920E-02 0.  1.
       -2   -1    0    0    0  501  0.00000000000E+00  0.00000000000E+00 -0.94941769364E+03  0.94941769364E+03  0.25500000920E-02 0. -1.
    10030    2    1    2    0    0  0.00000000000E+00  0.00000000000E+00 -0.82081475062E+03  0.10780206367E+04  0.69885022593E+03 0.  0.
        5    1    3    3  502    0 -0.11005661122E+03 -0.27255223849E+03 -0.70177889939E+03  0.76086325579E+03  0.46999998093E+01 0. -1.
       -5    1    3    3    0  502  0.11005661122E+03  0.27255223849E+03 -0.11903585123E+03  0.31715738090E+03  0.46999998093E+01 0.  1.
</event>
<event>
 5   0  0.1257442E-02  0.6949732E+03  0.7818609E-02  0.9725868E-01
        1   -1    0    0  501    0  0.00000000000E+00  0.00000000000E+00  0.62783920142E+03  0.62783920144E+03  0.50400001928E-02 0. -1.
       -1   -1    0    0    0  501  0.00000000000E+00  0.00000000000E+00 -0.19232141055E+03  0.19232141061E+03  0.50400001928E-02 0.  1.
    10030    2    1    2    0    0  0.00000000000E+00  0.00000000000E+00  0.43551779087E+03  0.82016061206E+03  0.69497315301E+03 0.  0.
        1    1    3    3  502    0  0.40267065252E+02 -0.30134944985E+03  0.19180753161E+02  0.30463228454E+03  0.50400001928E-02 0.  1.
       -1    1    3    3    0  502 -0.40267065252E+02  0.30134944985E+03  0.41633703771E+03  0.51552832751E+03  0.50400001928E-02 0. -1.
</event>
<event>
 5   0  0.7947250E-03  0.7041949E+03  0.7818609E-02  0.9710085E-01
       -3   -1    0    0    0  501  0.00000000000E+00  0.00000000000E+00  0.24716044068E+03  0.24716046132E+03  0.10100000352E+00 0.  1.
        3   -1    0    0  501    0  0.00000000000E+00  0.00000000000E+00 -0.50158760920E+03  0.50158761937E+03  0.10100000352E+00 0. -1.
    10030    2    1    2    0    0  0.00000000000E+00  0.00000000000E+00 -0.25442716852E+03  0.74874808068E+03  0.70419493342E+03 0.  0.
        5    1    3    3  502    0 -0.26910757001E+03  0.18682287318E+03 -0.26432516614E+03  0.42096502661E+03  0.46999998093E+01 0.  1.
       -5    1    3    3    0  502  0.26910757001E+03 -0.18682287318E+03  0.98979976186E+01  0.32778305407E+03  0.46999998093E+01 0. -1.
</event>
<event>
 5   0  0.2026361E-02  0.7037828E+03  0.7818609E-02  0.9710785E-01
       -2   -1    0    0    0  501  0.00000000000E+00  0.00000000000E+00  0.14279327964E+03  0.14279327966E+03  0.25500000920E-02 0. -1.
        2   -1    0    0  501    0  0.00000000000E+00  0.00000000000E+00 -0.86718052692E+03  0.86718052693E+03  0.25500000920E-02 0.  1.
    10030    2    1    2    0    0  0.00000000000E+00  0.00000000000E+00 -0.72438724729E+03  0.10099738066E+04  0.70378278322E+03 0.  0.
        2    1    3    3  502    0  0.15665603159E+03 -0.21361116078E+03 -0.69461083147E+03  0.74340772625E+03  0.25500000920E-02 0.  1.
       -2    1    3    3    0  502 -0.15665603159E+03  0.21361116078E+03 -0.29776415817E+02  0.26656608034E+03  0.25500000920E-02 0. -1.
</event>
<event>
 5   0  0.1237686E-02  0.7046928E+03  0.7818609E-02  0.9709240E-01
       -1   -1    0    0    0  501  0.00000000000E+00  0.00000000000E+00  0.11263357053E+03  0.11263357064E+03  0.50400001928E-02 0.  1.
        1   -1    0    0  501    0  0.00000000000E+00  0.00000000000E+00 -0.11022289516E+04  0.11022289516E+04  0.50400001928E-02 0. -1.
    10030    2    1    2    0    0  0.00000000000E+00  0.00000000000E+00 -0.98959538106E+03  0.12148625222E+04  0.70469279102E+03 0.  0.
        5    1    3    3  502    0 -0.13374558121E+03 -0.14215721025E+03 -0.10004483758E+04  0.10193211445E+04  0.46999998093E+01 0. -1.
       -5    1    3    3    0  502  0.13374558121E+03  0.14215721025E+03  0.10852994763E+02  0.19554137775E+03  0.46999998093E+01 0.  1.
</event>
<event>
 5   0  0.1197259E-02  0.7033734E+03  0.7818609E-02  0.9711481E-01
        1   -1    0    0  501    0  0.00000000000E+00  0.00000000000E+00  0.44782828789E+03  0.44782828792E+03  0.50400001928E-02 0.  1.
       -1   -1    0    0    0  501  0.00000000000E+00  0.00000000000E+00 -0.27618516250E+03  0.27618516255E+03  0.50400001928E-02 0. -1.
    10030    2    1    2    0    0  0.00000000000E+00  0.00000000000E+00  0.17164312538E+03  0.72401345047E+03  0.70337338162E+03 0.  0.
        3    1    3    3  502    0  0.23071347730E+03 -0.13442826193E+02 -0.18705004649E+03  0.29731657922E+03  0.10100000352E+00 0. -1.
       -3    1    3    3    0  502 -0.23071347730E+03  0.13442826193E+02  0.35869317188E+03  0.42669687125E+03  0.10100000352E+00 0.  1.
</event>
<event>
 5   0  0.2006362E-02  0.6872070E+03  0.7818609E-02  0.9739364E-01
       -2   -1    0    0    0  501  0.00000000000E+00  0.00000000000E+00  0.69675865263E+02  0.69675865309E+02  0.25500000920E-02 0. -1.
        2   -1    0    0  501    0  0.00000000000E+00  0.00000000000E+00 -0.16944655136E+04  0.16944655136E+04  0.25500000920E-02 0.  1.
    10030    2    1    2    0    0  0.00000000000E+00  0.00000000000E+00 -0.16247896483E+04  0.17641413789E+04  0.68720695823E+03 0.  0.
        4    1    3    3  502    0  0.29684983722E+03 -0.15049372488E+03 -0.10316325794E+04  0.10839905806E+04  0.12699999809E+01 0. -1.
       -4    1    3    3    0  502 -0.29684983722E+03  0.15049372488E+03 -0.59315706888E+03  0.68015079824E+03  0.12699999809E+01 0.  1.
</event>
<event>
 5   0  0.1197259E-02  0.6987051E+03  0.7818609E-02  0.9719449E-01
       -1   -1    0    0    0  501  0.00000000000E+00  0.00000000000E+00  0.12358427024E+03  0.12358427034E+03  0.50400001928E-02 0.  1.
        1   -1    0    0  501    0  0.00000000000E+00  0.00000000000E+00 -0.98756248153E+03  0.98756248155E+03  0.50400001928E-02 0. -1.
    10030    2    1    2    0    0  0.00000000000E+00  0.00000000000E+00 -0.86397821129E+03  0.11111467519E+04  0.69870505555E+03 0.  0.
        3    1    3    3  502    0 -0.15422681915E+02  0.35409973791E+02 -0.98415676370E+03  0.98491434709E+03  0.10100000352E+00 0. -1.
       -3    1    3    3    0  502  0.15422681915E+02 -0.35409973791E+02  0.12017855241E+03  0.12623240480E+03  0.10100000352E+00 0.  1.
</event>
<event>
 5   0  0.1226303E-02  0.7087940E+03  0.7818609E-02  0.9702310E-01
        1   -1    0    0  501    0  0.00000000000E+00  0.00000000000E+00  0.61282950599E+03  0.61282950601E+03  0.50400001928E-02 0.  1.
       -1   -1    0    0    0  501  0.00000000000E+00  0.00000000000E+00 -0.20494644318E+03  0.20494644325E+03  0.50400001928E-02 0. -1.
    10030    2    1    2    0    0  0.00000000000E+00  0.00000000000E+00  0.40788306281E+03  0.81777594926E+03  0.70879398295E+03 0.  0.
        4    1    3    3  502    0 -0.13549607208E+03  0.15625105201E+03  0.53597913276E+03  0.57449875584E+03  0.12699999809E+01 0.  1.
       -4    1    3    3    0  502  0.13549607208E+03 -0.15625105201E+03 -0.12809606995E+03  0.24327719342E+03  0.12699999809E+01 0. -1.
</event>
<event>
 5   0  0.1197259E-02  0.6993795E+03  0.7818609E-02  0.9718294E-01
       -1   -1    0    0    0  501  0.00000000000E+00  0.00000000000E+00  0.12983149778E+03  0.12983149787E+03  0.50400001928E-02 0. -1.
        1   -1    0    0  501    0  0.00000000000E+00  0.00000000000E+00 -0.94185854323E+03  0.94185854325E+03  0.50400001928E-02 0.  1.
    10030    2    1    2    0    0  0.00000000000E+00  0.00000000000E+00 -0.81202704546E+03  0.10716900411E+04  0.69937945472E+03 0.  0.
        3    1    3    3  502    0 -0.25285115750E+03 -0.10035985634E+03 -0.74270091326E+03  0.79095541301E+03  0.10100000352E+00 0.  1.
       -3    1    3    3    0  502  0.25285115750E+03  0.10035985634E+03 -0.69326132192E+02  0.28073462810E+03  0.10100000352E+00 0. -1.
</event>
<event>
 5   0  0.1948138E-02  0.7078403E+03  0.7818609E-02  0.9703917E-01
        2   -1    0    0  501    0  0.00000000000E+00  0.00000000000E+00  0.14978589146E+04  0.14978589146E+04  0.25500000920E-02 0. -1.
       -2   -1    0    0    0  501  0.00000000000E+00  0.00000000000E+00 -0.83625687515E+02  0.83625687554E+02  0.25500000920E-02 0.  1.
    10030    2    1    2    0    0  0.00000000000E+00  0.00000000000E+00  0.14142332271E+04  0.15814846021E+04  0.70784032540E+03 0.  0.
        3    1    3    3  502    0 -0.23307393887E+03 -0.25842485872E+03  0.56314069354E+03  0.66199268841E+03  0.10100000352E+00 0. -1.
       -3    1    3    3    0  502  0.23307393887E+03  0.25842485872E+03  0.85109253353E+03  0.91949191373E+03  0.10100000352E+00 0.  1.
</event>
<event>
 5   0  0.1226303E-02  0.6921857E+03  0.7818609E-02  0.9730690E-01
       -1   -1    0    0    0  501  0.00000000000E+00  0.00000000000E+00  0.43478725643E+03  0.43478725645E+03  0.50400001928E-02 0. -1.
        1   -1    0    0  501    0  0.00000000000E+00  0.00000000000E+00 -0.27549167993E+03  0.27549167997E+03  0.50400001928E-02 0.  1.
    10030    2    1    2    0    0  0.00000000000E+00  0.00000000000E+00  0.15929557650E+03  0.71027893643E+03  0.69218573147E+03 0.  0.
        4    1    3    3  502    0  0.30000077194E+03  0.71863302400E+02 -0.81341199104E+02  0.31903416897E+03  0.12699999809E+01 0.  1.
       -4    1    3    3    0  502 -0.30000077194E+03 -0.71863302400E+02  0.24063677560E+03  0.39124476746E+03  0.12699999809E+01 0. -1.
</event>
<event>
 5   0  0.1237686E-02  0.7039364E+03  0.7818609E-02  0.9710524E-01
        1   -1    0    0  501    0  0.00000000000E+00  0.00000000000E+00  0.78095572636E+03  0.78095572637E+03  0.50400001928E-02 0.  1.
       -1   -1    0    0    0  501  0.00000000000E+00  0.00000000000E+00 -0.15862822125E+03  0.15862822133E+03  0.50400001928E-02 0. -1.
    10030    2    1    2    0    0  0.00000000000E+00  0.00000000000E+00  0.62232750510E+03  0.93958394771E+03  0.70393641132E+03 0.  0.
        5    1    3    3  502    0 -0.18385948786E+03  0.29893245920E+03  0.34634165770E+03  0.49309183758E+03  0.46999998093E+01 0. -1.
       -5    1    3    3    0  502  0.18385948786E+03 -0.29893245920E+03  0.27598584741E+03  0.44649211012E+03  0.46999998093E+01 0.  1.
</event>
<event>
 5   0  0.1973067E-02  0.7337334E+03  0.7818609E-02  0.9661221E-01
       -2   -1    0    0    0  501  0.00000000000E+00  0.00000000000E+00  0.40095693826E+03  0.40095693827E+03  0.25500000920E-02 0. -1.
        2   -1    0    0  501    0  0.00000000000E+00  0.00000000000E+00 -0.33567487386E+03  0.33567487387E+03  0.25500000920E-02 0.  1.
    10030    2    1    2    0    0  0.00000000000E+00  0.00000000000E+00  0.65282064403E+02  0.73663181214E+03  0.73373338395E+03 0.  0.
        5    1    3    3  502    0  0.33341254206E+03  0.11796685057E+03  0.13043721994E+03  0.37698283698E+03  0.46999998093E+01 0. -1.
       -5    1    3    3    0  502 -0.33341254206E+03 -0.11796685057E+03 -0.65155155535E+02  0.35964897515E+03  0.46999998093E+01 0.  1.
</event>
<event>
 5   0  0.1237686E-02  0.7004914E+03  0.7818609E-02  0.9716392E-01
       -1   -1    0    0    0  501  0.00000000000E+00  0.00000000000E+00  0.49491690130E+03  0.49491690133E+03  0.50400001928E-02 0.  1.
        1   -1    0    0  501    0  0.00000000000E+00  0.00000000000E+00 -0.24786393394E+03  0.24786393399E+03  0.50400001928E-02 0. -1.
    10030    2    1    2    0    0  0.00000000000E+00  0.00000000000E+00  0.24705296736E+03  0.74278083532E+03  0.70049139941E+03 0.  0.
        5    1    3    3  502    0  0.20076231985E+03 -0.11810873184E+03  0.40083892638E+03  0.46362605245E+03  0.46999998093E+01 0.  1.
       -5    1    3    3    0  502 -0.20076231985E+03  0.11810873184E+03 -0.15378595902E+03  0.27915478287E+03  0.46999998093E+01 0. -1.
</event>
<event>
 5   0  0.2006362E-02  0.6997982E+03  0.7818609E-02  0.9717577E-01
        2   -1    0    0  501    0  0.00000000000E+00  0.00000000000E+00  0.16545247226E+04  0.16545247226E+04  0.25500000920E-02 0. -1.
       -2   -1    0    0    0  501  0.00000000000E+00  0.00000000000E+00 -0.73996711745E+02  0.73996711789E+02  0.25500000920E-02 0.  1.
    10030    2    1    2    0    0  0.00000000000E+00  0.00000000000E+00  0.15805280108E+04  0.17285214344E+04  0.69979822523E+03 0.  0.
        4    1    3    3  502    0  0.18808874797E+03 -0.72480891226E+02  0.14966960750E+04  0.15102091281E+04  0.12699999809E+01 0. -1.
       -4    1    3    3    0  502 -0.18808874797E+03  0.72480891226E+02  0.83831935800E+02  0.21831230626E+03  0.12699999809E+01 0.  1.
</event>
<event>
 5   0  0.1223742E-02  0.6999118E+03  0.7818609E-02  0.9717383E-01
        1   -1    0    0  501    0  0.00000000000E+00  0.00000000000E+00  0.12020704238E+03  0.12020704248E+03  0.50400001928E-02 0. -1.
       -1   -1    0    0    0  501  0.00000000000E+00  0.00000000000E+00 -0.10188181611E+04  0.10188181611E+04  0.50400001928E-02 0.  1.
    10030    2    1    2    0    0  0.00000000000E+00  0.00000000000E+00 -0.89861111869E+03  0.11390252036E+04  0.69991175994E+03 0.  0.
        2    1    3    3  502    0  0.20319338978E+03 -0.28325545600E+03 -0.39920139700E+03  0.52998392653E+03  0.25500000920E-02 0. -1.
       -2    1    3    3    0  502 -0.20319338978E+03  0.28325545600E+03 -0.49940972169E+03  0.60904127703E+03  0.25500000920E-02 0.  1.
</event>
<event>
 5   0  0.1223742E-02  0.6980917E+03  0.7818609E-02  0.9720501E-01
       -1   -1    0    0    0  501  0.00000000000E+00  0.00000000000E+00  0.46133072240E+03  0.46133072243E+03  0.50400001928E-02 0.  1.
        1   -1    0    0  501    0  0.00000000000E+00  0.00000000000E+00 -0.26409036641E+03  0.26409036645E+03  0.50400001928E-02 0. -1.
    10030    2    1    2    0    0  0.00000000000E+00  0.00000000000E+00  0.19724035599E+03  0.72542108888E+03  0.69809168320E+03 0.  0.
        2    1    3    3  502    0  0.24039513614E+03  0.24266778260E+03  0.17323312189E+03  0.38299763540E+03  0.25500000920E-02 0.  1.
       -2    1    3    3    0  502 -0.24039513614E+03 -0.24266778260E+03  0.24007234099E+02  0.34242345348E+03  0.25500000920E-02 0. -1.
</event>
<event>
 5   0  0.1257442E-02  0.6992650E+03  0.7818609E-02  0.9718490E-01
        1   -1    0    0  501    0  0.00000000000E+00  0.00000000000E+00  0.13750574415E+03  0.13750574424E+03  0.50400001928E-02 0. -1.
       -1   -1    0    0    0  501  0.00000000000E+00  0.00000000000E+00 -0.88900214271E+03  0.88900214273E+03  0.50400001928E-02 0.  1.
    10030    2    1    2    0    0  0.00000000000E+00  0.00000000000E+00 -0.75149639856E+03  0.10265078870E+04  0.69926504629E+03 0.  0.
        1    1    3    3  502    0 -0.32144012182E+03 -0.12706546296E+02 -0.17469537317E+03  0.36606513309E+03  0.50400001928E-02 0. -1.
       -1    1    3    3    0  502  0.32144012182E+03  0.12706546296E+02 -0.57680102539E+03  0.66044275388E+03  0.50400001928E-02 0.  1.
</event>
<event>
 5   0  0.1948138E-02  0.6994796E+03  0.7818609E-02  0.9718123E-01
       -2   -1    0    0    0  501  0.00000000000E+00  0.00000000000E+00  0.89551166220E+03  0.89551166220E+03  0.25500000920E-02 0. -1.
        2   -1    0    0  501    0  0.00000000000E+00  0.00000000000E+00 -0.13658998516E+03  0.13658998518E+03  0.25500000920E-02 0.  1.
    10030    2    1    2    0    0  0.00000000000E+00  0.00000000000E+00  0.75892167704E+03  0.10321016474E+04  0.69947959130E+03 0.  0.
        3    1    3    3  502    0 -0.22313187218E+03 -0.25072926279E+03  0.23440122044E+03  0.40938605001E+03  0.10100000352E+00 0.  1.
       -3    1    3    3    0  502  0.22313187218E+03  0.25072926279E+03  0.52452045661E+03  0.62271559737E+03  0.10100000352E+00 0. -1.
</event>
<event>
 5   0  0.1223742E-02  0.7086192E+03  0.7818609E-02  0.9702605E-01
        1   -1    0    0  501    0  0.00000000000E+00  0.00000000000E+00  0.11127048011E+04  0.11127048011E+04  0.50400001928E-02 0.  1.
       -1   -1    0    0    0  501  0.00000000000E+00  0.00000000000E+00 -0.11281992989E+03  0.11281993000E+03  0.50400001928E-02 0. -1.
    10030    2    1    2    0    0  0.00000000000E+00  0.00000000000E+00  0.99988487120E+03  0.12255247311E+04  0.70861915787E+03 0.  0.
        2    1    3    3  502    0  0.19193167204E+02 -0.31450400799E+03  0.21971671299E+03  0.38413094471E+03  0.25500000920E-02 0. -1.
       -2    1    3    3    0  502 -0.19193167204E+02  0.31450400799E+03  0.78016815820E+03  0.84139378640E+03  0.25500000920E-02 0.  1.
</event>
<event>
 5   0  0.7947250E-03  0.6939554E+03  0.7818609E-02  0.9727626E-01
       -3   -1    0    0    0  501  0.00000000000E+00  0.00000000000E+00  0.98504872769E+03  0.98504873287E+03  0.10100000352E+00 0.  1.
        3   -1    0    0  501    0  0.00000000000E+00  0.00000000000E+00 -0.12222084156E+03  0.12222088329E+03  0.10100000352E+00 0. -1.
    10030    2    1    2    0    0  0.00000000000E+00  0.00000000000E+00  0.86282788613E+03  0.11072696162E+04  0.69395536008E+03 0.  0.
        1    1    3    3  502    0 -0.19734872603E+03 -0.22170318317E+03  0.14467452216E+03  0.33019621209E+03  0.50400001928E-02 0. -1.
       -1    1    3    3    0  502  0.19734872603E+03  0.22170318317E+03  0.71815336398E+03  0.77707340407E+03  0.50400001928E-02 0.  1.
</event>
<event>
 5   0  0.1223742E-02  0.7036245E+03  0.7818609E-02  0.9711054E-01
        1   -1    0    0  501    0  0.00000000000E+00  0.00000000000E+00  0.41010039407E+03  0.41010039410E+03  0.50400001928E-02 0. -1.
       -1   -1    0    0    0  501  0.00000000000E+00  0.00000000000E+00 -0.30180866648E+03  0.30180866653E+03  0.50400001928E-02 0.  1.
    10030    2    1    2    0    0  0.00000000000E+00  0.00000000000E+00  0.10829172759E+03  0.71190906063E+03  0.70362448248E+03 0.  0.
        2    1    3    3  502    0 -0.23963995042E+03 -0.30214709234E+02  0.31295369291E+03  0.39532296721E+03  0.25500000920E-02 0. -1.
       -2    1    3    3    0  502  0.23963995042E+03  0.30214709234E+02 -0.20466196532E+03  0.31658609342E+03  0.25500000920E-02 0.  1.
</event>
<event>
 5   0  0.1973067E-02  0.6978694E+03  0.7818609E-02  0.9720883E-01
       -2   -1    0    0    0  501  0.00000000000E+00  0.00000000000E+00  0.69077373792E+02  0.69077373839E+02  0.25500000920E-02 0. -1.
        2   -1    0    0  501    0  0.00000000000E+00  0.00000000000E+00 -0.17625946791E+04  0.17625946791E+04  0.25500000920E-02 0.  1.
    10030    2    1    2    0    0  0.00000000000E+00  0.00000000000E+00 -0.16935173053E+04  0.18316720529E+04  0.69786936180E+03 0.  0.
        5    1    3    3  502    0 -0.23012943092E+03 -0.24329878896E+03 -0.11036468989E+04  0.11533483529E+04  0.46999998093E+01 0.  1.
       -5    1    3    3    0  502  0.23012943092E+03  0.24329878896E+03 -0.58987040643E+03  0.67832370006E+03  0.46999998093E+01 0. -1.
</event>
<event>
 5   0  0.2006362E-02  0.7029387E+03  0.7818609E-02  0.9712220E-01
        2   -1    0    0  501    0  0.00000000000E+00  0.00000000000E+00  0.14019044769E+03  0.14019044771E+03  0.25500000920E-02 0. -1.
       -2   -1    0    0    0  501  0.00000000000E+00  0.00000000000E+00 -0.88116348312E+03  0.88116348312E+03  0.25500000920E-02 0.  1.
    10030    2    1    2    0    0  0.00000000000E+00  0.00000000000E+00 -0.74097303543E+03  0.10213539308E+04  0.70293869775E+03 0.  0.
        4    1    3    3  502    0  0.19139665486E+03 -0.14531439327E+03  0.21678382272E+01  0.24032325066E+03  0.12699999809E+01 0. -1.
       -4    1    3    3    0  502 -0.19139665486E+03  0.14531439327E+03 -0.74314087366E+03  0.78103068018E+03  0.12699999809E+01 0.  1.
</event>
<event>
 5   0  0.1223742E-02  0.6947065E+03  0.7818609E-02  0.9726328E-01
       -1   -1    0    0    0  501  0.00000000000E+00  0.00000000000E+00  0.30209403848E+03  0.30209403853E+03  0.50400001928E-02 0. -1.
        1   -1    0    0  501    0  0.00000000000E+00  0.00000000000E+00 -0.39939311039E+03  0.39939311042E+03  0.50400001928E-02 0.  1.
    10030    2    1    2    0    0  0.00000000000E+00  0.00000000000E+00 -0.97299071909E+02  0.70148714895E+03  0.69470649252E+03 0.  0.
        2    1    3    3  502    0  0.10597129876E+03 -0.15044886528E+02 -0.38232611886E+03  0.39702585047E+03  0.25500000920E-02 0.  1.
       -2    1    3    3    0  502 -0.10597129876E+03  0.15044886528E+02  0.28502704695E+03  0.30446129848E+03  0.25500000920E-02 0. -1.
</event>
<event>
 5   0  0.1257442E-02  0.7042610E+03  0.7818609E-02  0.9709973E-01
       -1   -1    0    0    0  501  0.00000000000E+00  0.00000000000E+00  0.14719021049E+03  0.14719021058E+03  0.50400001928E-02 0.  1.
        1   -1    0    0  501    0  0.00000000000E+00  0.00000000000E+00 -0.84241938225E+03  0.84241938227E+03  0.50400001928E-02 0. -1.
    10030    2    1    2    0    0  0.00000000000E+00  0.00000000000E+00 -0.69522917176E+03  0.98960959285E+03  0.70426099209E+03 0.  0.
        1    1    3    3  502    0 -0.32250090283E+03 -0.74269488261E+02 -0.51666296027E+03  0.61356613641E+03  0.50400001928E-02 0. -1.
       -1    1    3    3    0  502  0.32250090283E+03  0.74269488261E+02 -0.17856621149E+03  0.37604345643E+03  0.50400001928E-02 0.  1.
</event>
<event>
 5   0  0.1197259E-02  0.7022103E+03  0.7818609E-02  0.9713460E-01
       -1   -1    0    0    0  501  0.00000000000E+00  0.00000000000E+00  0.31229921594E+03  0.31229921598E+03  0.50400001928E-02 0.  1.
        1   -1    0    0  501    0  0.00000000000E+00  0.00000000000E+00 -0.39473305796E+03  0.39473305799E+03  0.50400001928E-02 0. -1.
    10030    2    1    2    0    0  0.00000000000E+00  0.00000000000E+00 -0.82433842016E+02  0.70703227397E+03  0.70221029480E+03 0.  0.
        3    1    3    3  502    0 -0.23611569534E+03 -0.35792422885E+02 -0.30036163506E+03  0.38373016710E+03  0.10100000352E+00 0. -1.
       -3    1    3    3    0  502  0.23611569534E+03  0.35792422885E+02  0.21792779305E+03  0.32330210687E+03  0.10100000352E+00 0.  1.
</event>
<event>
 5   0  0.2026361E-02  0.6997018E+03  0.7818609E-02  0.9717742E-01
       -2   -1    0    0    0  501  0.00000000000E+00  0.00000000000E+00  0.11960551555E+03  0.11960551557E+03  0.25500000920E-02 0.  1.
        2   -1    0    0  501    0  0.00000000000E+00  0.00000000000E+00 -0.10233276996E+04  0.10233276996E+04  0.25500000920E-02 0. -1.
    10030    2    1    2    0    0  0.00000000000E+00  0.00000000000E+00 -0.90372218404E+03  0.11429332152E+04  0.69970175675E+03 0.  0.
        2    1    3    3  502    0 -0.96598241823E+02 -0.31823700840E+03 -0.62922197955E+03  0.71170662031E+03  0.25500000920E-02 0. -1.
       -2    1    3    3    0  502  0.96598241823E+02  0.31823700840E+03 -0.27450020449E+03  0.43122659486E+03  0.25500000920E-02 0.  1.
</event>
<event>
 5   0  0.1257442E-02  0.7089957E+03  0.7818609E-02  0.9701971E-01
        1   -1    0    0  501    0  0.00000000000E+00  0.00000000000E+00  0.81183291065E+03  0.81183291067E+03  0.50400001928E-02 0.  1.
       -1   -1    0    0    0  501  0.00000000000E+00  0.00000000000E+00 -0.15479628284E+03  0.15479628292E+03  0.50400001928E-02 0. -1.
    10030    2    1    2    0    0  0.00000000000E+00  0.00000000000E+00  0.65703662781E+03  0.96662919359E+03  0.70899567531E+03 0.  0.
        1    1    3    3  502    0  0.72490250911E+02 -0.12599614581E+03  0.76933211571E+03  0.78294429529E+03  0.50400001928E-02 0.  1.
       -1    1    3    3    0  502 -0.72490250911E+02  0.12599614581E+03 -0.11229548789E+03  0.18368489830E+03  0.50400001928E-02 0. -1.
</event>
<event>
 5   0  0.1973067E-02  0.7265789E+03  0.7818609E-02  0.9672828E-01
        2   -1    0    0  501    0  0.00000000000E+00  0.00000000000E+00  0.13441632071E+04  0.13441632071E+04  0.25500000920E-02 0. -1.
       -2   -1    0    0    0  501  0.00000000000E+00  0.00000000000E+00 -0.98186901021E+02  0.98186901055E+02  0.25500000920E-02 0.  1.
    10030    2    1    2    0    0  0.00000000000E+00  0.00000000000E+00  0.12459763061E+04  0.14423501082E+04  0.72657888711E+03 0.  0.
        5    1    3    3  502    0  0.13622646877E+02 -0.31081073813E+03  0.99526259783E+03  0.10427648920E+04  0.46999998093E+01 0.  1.
       -5    1    3    3    0  502 -0.13622646877E+02  0.31081073813E+03  0.25071370828E+03  0.39958521614E+03  0.46999998093E+01 0. -1.
</event>
<event>
 5   0  0.1257442E-02  0.6962096E+03  0.7818609E-02  0.9723736E-01
       -1   -1    0    0    0  501  0.00000000000E+00  0.00000000000E+00  0.48025386307E+03  0.48025386310E+03  0.50400001928E-02 0.  1.
        1   -1    0    0  501    0  0.00000000000E+00  0.00000000000E+00 -0.25231853356E+03  0.25231853361E+03  0.50400001928E-02 0. -1.
    10030    2    1    2    0    0  0.00000000000E+00  0.00000000000E+00  0.22793532951E+03  0.73257239671E+03  0.69620959630E+03 0.  0.
        1    1    3    3  502    0  0.42758169951E+02  0.62012870937E+02  0.47157576932E+03  0.47755372838E+03  0.50400001928E-02 0.  1.
       -1    1    3    3    0  502 -0.42758169951E+02 -0.62012870937E+02 -0.24364043981E+03  0.25501866832E+03  0.50400001928E-02 0. -1.
</event>
<event>
 5   0  0.2026361E-02  0.6954458E+03  0.7818609E-02  0.9725052E-01
       -2   -1    0    0    0  501  0.00000000000E+00  0.00000000000E+00  0.16853841230E+03  0.16853841232E+03  0.25500000920E-02 0.  1.
        2   -1    0    0  501    0  0.00000000000E+00  0.00000000000E+00 -0.71741038013E+03  0.71741038014E+03  0.25500000920E-02 0. -1.
    10030    2    1    2    0    0  0.00000000000E+00  0.00000000000E+00 -0.54887196783E+03  0.88594879246E+03  0.69544577488E+03 0.  0.
        2    1    3    3  502    0 -0.43775159083E+02  0.33020194755E+03 -0.40158419079E+03  0.52174654097E+03  0.25500000920E-02 0. -1.
       -2    1    3    3    0  502  0.43775159083E+02 -0.33020194755E+03 -0.14728777704E+03  0.36420225149E+03  0.25500000920E-02 0.  1.
</event>
<event>
 5   0  0.7947250E-03  0.7002954E+03  0.7818609E-02  0.9716727E-01
       -3   -1    0    0    0  501  0.00000000000E+00  0.00000000000E+00  0.11538718401E+03  0.11538722821E+03  0.10100000352E+00 0. -1.
        3   -1    0    0  501    0  0.00000000000E+00  0.00000000000E+00 -0.10625391042E+04  0.10625391090E+04  0.10100000352E+00 0.  1.
    10030    2    1    2    0    0  0.00000000000E+00  0.00000000000E+00 -0.94715192017E+03  0.11779263372E+04  0.70029543478E+03 0.  0.
        2    1    3    3  502    0 -0.32582606461E+02 -0.15333801171E+03  0.53065057545E+02  0.16549946349E+03  0.25500000920E-02 0. -1.
       -2    1    3    3    0  502  0.32582606461E+02  0.15333801171E+03 -0.10002169777E+04  0.10124268737E+04  0.25500000920E-02 0.  1.
</event>
<event>
 5   0  0.1973067E-02  0.7000456E+03  0.7818609E-02  0.9717154E-01
       -2   -1    0    0    0  501  0.00000000000E+00  0.00000000000E+00  0.72568711491E+02  0.72568711536E+02  0.25500000920E-02 0.  1.
        2   -1    0    0  501    0  0.00000000000E+00  0.00000000000E+00 -0.16882753533E+04  0.16882753533E+04  0.25500000920E-02 0. -1.
    10030    2    1    2    0    0  0.00000000000E+00  0.00000000000E+00 -0.16157066418E+04  0.17608440648E+04  0.70004561872E+03 0.  0.
        5    1    3    3  502    0 -0.18341419986E+03  0.28830255243E+01 -0.15575931010E+04  0.15683645746E+04  0.46999998093E+01 0. -1.
       -5    1    3    3    0  502  0.18341419986E+03 -0.28830255243E+01 -0.58113540827E+02  0.19247949027E+03  0.46999998093E+01 0.  1.
</event>
<event>
 5   0  0.1257442E-02  0.6990833E+03  0.7818609E-02  0.9718801E-01
       -1   -1    0    0    0  501  0.00000000000E+00  0.00000000000E+00  0.76505715005E+02  0.76505715171E+02  0.50400001928E-02 0. -1.
        1   -1    0    0  501    0  0.00000000000E+00  0.00000000000E+00 -0.15969966308E+04  0.15969966308E+04  0.50400001928E-02 0.  1.
    10030    2    1    2    0    0  0.00000000000E+00  0.00000000000E+00 -0.15204909158E+04  0.16735023460E+04  0.69908331191E+03 0.  0.
        1    1    3    3  502    0 -0.27000208993E+03  0.21798440964E+03 -0.65978810486E+03  0.74547882248E+03  0.50400001928E-02 0. -1.
       -1    1    3    3    0  502  0.27000208993E+03 -0.21798440964E+03 -0.86070281097E+03  0.92802352354E+03  0.50400001928E-02 0.  1.
</event>
<event>
 5   0  0.1223742E-02  0.6894012E+03  0.7818609E-02  0.9735531E-01
       -1   -1    0    0    0  501  0.00000000000E+00  0.00000000000E+00  0.51901157811E+03  0.51901157813E+03  0.50400001928E-02 0.  1.
        1   -1    0    0  501    0  0.00000000000E+00  0.00000000000E+00 -0.22893230999E+03  0.22893231005E+03  0.50400001928E-02 0. -1.
    10030    2    1    2    0    0  0.00000000000E+00  0.00000000000E+00  0.29007926812E+03  0.74794388818E+03  0.68940124607E+03 0.  0.
        2    1    3    3  502    0 -0.83877894940E+02  0.30469726229E+02  0.50626134118E+03  0.51406658232E+03  0.25500000920E-02 0.  1.
       -2    1    3    3    0  502  0.83877894940E+02 -0.30469726229E+02 -0.21618207307E+03  0.23387730586E+03  0.25500000920E-02 0. -1.
</event>
<event>
 5   0  0.1948138E-02  0.6990360E+03  0.7818609E-02  0.9718882E-01
        2   -1    0    0  501    0  0.00000000000E+00  0.00000000000E+00  0.10113259428E+04  0.10113259428E+04  0.25500000920E-02 0.  1.
       -2   -1    0    0    0  501  0.00000000000E+00  0.00000000000E+00 -0.12079471130E+03  0.12079471133E+03  0.25500000920E-02 0. -1.
    10030    2    1    2    0    0  0.00000000000E+00  0.00000000000E+00  0.89053123146E+03  0.11321206541E+04  0.69903597992E+03 0.  0.
        3    1    3    3  502    0  0.54736216884E+02 -0.23646319782E+03  0.85258026741E+03  0.88645587592E+03  0.10100000352E+00 0.  1.
       -3    1    3    3    0  502 -0.54736216884E+02  0.23646319782E+03  0.37950964044E+02  0.24566477817E+03  0.10100000352E+00 0. -1.
</event>
<event>
 5   0  0.1197259E-02  0.6969608E+03  0.7818609E-02  0.9722444E-01
       -1   -1    0    0    0  501  0.00000000000E+00  0.00000000000E+00  0.28637784872E+03  0.28637784877E+03  0.50400001928E-02 0.  1.
        1   -1    0    0  501    0  0.00000000000E+00  0.00000000000E+00 -0.42405018332E+03  0.42405018335E+03  0.50400001928E-02 0. -1.
    10030    2    1    2    0    0  0.00000000000E+00  0.00000000000E+00 -0.13767233460E+03  0.71042803211E+03  0.69696077156E+03 0.  0.
        3    1    3    3  502    0  0.13237473455E+03 -0.29385927640E+03  0.66247087415E+02  0.32903651996E+03  0.10100000352E+00 0.  1.
       -3    1    3    3    0  502 -0.13237473455E+03  0.29385927640E+03 -0.20391942201E+03  0.38139151216E+03  0.10100000352E+00 0. -1.
</event>
<event>
 5   0  0.1909053E-02  0.6935461E+03  0.7818609E-02  0.9728333E-01
        2   -1    0    0  501    0  0.00000000000E+00  0.00000000000E+00  0.47847004912E+03  0.47847004913E+03  0.25500000920E-02 0.  1.
       -2   -1    0    0    0  501  0.00000000000E+00  0.00000000000E+00 -0.25132512806E+03  0.25132512807E+03  0.25500000920E-02 0. -1.
    10030    2    1    2    0    0  0.00000000000E+00  0.00000000000E+00  0.22714492107E+03  0.72979517720E+03  0.69354609472E+03 0.  0.
        1    1    3    3  502    0  0.31837986361E+02 -0.34284655490E+03  0.15688352595E+03  0.37837793054E+03  0.50400001928E-02 0. -1.
       -1    1    3    3    0  502 -0.31837986361E+02  0.34284655490E+03  0.70261395116E+02  0.35141724666E+03  0.50400001928E-02 0.  1.
</event>
<event>
 5   0  0.1257442E-02  0.6614266E+03  0.7818609E-02  0.9785571E-01
        1   -1    0    0  501    0  0.00000000000E+00  0.00000000000E+00  0.27678635238E+03  0.27678635243E+03  0.50400001928E-02 0. -1.
       -1   -1    0    0    0  501  0.00000000000E+00  0.00000000000E+00 -0.39514690503E+03  0.39514690506E+03  0.50400001928E-02 0.  1.
    10030    2    1    2    0    0  0.00000000000E+00  0.00000000000E+00 -0.11836055265E+03  0.67193325749E+03  0.66142655079E+03 0.  0.
        1    1    3    3  502    0 -0.27454975451E+03 -0.18437140947E+03 -0.58223958110E+02  0.33579817399E+03  0.50400001928E-02 0.  1.
       -1    1    3    3    0  502  0.27454975451E+03  0.18437140947E+03 -0.60136594541E+02  0.33613508350E+03  0.50400001928E-02 0. -1.
</event>
<event>
 5   0  0.2026361E-02  0.6958895E+03  0.7818609E-02  0.9724288E-01
        2   -1    0    0  501    0  0.00000000000E+00  0.00000000000E+00  0.12526015921E+04  0.12526015921E+04  0.25500000920E-02 0.  1.
       -2   -1    0    0    0  501  0.00000000000E+00  0.00000000000E+00 -0.96651279173E+02  0.96651279207E+02  0.25500000920E-02 0. -1.
    10030    2    1    2    0    0  0.00000000000E+00  0.00000000000E+00  0.11559503129E+04  0.13492528713E+04  0.69588949179E+03 0.  0.
        2    1    3    3  502    0  0.37277433744E+02 -0.28605383563E+03  0.95518332881E+03  0.99779336317E+03  0.25500000920E-02 0.  1.
       -2    1    3    3    0  502 -0.37277433744E+02  0.28605383563E+03  0.20076698413E+03  0.35145950815E+03  0.25500000920E-02 0. -1.
</event>
<event>
 5   0  0.1197259E-02  0.7005558E+03  0.7818609E-02  0.9716282E-01
       -1   -1    0    0    0  501  0.00000000000E+00  0.00000000000E+00  0.22784160171E+03  0.22784160176E+03  0.50400001928E-02 0. -1.
        1   -1    0    0  501    0  0.00000000000E+00  0.00000000000E+00 -0.53850842398E+03  0.53850842400E+03  0.50400001928E-02 0.  1.
    10030    2    1    2    0    0  0.00000000000E+00  0.00000000000E+00 -0.31066682227E+03  0.76635002576E+03  0.70055584183E+03 0.  0.
        3    1    3    3  502    0 -0.19656692000E+03  0.17734484484E+03  0.95564685704E+02  0.28146468230E+03  0.10100000352E+00 0. -1.
       -3    1    3    3    0  502  0.19656692000E+03 -0.17734484484E+03 -0.40623150797E+03  0.48488534346E+03  0.10100000352E+00 0.  1.
</event>
<event>
 5   0  0.2006362E-02  0.7093774E+03  0.7818609E-02  0.9701329E-01
        2   -1    0    0  501    0  0.00000000000E+00  0.00000000000E+00  0.28956484574E+04  0.28956484574E+04  0.25500000920E-02 0.  1.
       -2   -1    0    0    0  501  0.00000000000E+00  0.00000000000E+00 -0.43445902581E+02  0.43445902656E+02  0.25500000920E-02 0. -1.
    10030    2    1    2    0    0  0.00000000000E+00  0.00000000000E+00  0.28522025548E+04  0.29390943600E+04  0.70937736332E+03 0.  0.
        4    1    3    3  502    0 -0.33709695496E+02  0.33969594216E+03  0.18250719549E+04  0.18567226314E+04  0.12699999809E+01 0. -1.
       -4    1    3    3    0  502  0.33709695496E+02 -0.33969594216E+03  0.10271305999E+04  0.10823717286E+04  0.12699999809E+01 0.  1.
</event>
<event>
 5   0  0.1909053E-02  0.6951514E+03  0.7818609E-02  0.9725560E-01
        2   -1    0    0  501    0  0.00000000000E+00  0.00000000000E+00  0.11668373197E+04  0.11668373197E+04  0.25500000920E-02 0. -1.
       -2   -1    0    0    0  501  0.00000000000E+00  0.00000000000E+00 -0.10353530803E+03  0.10353530806E+03  0.25500000920E-02 0.  1.
    10030    2    1    2    0    0  0.00000000000E+00  0.00000000000E+00  0.10633020116E+04  0.12703726277E+04  0.69515138305E+03 0.  0.
        1    1    3    3  502    0 -0.27659875074E+02  0.26381117896E+03  0.12119051040E+03  0.29163083972E+03  0.50400001928E-02 0.  1.
       -1    1    3    3    0  502  0.27659875074E+02 -0.26381117896E+03  0.94211150124E+03  0.97874178802E+03  0.50400001928E-02 0. -1.
</event>
<event>
 5   0  0.1197259E-02  0.6977993E+03  0.7818609E-02  0.9721003E-01
        1   -1    0    0  501    0  0.00000000000E+00  0.00000000000E+00  0.57688594501E+03  0.57688594503E+03  0.50400001928E-02 0.  1.
       -1   -1    0    0    0  501  0.00000000000E+00  0.00000000000E+00 -0.21101393081E+03  0.21101393087E+03  0.50400001928E-02 0. -1.
    10030    2    1    2    0    0  0.00000000000E+00  0.00000000000E+00  0.36587201420E+03  0.78789987590E+03  0.69779931476E+03 0.  0.
        3    1    3    3  502    0 -0.41423450721E+02 -0.26672890289E+03  0.43254774215E+03  0.50986053911E+03  0.10100000352E+00 0.  1.
       -3    1    3    3    0  502  0.41423450721E+02  0.26672890289E+03 -0.66675727945E+02  0.27803933679E+03  0.10100000352E+00 0. -1.
</event>
<event>
 5   0  0.1237686E-02  0.6996070E+03  0.7818609E-02  0.9717905E-01
        1   -1    0    0  501    0  0.00000000000E+00  0.00000000000E+00  0.57268991098E+03  0.57268991100E+03  0.50400001928E-02 0.  1.
       -1   -1    0    0    0  501  0.00000000000E+00  0.00000000000E+00 -0.21366271565E+03  0.21366271571E+03  0.50400001928E-02 0. -1.
    10030    2    1    2    0    0  0.00000000000E+00  0.00000000000E+00  0.35902719533E+03  0.78635262671E+03  0.69960698006E+03 0.  0.
        5    1    3    3  502    0 -0.63938150054E+01  0.19316755599E+03  0.50718339083E+03  0.54278141778E+03  0.46999998093E+01 0.  1.
       -5    1    3    3    0  502  0.63938150054E+01 -0.19316755599E+03 -0.14815619550E+03  0.24357120893E+03  0.46999998093E+01 0. -1.
</event>
<event>
 5   0  0.1197259E-02  0.6887802E+03  0.7818609E-02  0.9736614E-01
       -1   -1    0    0    0  501  0.00000000000E+00  0.00000000000E+00  0.70344109898E+03  0.70344109899E+03  0.50400001928E-02 0. -1.
        1   -1    0    0  501    0  0.00000000000E+00  0.00000000000E+00 -0.16860621261E+03  0.16860621269E+03  0.50400001928E-02 0.  1.
    10030    2    1    2    0    0  0.00000000000E+00  0.00000000000E+00  0.53483488636E+03  0.87204731168E+03  0.68878019581E+03 0.  0.
        3    1    3    3  502    0  0.24479755092E+03  0.26722843858E+02 -0.37400645311E+02  0.24907583141E+03  0.10100000352E+00 0.  1.
       -3    1    3    3    0  502 -0.24479755092E+03 -0.26722843858E+02  0.57223553168E+03  0.62297148027E+03  0.10100000352E+00 0. -1.
</event>
<event>
 5   0  0.1237686E-02  0.6995729E+03  0.7818609E-02  0.9717963E-01
        1   -1    0    0  501    0  0.00000000000E+00  0.00000000000E+00  0.67146905261E+03  0.67146905262E+03  0.50400001928E-02 0. -1.
       -1   -1    0    0    0  501  0.00000000000E+00  0.00000000000E+00 -0.18221327736E+03  0.18221327743E+03  0.50400001928E-02 0.  1.
    10030    2    1    2    0    0  0.00000000000E+00  0.00000000000E+00  0.48925577524E+03  0.85368233006E+03  0.69957294620E+03 0.  0.
        5    1    3    3  502    0 -0.27130756292E+03 -0.21466257475E+03  0.18192023819E+03  0.39090264486E+03  0.46999998093E+01 0.  1.
       -5    1    3    3    0  502  0.27130756292E+03  0.21466257475E+03  0.30733553705E+03  0.46277968520E+03  0.46999998093E+01 0. -1.
</event>
<event>
 5   0  0.2026361E-02  0.7044095E+03  0.7818609E-02  0.9709721E-01
       -2   -1    0    0    0  501  0.00000000000E+00  0.00000000000E+00  0.87532485823E+02  0.87532485861E+02  0.25500000920E-02 0. -1.
        2   -1    0    0  501    0  0.00000000000E+00  0.00000000000E+00 -0.14171672265E+04  0.14171672265E+04  0.25500000920E-02 0.  1.
    10030    2    1    2    0    0  0.00000000000E+00  0.00000000000E+00 -0.13296347406E+04  0.15046997123E+04  0.70440945533E+03 0.  0.
        2    1    3    3  502    0  0.18715118411E+03 -0.75645349290E+02 -0.48295954712E+02  0.20755790477E+03  0.25500000920E-02 0. -1.
       -2    1    3    3    0  502 -0.18715118411E+03  0.75645349290E+02 -0.12813387859E+04  0.12971418076E+04  0.25500000920E-02 0.  1.
</event>
<event>
 5   0  0.1197259E-02  0.7022465E+03  0.7818609E-02  0.9713398E-01
        1   -1    0    0  501    0  0.00000000000E+00  0.00000000000E+00  0.15781079742E+03  0.15781079750E+03  0.50400001928E-02 0. -1.
       -1   -1    0    0    0  501  0.00000000000E+00  0.00000000000E+00 -0.78123637909E+03  0.78123637910E+03  0.50400001928E-02 0.  1.
    10030    2    1    2    0    0  0.00000000000E+00  0.00000000000E+00 -0.62342558167E+03  0.93904717660E+03  0.70224649804E+03 0.  0.
        3    1    3    3  502    0  0.15517148687E+03 -0.15286193074E+03  0.56547029578E+02  0.22503896765E+03  0.10100000352E+00 0. -1.
       -3    1    3    3    0  502 -0.15517148687E+03  0.15286193074E+03 -0.67997261125E+03  0.71400820895E+03  0.10100000352E+00 0.  1.
</event>
<event>
 5   0  0.1909053E-02  0.7020380E+03  0.7818609E-02  0.9713753E-01
        2   -1    0    0  501    0  0.00000000000E+00  0.00000000000E+00  0.17103492101E+03  0.17103492103E+03  0.25500000920E-02 0.  1.
       -2   -1    0    0    0  501  0.00000000000E+00  0.00000000000E+00 -0.72040451200E+03  0.72040451201E+03  0.25500000920E-02 0. -1.
    10030    2    1    2    0    0  0.00000000000E+00  0.00000000000E+00 -0.54936959100E+03  0.89143943303E+03  0.70203797280E+03 0.  0.
        1    1    3    3  502    0  0.24912141493E+03 -0.82269617960E+02 -0.57080568476E+03  0.62821087160E+03  0.50400001928E-02 0. -1.
       -1    1    3    3    0  502 -0.24912141493E+03  0.82269617960E+02  0.21436093761E+02  0.26322856144E+03  0.50400001928E-02 0.  1.
</event>
<event>
 5   0  0.2006362E-02  0.6972842E+03  0.7818609E-02  0.9721888E-01
       -2   -1    0    0    0  501  0.00000000000E+00  0.00000000000E+00  0.76892783700E+02  0.76892783742E+02  0.25500000920E-02 0.  1.
        2   -1    0    0  501    0  0.00000000000E+00  0.00000000000E+00 -0.15807895221E+04  0.15807895221E+04  0.25500000920E-02 0. -1.
    10030    2    1    2    0    0  0.00000000000E+00  0.00000000000E+00 -0.15038967384E+04  0.16576823059E+04  0.69728417977E+03 0.  0.
        4    1    3    3  502    0  0.14236097821E+02 -0.40160697711E+02 -0.15745707104E+04  0.15751476385E+04  0.12699999809E+01 0. -1.
       -4    1    3    3    0  502 -0.14236097821E+02  0.40160697711E+02  0.70673971914E+02  0.82534667431E+02  0.12699999809E+01 0.  1.
</event>
<event>
 5   0  0.1197259E-02  0.6980416E+03  0.7818609E-02  0.9720587E-01
       -1   -1    0    0    0  501  0.00000000000E+00  0.00000000000E+00  0.26822643964E+03  0.26822643969E+03  0.50400001928E-02 0. -1.
        1   -1    0    0  501    0  0.00000000000E+00  0.00000000000E+00 -0.45415184304E+03  0.45415184307E+03  0.50400001928E-02 0.  1.
    10030    2    1    2    0    0  0.00000000000E+00  0.00000000000E+00 -0.18592540340E+03  0.72237828276E+03  0.69804163756E+03 0.  0.
        3    1    3    3  502    0 -0.31958587312E+03 -0.31189129284E+02 -0.23450711557E+03  0.39761978011E+03  0.10100000352E+00 0.  1.
       -3    1    3    3    0  502  0.31958587312E+03  0.31189129284E+02  0.48581712170E+02  0.32475850265E+03  0.10100000352E+00 0. -1.
</event>
<event>
 5   0  0.1948138E-02  0.7026452E+03  0.7818609E-02  0.9712719E-01
       -2   -1    0    0    0  501  0.00000000000E+00  0.00000000000E+00  0.10900273506E+03  0.10900273509E+03  0.25500000920E-02 0.  1.
        2   -1    0    0  501    0  0.00000000000E+00  0.00000000000E+00 -0.11323344485E+04  0.11323344485E+04  0.25500000920E-02 0. -1.
    10030    2    1    2    0    0  0.00000000000E+00  0.00000000000E+00 -0.10233317134E+04  0.12413371836E+04  0.70264515059E+03 0.  0.
        3    1    3    3  502    0 -0.11914452479E+03 -0.32496442191E+03 -0.40522168584E+03  0.53291830347E+03  0.10100000352E+00 0.  1.
       -3    1    3    3    0  502  0.11914452479E+03  0.32496442191E+03 -0.61811002759E+03  0.70841888012E+03  0.10100000352E+00 0. -1.
</event>
<event>
 5   0  0.1948138E-02  0.6985838E+03  0.7818609E-02  0.9719657E-01
        2   -1    0    0  501    0  0.00000000000E+00  0.00000000000E+00  0.10770937583E+04  0.10770937583E+04  0.25500000920E-02 0.  1.
       -2   -1    0    0    0  501  0.00000000000E+00  0.00000000000E+00 -0.11327224202E+03  0.11327224204E+03  0.25500000920E-02 0. -1.
    10030    2    1    2    0    0  0.00000000000E+00  0.00000000000E+00  0.96382151630E+03  0.11903660004E+04  0.69858378133E+03 0.  0.
        3    1    3    3  502    0  0.33794032275E+03 -0.13838046456E+02  0.33326768281E+03  0.47482892907E+03  0.10100000352E+00 0. -1.
       -3    1    3    3    0  502 -0.33794032275E+03  0.13838046456E+02  0.63055383349E+03  0.71553707130E+03  0.10100000352E+00 0.  1.
</event>
<event>
 5   0  0.1223742E-02  0.7014833E+03  0.7818609E-02  0.9714699E-01
        1   -1    0    0  501    0  0.00000000000E+00  0.00000000000E+00  0.10205182496E+04  0.10205182496E+04  0.50400001928E-02 0.  1.
       -1   -1    0    0    0  501  0.00000000000E+00  0.00000000000E+00 -0.12054630485E+03  0.12054630495E+03  0.50400001928E-02 0. -1.
    10030    2    1    2    0    0  0.00000000000E+00  0.00000000000E+00  0.89997194472E+03  0.11410645545E+04  0.70148329725E+03 0.  0.
        2    1    3    3  502    0 -0.57087961865E+02  0.34501808565E+03  0.40624193495E+03  0.53603080558E+03  0.25500000920E-02 0. -1.
       -2    1    3    3    0  502  0.57087961865E+02 -0.34501808565E+03  0.49373000977E+03  0.60503374895E+03  0.25500000920E-02 0.  1.
</event>
<event>
 5   0  0.1237686E-02  0.6665749E+03  0.7818609E-02  0.9776165E-01
       -1   -1    0    0    0  501  0.00000000000E+00  0.00000000000E+00  0.30832324699E+03  0.30832324703E+03  0.50400001928E-02 0.  1.
        1   -1    0    0  501    0  0.00000000000E+00  0.00000000000E+00 -0.36027296368E+03  0.36027296372E+03  0.50400001928E-02 0. -1.
    10030    2    1    2    0    0  0.00000000000E+00  0.00000000000E+00 -0.51949716689E+02  0.66859621075E+03  0.66657491699E+03 0.  0.
        5    1    3    3  502    0  0.29870626915E+03 -0.14665938478E+03 -0.44030266071E+02  0.33570100491E+03  0.46999998093E+01 0. -1.
       -5    1    3    3    0  502 -0.29870626915E+03  0.14665938478E+03 -0.79194506180E+01  0.33289520584E+03  0.46999998093E+01 0.  1.
</event>
<event>
 5   0  0.1257442E-02  0.6629884E+03  0.7818609E-02  0.9782708E-01
       -1   -1    0    0    0  501  0.00000000000E+00  0.00000000000E+00  0.52346734018E+03  0.52346734020E+03  0.50400001928E-02 0. -1.
        1   -1    0    0  501    0  0.00000000000E+00  0.00000000000E+00 -0.20992408115E+03  0.20992408121E+03  0.50400001928E-02 0.  1.
    10030    2    1    2    0    0  0.00000000000E+00  0.00000000000E+00  0.31354325903E+03  0.73339142141E+03  0.66298838732E+03 0.  0.
        1    1    3    3  502    0  0.29240696720E+03 -0.38623321399E+02 -0.10606372124E+02  0.29513740965E+03  0.50400001928E-02 0.  1.
       -1    1    3    3    0  502 -0.29240696720E+03  0.38623321399E+02  0.32414963115E+03  0.43825401176E+03  0.50400001928E-02 0. -1.
</event>
<event>
 5   0  0.1973067E-02  0.6866961E+03  0.7818609E-02  0.9740258E-01
        2   -1    0    0  501    0  0.00000000000E+00  0.00000000000E+00  0.11572302148E+04  0.11572302148E+04  0.25500000920E-02 0. -1.
       -2   -1    0    0    0  501  0.00000000000E+00  0.00000000000E+00 -0.10187073310E+03  0.10187073313E+03  0.25500000920E-02 0.  1.
    10030    2    1    2    0    0  0.00000000000E+00  0.00000000000E+00  0.10553594817E+04  0.12591009479E+04  0.68669612016E+03 0.  0.
        5    1    3    3  502    0 -0.23986445744E+02 -0.32474369966E+02  0.11528035428E+04  0.11535198449E+04  0.46999998093E+01 0. -1.
       -5    1    3    3    0  502  0.23986445744E+02  0.32474369966E+02 -0.97444061077E+02  0.10558110305E+03  0.46999998093E+01 0.  1.
</event>
<event>
 5   0  0.1948138E-02  0.7018896E+03  0.7818609E-02  0.9714006E-01
       -2   -1    0    0    0  501  0.00000000000E+00  0.00000000000E+00  0.60724628956E+03  0.60724628957E+03  0.25500000920E-02 0. -1.
        2   -1    0    0  501    0  0.00000000000E+00  0.00000000000E+00 -0.20282090170E+03  0.20282090172E+03  0.25500000920E-02 0.  1.
    10030    2    1    2    0    0  0.00000000000E+00  0.00000000000E+00  0.40442538786E+03  0.81006719128E+03  0.70188956400E+03 0.  0.
        3    1    3    3  502    0 -0.10314645916E+03 -0.32734392521E+03  0.11764613631E+03  0.36281381038E+03  0.10100000352E+00 0. -1.
       -3    1    3    3    0  502  0.10314645916E+03  0.32734392521E+03  0.28677925155E+03  0.44725338091E+03  0.10100000352E+00 0.  1.
</event>
<event>
 5   0  0.2006362E-02  0.7007133E+03  0.7818609E-02  0.9716013E-01
        2   -1    0    0  501    0  0.00000000000E+00  0.00000000000E+00  0.65557156270E+03  0.65557156270E+03  0.25500000920E-02 0.  1.
       -2   -1    0    0    0  501  0.00000000000E+00  0.00000000000E+00 -0.18724084342E+03  0.18724084344E+03  0.25500000920E-02 0. -1.
    10030    2    1    2    0    0  0.00000000000E+00  0.00000000000E+00  0.46833071928E+03  0.84281240614E+03  0.70071327184E+03 0.  0.
        4    1    3    3  502    0 -0.55800832401E+02 -0.34282577008E+03  0.17898199743E+03  0.39074212702E+03  0.12699999809E+01 0. -1.
       -4    1    3    3    0  502  0.55800832401E+02  0.34282577008E+03  0.28934872185E+03  0.45207027912E+03  0.12699999809E+01 0.  1.
</event>
<event>
 5   0  0.1948138E-02  0.7024842E+03  0.7818609E-02  0.9712993E-01
       -2   -1    0    0    0  501  0.00000000000E+00  0.00000000000E+00  0.11648957877E+04  0.11648957877E+04  0.25500000920E-02 0.  1.
        2   -1    0    0  501    0  0.00000000000E+00  0.00000000000E+00 -0.10590733080E+03  0.10590733083E+03  0.25500000920E-02 0. -1.
    10030    2    1    2    0    0  0.00000000000E+00  0.00000000000E+00  0.10589884569E+04  0.12708031185E+04  0.70248417365E+03 0.  0.
        3    1    3    3  502    0  0.33311839153E+03 -0.77178343027E+02  0.67474158356E+03  0.75643940550E+03  0.10100000352E+00 0.  1.
       -3    1    3    3    0  502 -0.33311839153E+03  0.77178343027E+02  0.38424687333E+03  0.51436371302E+03  0.10100000352E+00 0. -1.
</event>
<event>
 5   0  0.1237686E-02  0.7027839E+03  0.7818609E-02  0.9712483E-01
        1   -1    0    0  501    0  0.00000000000E+00  0.00000000000E+00  0.17144348785E+04  0.17144348785E+04  0.50400001928E-02 0. -1.
       -1   -1    0    0    0  501  0.00000000000E+00  0.00000000000E+00 -0.72021569313E+02  0.72021569489E+02  0.50400001928E-02 0.  1.
    10030    2    1    2    0    0  0.00000000000E+00  0.00000000000E+00  0.16424133092E+04  0.17864564480E+04  0.70278386605E+03 0.  0.
        5    1    3    3  502    0 -0.22314864700E+03 -0.51182427072E+02  0.14369026291E+03  0.27034041717E+03  0.46999998093E+01 0.  1.
       -5    1    3    3    0  502  0.22314864700E+03  0.51182427072E+02  0.14987230462E+04  0.15161160308E+04  0.46999998093E+01 0. -1.
</event>
<event>
 5   0  0.1226303E-02  0.6890130E+03  0.7818609E-02  0.9736208E-01
        1   -1    0    0  501    0  0.00000000000E+00  0.00000000000E+00  0.67800683791E+03  0.67800683793E+03  0.50400001928E-02 0. -1.
       -1   -1    0    0    0  501  0.00000000000E+00  0.00000000000E+00 -0.17504943416E+03  0.17504943423E+03  0.50400001928E-02 0.  1.
    10030    2    1    2    0    0  0.00000000000E+00  0.00000000000E+00  0.50295740375E+03  0.85305627216E+03  0.68901295596E+03 0.  0.
        4    1    3    3  502    0 -0.15681785161E+03  0.79438751392E+02  0.61829610124E+03  0.64280170777E+03  0.12699999809E+01 0. -1.
       -4    1    3    3    0  502  0.15681785161E+03 -0.79438751392E+02 -0.11533869749E+03  0.21025456438E+03  0.12699999809E+01 0.  1.
</event>
<event>
 5   0  0.1237686E-02  0.6988058E+03  0.7818609E-02  0.9719277E-01
       -1   -1    0    0    0  501  0.00000000000E+00  0.00000000000E+00  0.12674123775E+03  0.12674123785E+03  0.50400001928E-02 0. -1.
        1   -1    0    0  501    0  0.00000000000E+00  0.00000000000E+00 -0.96324110736E+03  0.96324110738E+03  0.50400001928E-02 0.  1.
    10030    2    1    2    0    0  0.00000000000E+00  0.00000000000E+00 -0.83649986961E+03  0.10899823452E+04  0.69880575344E+03 0.  0.
        5    1    3    3  502    0 -0.52284551452E+02 -0.15785221409E+03  0.61009139558E+02  0.17718690957E+03  0.46999998093E+01 0. -1.
       -5    1    3    3    0  502  0.52284551452E+02  0.15785221409E+03 -0.89750900917E+03  0.91279543566E+03  0.46999998093E+01 0.  1.
</event>
<event>
 5   0  0.1226303E-02  0.7009963E+03  0.7818609E-02  0.9715530E-01
       -1   -1    0    0    0  501  0.00000000000E+00  0.00000000000E+00  0.56846722609E+03  0.56846722611E+03  0.50400001928E-02 0.  1.
        1   -1    0    0  501    0  0.00000000000E+00  0.00000000000E+00 -0.21610560080E+03  0.21610560086E+03  0.50400001928E-02 0. -1.
    10030    2    1    2    0    0  0.00000000000E+00  0.00000000000E+00  0.35236162529E+03  0.78457282697E+03  0.70099629517E+03 0.  0.
        4    1    3    3  502    0  0.30340635499E+01  0.26010360410E+03 -0.86740084138E+02  0.27420529810E+03  0.12699999809E+01 0. -1.
       -4    1    3    3    0  502 -0.30340635499E+01 -0.26010360410E+03  0.43910170943E+03  0.51036752888E+03  0.12699999809E+01 0.  1.
</event>
<event>
 5   0  0.1948138E-02  0.7018266E+03  0.7818609E-02  0.9714114E-01
       -2   -1    0    0    0  501  0.00000000000E+00  0.00000000000E+00  0.16638498463E+03  0.16638498465E+03  0.25500000920E-02 0.  1.
        2   -1    0    0  501    0  0.00000000000E+00  0.00000000000E+00 -0.74009169567E+03  0.74009169567E+03  0.25500000920E-02 0. -1.
    10030    2    1    2    0    0  0.00000000000E+00  0.00000000000E+00 -0.57370671104E+03  0.90647668032E+03  0.70182660371E+03 0.  0.
        3    1    3    3  502    0 -0.13641656930E+03  0.82522704017E+02 -0.69061029619E+03  0.70877504785E+03  0.10100000352E+00 0. -1.
       -3    1    3    3    0  502  0.13641656930E+03 -0.82522704017E+02  0.11690358515E+03  0.19770163247E+03  0.10100000352E+00 0.  1.
</event>
<event>
 5   0  0.1197259E-02  0.7024894E+03  0.7818609E-02  0.9712984E-01
        1   -1    0    0  501    0  0.00000000000E+00  0.00000000000E+00  0.29305034327E+03  0.29305034332E+03  0.50400001928E-02 0. -1.
       -1   -1    0    0    0  501  0.00000000000E+00  0.00000000000E+00 -0.42099534773E+03  0.42099534776E+03  0.50400001928E-02 0.  1.
    10030    2    1    2    0    0  0.00000000000E+00  0.00000000000E+00 -0.12794500446E+03  0.71404569108E+03  0.70248937699E+03 0.  0.
        3    1    3    3  502    0 -0.14815711143E+03 -0.23365099518E+03  0.15598866694E+03  0.31760949550E+03  0.10100000352E+00 0. -1.
       -3    1    3    3    0  502  0.14815711143E+03  0.23365099518E+03 -0.28393367140E+03  0.39643619558E+03  0.10100000352E+00 0.  1.
</event>
<event>
 5   0  0.1973067E-02  0.6944759E+03  0.7818609E-02  0.9726726E-01
       -2   -1    0    0    0  501  0.00000000000E+00  0.00000000000E+00  0.13375875802E+03  0.13375875805E+03  0.25500000920E-02 0. -1.
        2   -1    0    0  501    0  0.00000000000E+00  0.00000000000E+00 -0.90143033471E+03  0.90143033471E+03  0.25500000920E-02 0.  1.
    10030    2    1    2    0    0  0.00000000000E+00  0.00000000000E+00 -0.76767157669E+03  0.10351890928E+04  0.69447592336E+03 0.  0.
        5    1    3    3  502    0  0.13767287216E+03 -0.12448466133E+02 -0.85859591580E+03  0.86966534982E+03  0.46999998093E+01 0.  1.
       -5    1    3    3    0  502 -0.13767287216E+03  0.12448466133E+02  0.90924339118E+02  0.16552374295E+03  0.46999998093E+01 0. -1.
</event>
<event>
 5   0  0.1948138E-02  0.6894836E+03  0.7818609E-02  0.9735388E-01
       -2   -1    0    0    0  501  0.00000000000E+00  0.00000000000E+00  0.23328452540E+03  0.23328452541E+03  0.25500000920E-02 0. -1.
        2   -1    0    0  501    0  0.00000000000E+00  0.00000000000E+00 -0.50945047610E+03  0.50945047611E+03  0.25500000920E-02 0.  1.
    10030    2    1    2    0    0  0.00000000000E+00  0.00000000000E+00 -0.27616595070E+03  0.74273500152E+03  0.68948361123E+03 0.  0.
        3    1    3    3  502    0  0.30476184699E+03 -0.30799387251E+02  0.32305698127E+02  0.30801307435E+03  0.10100000352E+00 0. -1.
       -3    1    3    3    0  502 -0.30476184699E+03  0.30799387251E+02 -0.30847164883E+03  0.43472192718E+03  0.10100000352E+00 0.  1.
</event>
<event>
 5   0  0.1197259E-02  0.6991093E+03  0.7818609E-02  0.9718757E-01
       -1   -1    0    0    0  501  0.00000000000E+00  0.00000000000E+00  0.13560053166E+04  0.13560053166E+04  0.50400001928E-02 0.  1.
        1   -1    0    0  501    0  0.00000000000E+00  0.00000000000E+00 -0.90109121946E+02  0.90109122086E+02  0.50400001928E-02 0. -1.
    10030    2    1    2    0    0  0.00000000000E+00  0.00000000000E+00  0.12658961947E+04  0.14461144387E+04  0.69910928628E+03 0.  0.
        3    1    3    3  502    0 -0.27042768560E+03 -0.48468235201E+02  0.18590040582E+03  0.33172168160E+03  0.10100000352E+00 0. -1.
       -3    1    3    3    0  502  0.27042768560E+03  0.48468235201E+02  0.10799957888E+04  0.11143927571E+04  0.10100000352E+00 0.  1.
</event>
<event>
 5   0  0.2006362E-02  0.6974468E+03  0.7818609E-02  0.9721609E-01
        2   -1    0    0  501    0  0.00000000000E+00  0.00000000000E+00  0.81731239190E+03  0.81731239191E+03  0.25500000920E-02 0.  1.
       -2   -1    0    0    0  501  0.00000000000E+00  0.00000000000E+00 -0.14879010852E+03  0.14879010854E+03  0.25500000920E-02 0. -1.
    10030    2    1    2    0    0  0.00000000000E+00  0.00000000000E+00  0.66852228338E+03  0.96610250045E+03  0.69744677072E+03 0.  0.
        4    1    3    3  502    0 -0.26626355254E+03  0.19077117869E+03  0.50000217028E+03  0.59774049990E+03  0.12699999809E+01 0.  1.
       -4    1    3    3    0  502  0.26626355254E+03 -0.19077117869E+03  0.16852011310E+03  0.36836200055E+03  0.12699999809E+01 0. -1.
</event>
<event>
 5   0  0.1973067E-02  0.6980589E+03  0.7818609E-02  0.9720558E-01
        2   -1    0    0  501    0  0.00000000000E+00  0.00000000000E+00  0.21745177535E+03  0.21745177536E+03  0.25500000920E-02 0.  1.
       -2   -1    0    0    0  501  0.00000000000E+00  0.00000000000E+00 -0.56022325810E+03  0.56022325811E+03  0.25500000920E-02 0. -1.
    10030    2    1    2    0    0  0.00000000000E+00  0.00000000000E+00 -0.34277148275E+03  0.77767503347E+03  0.69805885733E+03 0.  0.
        5    1    3    3  502    0 -0.14351434000E+03 -0.27460529148E+03  0.75405047497E+01  0.30997319417E+03  0.46999998093E+01 0.  1.
       -5    1    3    3    0  502  0.14351434000E+03  0.27460529148E+03 -0.35031198750E+03  0.46770183930E+03  0.46999998093E+01 0. -1.
</event>
<event>
 5   0  0.1223742E-02  0.7140751E+03  0.7818609E-02  0.9693460E-01
       -1   -1    0    0    0  501  0.00000000000E+00  0.00000000000E+00  0.13657913759E+03  0.13657913769E+03  0.50400001928E-02 0. -1.
        1   -1    0    0  501    0  0.00000000000E+00  0.00000000000E+00 -0.93334772207E+03  0.93334772208E+03  0.50400001928E-02 0.  1.
    10030    2    1    2    0    0  0.00000000000E+00  0.00000000000E+00 -0.79676858447E+03  0.10699268598E+04  0.71407514173E+03 0.  0.
        2    1    3    3  502    0  0.27372146821E+03  0.22233064536E+03 -0.48209667181E+03  0.59730357357E+03  0.25500000920E-02 0.  1.
       -2    1    3    3    0  502 -0.27372146821E+03 -0.22233064536E+03 -0.31467191267E+03  0.47262328620E+03  0.25500000920E-02 0. -1.
</event>
<event>
 5   0  0.1226303E-02  0.7026445E+03  0.7818609E-02  0.9712720E-01
        1   -1    0    0  501    0  0.00000000000E+00  0.00000000000E+00  0.56913936322E+03  0.56913936324E+03  0.50400001928E-02 0. -1.
       -1   -1    0    0    0  501  0.00000000000E+00  0.00000000000E+00 -0.21686658777E+03  0.21686658783E+03  0.50400001928E-02 0.  1.
    10030    2    1    2    0    0  0.00000000000E+00  0.00000000000E+00  0.35227277544E+03  0.78600595107E+03  0.70264446685E+03 0.  0.
        4    1    3    3  502    0  0.13769168483E+03 -0.24855064509E+03 -0.54990034167E+02  0.28941655102E+03  0.12699999809E+01 0.  1.
       -4    1    3    3    0  502 -0.13769168483E+03  0.24855064509E+03  0.40726280961E+03  0.49658940005E+03  0.12699999809E+01 0. -1.
</event>
<event>
 5   0  0.1197259E-02  0.6922446E+03  0.7818609E-02  0.9730588E-01
        1   -1    0    0  501    0  0.00000000000E+00  0.00000000000E+00  0.62252170128E+03  0.62252170130E+03  0.50400001928E-02 0. -1.
       -1   -1    0    0    0  501  0.00000000000E+00  0.00000000000E+00 -0.19244415180E+03  0.19244415187E+03  0.50400001928E-02 0.  1.
    10030    2    1    2    0    0  0.00000000000E+00  0.00000000000E+00  0.43007754948E+03  0.81496585317E+03  0.69224464120E+03 0.  0.
        3    1    3    3  502    0 -0.33649935772E+03 -0.54975463598E+02  0.28514905559E+03  0.44448184827E+03  0.10100000352E+00 0. -1.
       -3    1    3    3    0  502  0.33649935772E+03  0.54975463598E+02  0.14492849389E+03  0.37048400489E+03  0.10100000352E+00 0.  1.
</event>
<event>
 5   0  0.1237686E-02  0.6971374E+03  0.7818609E-02  0.9722140E-01
        1   -1    0    0  501    0  0.00000000000E+00  0.00000000000E+00  0.49348069981E+03  0.49348069984E+03  0.50400001928E-02 0. -1.
       -1   -1    0    0    0  501  0.00000000000E+00  0.00000000000E+00 -0.24621052583E+03  0.24621052588E+03  0.50400001928E-02 0.  1.
    10030    2    1    2    0    0  0.00000000000E+00  0.00000000000E+00  0.24727017398E+03  0.73969122572E+03  0.69713741147E+03 0.  0.
        5    1    3    3  502    0 -0.17004456953E+03  0.11679789088E+03 -0.17444212753E+03  0.27020186675E+03  0.46999998093E+01 0.  1.
       -5    1    3    3    0  502  0.17004456953E+03 -0.11679789088E+03  0.42171230152E+03  0.46948935897E+03  0.46999998093E+01 0. -1.
</event>
<event>
 5   0  0.1909053E-02  0.7028600E+03  0.7818609E-02  0.9712354E-01
        2   -1    0    0  501    0  0.00000000000E+00  0.00000000000E+00  0.75729899270E+03  0.75729899271E+03  0.25500000920E-02 0. -1.
       -2   -1    0    0    0  501  0.00000000000E+00  0.00000000000E+00 -0.16308360882E+03  0.16308360884E+03  0.25500000920E-02 0.  1.
    10030    2    1    2    0    0  0.00000000000E+00  0.00000000000E+00  0.59421538388E+03  0.92038260155E+03  0.70286002219E+03 0.  0.
        1    1    3    3  502    0  0.17758214056E+03  0.51058299476E+02  0.68855454476E+03  0.71291635395E+03  0.50400001928E-02 0. -1.
       -1    1    3    3    0  502 -0.17758214056E+03 -0.51058299476E+02 -0.94339160886E+02  0.20746624760E+03  0.50400001928E-02 0.  1.
</event>
<event>
 5   0  0.1257442E-02  0.7020663E+03  0.7818609E-02  0.9713705E-01
        1   -1    0    0  501    0  0.00000000000E+00  0.00000000000E+00  0.18124240326E+04  0.18124240326E+04  0.50400001928E-02 0.  1.
       -1   -1    0    0    0  501  0.00000000000E+00  0.00000000000E+00 -0.67988650313E+02  0.67988650499E+02  0.50400001928E-02 0. -1.
    10030    2    1    2    0    0  0.00000000000E+00  0.00000000000E+00  0.17444353823E+04  0.18804126831E+04  0.70206627593E+03 0.  0.
        1    1    3    3  502    0 -0.10611100629E+01 -0.25162495146E+03  0.21664998868E+03  0.33204436416E+03  0.50400001928E-02 0. -1.
       -1    1    3    3    0  502  0.10611100629E+01  0.25162495146E+03  0.15277853936E+04  0.15483683189E+04  0.50400001928E-02 0.  1.
</event>
<event>
 5   0  0.1909053E-02  0.6969353E+03  0.7818609E-02  0.9722488E-01
       -2   -1    0    0    0  501  0.00000000000E+00  0.00000000000E+00  0.26021101908E+03  0.26021101910E+03  0.25500000920E-02 0. -1.
        2   -1    0    0  501    0  0.00000000000E+00  0.00000000000E+00 -0.46665855151E+03  0.46665855152E+03  0.25500000920E-02 0.  1.
    10030    2    1    2    0    0  0.00000000000E+00  0.00000000000E+00 -0.20644753243E+03  0.72686957062E+03  0.69693528325E+03 0.  0.
        1    1    3    3  502    0 -0.85071770330E+02 -0.29013470656E+03 -0.28391141150E+03  0.41475419668E+03  0.50400001928E-02 0.  1.
       -1    1    3    3    0  502  0.85071770330E+02  0.29013470656E+03  0.77463879072E+02  0.31211537393E+03  0.50400001928E-02 0. -1.
</event>
<event>
 5   0  0.1197259E-02  0.7069489E+03  0.7818609E-02  0.9705422E-01
        1   -1    0    0  501    0  0.00000000000E+00  0.00000000000E+00  0.79232564223E+03  0.79232564224E+03  0.50400001928E-02 0.  1.
       -1   -1    0    0    0  501  0.00000000000E+00  0.00000000000E+00 -0.15769296798E+03  0.15769296806E+03  0.50400001928E-02 0. -1.
    10030    2    1    2    0    0  0.00000000000E+00  0.00000000000E+00  0.63463267425E+03  0.95001861030E+03  0.70694888690E+03 0.  0.
        3    1    3    3  502    0  0.22937413611E+03  0.81386495798E+02 -0.27154883863E+02  0.24489518969E+03  0.10100000352E+00 0. -1.
       -3    1    3    3    0  502 -0.22937413611E+03 -0.81386495798E+02  0.66178755811E+03  0.70512342061E+03  0.10100000352E+00 0.  1.
</event>
<event>
 5   0  0.1223742E-02  0.7127714E+03  0.7818609E-02  0.9695637E-01
       -1   -1    0    0    0  501  0.00000000000E+00  0.00000000000E+00  0.19311532728E+04  0.19311532728E+04  0.50400001928E-02 0. -1.
        1   -1    0    0  501    0  0.00000000000E+00  0.00000000000E+00 -0.65769384504E+02  0.65769384698E+02  0.50400001928E-02 0.  1.
    10030    2    1    2    0    0  0.00000000000E+00  0.00000000000E+00  0.18653838883E+04  0.19969226575E+04  0.71277138644E+03 0.  0.
        2    1    3    3  502    0 -0.12531538367E+03 -0.14681597922E+03  0.17720220041E+04  0.17825040982E+04  0.25500000920E-02 0. -1.
       -2    1    3    3    0  502  0.12531538367E+03  0.14681597922E+03  0.93361884181E+02  0.21441855927E+03  0.25500000920E-02 0.  1.
</event>
<event>
 5   0  0.1237686E-02  0.7129198E+03  0.7818609E-02  0.9695389E-01
        1   -1    0    0  501    0  0.00000000000E+00  0.00000000000E+00  0.63443331356E+03  0.63443331358E+03  0.50400001928E-02 0.  1.
       -1   -1    0    0    0  501  0.00000000000E+00  0.00000000000E+00 -0.20027901165E+03  0.20027901171E+03  0.50400001928E-02 0. -1.
    10030    2    1    2    0    0  0.00000000000E+00  0.00000000000E+00  0.43415430191E+03  0.83471232529E+03  0.71291984691E+03 0.  0.
        5    1    3    3  502    0  0.74722961936E+02  0.21219075755E+03  0.54077289978E+03  0.58571824094E+03  0.46999998093E+01 0.  1.
       -5    1    3    3    0  502 -0.74722961936E+02 -0.21219075755E+03 -0.10661859787E+03  0.24899408435E+03  0.46999998093E+01 0. -1.
</event>
<event>
 5   0  0.1973067E-02  0.7019285E+03  0.7818609E-02  0.9713940E-01
       -2   -1    0    0    0  501  0.00000000000E+00  0.00000000000E+00  0.13865635952E+03  0.13865635955E+03  0.25500000920E-02 0. -1.
        2   -1    0    0  501    0  0.00000000000E+00  0.00000000000E+00 -0.88835384018E+03  0.88835384019E+03  0.25500000920E-02 0.  1.
    10030    2    1    2    0    0  0.00000000000E+00  0.00000000000E+00 -0.74969748066E+03  0.10270101997E+04  0.70192851335E+03 0.  0.
        5    1    3    3  502    0  0.10294701755E+03  0.22268737304E+03 -0.77058278191E+01  0.24549791102E+03  0.46999998093E+01 0. -1.
       -5    1    3    3    0  502 -0.10294701755E+03 -0.22268737304E+03 -0.74199165284E+03  0.78151228872E+03  0.46999998093E+01 0.  1.
</event>
<event>
 5   0  0.1973067E-02  0.7116920E+03  0.7818609E-02  0.9697444E-01
        2   -1    0    0  501    0  0.00000000000E+00  0.00000000000E+00  0.12859269135E+04  0.12859269135E+04  0.25500000920E-02 0.  1.
       -2   -1    0    0    0  501  0.00000000000E+00  0.00000000000E+00 -0.98470886153E+02  0.98470886186E+02  0.25500000920E-02 0. -1.
    10030    2    1    2    0    0  0.00000000000E+00  0.00000000000E+00  0.11874560274E+04  0.13843977997E+04  0.71169196350E+03 0.  0.
        5    1    3    3  502    0  0.23117385870E+02 -0.12587258072E+03 -0.52090913816E+02  0.13825293273E+03  0.46999998093E+01 0. -1.
       -5    1    3    3    0  502 -0.23117385870E+02  0.12587258072E+03  0.12395469412E+04  0.12461448670E+04  0.46999998093E+01 0.  1.
</event>
<event>
 5   0  0.1973067E-02  0.6916004E+03  0.7818609E-02  0.9731705E-01
       -2   -1    0    0    0  501  0.00000000000E+00  0.00000000000E+00  0.63187476230E+03  0.63187476230E+03  0.25500000920E-02 0. -1.
        2   -1    0    0  501    0  0.00000000000E+00  0.00000000000E+00 -0.18924283438E+03  0.18924283440E+03  0.25500000920E-02 0.  1.
    10030    2    1    2    0    0  0.00000000000E+00  0.00000000000E+00  0.44263192792E+03  0.82111759670E+03  0.69160037884E+03 0.  0.
        5    1    3    3  502    0 -0.30822253516E+03 -0.39793459607E+02  0.40126120893E+03  0.50756014264E+03  0.46999998093E+01 0. -1.
       -5    1    3    3    0  502  0.30822253516E+03  0.39793459607E+02  0.41370718989E+02  0.31355745406E+03  0.46999998093E+01 0.  1.
</event>
<event>
 5   0  0.1226303E-02  0.6993068E+03  0.7818609E-02  0.9718418E-01
       -1   -1    0    0    0  501  0.00000000000E+00  0.00000000000E+00  0.27374282929E+03  0.27374282933E+03  0.50400001928E-02 0. -1.
        1   -1    0    0  501    0  0.00000000000E+00  0.00000000000E+00 -0.44661445404E+03  0.44661445407E+03  0.50400001928E-02 0.  1.
    10030    2    1    2    0    0  0.00000000000E+00  0.00000000000E+00 -0.17287162476E+03  0.72035728340E+03  0.69930681186E+03 0.  0.
        4    1    3    3  502    0  0.17025534018E+03 -0.15034055067E+03 -0.36027001305E+03  0.42589348110E+03  0.12699999809E+01 0.  1.
       -4    1    3    3    0  502 -0.17025534018E+03  0.15034055067E+03  0.18739838829E+03  0.29446380231E+03  0.12699999809E+01 0. -1.
</event>
<event>
 5   0  0.2026361E-02  0.6978336E+03  0.7818609E-02  0.9720944E-01
        2   -1    0    0  501    0  0.00000000000E+00  0.00000000000E+00  0.28575573495E+03  0.28575573496E+03  0.25500000920E-02 0.  1.
       -2   -1    0    0    0  501  0.00000000000E+00  0.00000000000E+00 -0.42603848264E+03  0.42603848265E+03  0.25500000920E-02 0. -1.
    10030    2    1    2    0    0  0.00000000000E+00  0.00000000000E+00 -0.14028274768E+03  0.71179421761E+03  0.69783361837E+03 0.  0.
        2    1    3    3  502    0 -0.33482328097E+03 -0.39835009490E+02  0.21372416100E+02  0.33786126981E+03  0.25500000920E-02 0. -1.
       -2    1    3    3    0  502  0.33482328097E+03  0.39835009490E+02 -0.16165516379E+03  0.37393294780E+03  0.25500000920E-02 0.  1.
</event>
<event>
 5   0  0.1948138E-02  0.7090240E+03  0.7818609E-02  0.9701923E-01
       -2   -1    0    0    0  501  0.00000000000E+00  0.00000000000E+00  0.21119219765E+03  0.21119219767E+03  0.25500000920E-02 0.  1.
        2   -1    0    0  501    0  0.00000000000E+00  0.00000000000E+00 -0.59509187663E+03  0.59509187663E+03  0.25500000920E-02 0. -1.
    10030    2    1    2    0    0  0.00000000000E+00  0.00000000000E+00 -0.38389967897E+03  0.80628407430E+03  0.70902400873E+03 0.  0.
        3    1    3    3  502    0  0.23491902075E+03 -0.29199569312E+02  0.10814186860E+03  0.26025801641E+03  0.10100000352E+00 0.  1.
       -3    1    3    3    0  502 -0.23491902075E+03  0.29199569312E+02 -0.49204154758E+03  0.54602605789E+03  0.10100000352E+00 0. -1.
</event>
<event>
 5   0  0.1257442E-02  0.6975568E+03  0.7818609E-02  0.9721420E-01
       -1   -1    0    0    0  501  0.00000000000E+00  0.00000000000E+00  0.22934826630E+03  0.22934826635E+03  0.50400001928E-02 0. -1.
        1   -1    0    0  501    0  0.00000000000E+00  0.00000000000E+00 -0.53040024172E+03  0.53040024174E+03  0.50400001928E-02 0.  1.
    10030    2    1    2    0    0  0.00000000000E+00  0.00000000000E+00 -0.30105197543E+03  0.75974850810E+03  0.69755681034E+03 0.  0.
        1    1    3    3  502    0  0.16325456466E+03 -0.27981465132E+03 -0.29126794690E+03  0.43564355716E+03  0.50400001928E-02 0. -1.
       -1    1    3    3    0  502 -0.16325456466E+03  0.27981465132E+03 -0.97840285235E+01  0.32410495093E+03  0.50400001928E-02 0.  1.
</event>
<event>
 5   0  0.1948138E-02  0.6748607E+03  0.7818609E-02  0.9761217E-01
        2   -1    0    0  501    0  0.00000000000E+00  0.00000000000E+00  0.20106296904E+04  0.20106296904E+04  0.25500000920E-02 0. -1.
       -2   -1    0    0    0  501  0.00000000000E+00  0.00000000000E+00 -0.56628641396E+02  0.56628641454E+02  0.25500000920E-02 0.  1.
    10030    2    1    2    0    0  0.00000000000E+00  0.00000000000E+00  0.19540010490E+04  0.20672583318E+04  0.67486066052E+03 0.  0.
        3    1    3    3  502    0  0.25527302250E+02 -0.30011899240E+03  0.51106446438E+03  0.59321998425E+03  0.10100000352E+00 0. -1.
       -3    1    3    3    0  502 -0.25527302250E+02  0.30011899240E+03  0.14429365846E+04  0.14740383476E+04  0.10100000352E+00 0.  1.
</event>
<event>
 5   0  0.1226303E-02  0.6969761E+03  0.7818609E-02  0.9722417E-01
       -1   -1    0    0    0  501  0.00000000000E+00  0.00000000000E+00  0.31956460846E+03  0.31956460850E+03  0.50400001928E-02 0. -1.
        1   -1    0    0  501    0  0.00000000000E+00  0.00000000000E+00 -0.38002930691E+03  0.38002930694E+03  0.50400001928E-02 0.  1.
    10030    2    1    2    0    0  0.00000000000E+00  0.00000000000E+00 -0.60464698444E+02  0.69959391544E+03  0.69697608766E+03 0.  0.
        4    1    3    3  502    0  0.21110464056E+03  0.19699697166E+02  0.24737297881E+03  0.32580400685E+03  0.12699999809E+01 0. -1.
       -4    1    3    3    0  502 -0.21110464056E+03 -0.19699697166E+02 -0.30783767725E+03  0.37378990860E+03  0.12699999809E+01 0.  1.
</event>
<event>
 5   0  0.1973067E-02  0.6982562E+03  0.7818609E-02  0.9720219E-01
        2   -1    0    0  501    0  0.00000000000E+00  0.00000000000E+00  0.77840213279E+03  0.77840213280E+03  0.25500000920E-02 0. -1.
       -2   -1    0    0    0  501  0.00000000000E+00  0.00000000000E+00 -0.15659058611E+03  0.15659058614E+03  0.25500000920E-02 0.  1.
    10030    2    1    2    0    0  0.00000000000E+00  0.00000000000E+00  0.62181154668E+03  0.93499271893E+03  0.69825624585E+03 0.  0.
        5    1    3    3  502    0  0.24099388509E+03  0.49672906078E+02 -0.20686775705E+02  0.24697263600E+03  0.46999998093E+01 0.  1.
       -5    1    3    3    0  502 -0.24099388509E+03 -0.49672906078E+02  0.64249832238E+03  0.68802008293E+03  0.46999998093E+01 0. -1.
</event>
<event>
 5   0  0.1197259E-02  0.7022325E+03  0.7818609E-02  0.9713422E-01
       -1   -1    0    0    0  501  0.00000000000E+00  0.00000000000E+00  0.11287846066E+03  0.11287846077E+03  0.50400001928E-02 0.  1.
        1   -1    0    0  501    0  0.00000000000E+00  0.00000000000E+00 -0.10921713989E+04  0.10921713989E+04  0.50400001928E-02 0. -1.
    10030    2    1    2    0    0  0.00000000000E+00  0.00000000000E+00 -0.97929293827E+03  0.12050498597E+04  0.70223251523E+03 0.  0.
        3    1    3    3  502    0 -0.92035622133E+02  0.19444109205E+03 -0.96583919935E+03  0.98950657564E+03  0.10100000352E+00 0. -1.
       -3    1    3    3    0  502  0.92035622133E+02 -0.19444109205E+03 -0.13453738916E+02  0.21554328408E+03  0.10100000352E+00 0.  1.
</event>
<event>
 5   0  0.2026361E-02  0.6981755E+03  0.7818609E-02  0.9720357E-01
       -2   -1    0    0    0  501  0.00000000000E+00  0.00000000000E+00  0.21901057210E+04  0.21901057210E+04  0.25500000920E-02 0.  1.
        2   -1    0    0  501    0  0.00000000000E+00  0.00000000000E+00 -0.55642184904E+02  0.55642184962E+02  0.25500000920E-02 0. -1.
    10030    2    1    2    0    0  0.00000000000E+00  0.00000000000E+00  0.21344635361E+04  0.22457479060E+04  0.69817552966E+03 0.  0.
        2    1    3    3  502    0  0.15357565031E+03  0.26444274430E+03  0.16087942499E+04  0.16376001905E+04  0.25500000920E-02 0.  1.
       -2    1    3    3    0  502 -0.15357565031E+03 -0.26444274430E+03  0.52566928620E+03  0.60814771548E+03  0.25500000920E-02 0. -1.
</event>
<event>
 5   0  0.1237686E-02  0.6882352E+03  0.7818609E-02  0.9737566E-01
       -1   -1    0    0    0  501  0.00000000000E+00  0.00000000000E+00  0.18336030209E+03  0.18336030216E+03  0.50400001928E-02 0. -1.
        1   -1    0    0  501    0  0.00000000000E+00  0.00000000000E+00 -0.64581547129E+03  0.64581547131E+03  0.50400001928E-02 0.  1.
    10030    2    1    2    0    0  0.00000000000E+00  0.00000000000E+00 -0.46245516920E+03  0.82917577347E+03  0.68823519221E+03 0.  0.
        5    1    3    3  502    0 -0.39377917975E+02  0.33675162850E+03 -0.30191626446E+03  0.45401299593E+03  0.46999998093E+01 0.  1.
       -5    1    3    3    0  502  0.39377917975E+02 -0.33675162850E+03 -0.16053890474E+03  0.37516277755E+03  0.46999998093E+01 0. -1.
</event>
<event>
 5   0  0.1223742E-02  0.7123010E+03  0.7818609E-02  0.9696424E-01
       -1   -1    0    0    0  501  0.00000000000E+00  0.00000000000E+00  0.37998693049E+03  0.37998693053E+03  0.50400001928E-02 0. -1.
        1   -1    0    0  501    0  0.00000000000E+00  0.00000000000E+00 -0.33380934005E+03  0.33380934009E+03  0.50400001928E-02 0.  1.
    10030    2    1    2    0    0  0.00000000000E+00  0.00000000000E+00  0.46177590442E+02  0.71379627061E+03  0.71230102210E+03 0.  0.
        2    1    3    3  502    0 -0.87065904267E+02  0.17854588538E+03  0.31931731622E+03  0.37606203386E+03  0.25500000920E-02 0. -1.
       -2    1    3    3    0  502  0.87065904267E+02 -0.17854588538E+03 -0.27313972577E+03  0.33773423675E+03  0.25500000920E-02 0.  1.
</event>
<event>
 5   0  0.1237686E-02  0.6898238E+03  0.7818609E-02  0.9734795E-01
        1   -1    0    0  501    0  0.00000000000E+00  0.00000000000E+00  0.23590300319E+03  0.23590300324E+03  0.50400001928E-02 0.  1.
       -1   -1    0    0    0  501  0.00000000000E+00  0.00000000000E+00 -0.50429295974E+03  0.50429295977E+03  0.50400001928E-02 0. -1.
    10030    2    1    2    0    0  0.00000000000E+00  0.00000000000E+00 -0.26838995655E+03  0.74019596301E+03  0.68982381437E+03 0.  0.
        5    1    3    3  502    0 -0.34478948545E+03 -0.50306917439E+01 -0.12766481574E+03  0.36773018956E+03  0.46999998093E+01 0. -1.
       -5    1    3    3    0  502  0.34478948545E+03  0.50306917439E+01 -0.14072514082E+03  0.37246577345E+03  0.46999998093E+01 0.  1.
</event>
<event>
 5   0  0.1973067E-02  0.7046311E+03  0.7818609E-02  0.9709345E-01
        2   -1    0    0  501    0  0.00000000000E+00  0.00000000000E+00  0.22006970789E+03  0.22006970790E+03  0.25500000920E-02 0.  1.
       -2   -1    0    0    0  501  0.00000000000E+00  0.00000000000E+00 -0.56403145322E+03  0.56403145323E+03  0.25500000920E-02 0. -1.
    10030    2    1    2    0    0  0.00000000000E+00  0.00000000000E+00 -0.34396174533E+03  0.78410116113E+03  0.70463107271E+03 0.  0.
        5    1    3    3  502    0 -0.18133145133E+03  0.11882436187E+03  0.13701185780E+03  0.25650470442E+03  0.46999998093E+01 0.  1.
       -5    1    3    3    0  502  0.18133145133E+03 -0.11882436187E+03 -0.48097360314E+03  0.52759645670E+03  0.46999998093E+01 0. -1.
</event>
<event>
 5   0  0.1237686E-02  0.7061207E+03  0.7818609E-02  0.9706822E-01
        1   -1    0    0  501    0  0.00000000000E+00  0.00000000000E+00  0.43634861185E+03  0.43634861188E+03  0.50400001928E-02 0. -1.
       -1   -1    0    0    0  501  0.00000000000E+00  0.00000000000E+00 -0.28566977386E+03  0.28566977390E+03  0.50400001928E-02 0.  1.
    10030    2    1    2    0    0  0.00000000000E+00  0.00000000000E+00  0.15067883799E+03  0.72201838578E+03  0.70612069590E+03 0.  0.
        5    1    3    3  502    0 -0.17740446124E+03  0.29420735892E+03  0.15840386477E+03  0.37834400654E+03  0.46999998093E+01 0. -1.
       -5    1    3    3    0  502  0.17740446124E+03 -0.29420735892E+03 -0.77250267821E+01  0.34367437924E+03  0.46999998093E+01 0.  1.
</event>
<event>
 5   0  0.1909053E-02  0.7034941E+03  0.7818609E-02  0.9711275E-01
        2   -1    0    0  501    0  0.00000000000E+00  0.00000000000E+00  0.16159252196E+04  0.16159252197E+04  0.25500000920E-02 0. -1.
       -2   -1    0    0    0  501  0.00000000000E+00  0.00000000000E+00 -0.76566646140E+02  0.76566646183E+02  0.25500000920E-02 0.  1.
    10030    2    1    2    0    0  0.00000000000E+00  0.00000000000E+00  0.15393585735E+04  0.16924918658E+04  0.70349406400E+03 0.  0.
        1    1    3    3  502    0  0.62102982716E+02 -0.45909587528E+02  0.15952757510E+04  0.15971440738E+04  0.50400001928E-02 0. -1.
       -1    1    3    3    0  502 -0.62102982716E+02  0.45909587528E+02 -0.55917177473E+02  0.95347792062E+02  0.50400001928E-02 0.  1.
</event>
<event>
 5   0  0.1973067E-02  0.6999925E+03  0.7818609E-02  0.9717245E-01
       -2   -1    0    0    0  501  0.00000000000E+00  0.00000000000E+00  0.88112940269E+02  0.88112940306E+02  0.25500000920E-02 0.  1.
        2   -1    0    0  501    0  0.00000000000E+00  0.00000000000E+00 -0.13902312763E+04  0.13902312763E+04  0.25500000920E-02 0. -1.
    10030    2    1    2    0    0  0.00000000000E+00  0.00000000000E+00 -0.13021183360E+04  0.14783442166E+04  0.69999247264E+03 0.  0.
        5    1    3    3  502    0  0.18073564904E+03  0.18442941697E+03 -0.15219475285E+03  0.29977477791E+03  0.46999998093E+01 0.  1.
       -5    1    3    3    0  502 -0.18073564904E+03 -0.18442941697E+03 -0.11499235832E+04  0.11785694387E+04  0.46999998093E+01 0. -1.
</event>
<event>
 5   0  0.1973067E-02  0.6994095E+03  0.7818609E-02  0.9718242E-01
        2   -1    0    0  501    0  0.00000000000E+00  0.00000000000E+00  0.33757700220E+03  0.33757700221E+03  0.25500000920E-02 0. -1.
       -2   -1    0    0    0  501  0.00000000000E+00  0.00000000000E+00 -0.36226824363E+03  0.36226824364E+03  0.25500000920E-02 0.  1.
    10030    2    1    2    0    0  0.00000000000E+00  0.00000000000E+00 -0.24691241427E+02  0.69984524585E+03  0.69940954436E+03 0.  0.
        5    1    3    3  502    0 -0.23603184657E+02  0.32254574735E+01 -0.36142369695E+03  0.36223844719E+03  0.46999998093E+01 0.  1.
       -5    1    3    3    0  502  0.23603184657E+02 -0.32254574735E+01  0.33673245553E+03  0.33760679867E+03  0.46999998093E+01 0. -1.
</event>
<event>
 5   0  0.1197259E-02  0.6983900E+03  0.7818609E-02  0.9719989E-01
       -1   -1    0    0    0  501  0.00000000000E+00  0.00000000000E+00  0.11511072809E+03  0.11511072820E+03  0.50400001928E-02 0. -1.
        1   -1    0    0  501    0  0.00000000000E+00  0.00000000000E+00 -0.10593031532E+04  0.10593031532E+04  0.50400001928E-02 0.  1.
    10030    2    1    2    0    0  0.00000000000E+00  0.00000000000E+00 -0.94419242508E+03  0.11744138814E+04  0.69839002656E+03 0.  0.
        3    1    3    3  502    0  0.16421270758E+02  0.11051006700E+03 -0.10284370984E+04  0.10344878001E+04  0.10100000352E+00 0.  1.
       -3    1    3    3    0  502 -0.16421270758E+02 -0.11051006700E+03  0.84244673298E+02  0.13992608128E+03  0.10100000352E+00 0. -1.
</event>
<event>
 5   0  0.1237686E-02  0.7001217E+03  0.7818609E-02  0.9717024E-01
        1   -1    0    0  501    0  0.00000000000E+00  0.00000000000E+00  0.85085156028E+02  0.85085156177E+02  0.50400001928E-02 0. -1.
       -1   -1    0    0    0  501  0.00000000000E+00  0.00000000000E+00 -0.14402346154E+04  0.14402346154E+04  0.50400001928E-02 0.  1.
    10030    2    1    2    0    0  0.00000000000E+00  0.00000000000E+00 -0.13551494593E+04  0.15253197716E+04  0.70012166682E+03 0.  0.
        5    1    3    3  502    0 -0.26428393933E+03  0.12481980445E+02 -0.17829452042E+03  0.31908122231E+03  0.46999998093E+01 0. -1.
       -5    1    3    3    0  502  0.26428393933E+03 -0.12481980445E+02 -0.11768549389E+04  0.12062385493E+04  0.46999998093E+01 0.  1.
</event>
<event>
 5   0  0.1973067E-02  0.6977690E+03  0.7818609E-02  0.9721055E-01
        2   -1    0    0  501    0  0.00000000000E+00  0.00000000000E+00  0.51705658036E+03  0.51705658037E+03  0.25500000920E-02 0. -1.
       -2   -1    0    0    0  501  0.00000000000E+00  0.00000000000E+00 -0.23541019282E+03  0.23541019284E+03  0.25500000920E-02 0.  1.
    10030    2    1    2    0    0  0.00000000000E+00  0.00000000000E+00  0.28164638754E+03  0.75246677321E+03  0.69776898553E+03 0.  0.
        5    1    3    3  502    0  0.12942257047E+03 -0.10284209088E+03  0.47210404159E+03  0.50023096015E+03  0.46999998093E+01 0. -1.
       -5    1    3    3    0  502 -0.12942257047E+03  0.10284209088E+03 -0.19045765406E+03  0.25223581306E+03  0.46999998093E+01 0.  1.
</event>
<event>
 5   0  0.1223742E-02  0.7016553E+03  0.7818609E-02  0.9714406E-01
        1   -1    0    0  501    0  0.00000000000E+00  0.00000000000E+00  0.22633014959E+03  0.22633014964E+03  0.50400001928E-02 0.  1.
       -1   -1    0    0    0  501  0.00000000000E+00  0.00000000000E+00 -0.54380751512E+03  0.54380751514E+03  0.50400001928E-02 0. -1.
    10030    2    1    2    0    0  0.00000000000E+00  0.00000000000E+00 -0.31747736553E+03  0.77013766478E+03  0.70165528937E+03 0.  0.
        2    1    3    3  502    0 -0.15844925775E+03  0.25751747173E+03  0.36556061322E+02  0.30456158844E+03  0.25500000920E-02 0.  1.
       -2    1    3    3    0  502  0.15844925775E+03 -0.25751747173E+03 -0.35403342685E+03  0.46557607634E+03  0.25500000920E-02 0. -1.
</event>
<event>
 5   0  0.1909053E-02  0.6968987E+03  0.7818609E-02  0.9722551E-01
       -2   -1    0    0    0  501  0.00000000000E+00  0.00000000000E+00  0.59488843249E+03  0.59488843250E+03  0.25500000920E-02 0.  1.
        2   -1    0    0  501    0  0.00000000000E+00  0.00000000000E+00 -0.20410036757E+03  0.20410036759E+03  0.25500000920E-02 0. -1.
    10030    2    1    2    0    0  0.00000000000E+00  0.00000000000E+00  0.39078806492E+03  0.79898880008E+03  0.69689869491E+03 0.  0.
        1    1    3    3  502    0  0.67062602832E+01  0.16271847370E+03  0.54857065994E+03  0.57223425674E+03  0.50400001928E-02 0.  1.
       -1    1    3    3    0  502 -0.67062602832E+01 -0.16271847370E+03 -0.15778259502E+03  0.22675454334E+03  0.50400001928E-02 0. -1.
</event>
<event>
 5   0  0.1237686E-02  0.6969343E+03  0.7818609E-02  0.9722489E-01
       -1   -1    0    0    0  501  0.00000000000E+00  0.00000000000E+00  0.15212009773E+03  0.15212009781E+03  0.50400001928E-02 0. -1.
        1   -1    0    0  501    0  0.00000000000E+00  0.00000000000E+00 -0.79824657054E+03  0.79824657056E+03  0.50400001928E-02 0.  1.
    10030    2    1    2    0    0  0.00000000000E+00  0.00000000000E+00 -0.64612647281E+03  0.95036666837E+03  0.69693427630E+03 0.  0.
        5    1    3    3  502    0 -0.70073253827E+02 -0.90122583454E+02 -0.77197786481E+03  0.78038724663E+03  0.46999998093E+01 0.  1.
       -5    1    3    3    0  502  0.70073253827E+02  0.90122583454E+02  0.12585139200E+03  0.16997942174E+03  0.46999998093E+01 0. -1.
</event>
<event>
 5   0  0.1257442E-02  0.7007874E+03  0.7818609E-02  0.9715887E-01
        1   -1    0    0  501    0  0.00000000000E+00  0.00000000000E+00  0.24221240878E+03  0.24221240883E+03  0.50400001928E-02 0.  1.
       -1   -1    0    0    0  501  0.00000000000E+00  0.00000000000E+00 -0.50689290553E+03  0.50689290555E+03  0.50400001928E-02 0. -1.
    10030    2    1    2    0    0  0.00000000000E+00  0.00000000000E+00 -0.26468049675E+03  0.74910531438E+03  0.70078741904E+03 0.  0.
        1    1    3    3  502    0  0.15327058822E+02  0.29668601938E+03  0.66260507066E+02  0.30438128663E+03  0.50400001928E-02 0.  1.
       -1    1    3    3    0  502 -0.15327058822E+02 -0.29668601938E+03 -0.33094100381E+03  0.44472402775E+03  0.50400001928E-02 0. -1.
</event>
<event>
 5   0  0.1257442E-02  0.7073062E+03  0.7818609E-02  0.9704819E-01
        1   -1    0    0  501    0  0.00000000000E+00  0.00000000000E+00  0.15358570101E+04  0.15358570101E+04  0.50400001928E-02 0. -1.
       -1   -1    0    0    0  501  0.00000000000E+00  0.00000000000E+00 -0.81433690007E+02  0.81433690163E+02  0.50400001928E-02 0.  1.
    10030    2    1    2    0    0  0.00000000000E+00  0.00000000000E+00  0.14544233201E+04  0.16172907003E+04  0.70730616791E+03 0.  0.
        1    1    3    3  502    0  0.90960953626E+02  0.46611954138E+02  0.15013495060E+04  0.15048245441E+04  0.50400001928E-02 0. -1.
       -1    1    3    3    0  502 -0.90960953626E+02 -0.46611954138E+02 -0.46926185845E+02  0.11246615623E+03  0.50400001928E-02 0.  1.
</event>
<event>
 5   0  0.1223742E-02  0.6845760E+03  0.7818609E-02  0.9743979E-01
       -1   -1    0    0    0  501  0.00000000000E+00  0.00000000000E+00  0.48502255375E+03  0.48502255377E+03  0.50400001928E-02 0.  1.
        1   -1    0    0  501    0  0.00000000000E+00  0.00000000000E+00 -0.24155797778E+03  0.24155797784E+03  0.50400001928E-02 0. -1.
    10030    2    1    2    0    0  0.00000000000E+00  0.00000000000E+00  0.24346457596E+03  0.72658053161E+03  0.68457597764E+03 0.  0.
        2    1    3    3  502    0  0.18482309935E+03  0.24227942739E+03  0.28718908533E+03  0.41873197839E+03  0.25500000920E-02 0.  1.
       -2    1    3    3    0  502 -0.18482309935E+03 -0.24227942739E+03 -0.43724509365E+02  0.30784855322E+03  0.25500000920E-02 0. -1.
</event>
<event>
 5   0  0.2006362E-02  0.6977010E+03  0.7818609E-02  0.9721172E-01
        2   -1    0    0  501    0  0.00000000000E+00  0.00000000000E+00  0.11098381568E+04  0.11098381568E+04  0.25500000920E-02 0.  1.
       -2   -1    0    0    0  501  0.00000000000E+00  0.00000000000E+00 -0.10965261433E+03  0.10965261436E+03  0.25500000920E-02 0. -1.
    10030    2    1    2    0    0  0.00000000000E+00  0.00000000000E+00  0.10001855425E+04  0.12194907712E+04  0.69770095429E+03 0.  0.
        4    1    3    3  502    0  0.27395760976E+03  0.13382116207E+03  0.79637698179E+03  0.85274778533E+03  0.12699999809E+01 0.  1.
       -4    1    3    3    0  502 -0.27395760976E+03 -0.13382116207E+03  0.20380856072E+03  0.36674298587E+03  0.12699999809E+01 0. -1.
</event>
<event>
 5   0  0.1909053E-02  0.6939071E+03  0.7818609E-02  0.9727709E-01
       -2   -1    0    0    0  501  0.00000000000E+00  0.00000000000E+00  0.14994867051E+03  0.14994867053E+03  0.25500000920E-02 0.  1.
        2   -1    0    0  501    0  0.00000000000E+00  0.00000000000E+00 -0.80278651918E+03  0.80278651919E+03  0.25500000920E-02 0. -1.
    10030    2    1    2    0    0  0.00000000000E+00  0.00000000000E+00 -0.65283784868E+03  0.95273518972E+03  0.69390711559E+03 0.  0.
        1    1    3    3  502    0  0.34669460896E+03 -0.75545931551E+00 -0.30804692668E+03  0.46377864511E+03  0.50400001928E-02 0. -1.
       -1    1    3    3    0  502 -0.34669460896E+03  0.75545931551E+00 -0.34479092199E+03  0.48895654461E+03  0.50400001928E-02 0.  1.
</event>
<event>
 5   0  0.1226303E-02  0.7145195E+03  0.7818609E-02  0.9692719E-01
       -1   -1    0    0    0  501  0.00000000000E+00  0.00000000000E+00  0.20214796429E+03  0.20214796435E+03  0.50400001928E-02 0.  1.
        1   -1    0    0  501    0  0.00000000000E+00  0.00000000000E+00 -0.63139159264E+03  0.63139159266E+03  0.50400001928E-02 0. -1.
    10030    2    1    2    0    0  0.00000000000E+00  0.00000000000E+00 -0.42924362835E+03  0.83353955701E+03  0.71451948932E+03 0.  0.
        4    1    3    3  502    0 -0.18483110867E+03  0.11551466062E+02  0.14177918127E+03  0.23323576965E+03  0.12699999809E+01 0.  1.
       -4    1    3    3    0  502  0.18483110867E+03 -0.11551466062E+02 -0.57102280963E+03  0.60030378736E+03  0.12699999809E+01 0. -1.
</event>
<event>
 5   0  0.1973067E-02  0.6958487E+03  0.7818609E-02  0.9724358E-01
        2   -1    0    0  501    0  0.00000000000E+00  0.00000000000E+00  0.11203552850E+03  0.11203552852E+03  0.25500000920E-02 0. -1.
       -2   -1    0    0    0  501  0.00000000000E+00  0.00000000000E+00 -0.10804728496E+04  0.10804728497E+04  0.25500000920E-02 0.  1.
    10030    2    1    2    0    0  0.00000000000E+00  0.00000000000E+00 -0.96843732115E+03  0.11925083782E+04  0.69584868112E+03 0.  0.
        5    1    3    3  502    0  0.58618632658E+02  0.23114961302E+03 -0.50119589400E+02  0.24372187208E+03  0.46999998093E+01 0. -1.
       -5    1    3    3    0  502 -0.58618632658E+02 -0.23114961302E+03 -0.91831773175E+03  0.94878650609E+03  0.46999998093E+01 0.  1.
</event>
<event>
 5   0  0.1948138E-02  0.6916085E+03  0.7818609E-02  0.9731691E-01
       -2   -1    0    0    0  501  0.00000000000E+00  0.00000000000E+00  0.96931913346E+02  0.96931913380E+02  0.25500000920E-02 0. -1.
        2   -1    0    0  501    0  0.00000000000E+00  0.00000000000E+00 -0.12336555451E+04  0.12336555451E+04  0.25500000920E-02 0.  1.
    10030    2    1    2    0    0  0.00000000000E+00  0.00000000000E+00 -0.11367236318E+04  0.13305874585E+04  0.69160853790E+03 0.  0.
        3    1    3    3  502    0  0.19217911458E+03  0.19026609889E+03 -0.98299108719E+03  0.10195123776E+04  0.10100000352E+00 0. -1.
       -3    1    3    3    0  502 -0.19217911458E+03 -0.19026609889E+03 -0.15373254459E+03  0.31107508086E+03  0.10100000352E+00 0.  1.
</event>
<event>
 5   0  0.2006362E-02  0.7021334E+03  0.7818609E-02  0.9713591E-01
        2   -1    0    0  501    0  0.00000000000E+00  0.00000000000E+00  0.27114036244E+03  0.27114036245E+03  0.25500000920E-02 0. -1.
       -2   -1    0    0    0  501  0.00000000000E+00  0.00000000000E+00 -0.45455361951E+03  0.45455361952E+03  0.25500000920E-02 0.  1.
    10030    2    1    2    0    0  0.00000000000E+00  0.00000000000E+00 -0.18341325707E+03  0.72569398197E+03  0.70213341510E+03 0.  0.
        4    1    3    3  502    0 -0.54667140361E+02  0.11642259751E+03 -0.42932278223E+03  0.44817673042E+03  0.12699999809E+01 0.  1.
       -4    1    3    3    0  502  0.54667140361E+02 -0.11642259751E+03  0.24590952516E+03  0.27751725155E+03  0.12699999809E+01 0. -1.
</event>
<event>
 5   0  0.2026361E-02  0.7009640E+03  0.7818609E-02  0.9715585E-01
        2   -1    0    0  501    0  0.00000000000E+00  0.00000000000E+00  0.10130066031E+04  0.10130066031E+04  0.25500000920E-02 0.  1.
       -2   -1    0    0    0  501  0.00000000000E+00  0.00000000000E+00 -0.12126044301E+03  0.12126044304E+03  0.25500000920E-02 0. -1.
    10030    2    1    2    0    0  0.00000000000E+00  0.00000000000E+00  0.89174616013E+03  0.11342670462E+04  0.70096399191E+03 0.  0.
        2    1    3    3  502    0 -0.59175701736E+01  0.34718609270E+03  0.36887162204E+03  0.50659596737E+03  0.25500000920E-02 0. -1.
       -2    1    3    3    0  502  0.59175701736E+01 -0.34718609270E+03  0.52287453809E+03  0.62767107882E+03  0.25500000920E-02 0.  1.
</event>
<event>
 5   0  0.2026361E-02  0.6202464E+03  0.7818609E-02  0.9864269E-01
        2   -1    0    0  501    0  0.00000000000E+00  0.00000000000E+00  0.15468661757E+04  0.15468661757E+04  0.25500000920E-02 0.  1.
       -2   -1    0    0    0  501  0.00000000000E+00  0.00000000000E+00 -0.62174999007E+02  0.62174999059E+02  0.25500000920E-02 0. -1.
    10030    2    1    2    0    0  0.00000000000E+00  0.00000000000E+00  0.14846911767E+04  0.16090411748E+04  0.62024641226E+03 0.  0.
        2    1    3    3  502    0  0.22662955443E+03  0.55589462709E+02  0.21243521537E+03  0.31556277353E+03  0.25500000920E-02 0. -1.
       -2    1    3    3    0  502 -0.22662955443E+03 -0.55589462709E+02  0.12722559613E+04  0.12934784012E+04  0.25500000920E-02 0.  1.
</event>
<event>
 5   0  0.2026361E-02  0.7017737E+03  0.7818609E-02  0.9714204E-01
        2   -1    0    0  501    0  0.00000000000E+00  0.00000000000E+00  0.60582330279E+03  0.60582330280E+03  0.25500000920E-02 0. -1.
       -2   -1    0    0    0  501  0.00000000000E+00  0.00000000000E+00 -0.20323015635E+03  0.20323015637E+03  0.25500000920E-02 0.  1.
    10030    2    1    2    0    0  0.00000000000E+00  0.00000000000E+00  0.40259314644E+03  0.80905345917E+03  0.70177365171E+03 0.  0.
        2    1    3    3  502    0  0.39980774693E+02 -0.17133597560E+03 -0.14870346216E+03  0.23036318835E+03  0.25500000920E-02 0.  1.
       -2    1    3    3    0  502 -0.39980774693E+02  0.17133597560E+03  0.55129660860E+03  0.57869027082E+03  0.25500000920E-02 0. -1.
</event>
<event>
 5   0  0.1948138E-02  0.6927486E+03  0.7818609E-02  0.9729714E-01
        2   -1    0    0  501    0  0.00000000000E+00  0.00000000000E+00  0.88760643264E+03  0.88760643264E+03  0.25500000920E-02 0. -1.
       -2   -1    0    0    0  501  0.00000000000E+00  0.00000000000E+00 -0.13516707562E+03  0.13516707565E+03  0.25500000920E-02 0.  1.
    10030    2    1    2    0    0  0.00000000000E+00  0.00000000000E+00  0.75243935701E+03  0.10227735083E+04  0.69274862921E+03 0.  0.
        3    1    3    3  502    0 -0.15706816080E+03  0.30299746416E+03  0.28890860657E+03  0.44715328867E+03  0.10100000352E+00 0. -1.
       -3    1    3    3    0  502  0.15706816080E+03 -0.30299746416E+03  0.46353075045E+03  0.57562021962E+03  0.10100000352E+00 0.  1.
</event>
<event>
 5   0  0.2006362E-02  0.6891426E+03  0.7818609E-02  0.9735982E-01
        2   -1    0    0  501    0  0.00000000000E+00  0.00000000000E+00  0.20318362237E+03  0.20318362239E+03  0.25500000920E-02 0.  1.
       -2   -1    0    0    0  501  0.00000000000E+00  0.00000000000E+00 -0.58434521741E+03  0.58434521741E+03  0.25500000920E-02 0. -1.
    10030    2    1    2    0    0  0.00000000000E+00  0.00000000000E+00 -0.38116159503E+03  0.78752883980E+03  0.68914259192E+03 0.  0.
        4    1    3    3  502    0 -0.33499521308E+03 -0.65597423360E+01 -0.98711053282E+02  0.34929973940E+03  0.12699999809E+01 0.  1.
       -4    1    3    3    0  502  0.33499521308E+03  0.65597423360E+01 -0.28245054175E+03  0.43822910040E+03  0.12699999809E+01 0. -1.
</event>
<event>
 5   0  0.1909053E-02  0.6980783E+03  0.7818609E-02  0.9720524E-01
        2   -1    0    0  501    0  0.00000000000E+00  0.00000000000E+00  0.10780174384E+04  0.10780174384E+04  0.25500000920E-02 0.  1.
       -2   -1    0    0    0  501  0.00000000000E+00  0.00000000000E+00 -0.11301144997E+03  0.11301145000E+03  0.25500000920E-02 0. -1.
    10030    2    1    2    0    0  0.00000000000E+00  0.00000000000E+00  0.96500598846E+03  0.11910288884E+04  0.69807825873E+03 0.  0.
        1    1    3    3  502    0  0.19945791828E+03  0.15835444578E+03  0.88972986028E+03  0.92546140706E+03  0.50400001928E-02 0.  1.
       -1    1    3    3    0  502 -0.19945791828E+03 -0.15835444578E+03  0.75276128186E+02  0.26556748137E+03  0.50400001928E-02 0. -1.
</event>
<event>
 5   0  0.1257442E-02  0.7065722E+03  0.7818609E-02  0.9706058E-01
        1   -1    0    0  501    0  0.00000000000E+00  0.00000000000E+00  0.63940170565E+03  0.63940170567E+03  0.50400001928E-02 0.  1.
       -1   -1    0    0    0  501  0.00000000000E+00  0.00000000000E+00 -0.19519976649E+03  0.19519976656E+03  0.50400001928E-02 0. -1.
    10030    2    1    2    0    0  0.00000000000E+00  0.00000000000E+00  0.44420193916E+03  0.83460147223E+03  0.70657218647E+03 0.  0.
        1    1    3    3  502    0  0.17497917814E+03  0.14401075679E+03 -0.98032499820E+02  0.24691533346E+03  0.50400001928E-02 0. -1.
       -1    1    3    3    0  502 -0.17497917814E+03 -0.14401075679E+03  0.54223443898E+03  0.58768613877E+03  0.50400001928E-02 0.  1.
</event>
<event>
 5   0  0.1197259E-02  0.7071398E+03  0.7818609E-02  0.9705100E-01
        1   -1    0    0  501    0  0.00000000000E+00  0.00000000000E+00  0.60758904675E+03  0.60758904677E+03  0.50400001928E-02 0.  1.
       -1   -1    0    0    0  501  0.00000000000E+00  0.00000000000E+00 -0.20575034629E+03  0.20575034635E+03  0.50400001928E-02 0. -1.
    10030    2    1    2    0    0  0.00000000000E+00  0.00000000000E+00  0.40183870045E+03  0.81333939312E+03  0.70713975084E+03 0.  0.
        3    1    3    3  502    0  0.92367118886E+02  0.25270677477E+03  0.46475827869E+03  0.53702203537E+03  0.10100000352E+00 0.  1.
       -3    1    3    3    0  502 -0.92367118886E+02 -0.25270677477E+03 -0.62919578233E+02  0.27631735775E+03  0.10100000352E+00 0. -1.
</event>
<event>
 5   0  0.1226303E-02  0.6980280E+03  0.7818609E-02  0.9720610E-01
       -1   -1    0    0    0  501  0.00000000000E+00  0.00000000000E+00  0.56503694116E+02  0.56503694341E+02  0.50400001928E-02 0. -1.
        1   -1    0    0  501    0  0.00000000000E+00  0.00000000000E+00 -0.21558020633E+04  0.21558020633E+04  0.50400001928E-02 0.  1.
    10030    2    1    2    0    0  0.00000000000E+00  0.00000000000E+00 -0.20992983692E+04  0.22123057577E+04  0.69802802412E+03 0.  0.
        4    1    3    3  502    0 -0.98590596369E+02  0.28267281128E+03 -0.16182402324E+04  0.16456995736E+04  0.12699999809E+01 0.  1.
       -4    1    3    3    0  502  0.98590596369E+02 -0.28267281128E+03 -0.48105813682E+03  0.56660618408E+03  0.12699999809E+01 0. -1.
</event>
<event>
 5   0  0.2006362E-02  0.7280574E+03  0.7818609E-02  0.9670418E-01
        2   -1    0    0  501    0  0.00000000000E+00  0.00000000000E+00  0.89198733990E+03  0.89198733991E+03  0.25500000920E-02 0. -1.
       -2   -1    0    0    0  501  0.00000000000E+00  0.00000000000E+00 -0.14856365716E+03  0.14856365718E+03  0.25500000920E-02 0.  1.
    10030    2    1    2    0    0  0.00000000000E+00  0.00000000000E+00  0.74342368274E+03  0.10405509971E+04  0.72805741908E+03 0.  0.
        4    1    3    3  502    0  0.19910673663E+03 -0.41398326308E+02 -0.59802338206E+02  0.21197935406E+03  0.12699999809E+01 0.  1.
       -4    1    3    3    0  502 -0.19910673663E+03  0.41398326308E+02  0.80322602095E+03  0.82857164302E+03  0.12699999809E+01 0. -1.
</event>
<event>
 5   0  0.2026361E-02  0.6986584E+03  0.7818609E-02  0.9719529E-01
        2   -1    0    0  501    0  0.00000000000E+00  0.00000000000E+00  0.53634982017E+03  0.53634982018E+03  0.25500000920E-02 0. -1.
       -2   -1    0    0    0  501  0.00000000000E+00  0.00000000000E+00 -0.22752106479E+03  0.22752106480E+03  0.25500000920E-02 0.  1.
    10030    2    1    2    0    0  0.00000000000E+00  0.00000000000E+00  0.30882875539E+03  0.76387088498E+03  0.69865837772E+03 0.  0.
        2    1    3    3  502    0  0.34252314930E+03 -0.66388653635E+02  0.13543553085E+03  0.37426240014E+03  0.25500000920E-02 0. -1.
       -2    1    3    3    0  502 -0.34252314930E+03  0.66388653635E+02  0.17339322454E+03  0.38960848484E+03  0.25500000920E-02 0.  1.
</event>
<event>
 5   0  0.2026361E-02  0.7043422E+03  0.7818609E-02  0.9709835E-01
        2   -1    0    0  501    0  0.00000000000E+00  0.00000000000E+00  0.10958851311E+04  0.10958851311E+04  0.25500000920E-02 0.  1.
       -2   -1    0    0    0  501  0.00000000000E+00  0.00000000000E+00 -0.11317289044E+03  0.11317289047E+03  0.25500000920E-02 0. -1.
    10030    2    1    2    0    0  0.00000000000E+00  0.00000000000E+00  0.98271224070E+03  0.12090580216E+04  0.70434221199E+03 0.  0.
        2    1    3    3  502    0  0.50334027871E+02  0.26757387877E+02 -0.10520092240E+03  0.11965243937E+03  0.25500000920E-02 0. -1.
       -2    1    3    3    0  502 -0.50334027871E+02 -0.26757387877E+02  0.10879131631E+04  0.10894055822E+04  0.25500000920E-02 0.  1.
</event>
<event>
 5   0  0.1909053E-02  0.6969723E+03  0.7818609E-02  0.9722424E-01
       -2   -1    0    0    0  501  0.00000000000E+00  0.00000000000E+00  0.27486123980E+03  0.27486123981E+03  0.25500000920E-02 0. -1.
        2   -1    0    0  501    0  0.00000000000E+00  0.00000000000E+00 -0.44183233874E+03  0.44183233875E+03  0.25500000920E-02 0.  1.
    10030    2    1    2    0    0  0.00000000000E+00  0.00000000000E+00 -0.16697109895E+03  0.71669357856E+03  0.69697226463E+03 0.  0.
        1    1    3    3  502    0  0.32878278474E+02 -0.33643280339E+03  0.36140215943E+01  0.33805483811E+03  0.50400001928E-02 0.  1.
       -1    1    3    3    0  502 -0.32878278474E+02  0.33643280339E+03 -0.17058512054E+03  0.37863874045E+03  0.50400001928E-02 0. -1.
</event>
<event>
 5   0  0.1973067E-02  0.7293659E+03  0.7818609E-02  0.9668290E-01
        2   -1    0    0  501    0  0.00000000000E+00  0.00000000000E+00  0.18807666276E+03  0.18807666278E+03  0.25500000920E-02 0.  1.
       -2   -1    0    0    0  501  0.00000000000E+00  0.00000000000E+00 -0.70712462509E+03  0.70712462510E+03  0.25500000920E-02 0. -1.
    10030    2    1    2    0    0  0.00000000000E+00  0.00000000000E+00 -0.51904796233E+03  0.89520128788E+03  0.72936586061E+03 0.  0.
        5    1    3    3  502    0 -0.16414378665E+02  0.31851600155E+03 -0.47649314559E+03  0.57340185112E+03  0.46999998093E+01 0. -1.
       -5    1    3    3    0  502  0.16414378665E+02 -0.31851600155E+03 -0.42554816739E+02  0.32179943676E+03  0.46999998093E+01 0.  1.
</event>
<event>
 5   0  0.1223742E-02  0.6932438E+03  0.7818609E-02  0.9728857E-01
        1   -1    0    0  501    0  0.00000000000E+00  0.00000000000E+00  0.73230706964E+03  0.73230706966E+03  0.50400001928E-02 0. -1.
       -1   -1    0    0    0  501  0.00000000000E+00  0.00000000000E+00 -0.16406604712E+03  0.16406604720E+03  0.50400001928E-02 0.  1.
    10030    2    1    2    0    0  0.00000000000E+00  0.00000000000E+00  0.56824102252E+03  0.89637311685E+03  0.69324375579E+03 0.  0.
        2    1    3    3  502    0  0.19207888270E+03  0.79375874935E+01 -0.88817726771E+02  0.21176848460E+03  0.25500000920E-02 0.  1.
       -2    1    3    3    0  502 -0.19207888270E+03 -0.79375874935E+01  0.65705874929E+03  0.68460463225E+03  0.25500000920E-02 0. -1.
</event>
<event>
 5   0  0.1197259E-02  0.6959711E+03  0.7818609E-02  0.9724147E-01
       -1   -1    0    0    0  501  0.00000000000E+00  0.00000000000E+00  0.21769911929E+03  0.21769911935E+03  0.50400001928E-02 0. -1.
        1   -1    0    0  501    0  0.00000000000E+00  0.00000000000E+00 -0.55624450348E+03  0.55624450350E+03  0.50400001928E-02 0.  1.
    10030    2    1    2    0    0  0.00000000000E+00  0.00000000000E+00 -0.33854538419E+03  0.77394362285E+03  0.69597108718E+03 0.  0.
        3    1    3    3  502    0 -0.49460827695E+02  0.83926538491E+02 -0.54077181796E+03  0.54947630216E+03  0.10100000352E+00 0.  1.
       -3    1    3    3    0  502  0.49460827695E+02 -0.83926538491E+02  0.20222643377E+03  0.22446732069E+03  0.10100000352E+00 0. -1.
</event>
<event>
 5   0  0.1257442E-02  0.7005362E+03  0.7818609E-02  0.9716316E-01
       -1   -1    0    0    0  501  0.00000000000E+00  0.00000000000E+00  0.27246089016E+03  0.27246089021E+03  0.50400001928E-02 0. -1.
        1   -1    0    0  501    0  0.00000000000E+00  0.00000000000E+00 -0.45029492738E+03  0.45029492741E+03  0.50400001928E-02 0.  1.
    10030    2    1    2    0    0  0.00000000000E+00  0.00000000000E+00 -0.17783403722E+03  0.72275581762E+03  0.70053624253E+03 0.  0.
        1    1    3    3  502    0 -0.59259194732E+02  0.51891568946E+01 -0.44504533893E+03  0.44900326640E+03  0.50400001928E-02 0.  1.
       -1    1    3    3    0  502  0.59259194732E+02 -0.51891568946E+01  0.26721130171E+03  0.27375255121E+03  0.50400001928E-02 0. -1.
</event>
<event>
 5   0  0.1223742E-02  0.6994138E+03  0.7818609E-02  0.9718235E-01
       -1   -1    0    0    0  501  0.00000000000E+00  0.00000000000E+00  0.19683697885E+03  0.19683697892E+03  0.50400001928E-02 0.  1.
        1   -1    0    0  501    0  0.00000000000E+00  0.00000000000E+00 -0.62130043784E+03  0.62130043786E+03  0.50400001928E-02 0. -1.
    10030    2    1    2    0    0  0.00000000000E+00  0.00000000000E+00 -0.42446345898E+03  0.81813741678E+03  0.69941375788E+03 0.  0.
        2    1    3    3  502    0 -0.27449757857E+03 -0.31908039161E+02 -0.46291778555E+03  0.53912885268E+03  0.25500000920E-02 0. -1.
       -2    1    3    3    0  502  0.27449757857E+03  0.31908039161E+02  0.38454326566E+02  0.27900856410E+03  0.25500000920E-02 0.  1.
</event>
<event>
 5   0  0.1948138E-02  0.7047900E+03  0.7818609E-02  0.9709076E-01
       -2   -1    0    0    0  501  0.00000000000E+00  0.00000000000E+00  0.21404877043E+03  0.21404877044E+03  0.25500000920E-02 0. -1.
        2   -1    0    0  501    0  0.00000000000E+00  0.00000000000E+00 -0.58015862847E+03  0.58015862848E+03  0.25500000920E-02 0.  1.
    10030    2    1    2    0    0  0.00000000000E+00  0.00000000000E+00 -0.36610985804E+03  0.79420739892E+03  0.70479001436E+03 0.  0.
        3    1    3    3  502    0  0.13110157180E+03  0.10166788668E+03  0.16728823629E+03  0.23560421369E+03  0.10100000352E+00 0. -1.
       -3    1    3    3    0  502 -0.13110157180E+03 -0.10166788668E+03 -0.53339809433E+03  0.55860318523E+03  0.10100000352E+00 0.  1.
</event>
<event>
 5   0  0.1223742E-02  0.7001973E+03  0.7818609E-02  0.9716895E-01
        1   -1    0    0  501    0  0.00000000000E+00  0.00000000000E+00  0.10917063631E+04  0.10917063631E+04  0.50400001928E-02 0.  1.
       -1   -1    0    0    0  501  0.00000000000E+00  0.00000000000E+00 -0.11227293581E+03  0.11227293593E+03  0.50400001928E-02 0. -1.
    10030    2    1    2    0    0  0.00000000000E+00  0.00000000000E+00  0.97943342731E+03  0.12039792991E+04  0.70019733935E+03 0.  0.
        2    1    3    3  502    0 -0.13969543834E+03  0.30658520478E+02  0.10391840551E+04  0.10489796284E+04  0.25500000920E-02 0.  1.
       -2    1    3    3    0  502  0.13969543834E+03 -0.30658520478E+02 -0.59750627818E+02  0.15499967065E+03  0.25500000920E-02 0. -1.
</event>
<event>
 5   0  0.1973067E-02  0.7038037E+03  0.7818609E-02  0.9710749E-01
       -2   -1    0    0    0  501  0.00000000000E+00  0.00000000000E+00  0.34786691945E+03  0.34786691946E+03  0.25500000920E-02 0.  1.
        2   -1    0    0  501    0  0.00000000000E+00  0.00000000000E+00 -0.35598354673E+03  0.35598354674E+03  0.25500000920E-02 0. -1.
    10030    2    1    2    0    0  0.00000000000E+00  0.00000000000E+00 -0.81166272844E+01  0.70385046620E+03  0.70380366518E+03 0.  0.
        5    1    3    3  502    0 -0.40586046392E+02  0.21976615715E+03 -0.27586383826E+03  0.35505962633E+03  0.46999998093E+01 0. -1.
       -5    1    3    3    0  502  0.40586046392E+02 -0.21976615715E+03  0.26774721098E+03  0.34879083987E+03  0.46999998093E+01 0.  1.
</event>
<event>
 5   0  0.1909053E-02  0.7002128E+03  0.7818609E-02  0.9716868E-01
       -2   -1    0    0    0  501  0.00000000000E+00  0.00000000000E+00  0.11470068961E+03  0.11470068963E+03  0.25500000920E-02 0.  1.
        2   -1    0    0  501    0  0.00000000000E+00  0.00000000000E+00 -0.10686466363E+04  0.10686466363E+04  0.25500000920E-02 0. -1.
    10030    2    1    2    0    0  0.00000000000E+00  0.00000000000E+00 -0.95394594671E+03  0.11833473260E+04  0.70021284236E+03 0.  0.
        1    1    3    3  502    0  0.17442354917E+03  0.13805716416E+03 -0.93386603466E+03  0.95999433634E+03  0.50400001928E-02 0. -1.
       -1    1    3    3    0  502 -0.17442354917E+03 -0.13805716416E+03 -0.20079912054E+02  0.22335298962E+03  0.50400001928E-02 0.  1.
</event>
<event>
 5   0  0.1237686E-02  0.7157429E+03  0.7818609E-02  0.9690682E-01
       -1   -1    0    0    0  501  0.00000000000E+00  0.00000000000E+00  0.80930921153E+03  0.80930921154E+03  0.50400001928E-02 0.  1.
        1   -1    0    0  501    0  0.00000000000E+00  0.00000000000E+00 -0.15824851709E+03  0.15824851717E+03  0.50400001928E-02 0. -1.
    10030    2    1    2    0    0  0.00000000000E+00  0.00000000000E+00  0.65106069443E+03  0.96755772871E+03  0.71574292212E+03 0.  0.
        5    1    3    3  502    0  0.11895997768E+03  0.14087192011E+03 -0.89048698702E+02  0.20481243835E+03  0.46999998093E+01 0. -1.
       -5    1    3    3    0  502 -0.11895997768E+03 -0.14087192011E+03  0.74010939313E+03  0.76274529036E+03  0.46999998093E+01 0.  1.
</event>
<event>
 5   0  0.1197259E-02  0.6953522E+03  0.7818609E-02  0.9725214E-01
       -1   -1    0    0    0  501  0.00000000000E+00  0.00000000000E+00  0.26112353534E+03  0.26112353539E+03  0.50400001928E-02 0. -1.
        1   -1    0    0  501    0  0.00000000000E+00  0.00000000000E+00 -0.46291752746E+03  0.46291752749E+03  0.50400001928E-02 0.  1.
    10030    2    1    2    0    0  0.00000000000E+00  0.00000000000E+00 -0.20179399212E+03  0.72404106287E+03  0.69535217370E+03 0.  0.
        3    1    3    3  502    0 -0.16100197700E+03  0.74099678666E+01 -0.42166888961E+03  0.45142131860E+03  0.10100000352E+00 0.  1.
       -3    1    3    3    0  502  0.16100197700E+03 -0.74099678666E+01  0.21987489749E+03  0.27261974427E+03  0.10100000352E+00 0. -1.
</event>
<event>
 5   0  0.1226303E-02  0.7042622E+03  0.7818609E-02  0.9709971E-01
       -1   -1    0    0    0  501  0.00000000000E+00  0.00000000000E+00  0.35503598558E+03  0.35503598561E+03  0.50400001928E-02 0.  1.
        1   -1    0    0  501    0  0.00000000000E+00  0.00000000000E+00 -0.34925000245E+03  0.34925000249E+03  0.50400001928E-02 0. -1.
    10030    2    1    2    0    0  0.00000000000E+00  0.00000000000E+00  0.57859831210E+01  0.70428598810E+03  0.70426222065E+03 0.  0.
        4    1    3    3  502    0  0.31667987356E+03  0.19898512014E+02 -0.14979684568E+03  0.35088858769E+03  0.12699999809E+01 0.  1.
       -4    1    3    3    0  502 -0.31667987356E+03 -0.19898512014E+02  0.15558282880E+03  0.35339740041E+03  0.12699999809E+01 0. -1.
</event>
<event>
 5   0  0.1237686E-02  0.7016885E+03  0.7818609E-02  0.9714349E-01
        1   -1    0    0  501    0  0.00000000000E+00  0.00000000000E+00  0.26451109211E+03  0.26451109216E+03  0.50400001928E-02 0. -1.
       -1   -1    0    0    0  501  0.00000000000E+00  0.00000000000E+00 -0.46535551092E+03  0.46535551095E+03  0.50400001928E-02 0.  1.
    10030    2    1    2    0    0  0.00000000000E+00  0.00000000000E+00 -0.20084441881E+03  0.72986660310E+03  0.70168851905E+03 0.  0.
        5    1    3    3  502    0 -0.13935260452E+03 -0.17336543083E+03  0.18175564837E+03  0.28728370421E+03  0.46999998093E+01 0. -1.
       -5    1    3    3    0  502  0.13935260452E+03  0.17336543083E+03 -0.38260006717E+03  0.44258289889E+03  0.46999998093E+01 0.  1.
</event>
<event>
 5   0  0.2026361E-02  0.6941369E+03  0.7818609E-02  0.9727312E-01
       -2   -1    0    0    0  501  0.00000000000E+00  0.00000000000E+00  0.20634567772E+03  0.20634567773E+03  0.25500000920E-02 0.  1.
        2   -1    0    0  501    0  0.00000000000E+00  0.00000000000E+00 -0.58376083413E+03  0.58376083414E+03  0.25500000920E-02 0. -1.
    10030    2    1    2    0    0  0.00000000000E+00  0.00000000000E+00 -0.37741515641E+03  0.79010651187E+03  0.69413694601E+03 0.  0.
        2    1    3    3  502    0  0.19721860189E+02  0.17529487352E+03  0.15151388318E+03  0.23253752655E+03  0.25500000920E-02 0.  1.
       -2    1    3    3    0  502 -0.19721860189E+02 -0.17529487352E+03 -0.52892903959E+03  0.55756898531E+03  0.25500000920E-02 0. -1.
</event>
<event>
 5   0  0.1223742E-02  0.7061258E+03  0.7818609E-02  0.9706813E-01
       -1   -1    0    0    0  501  0.00000000000E+00  0.00000000000E+00  0.10124940927E+03  0.10124940940E+03  0.50400001928E-02 0.  1.
        1   -1    0    0  501    0  0.00000000000E+00  0.00000000000E+00 -0.12311520987E+04  0.12311520988E+04  0.50400001928E-02 0. -1.
    10030    2    1    2    0    0  0.00000000000E+00  0.00000000000E+00 -0.11299026895E+04  0.13324015082E+04  0.70612583244E+03 0.  0.
        2    1    3    3  502    0  0.16135613871E+03 -0.12194438607E+03 -0.11110085317E+04  0.11292679905E+04  0.25500000920E-02 0. -1.
       -2    1    3    3    0  502 -0.16135613871E+03  0.12194438607E+03 -0.18894157757E+02  0.20313351766E+03  0.25500000920E-02 0.  1.
</event>
<event>
 5   0  0.1973067E-02  0.7021333E+03  0.7818609E-02  0.9713591E-01
        2   -1    0    0  501    0  0.00000000000E+00  0.00000000000E+00  0.11768108107E+04  0.11768108107E+04  0.25500000920E-02 0. -1.
       -2   -1    0    0    0  501  0.00000000000E+00  0.00000000000E+00 -0.10473033464E+03  0.10473033467E+03  0.25500000920E-02 0.  1.
    10030    2    1    2    0    0  0.00000000000E+00  0.00000000000E+00  0.10720804761E+04  0.12815411454E+04  0.70213329227E+03 0.  0.
        5    1    3    3  502    0  0.95331199686E+02 -0.31178890373E+03  0.77349545391E+03  0.83941507333E+03  0.46999998093E+01 0. -1.
       -5    1    3    3    0  502 -0.95331199686E+02  0.31178890373E+03  0.29858502214E+03  0.44212607203E+03  0.46999998093E+01 0.  1.
</event>
<event>
 5   0  0.1257442E-02  0.6969179E+03  0.7818609E-02  0.9722517E-01
        1   -1    0    0  501    0  0.00000000000E+00  0.00000000000E+00  0.18380243338E+03  0.18380243344E+03  0.50400001928E-02 0. -1.
       -1   -1    0    0    0  501  0.00000000000E+00  0.00000000000E+00 -0.66062047915E+03  0.66062047917E+03  0.50400001928E-02 0.  1.
    10030    2    1    2    0    0  0.00000000000E+00  0.00000000000E+00 -0.47681804577E+03  0.84442291261E+03  0.69691793388E+03 0.  0.
        1    1    3    3  502    0 -0.26261765662E+03 -0.78714641006E+02  0.22193979382E+02  0.27505745041E+03  0.50400001928E-02 0. -1.
       -1    1    3    3    0  502  0.26261765662E+03  0.78714641006E+02 -0.49901202515E+03  0.56936546220E+03  0.50400001928E-02 0.  1.
</event>
<event>
 5   0  0.1948138E-02  0.6945513E+03  0.7818609E-02  0.9726596E-01
       -2   -1    0    0    0  501  0.00000000000E+00  0.00000000000E+00  0.11334746269E+04  0.11334746269E+04  0.25500000920E-02 0.  1.
        2   -1    0    0  501    0  0.00000000000E+00  0.00000000000E+00 -0.10639884369E+03  0.10639884372E+03  0.25500000920E-02 0. -1.
    10030    2    1    2    0    0  0.00000000000E+00  0.00000000000E+00  0.10270757832E+04  0.12398734706E+04  0.69455133623E+03 0.  0.
        3    1    3    3  502    0 -0.34449766400E+03 -0.42676469863E+02  0.53143014428E+03  0.63475816657E+03  0.10100000352E+00 0.  1.
       -3    1    3    3    0  502  0.34449766400E+03  0.42676469863E+02  0.49564563889E+03  0.60511530400E+03  0.10100000352E+00 0. -1.
</event>
<event>
 5   0  0.1973067E-02  0.6964218E+03  0.7818609E-02  0.9723371E-01
        2   -1    0    0  501    0  0.00000000000E+00  0.00000000000E+00  0.46650813101E+03  0.46650813102E+03  0.25500000920E-02 0. -1.
       -2   -1    0    0    0  501  0.00000000000E+00  0.00000000000E+00 -0.25991147118E+03  0.25991147119E+03  0.25500000920E-02 0.  1.
    10030    2    1    2    0    0  0.00000000000E+00  0.00000000000E+00  0.20659665983E+03  0.72641960221E+03  0.69642175341E+03 0.  0.
        5    1    3    3  502    0 -0.28462135890E+02 -0.26801530640E+03 -0.12661952984E+03  0.29782023602E+03  0.46999998093E+01 0.  1.
       -5    1    3    3    0  502  0.28462135890E+02  0.26801530640E+03  0.33321618967E+03  0.42859936619E+03  0.46999998093E+01 0. -1.
</event>
<event>
 5   0  0.1973067E-02  0.6895040E+03  0.7818609E-02  0.9735352E-01
       -2   -1    0    0    0  501  0.00000000000E+00  0.00000000000E+00  0.91283587528E+02  0.91283587563E+02  0.25500000920E-02 0.  1.
        2   -1    0    0  501    0  0.00000000000E+00  0.00000000000E+00 -0.13020296359E+04  0.13020296359E+04  0.25500000920E-02 0. -1.
    10030    2    1    2    0    0  0.00000000000E+00  0.00000000000E+00 -0.12107460484E+04  0.13933132235E+04  0.68950398478E+03 0.  0.
        5    1    3    3  502    0 -0.33493591482E+01 -0.32061216275E+03 -0.86120687110E+03  0.91896830301E+03  0.46999998093E+01 0. -1.
       -5    1    3    3    0  502  0.33493591482E+01  0.32061216275E+03 -0.34953917726E+03  0.47434492044E+03  0.46999998093E+01 0.  1.
</event>
<event>
 5   0  0.1948138E-02  0.7003768E+03  0.7818609E-02  0.9716588E-01
        2   -1    0    0  501    0  0.00000000000E+00  0.00000000000E+00  0.53662236017E+03  0.53662236017E+03  0.25500000920E-02 0. -1.
       -2   -1    0    0    0  501  0.00000000000E+00  0.00000000000E+00 -0.22852551412E+03  0.22852551414E+03  0.25500000920E-02 0.  1.
    10030    2    1    2    0    0  0.00000000000E+00  0.00000000000E+00  0.30809684604E+03  0.76514787431E+03  0.70037675791E+03 0.  0.
        3    1    3    3  502    0  0.13392275175E+03 -0.31207497207E+03  0.24742705520E+03  0.42017407045E+03  0.10100000352E+00 0. -1.
       -3    1    3    3    0  502 -0.13392275175E+03  0.31207497207E+03  0.60669790841E+02  0.34497380386E+03  0.10100000352E+00 0.  1.
</event>
<event>
 5   0  0.1257442E-02  0.6981538E+03  0.7818609E-02  0.9720395E-01
        1   -1    0    0  501    0  0.00000000000E+00  0.00000000000E+00  0.52047851732E+03  0.52047851735E+03  0.50400001928E-02 0.  1.
       -1   -1    0    0    0  501  0.00000000000E+00  0.00000000000E+00 -0.23412046205E+03  0.23412046211E+03  0.50400001928E-02 0. -1.
    10030    2    1    2    0    0  0.00000000000E+00  0.00000000000E+00  0.28635805527E+03  0.75459897945E+03  0.69815376814E+03 0.  0.
        1    1    3    3  502    0 -0.13036435332E+03 -0.26169707038E+03  0.34931953613E+03  0.45552646423E+03  0.50400001928E-02 0.  1.
       -1    1    3    3    0  502  0.13036435332E+03  0.26169707038E+03 -0.62961480857E+02  0.29907251522E+03  0.50400001928E-02 0. -1.
</event>
<event>
 5   0  0.1223742E-02  0.7022916E+03  0.7818609E-02  0.9713321E-01
       -1   -1    0    0    0  501  0.00000000000E+00  0.00000000000E+00  0.89975777254E+03  0.89975777255E+03  0.50400001928E-02 0.  1.
        1   -1    0    0  501    0  0.00000000000E+00  0.00000000000E+00 -0.13704064357E+03  0.13704064366E+03  0.50400001928E-02 0. -1.
    10030    2    1    2    0    0  0.00000000000E+00  0.00000000000E+00  0.76271712897E+03  0.10367984162E+04  0.70229163247E+03 0.  0.
        2    1    3    3  502    0  0.22737315544E+03  0.17962965117E+03  0.67416666295E+03  0.73380246173E+03  0.25500000920E-02 0.  1.
       -2    1    3    3    0  502 -0.22737315544E+03 -0.17962965117E+03  0.88550466019E+02  0.30299595449E+03  0.25500000920E-02 0. -1.
</event>
<event>
 5   0  0.1237686E-02  0.6930346E+03  0.7818609E-02  0.9729219E-01
       -1   -1    0    0    0  501  0.00000000000E+00  0.00000000000E+00  0.16330952993E+03  0.16330953001E+03  0.50400001928E-02 0. -1.
        1   -1    0    0  501    0  0.00000000000E+00  0.00000000000E+00 -0.73525556021E+03  0.73525556023E+03  0.50400001928E-02 0.  1.
    10030    2    1    2    0    0  0.00000000000E+00  0.00000000000E+00 -0.57194603028E+03  0.89856509024E+03  0.69303460220E+03 0.  0.
        5    1    3    3  502    0 -0.39723615947E+02 -0.21824517444E+03 -0.63107208953E+03  0.66894169702E+03  0.46999998093E+01 0.  1.
       -5    1    3    3    0  502  0.39723615947E+02  0.21824517444E+03  0.59126059255E+02  0.22962339322E+03  0.46999998093E+01 0. -1.
</event>
<event>
 5   0  0.2026361E-02  0.7427459E+03  0.7818609E-02  0.9646800E-01
        2   -1    0    0  501    0  0.00000000000E+00  0.00000000000E+00  0.69665912219E+03  0.69665912220E+03  0.25500000920E-02 0.  1.
       -2   -1    0    0    0  501  0.00000000000E+00  0.00000000000E+00 -0.19797037327E+03  0.19797037329E+03  0.25500000920E-02 0. -1.
    10030    2    1    2    0    0  0.00000000000E+00  0.00000000000E+00  0.49868874892E+03  0.89462949549E+03  0.74274589591E+03 0.  0.
        2    1    3    3  502    0  0.16723075309E+03  0.91065236258E+02 -0.13469484546E+03  0.23324172748E+03  0.25500000920E-02 0. -1.
       -2    1    3    3    0  502 -0.16723075309E+03 -0.91065236258E+02  0.63338359438E+03  0.66138776801E+03  0.25500000920E-02 0.  1.
</event>
<event>
 5   0  0.1197259E-02  0.6995844E+03  0.7818609E-02  0.9717943E-01
       -1   -1    0    0    0  501  0.00000000000E+00  0.00000000000E+00  0.15873768444E+03  0.15873768452E+03  0.50400001928E-02 0.  1.
        1   -1    0    0  501    0  0.00000000000E+00  0.00000000000E+00 -0.77079724707E+03  0.77079724708E+03  0.50400001928E-02 0. -1.
    10030    2    1    2    0    0  0.00000000000E+00  0.00000000000E+00 -0.61205956263E+03  0.92953493160E+03  0.69958436294E+03 0.  0.
        3    1    3    3  502    0  0.33460929661E+02  0.12893699494E+02  0.15628898530E+03  0.16035004966E+03  0.10100000352E+00 0.  1.
       -3    1    3    3    0  502 -0.33460929661E+02 -0.12893699494E+02 -0.76834854793E+03  0.76918488194E+03  0.10100000352E+00 0. -1.
</event>
<event>
 5   0  0.1226303E-02  0.6937886E+03  0.7818609E-02  0.9727914E-01
        1   -1    0    0  501    0  0.00000000000E+00  0.00000000000E+00  0.14580618969E+04  0.14580618969E+04  0.50400001928E-02 0.  1.
       -1   -1    0    0    0  501  0.00000000000E+00  0.00000000000E+00 -0.82531244673E+02  0.82531244827E+02  0.50400001928E-02 0. -1.
    10030    2    1    2    0    0  0.00000000000E+00  0.00000000000E+00  0.13755306522E+04  0.15405931417E+04  0.69378862281E+03 0.  0.
        4    1    3    3  502    0 -0.12837511628E+03  0.16520150374E+03  0.73341010535E+02  0.22170300865E+03  0.12699999809E+01 0. -1.
       -4    1    3    3    0  502  0.12837511628E+03 -0.16520150374E+03  0.13021896417E+04  0.13188901331E+04  0.12699999809E+01 0.  1.
</event>
<event>
 5   0  0.2006362E-02  0.7008224E+03  0.7818609E-02  0.9715827E-01
        2   -1    0    0  501    0  0.00000000000E+00  0.00000000000E+00  0.70969775515E+03  0.70969775516E+03  0.25500000920E-02 0. -1.
       -2   -1    0    0    0  501  0.00000000000E+00  0.00000000000E+00 -0.17301452564E+03  0.17301452565E+03  0.25500000920E-02 0.  1.
    10030    2    1    2    0    0  0.00000000000E+00  0.00000000000E+00  0.53668322952E+03  0.88271228081E+03  0.70082243247E+03 0.  0.
        4    1    3    3  502    0  0.27001272712E+02  0.60479203318E+02 -0.16505578420E+03  0.17785338782E+03  0.12699999809E+01 0.  1.
       -4    1    3    3    0  502 -0.27001272712E+02 -0.60479203318E+02  0.70173901371E+03  0.70485889299E+03  0.12699999809E+01 0. -1.
</event>
<event>
 5   0  0.7947250E-03  0.7038710E+03  0.7818609E-02  0.9710635E-01
        3   -1    0    0  501    0  0.00000000000E+00  0.00000000000E+00  0.16336816171E+03  0.16336819294E+03  0.10100000352E+00 0. -1.
       -3   -1    0    0    0  501  0.00000000000E+00  0.00000000000E+00 -0.75815610158E+03  0.75815610830E+03  0.10100000352E+00 0.  1.
    10030    2    1    2    0    0  0.00000000000E+00  0.00000000000E+00 -0.59478793986E+03  0.92152430124E+03  0.70387097139E+03 0.  0.
        1    1    3    3  502    0 -0.19219780481E+03  0.28720474082E+03 -0.21023443107E+03  0.40450596455E+03  0.50400001928E-02 0.  1.
       -1    1    3    3    0  502  0.19219780481E+03 -0.28720474082E+03 -0.38455350879E+03  0.51701833669E+03  0.50400001928E-02 0. -1.
</event>
<event>
 5   0  0.1226303E-02  0.7000115E+03  0.7818609E-02  0.9717212E-01
       -1   -1    0    0    0  501  0.00000000000E+00  0.00000000000E+00  0.15759942286E+03  0.15759942294E+03  0.50400001928E-02 0. -1.
        1   -1    0    0  501    0  0.00000000000E+00  0.00000000000E+00 -0.77731269696E+03  0.77731269698E+03  0.50400001928E-02 0.  1.
    10030    2    1    2    0    0  0.00000000000E+00  0.00000000000E+00 -0.61971327410E+03  0.93491211991E+03  0.70001152123E+03 0.  0.
        4    1    3    3  502    0  0.12734556115E+03 -0.37777194576E+02 -0.74233784206E+03  0.75412936094E+03  0.12699999809E+01 0.  1.
       -4    1    3    3    0  502 -0.12734556115E+03  0.37777194576E+02  0.12262456796E+03  0.18078275897E+03  0.12699999809E+01 0. -1.
</event>
<event>
 5   0  0.1226303E-02  0.7001746E+03  0.7818609E-02  0.9716934E-01
        1   -1    0    0  501    0  0.00000000000E+00  0.00000000000E+00  0.23043401579E+03  0.23043401585E+03  0.50400001928E-02 0. -1.
       -1   -1    0    0    0  501  0.00000000000E+00  0.00000000000E+00 -0.53187082395E+03  0.53187082397E+03  0.50400001928E-02 0.  1.
    10030    2    1    2    0    0  0.00000000000E+00  0.00000000000E+00 -0.30143680816E+03  0.76230483982E+03  0.70017463500E+03 0.  0.
        4    1    3    3  502    0  0.16858381746E+03  0.29671257923E+03 -0.23575594074E+03  0.41477865745E+03  0.12699999809E+01 0. -1.
       -4    1    3    3    0  502 -0.16858381746E+03 -0.29671257923E+03 -0.65680867420E+02  0.34752618237E+03  0.12699999809E+01 0.  1.
</event>
<event>
 5   0  0.1257442E-02  0.6514006E+03  0.7818609E-02  0.9804155E-01
        1   -1    0    0  501    0  0.00000000000E+00  0.00000000000E+00  0.21142163557E+04  0.21142163557E+04  0.50400001928E-02 0. -1.
       -1   -1    0    0    0  501  0.00000000000E+00  0.00000000000E+00 -0.50174942190E+02  0.50174942443E+02  0.50400001928E-02 0.  1.
    10030    2    1    2    0    0  0.00000000000E+00  0.00000000000E+00  0.20640414135E+04  0.21643912982E+04  0.65140059473E+03 0.  0.
        1    1    3    3  502    0  0.21626556671E+03  0.18555461842E+03  0.50792894311E+03  0.58240288722E+03  0.50400001928E-02 0.  1.
       -1    1    3    3    0  502 -0.21626556671E+03 -0.18555461842E+03  0.15561124704E+04  0.15819884110E+04  0.50400001928E-02 0. -1.
</event>
<event>
 5   0  0.1909053E-02  0.6997713E+03  0.7818609E-02  0.9717623E-01
        2   -1    0    0  501    0  0.00000000000E+00  0.00000000000E+00  0.76595435060E+03  0.76595435060E+03  0.25500000920E-02 0.  1.
       -2   -1    0    0    0  501  0.00000000000E+00  0.00000000000E+00 -0.15982669566E+03  0.15982669568E+03  0.25500000920E-02 0. -1.
    10030    2    1    2    0    0  0.00000000000E+00  0.00000000000E+00  0.60612765494E+03  0.92578104629E+03  0.69977125661E+03 0.  0.
        1    1    3    3  502    0 -0.15935055632E+03 -0.30881648690E+03  0.24916603579E+03  0.42760254419E+03  0.50400001928E-02 0. -1.
       -1    1    3    3    0  502  0.15935055632E+03  0.30881648690E+03  0.35696161914E+03  0.49817850209E+03  0.50400001928E-02 0.  1.
</event>
<event>
 5   0  0.1197259E-02  0.6983878E+03  0.7818609E-02  0.9719993E-01
       -1   -1    0    0    0  501  0.00000000000E+00  0.00000000000E+00  0.31483098202E+03  0.31483098206E+03  0.50400001928E-02 0. -1.
        1   -1    0    0  501    0  0.00000000000E+00  0.00000000000E+00 -0.38730747584E+03  0.38730747588E+03  0.50400001928E-02 0.  1.
    10030    2    1    2    0    0  0.00000000000E+00  0.00000000000E+00 -0.72476493827E+02  0.70213845794E+03  0.69838783778E+03 0.  0.
        3    1    3    3  502    0 -0.29247162885E+03  0.17293308050E+03  0.44760414641E+02  0.34270834384E+03  0.10100000352E+00 0.  1.
       -3    1    3    3    0  502  0.29247162885E+03 -0.17293308050E+03 -0.11723690847E+03  0.35943011410E+03  0.10100000352E+00 0. -1.
</event>
<event>
 5   0  0.2026361E-02  0.7085509E+03  0.7818609E-02  0.9702720E-01
        2   -1    0    0  501    0  0.00000000000E+00  0.00000000000E+00  0.14023141510E+04  0.14023141510E+04  0.25500000920E-02 0. -1.
       -2   -1    0    0    0  501  0.00000000000E+00  0.00000000000E+00 -0.89502842227E+02  0.89502842263E+02  0.25500000920E-02 0.  1.
    10030    2    1    2    0    0  0.00000000000E+00  0.00000000000E+00  0.13128113088E+04  0.14918169933E+04  0.70855092193E+03 0.  0.
        2    1    3    3  502    0  0.19629789813E+03 -0.26071347763E+03  0.36613838266E+03  0.49047089363E+03  0.25500000920E-02 0.  1.
       -2    1    3    3    0  502 -0.19629789813E+03  0.26071347763E+03  0.94667292614E+03  0.10013460997E+04  0.25500000920E-02 0. -1.
</event>
<event>
 5   0  0.1948138E-02  0.6867095E+03  0.7818609E-02  0.9740235E-01
        2   -1    0    0  501    0  0.00000000000E+00  0.00000000000E+00  0.44329261489E+03  0.44329261490E+03  0.25500000920E-02 0. -1.
       -2   -1    0    0    0  501  0.00000000000E+00  0.00000000000E+00 -0.26594732905E+03  0.26594732906E+03  0.25500000920E-02 0.  1.
    10030    2    1    2    0    0  0.00000000000E+00  0.00000000000E+00  0.17734528584E+03  0.70923994396E+03  0.68670950750E+03 0.  0.
        3    1    3    3  502    0 -0.33068077765E+03  0.89782477387E+02  0.11134290681E+03  0.36028866628E+03  0.10100000352E+00 0.  1.
       -3    1    3    3    0  502  0.33068077765E+03 -0.89782477387E+02  0.66002379027E+02  0.34895127768E+03  0.10100000352E+00 0. -1.
</event>
<event>
 5   0  0.7947250E-03  0.7006891E+03  0.7818609E-02  0.9716054E-01
       -3   -1    0    0    0  501  0.00000000000E+00  0.00000000000E+00  0.93983541355E+03  0.93983541898E+03  0.10100000352E+00 0.  1.
        3   -1    0    0  501    0  0.00000000000E+00  0.00000000000E+00 -0.13059870660E+03  0.13059874565E+03  0.10100000352E+00 0. -1.
    10030    2    1    2    0    0  0.00000000000E+00  0.00000000000E+00  0.80923670695E+03  0.10704341646E+04  0.70068912717E+03 0.  0.
        2    1    3    3  502    0  0.34565770734E+03  0.51311887457E+02  0.36629948758E+03  0.50624843214E+03  0.25500000920E-02 0. -1.
       -2    1    3    3    0  502 -0.34565770734E+03 -0.51311887457E+02  0.44293721937E+03  0.56418573249E+03  0.25500000920E-02 0.  1.
</event>
<event>
 5   0  0.1237686E-02  0.6957382E+03  0.7818609E-02  0.9724548E-01
        1   -1    0    0  501    0  0.00000000000E+00  0.00000000000E+00  0.82996493562E+03  0.82996493564E+03  0.50400001928E-02 0.  1.
       -1   -1    0    0    0  501  0.00000000000E+00  0.00000000000E+00 -0.14580484085E+03  0.14580484094E+03  0.50400001928E-02 0. -1.
    10030    2    1    2    0    0  0.00000000000E+00  0.00000000000E+00  0.68416009478E+03  0.97576977657E+03  0.69573818466E+03 0.  0.
        5    1    3    3  502    0 -0.10854058689E+03 -0.32865546096E+03  0.39056958510E+03  0.52188328372E+03  0.46999998093E+01 0.  1.
       -5    1    3    3    0  502  0.10854058689E+03  0.32865546096E+03  0.29359050967E+03  0.45388649285E+03  0.46999998093E+01 0. -1.
</event>
<event>
 5   0  0.2006362E-02  0.7081510E+03  0.7818609E-02  0.9703394E-01
       -2   -1    0    0    0  501  0.00000000000E+00  0.00000000000E+00  0.44635399175E+03  0.44635399176E+03  0.25500000920E-02 0.  1.
        2   -1    0    0  501    0  0.00000000000E+00  0.00000000000E+00 -0.28087449176E+03  0.28087449177E+03  0.25500000920E-02 0. -1.
    10030    2    1    2    0    0  0.00000000000E+00  0.00000000000E+00  0.16547949999E+03  0.72722848353E+03  0.70815097426E+03 0.  0.
        4    1    3    3  502    0 -0.30178928774E+03  0.18332211246E+03  0.55880479698E+02  0.35750246435E+03  0.12699999809E+01 0. -1.
       -4    1    3    3    0  502  0.30178928774E+03 -0.18332211246E+03  0.10959902029E+03  0.36972601918E+03  0.12699999809E+01 0.  1.
</event>
<event>
 5   0  0.2006362E-02  0.6945895E+03  0.7818609E-02  0.9726530E-01
       -2   -1    0    0    0  501  0.00000000000E+00  0.00000000000E+00  0.85932205456E+02  0.85932205493E+02  0.25500000920E-02 0.  1.
        2   -1    0    0  501    0  0.00000000000E+00  0.00000000000E+00 -0.14035907483E+04  0.14035907483E+04  0.25500000920E-02 0. -1.
    10030    2    1    2    0    0  0.00000000000E+00  0.00000000000E+00 -0.13176585428E+04  0.14895229538E+04  0.69458951500E+03 0.  0.
        4    1    3    3  502    0  0.27505690603E+03  0.83793832616E+02 -0.24115745311E+03  0.37528154502E+03  0.12699999809E+01 0.  1.
       -4    1    3    3    0  502 -0.27505690603E+03 -0.83793832616E+02 -0.10765010897E+04  0.11142414088E+04  0.12699999809E+01 0. -1.
</event>
<event>
 5   0  0.2026361E-02  0.7012987E+03  0.7818609E-02  0.9715014E-01
        2   -1    0    0  501    0  0.00000000000E+00  0.00000000000E+00  0.11517204120E+04  0.11517204120E+04  0.25500000920E-02 0. -1.
       -2   -1    0    0    0  501  0.00000000000E+00  0.00000000000E+00 -0.10675764451E+03  0.10675764454E+03  0.25500000920E-02 0.  1.
    10030    2    1    2    0    0  0.00000000000E+00  0.00000000000E+00  0.10449627675E+04  0.12584780565E+04  0.70129867628E+03 0.  0.
        2    1    3    3  502    0 -0.20533612930E+03 -0.23550270071E+03  0.80808558895E+03  0.86638719238E+03  0.25500000920E-02 0. -1.
       -2    1    3    3    0  502  0.20533612930E+03  0.23550270071E+03  0.23687717853E+03  0.39209086416E+03  0.25500000920E-02 0.  1.
</event>
<event>
 5   0  0.1197259E-02  0.7260346E+03  0.7818609E-02  0.9673717E-01
       -1   -1    0    0    0  501  0.00000000000E+00  0.00000000000E+00  0.73261066530E+03  0.73261066532E+03  0.50400001928E-02 0.  1.
        1   -1    0    0  501    0  0.00000000000E+00  0.00000000000E+00 -0.17987938428E+03  0.17987938435E+03  0.50400001928E-02 0. -1.
    10030    2    1    2    0    0  0.00000000000E+00  0.00000000000E+00  0.55273128102E+03  0.91249004967E+03  0.72603458714E+03 0.  0.
        3    1    3    3  502    0 -0.29249790737E+03  0.56501313317E+02  0.53708741027E+03  0.61417450345E+03  0.10100000352E+00 0.  1.
       -3    1    3    3    0  502  0.29249790737E+03 -0.56501313317E+02  0.15643870750E+02  0.29831554622E+03  0.10100000352E+00 0. -1.
</event>
<event>
 5   0  0.1948138E-02  0.6769121E+03  0.7818609E-02  0.9757551E-01
       -2   -1    0    0    0  501  0.00000000000E+00  0.00000000000E+00  0.14167858113E+03  0.14167858115E+03  0.25500000920E-02 0. -1.
        2   -1    0    0  501    0  0.00000000000E+00  0.00000000000E+00 -0.80853777200E+03  0.80853777200E+03  0.25500000920E-02 0.  1.
    10030    2    1    2    0    0  0.00000000000E+00  0.00000000000E+00 -0.66685919087E+03  0.95021635315E+03  0.67691206028E+03 0.  0.
        3    1    3    3  502    0 -0.11642384404E+03 -0.29866622044E+03 -0.48589311488E+03  0.58210665001E+03  0.10100000352E+00 0.  1.
       -3    1    3    3    0  502  0.11642384404E+03  0.29866622044E+03 -0.18096607599E+03  0.36810970315E+03  0.10100000352E+00 0. -1.
</event>
<event>
 5   0  0.1237686E-02  0.7023905E+03  0.7818609E-02  0.9713153E-01
       -1   -1    0    0    0  501  0.00000000000E+00  0.00000000000E+00  0.11523154027E+03  0.11523154038E+03  0.50400001928E-02 0. -1.
        1   -1    0    0  501    0  0.00000000000E+00  0.00000000000E+00 -0.10703502904E+04  0.10703502904E+04  0.50400001928E-02 0.  1.
    10030    2    1    2    0    0  0.00000000000E+00  0.00000000000E+00 -0.95511875015E+03  0.11855818308E+04  0.70239052576E+03 0.  0.
        5    1    3    3  502    0  0.25354160139E+03 -0.19084805943E+03 -0.22375432242E+03  0.38832256209E+03  0.46999998093E+01 0. -1.
       -5    1    3    3    0  502 -0.25354160139E+03  0.19084805943E+03 -0.73136442773E+03  0.79725926873E+03  0.46999998093E+01 0.  1.
</event>
<event>
 5   0  0.1197259E-02  0.6994549E+03  0.7818609E-02  0.9718165E-01
        1   -1    0    0  501    0  0.00000000000E+00  0.00000000000E+00  0.19133916781E+04  0.19133916781E+04  0.50400001928E-02 0.  1.
       -1   -1    0    0    0  501  0.00000000000E+00  0.00000000000E+00 -0.63922769026E+02  0.63922769225E+02  0.50400001928E-02 0. -1.
    10030    2    1    2    0    0  0.00000000000E+00  0.00000000000E+00  0.18494689091E+04  0.19773144474E+04  0.69945491492E+03 0.  0.
        3    1    3    3  502    0 -0.14146026348E+03  0.84116204055E+02  0.52393311988E+02  0.17271830033E+03  0.10100000352E+00 0. -1.
       -3    1    3    3    0  502  0.14146026348E+03 -0.84116204055E+02  0.17970755971E+04  0.18045961470E+04  0.10100000352E+00 0.  1.
</event>
<event>
 5   0  0.1237686E-02  0.7117501E+03  0.7818609E-02  0.9697346E-01
        1   -1    0    0  501    0  0.00000000000E+00  0.00000000000E+00  0.36541730568E+03  0.36541730572E+03  0.50400001928E-02 0. -1.
       -1   -1    0    0    0  501  0.00000000000E+00  0.00000000000E+00 -0.34658196815E+03  0.34658196819E+03  0.50400001928E-02 0.  1.
    10030    2    1    2    0    0  0.00000000000E+00  0.00000000000E+00  0.18835337534E+02  0.71199927390E+03  0.71175009385E+03 0.  0.
        5    1    3    3  502    0 -0.20797695951E+03  0.41884354701E+02 -0.27636791699E+03  0.34843942142E+03  0.46999998093E+01 0.  1.
       -5    1    3    3    0  502  0.20797695951E+03 -0.41884354701E+02  0.29520325453E+03  0.36355985249E+03  0.46999998093E+01 0. -1.
</event>
<event>
 5   0  0.2006362E-02  0.7069695E+03  0.7818609E-02  0.9705387E-01
        2   -1    0    0  501    0  0.00000000000E+00  0.00000000000E+00  0.12120042014E+04  0.12120042014E+04  0.25500000920E-02 0. -1.
       -2   -1    0    0    0  501  0.00000000000E+00  0.00000000000E+00 -0.10309492666E+03  0.10309492669E+03  0.25500000920E-02 0.  1.
    10030    2    1    2    0    0  0.00000000000E+00  0.00000000000E+00  0.11089092747E+04  0.13150991281E+04  0.70696954467E+03 0.  0.
        4    1    3    3  502    0  0.16450172783E+03 -0.20308433294E+03  0.99718740594E+03  0.10308677899E+04  0.12699999809E+01 0. -1.
       -4    1    3    3    0  502 -0.16450172783E+03  0.20308433294E+03  0.11172186878E+03  0.28423133819E+03  0.12699999809E+01 0.  1.
</event>
<event>
 5   0  0.1223742E-02  0.6981593E+03  0.7818609E-02  0.9720385E-01
       -1   -1    0    0    0  501  0.00000000000E+00  0.00000000000E+00  0.66746336154E+03  0.66746336155E+03  0.50400001928E-02 0. -1.
        1   -1    0    0  501    0  0.00000000000E+00  0.00000000000E+00 -0.18256672251E+03  0.18256672258E+03  0.50400001928E-02 0.  1.
    10030    2    1    2    0    0  0.00000000000E+00  0.00000000000E+00  0.48489663903E+03  0.85003008413E+03  0.69815928941E+03 0.  0.
        2    1    3    3  502    0 -0.83145479545E+02 -0.57798453218E+02 -0.16429202813E+03  0.19299145700E+03  0.25500000920E-02 0.  1.
       -2    1    3    3    0  502  0.83145479545E+02  0.57798453218E+02  0.64918866716E+03  0.65703862713E+03  0.25500000920E-02 0. -1.
</event>
<event>
 5   0  0.1197259E-02  0.7016900E+03  0.7818609E-02  0.9714346E-01
        1   -1    0    0  501    0  0.00000000000E+00  0.00000000000E+00  0.38213170782E+03  0.38213170785E+03  0.50400001928E-02 0.  1.
       -1   -1    0    0    0  501  0.00000000000E+00  0.00000000000E+00 -0.32211983040E+03  0.32211983044E+03  0.50400001928E-02 0. -1.
    10030    2    1    2    0    0  0.00000000000E+00  0.00000000000E+00  0.60011877418E+02  0.70425153829E+03  0.70168996270E+03 0.  0.
        3    1    3    3  502    0 -0.64040329431E+02  0.96010415805E+02 -0.30252369971E+03  0.32378968919E+03  0.10100000352E+00 0. -1.
       -3    1    3    3    0  502  0.64040329431E+02 -0.96010415805E+02  0.36253557713E+03  0.38046184910E+03  0.10100000352E+00 0.  1.
</event>
<event>
 5   0  0.2026361E-02  0.7008393E+03  0.7818609E-02  0.9715798E-01
       -2   -1    0    0    0  501  0.00000000000E+00  0.00000000000E+00  0.82271578646E+02  0.82271578686E+02  0.25500000920E-02 0.  1.
        2   -1    0    0  501    0  0.00000000000E+00  0.00000000000E+00 -0.14925435999E+04  0.14925435999E+04  0.25500000920E-02 0. -1.
    10030    2    1    2    0    0  0.00000000000E+00  0.00000000000E+00 -0.14102720213E+04  0.15748151786E+04  0.70083926316E+03 0.  0.
        2    1    3    3  502    0  0.13583739936E+03  0.71387400733E+02 -0.14130289524E+04  0.14213369693E+04  0.25500000920E-02 0. -1.
       -2    1    3    3    0  502 -0.13583739936E+03 -0.71387400733E+02  0.27569311226E+01  0.15347820928E+03  0.25500000920E-02 0.  1.
</event>
<event>
 5   0  0.1197259E-02  0.6960710E+03  0.7818609E-02  0.9723975E-01
        1   -1    0    0  501    0  0.00000000000E+00  0.00000000000E+00  0.68387567491E+03  0.68387567493E+03  0.50400001928E-02 0. -1.
       -1   -1    0    0    0  501  0.00000000000E+00  0.00000000000E+00 -0.17712092805E+03  0.17712092812E+03  0.50400001928E-02 0.  1.
    10030    2    1    2    0    0  0.00000000000E+00  0.00000000000E+00  0.50675474686E+03  0.86099660305E+03  0.69607095687E+03 0.  0.
        3    1    3    3  502    0 -0.12783744551E+03  0.20909340580E+03  0.55904429334E+03  0.61040396210E+03  0.10100000352E+00 0. -1.
       -3    1    3    3    0  502  0.12783744551E+03 -0.20909340580E+03 -0.52289546485E+02  0.25059264095E+03  0.10100000352E+00 0.  1.
</event>
<event>
 5   0  0.2006362E-02  0.7104223E+03  0.7818609E-02  0.9699573E-01
       -2   -1    0    0    0  501  0.00000000000E+00  0.00000000000E+00  0.15587423451E+03  0.15587423453E+03  0.25500000920E-02 0.  1.
        2   -1    0    0  501    0  0.00000000000E+00  0.00000000000E+00 -0.80946637496E+03  0.80946637497E+03  0.25500000920E-02 0. -1.
    10030    2    1    2    0    0  0.00000000000E+00  0.00000000000E+00 -0.65359214045E+03  0.96534060949E+03  0.71042227321E+03 0.  0.
        4    1    3    3  502    0 -0.23039197034E+03  0.24101546437E+02  0.39109424798E+02  0.23493085056E+03  0.12699999809E+01 0.  1.
       -4    1    3    3    0  502  0.23039197034E+03 -0.24101546437E+02 -0.69270156525E+03  0.73040975893E+03  0.12699999809E+01 0. -1.
</event>
<event>
 5   0  0.1909053E-02  0.6989838E+03  0.7818609E-02  0.9718972E-01
        2   -1    0    0  501    0  0.00000000000E+00  0.00000000000E+00  0.18309291321E+04  0.18309291321E+04  0.25500000920E-02 0. -1.
       -2   -1    0    0    0  501  0.00000000000E+00  0.00000000000E+00 -0.66711803259E+02  0.66711803307E+02  0.25500000920E-02 0.  1.
    10030    2    1    2    0    0  0.00000000000E+00  0.00000000000E+00  0.17642173288E+04  0.18976409354E+04  0.69898378833E+03 0.  0.
        1    1    3    3  502    0  0.24116626727E+03 -0.20691621852E+03  0.12771095541E+04  0.13160487465E+04  0.50400001928E-02 0. -1.
       -1    1    3    3    0  502 -0.24116626727E+03  0.20691621852E+03  0.48710777472E+03  0.58159218889E+03  0.50400001928E-02 0.  1.
</event>
<event>
 5   0  0.1909053E-02  0.6992813E+03  0.7818609E-02  0.9718462E-01
       -2   -1    0    0    0  501  0.00000000000E+00  0.00000000000E+00  0.17639173645E+03  0.17639173646E+03  0.25500000920E-02 0. -1.
        2   -1    0    0  501    0  0.00000000000E+00  0.00000000000E+00 -0.69305165044E+03  0.69305165044E+03  0.25500000920E-02 0.  1.
    10030    2    1    2    0    0  0.00000000000E+00  0.00000000000E+00 -0.51665991399E+03  0.86944338691E+03  0.69928129984E+03 0.  0.
        1    1    3    3  502    0  0.12427616003E+02  0.14179562291E+03  0.13873744033E+03  0.19876750663E+03  0.50400001928E-02 0. -1.
       -1    1    3    3    0  502 -0.12427616003E+02 -0.14179562291E+03 -0.65539735432E+03  0.67067588028E+03  0.50400001928E-02 0.  1.
</event>
<event>
 5   0  0.1948138E-02  0.6993374E+03  0.7818609E-02  0.9718366E-01
        2   -1    0    0  501    0  0.00000000000E+00  0.00000000000E+00  0.31850692846E+03  0.31850692847E+03  0.25500000920E-02 0. -1.
       -2   -1    0    0    0  501  0.00000000000E+00  0.00000000000E+00 -0.38387929500E+03  0.38387929501E+03  0.25500000920E-02 0.  1.
    10030    2    1    2    0    0  0.00000000000E+00  0.00000000000E+00 -0.65372366542E+02  0.70238622347E+03  0.69933744402E+03 0.  0.
        3    1    3    3  502    0 -0.16815444712E+03 -0.29775736177E+03 -0.10603084251E+03  0.35801943291E+03  0.10100000352E+00 0. -1.
       -3    1    3    3    0  502  0.16815444712E+03  0.29775736177E+03  0.40658475970E+02  0.34436679056E+03  0.10100000352E+00 0.  1.
</event>
<event>
 5   0  0.1973067E-02  0.7011960E+03  0.7818609E-02  0.9715189E-01
        2   -1    0    0  501    0  0.00000000000E+00  0.00000000000E+00  0.10378075272E+04  0.10378075272E+04  0.25500000920E-02 0. -1.
       -2   -1    0    0    0  501  0.00000000000E+00  0.00000000000E+00 -0.11844098844E+03  0.11844098847E+03  0.25500000920E-02 0.  1.
    10030    2    1    2    0    0  0.00000000000E+00  0.00000000000E+00  0.91936653878E+03  0.11562485157E+04  0.70119597646E+03 0.  0.
        5    1    3    3  502    0 -0.34766552284E+02  0.19932912541E+03 -0.12382240914E+02  0.20277135715E+03  0.46999998093E+01 0.  1.
       -5    1    3    3    0  502  0.34766552284E+02 -0.19932912541E+03  0.93174877969E+03  0.95347715854E+03  0.46999998093E+01 0. -1.
</event>
<event>
 5   0  0.1197259E-02  0.6973696E+03  0.7818609E-02  0.9721741E-01
       -1   -1    0    0    0  501  0.00000000000E+00  0.00000000000E+00  0.28491314151E+03  0.28491314155E+03  0.50400001928E-02 0.  1.
        1   -1    0    0  501    0  0.00000000000E+00  0.00000000000E+00 -0.42673032991E+03  0.42673032994E+03  0.50400001928E-02 0. -1.
    10030    2    1    2    0    0  0.00000000000E+00  0.00000000000E+00 -0.14181718841E+03  0.71164347149E+03  0.69736956887E+03 0.  0.
        3    1    3    3  502    0  0.91286365222E+02 -0.11391677478E+03  0.25222848620E+03  0.29142657996E+03  0.10100000352E+00 0.  1.
       -3    1    3    3    0  502 -0.91286365222E+02  0.11391677478E+03 -0.39404567461E+03  0.42021689154E+03  0.10100000352E+00 0. -1.
</event>
<event>
 5   0  0.1226303E-02  0.7000214E+03  0.7818609E-02  0.9717196E-01
       -1   -1    0    0    0  501  0.00000000000E+00  0.00000000000E+00  0.97890280599E+03  0.97890280600E+03  0.50400001928E-02 0. -1.
        1   -1    0    0  501    0  0.00000000000E+00  0.00000000000E+00 -0.12514776031E+03  0.12514776041E+03  0.50400001928E-02 0.  1.
    10030    2    1    2    0    0  0.00000000000E+00  0.00000000000E+00  0.85375504568E+03  0.11040505664E+04  0.70002141051E+03 0.  0.
        4    1    3    3  502    0  0.18977004891E+02 -0.34138134477E+03  0.30880541852E+03  0.46072090106E+03  0.12699999809E+01 0. -1.
       -4    1    3    3    0  502 -0.18977004891E+02  0.34138134477E+03  0.54494962716E+03  0.64332966535E+03  0.12699999809E+01 0.  1.
</event>
<event>
 5   0  0.2006362E-02  0.6988419E+03  0.7818609E-02  0.9719215E-01
       -2   -1    0    0    0  501  0.00000000000E+00  0.00000000000E+00  0.15474026280E+03  0.15474026282E+03  0.25500000920E-02 0. -1.
        2   -1    0    0  501    0  0.00000000000E+00  0.00000000000E+00 -0.78903182044E+03  0.78903182045E+03  0.25500000920E-02 0.  1.
    10030    2    1    2    0    0  0.00000000000E+00  0.00000000000E+00 -0.63429155765E+03  0.94377208326E+03  0.69884187414E+03 0.  0.
        4    1    3    3  502    0  0.30670858158E+03 -0.60313915026E+02 -0.10625691468E+03  0.33015158212E+03  0.12699999809E+01 0.  1.
       -4    1    3    3    0  502 -0.30670858158E+03  0.60313915026E+02 -0.52803464296E+03  0.61362050114E+03  0.12699999809E+01 0. -1.
</event>
<event>
 5   0  0.1197259E-02  0.7116594E+03  0.7818609E-02  0.9697498E-01
       -1   -1    0    0    0  501  0.00000000000E+00  0.00000000000E+00  0.88766045475E+03  0.88766045476E+03  0.50400001928E-02 0. -1.
        1   -1    0    0  501    0  0.00000000000E+00  0.00000000000E+00 -0.14263873592E+03  0.14263873601E+03  0.50400001928E-02 0.  1.
    10030    2    1    2    0    0  0.00000000000E+00  0.00000000000E+00  0.74502171883E+03  0.10302991908E+04  0.71165937146E+03 0.  0.
        3    1    3    3  502    0 -0.44201073115E+02 -0.14114136248E+03  0.84105202402E+03  0.85395733873E+03  0.10100000352E+00 0. -1.
       -3    1    3    3    0  502  0.44201073115E+02  0.14114136248E+03 -0.96030305187E+02  0.17634185205E+03  0.10100000352E+00 0.  1.
</event>
<event>
 5   0  0.1223742E-02  0.6987361E+03  0.7818609E-02  0.9719396E-01
        1   -1    0    0  501    0  0.00000000000E+00  0.00000000000E+00  0.82693164013E+03  0.82693164015E+03  0.50400001928E-02 0. -1.
       -1   -1    0    0    0  501  0.00000000000E+00  0.00000000000E+00 -0.14760353839E+03  0.14760353848E+03  0.50400001928E-02 0.  1.
    10030    2    1    2    0    0  0.00000000000E+00  0.00000000000E+00  0.67932810174E+03  0.97453517863E+03  0.69873610510E+03 0.  0.
        2    1    3    3  502    0 -0.21091652066E+03  0.97490802679E+02 -0.24213443784E+02  0.23361619413E+03  0.25500000920E-02 0.  1.
       -2    1    3    3    0  502  0.21091652066E+03 -0.97490802679E+02  0.70354154553E+03  0.74091898449E+03  0.25500000920E-02 0. -1.
</event>
<event>
 5   0  0.1197259E-02  0.7256861E+03  0.7818609E-02  0.9674287E-01
        1   -1    0    0  501    0  0.00000000000E+00  0.00000000000E+00  0.13944717478E+04  0.13944717478E+04  0.50400001928E-02 0.  1.
       -1   -1    0    0    0  501  0.00000000000E+00  0.00000000000E+00 -0.94412157654E+02  0.94412157788E+02  0.50400001928E-02 0. -1.
    10030    2    1    2    0    0  0.00000000000E+00  0.00000000000E+00  0.13000595901E+04  0.14888839056E+04  0.72568612114E+03 0.  0.
        3    1    3    3  502    0  0.17570751122E+03 -0.49458838274E+02  0.66494637586E+01  0.18265686889E+03  0.10100000352E+00 0. -1.
       -3    1    3    3    0  502 -0.17570751122E+03  0.49458838274E+02  0.12934101264E+04  0.13062270367E+04  0.10100000352E+00 0.  1.
</event>
<event>
 5   0  0.1197259E-02  0.7010688E+03  0.7818609E-02  0.9715406E-01
        1   -1    0    0  501    0  0.00000000000E+00  0.00000000000E+00  0.61357249629E+03  0.61357249631E+03  0.50400001928E-02 0.  1.
       -1   -1    0    0    0  501  0.00000000000E+00  0.00000000000E+00 -0.20026057665E+03  0.20026057672E+03  0.50400001928E-02 0. -1.
    10030    2    1    2    0    0  0.00000000000E+00  0.00000000000E+00  0.41331191964E+03  0.81383307303E+03  0.70106884672E+03 0.  0.
        3    1    3    3  502    0  0.23008214715E+03 -0.16526797638E+02  0.51304775510E+03  0.56252016736E+03  0.10100000352E+00 0.  1.
       -3    1    3    3    0  502 -0.23008214715E+03  0.16526797638E+02 -0.99735835460E+02  0.25131290567E+03  0.10100000352E+00 0. -1.
</event>
<event>
 5   0  0.1237686E-02  0.6986222E+03  0.7818609E-02  0.9719591E-01
        1   -1    0    0  501    0  0.00000000000E+00  0.00000000000E+00  0.34101338922E+03  0.34101338926E+03  0.50400001928E-02 0. -1.
       -1   -1    0    0    0  501  0.00000000000E+00  0.00000000000E+00 -0.35781066819E+03  0.35781066822E+03  0.50400001928E-02 0.  1.
    10030    2    1    2    0    0  0.00000000000E+00  0.00000000000E+00 -0.16797278965E+02  0.69882405749E+03  0.69862215449E+03 0.  0.
        5    1    3    3  502    0 -0.19552652251E+03  0.24068522927E+03  0.15238405121E+03  0.34554737686E+03  0.46999998093E+01 0. -1.
       -5    1    3    3    0  502  0.19552652251E+03 -0.24068522927E+03 -0.16918133018E+03  0.35327668062E+03  0.46999998093E+01 0.  1.
</event>
<event>
 5   0  0.7947250E-03  0.7046469E+03  0.7818609E-02  0.9709318E-01
       -4   -1    0    0    0  501  0.00000000000E+00  0.00000000000E+00  0.59681817458E+03  0.59681952583E+03  0.12699999809E+01 0.  1.
        4   -1    0    0  501    0  0.00000000000E+00  0.00000000000E+00 -0.20798581786E+03  0.20798969525E+03  0.12699999809E+01 0. -1.
    10030    2    1    2    0    0  0.00000000000E+00  0.00000000000E+00  0.38883235673E+03  0.80480922108E+03  0.70464691917E+03 0.  0.
        3    1    3    3  502    0  0.20772968873E+03 -0.12135141412E+03 -0.99570401390E+02  0.26036909249E+03  0.10100000352E+00 0. -1.
       -3    1    3    3    0  502 -0.20772968873E+03  0.12135141412E+03  0.48840275812E+03  0.54444012860E+03  0.10100000352E+00 0.  1.
</event>
<event>
 5   0  0.7947250E-03  0.6968191E+03  0.7818609E-02  0.9722687E-01
       -3   -1    0    0    0  501  0.00000000000E+00  0.00000000000E+00  0.21298431192E+03  0.21298433586E+03  0.10100000352E+00 0.  1.
        3   -1    0    0  501    0  0.00000000000E+00  0.00000000000E+00 -0.56994438126E+03  0.56994439021E+03  0.10100000352E+00 0. -1.
    10030    2    1    2    0    0  0.00000000000E+00  0.00000000000E+00 -0.35696006934E+03  0.78292872607E+03  0.69681912933E+03 0.  0.
        4    1    3    3  502    0  0.11094716553E+03 -0.32904466372E+03 -0.21041700816E+03  0.40602536188E+03  0.12699999809E+01 0.  1.
       -4    1    3    3    0  502 -0.11094716553E+03  0.32904466372E+03 -0.14654306118E+03  0.37690336420E+03  0.12699999809E+01 0. -1.
</event>
<event>
 5   0  0.7947250E-03  0.7009213E+03  0.7818609E-02  0.9715658E-01
       -4   -1    0    0    0  501  0.00000000000E+00  0.00000000000E+00  0.31348873598E+03  0.31349130847E+03  0.12699999809E+01 0.  1.
        4   -1    0    0  501    0  0.00000000000E+00  0.00000000000E+00 -0.39178769075E+03  0.39178974913E+03  0.12699999809E+01 0. -1.
    10030    2    1    2    0    0  0.00000000000E+00  0.00000000000E+00 -0.78298954764E+02  0.70528105760E+03  0.70092128224E+03 0.  0.
        4    1    3    3  502    0 -0.47407233863E+02  0.33437189050E+02  0.30862375439E+03  0.31403140943E+03  0.12699999809E+01 0.  1.
       -4    1    3    3    0  502  0.47407233863E+02 -0.33437189050E+02 -0.38692270915E+03  0.39124964817E+03  0.12699999809E+01 0. -1.
</event>
<event>
 5   0  0.1973067E-02  0.7008546E+03  0.7818609E-02  0.9715772E-01
       -2   -1    0    0    0  501  0.00000000000E+00  0.00000000000E+00  0.12138352377E+03  0.12138352380E+03  0.25500000920E-02 0. -1.
        2   -1    0    0  501    0  0.00000000000E+00  0.00000000000E+00 -0.10116634724E+04  0.10116634724E+04  0.25500000920E-02 0.  1.
    10030    2    1    2    0    0  0.00000000000E+00  0.00000000000E+00 -0.89027994865E+03  0.11330469962E+04  0.70085455602E+03 0.  0.
        5    1    3    3  502    0  0.22777047668E+03 -0.35644867155E+02 -0.87172893724E+03  0.90171135993E+03  0.46999998093E+01 0.  1.
       -5    1    3    3    0  502 -0.22777047668E+03  0.35644867155E+02 -0.18551011405E+02  0.23133563630E+03  0.46999998093E+01 0. -1.
</event>
<event>
 5   0  0.1257442E-02  0.6995701E+03  0.7818609E-02  0.9717968E-01
        1   -1    0    0  501    0  0.00000000000E+00  0.00000000000E+00  0.45592214451E+03  0.45592214454E+03  0.50400001928E-02 0. -1.
       -1   -1    0    0    0  501  0.00000000000E+00  0.00000000000E+00 -0.26835629365E+03  0.26835629370E+03  0.50400001928E-02 0.  1.
    10030    2    1    2    0    0  0.00000000000E+00  0.00000000000E+00  0.18756585086E+03  0.72427843824E+03  0.69957008776E+03 0.  0.
        1    1    3    3  502    0 -0.30693752909E+03 -0.58238960203E+02 -0.69085520412E+02  0.31996129830E+03  0.50400001928E-02 0.  1.
       -1    1    3    3    0  502  0.30693752909E+03  0.58238960203E+02  0.25665137127E+03  0.40431713994E+03  0.50400001928E-02 0. -1.
</event>
<event>
 5   0  0.1973067E-02  0.7019026E+03  0.7818609E-02  0.9713984E-01
        2   -1    0    0  501    0  0.00000000000E+00  0.00000000000E+00  0.88687082932E+03  0.88687082932E+03  0.25500000920E-02 0. -1.
       -2   -1    0    0    0  501  0.00000000000E+00  0.00000000000E+00 -0.13887796286E+03  0.13887796288E+03  0.25500000920E-02 0.  1.
    10030    2    1    2    0    0  0.00000000000E+00  0.00000000000E+00  0.74799286646E+03  0.10257487922E+04  0.70190259753E+03 0.  0.
        5    1    3    3  502    0 -0.22199713240E+02 -0.16247240206E+03 -0.79396708225E+02  0.18225267069E+03  0.46999998093E+01 0.  1.
       -5    1    3    3    0  502  0.22199713240E+02  0.16247240206E+03  0.82738957469E+03  0.84349612151E+03  0.46999998093E+01 0. -1.
</event>
<event>
 5   0  0.1197259E-02  0.7038642E+03  0.7818609E-02  0.9710647E-01
       -1   -1    0    0    0  501  0.00000000000E+00  0.00000000000E+00  0.16367227534E+03  0.16367227541E+03  0.50400001928E-02 0. -1.
        1   -1    0    0  501    0  0.00000000000E+00  0.00000000000E+00 -0.75673290824E+03  0.75673290826E+03  0.50400001928E-02 0.  1.
    10030    2    1    2    0    0  0.00000000000E+00  0.00000000000E+00 -0.59306063290E+03  0.92040518367E+03  0.70386418280E+03 0.  0.
        3    1    3    3  502    0  0.26877457766E+03 -0.13745167394E+03 -0.59982068627E+02  0.30778335729E+03  0.10100000352E+00 0. -1.
       -3    1    3    3    0  502 -0.26877457766E+03  0.13745167394E+03 -0.53307856428E+03  0.61262182638E+03  0.10100000352E+00 0.  1.
</event>
<event>
 5   0  0.2006362E-02  0.7041334E+03  0.7818609E-02  0.9710190E-01
        2   -1    0    0  501    0  0.00000000000E+00  0.00000000000E+00  0.52849109058E+03  0.52849109059E+03  0.25500000920E-02 0. -1.
       -2   -1    0    0    0  501  0.00000000000E+00  0.00000000000E+00 -0.23453745490E+03  0.23453745491E+03  0.25500000920E-02 0.  1.
    10030    2    1    2    0    0  0.00000000000E+00  0.00000000000E+00  0.29395363568E+03  0.76302854550E+03  0.70413338319E+03 0.  0.
        4    1    3    3  502    0  0.26931026967E+03  0.18377380835E+03  0.29093616027E+03  0.43697402238E+03  0.12699999809E+01 0. -1.
       -4    1    3    3    0  502 -0.26931026967E+03 -0.18377380835E+03  0.30174754111E+01  0.32605452312E+03  0.12699999809E+01 0.  1.
</event>
<event>
 5   0  0.1226303E-02  0.7023983E+03  0.7818609E-02  0.9713140E-01
       -1   -1    0    0    0  501  0.00000000000E+00  0.00000000000E+00  0.15812920289E+03  0.15812920297E+03  0.50400001928E-02 0. -1.
        1   -1    0    0  501    0  0.00000000000E+00  0.00000000000E+00 -0.78000036652E+03  0.78000036654E+03  0.50400001928E-02 0.  1.
    10030    2    1    2    0    0  0.00000000000E+00  0.00000000000E+00 -0.62187116364E+03  0.93812956951E+03  0.70239828091E+03 0.  0.
        4    1    3    3  502    0 -0.27621070250E+03  0.17723276221E+03 -0.14392878379E+03  0.35835863584E+03  0.12699999809E+01 0. -1.
       -4    1    3    3    0  502  0.27621070250E+03 -0.17723276221E+03 -0.47794237984E+03  0.57977093367E+03  0.12699999809E+01 0.  1.
</event>
<event>
 5   0  0.2006362E-02  0.7022509E+03  0.7818609E-02  0.9713391E-01
       -2   -1    0    0    0  501  0.00000000000E+00  0.00000000000E+00  0.17129246894E+03  0.17129246896E+03  0.25500000920E-02 0.  1.
        2   -1    0    0  501    0  0.00000000000E+00  0.00000000000E+00 -0.71975764593E+03  0.71975764593E+03  0.25500000920E-02 0. -1.
    10030    2    1    2    0    0  0.00000000000E+00  0.00000000000E+00 -0.54846517699E+03  0.89105011490E+03  0.70225085040E+03 0.  0.
        4    1    3    3  502    0  0.12374939453E+03  0.11346991787E+03 -0.66551994438E+03  0.68637289003E+03  0.12699999809E+01 0. -1.
       -4    1    3    3    0  502 -0.12374939453E+03 -0.11346991787E+03  0.11705476739E+03  0.20467722486E+03  0.12699999809E+01 0.  1.
</event>
<event>
 5   0  0.2026361E-02  0.7071135E+03  0.7818609E-02  0.9705144E-01
        2   -1    0    0  501    0  0.00000000000E+00  0.00000000000E+00  0.56220208234E+03  0.56220208234E+03  0.25500000920E-02 0.  1.
       -2   -1    0    0    0  501  0.00000000000E+00  0.00000000000E+00 -0.22234418832E+03  0.22234418833E+03  0.25500000920E-02 0. -1.
    10030    2    1    2    0    0  0.00000000000E+00  0.00000000000E+00  0.33985789402E+03  0.78454627068E+03  0.70711347230E+03 0.  0.
        2    1    3    3  502    0 -0.19475972256E+03  0.26616353962E+03  0.31126786655E+03  0.45349979504E+03  0.25500000920E-02 0. -1.
       -2    1    3    3    0  502  0.19475972256E+03 -0.26616353962E+03  0.28590027470E+02  0.33104647563E+03  0.25500000920E-02 0.  1.
</event>
<event>
 5   0  0.1257442E-02  0.6943386E+03  0.7818609E-02  0.9726963E-01
        1   -1    0    0  501    0  0.00000000000E+00  0.00000000000E+00  0.67091795666E+03  0.67091795668E+03  0.50400001928E-02 0.  1.
       -1   -1    0    0    0  501  0.00000000000E+00  0.00000000000E+00 -0.17964421993E+03  0.17964422000E+03  0.50400001928E-02 0. -1.
    10030    2    1    2    0    0  0.00000000000E+00  0.00000000000E+00  0.49127373673E+03  0.85056217667E+03  0.69433862919E+03 0.  0.
        1    1    3    3  502    0 -0.29067486086E+03 -0.12197608137E+03  0.67457840033E+02  0.32236718098E+03  0.50400001928E-02 0. -1.
       -1    1    3    3    0  502  0.29067486086E+03  0.12197608137E+03  0.42381589670E+03  0.52819499570E+03  0.50400001928E-02 0.  1.
</event>
<event>
 5   0  0.1237686E-02  0.7042205E+03  0.7818609E-02  0.9710042E-01
        1   -1    0    0  501    0  0.00000000000E+00  0.00000000000E+00  0.53720616589E+03  0.53720616592E+03  0.50400001928E-02 0.  1.
       -1   -1    0    0    0  501  0.00000000000E+00  0.00000000000E+00 -0.23078963049E+03  0.23078963055E+03  0.50400001928E-02 0. -1.
    10030    2    1    2    0    0  0.00000000000E+00  0.00000000000E+00  0.30641653540E+03  0.76799579646E+03  0.70422045569E+03 0.  0.
        5    1    3    3  502    0 -0.34800041373E+03 -0.38895013953E+02  0.19316529767E+03  0.39994003586E+03  0.46999998093E+01 0. -1.
       -5    1    3    3    0  502  0.34800041373E+03  0.38895013953E+02  0.11325123773E+03  0.36805576060E+03  0.46999998093E+01 0.  1.
</event>
<event>
 5   0  0.1257442E-02  0.6983924E+03  0.7818609E-02  0.9719985E-01
        1   -1    0    0  501    0  0.00000000000E+00  0.00000000000E+00  0.13446948627E+04  0.13446948627E+04  0.50400001928E-02 0. -1.
       -1   -1    0    0    0  501  0.00000000000E+00  0.00000000000E+00 -0.90680788798E+02  0.90680788938E+02  0.50400001928E-02 0.  1.
    10030    2    1    2    0    0  0.00000000000E+00  0.00000000000E+00  0.12540140739E+04  0.14353756516E+04  0.69839241390E+03 0.  0.
        1    1    3    3  502    0  0.13552178310E+03 -0.32179801896E+03  0.63569574740E+03  0.72527870642E+03  0.50400001928E-02 0. -1.
       -1    1    3    3    0  502 -0.13552178310E+03  0.32179801896E+03  0.61831832650E+03  0.71009694522E+03  0.50400001928E-02 0.  1.
</event>
<event>
 5   0  0.1973067E-02  0.7065976E+03  0.7818609E-02  0.9706016E-01
       -2   -1    0    0    0  501  0.00000000000E+00  0.00000000000E+00  0.29728527259E+03  0.29728527260E+03  0.25500000920E-02 0. -1.
        2   -1    0    0  501    0  0.00000000000E+00  0.00000000000E+00 -0.41986615921E+03  0.41986615922E+03  0.25500000920E-02 0.  1.
    10030    2    1    2    0    0  0.00000000000E+00  0.00000000000E+00 -0.12258088662E+03  0.71715143182E+03  0.70659755334E+03 0.  0.
        5    1    3    3  502    0 -0.14274015785E+03  0.23476122269E+03  0.16408561995E+03  0.32005275349E+03  0.46999998093E+01 0. -1.
       -5    1    3    3    0  502  0.14274015785E+03 -0.23476122269E+03 -0.28666650657E+03  0.39709867833E+03  0.46999998093E+01 0.  1.
</event>
<event>
 5   0  0.1948138E-02  0.7012163E+03  0.7818609E-02  0.9715154E-01
       -2   -1    0    0    0  501  0.00000000000E+00  0.00000000000E+00  0.87893006751E+03  0.87893006751E+03  0.25500000920E-02 0.  1.
        2   -1    0    0  501    0  0.00000000000E+00  0.00000000000E+00 -0.13985877055E+03  0.13985877057E+03  0.25500000920E-02 0. -1.
    10030    2    1    2    0    0  0.00000000000E+00  0.00000000000E+00  0.73907129696E+03  0.10187888381E+04  0.70121631086E+03 0.  0.
        3    1    3    3  502    0 -0.16306416180E+01  0.31527432957E+03  0.14669128152E+03  0.34773395600E+03  0.10100000352E+00 0. -1.
       -3    1    3    3    0  502  0.16306416180E+01 -0.31527432957E+03  0.59238001544E+03  0.67105488209E+03  0.10100000352E+00 0.  1.
</event>
<event>
 5   0  0.1948138E-02  0.6994472E+03  0.7818609E-02  0.9718178E-01
        2   -1    0    0  501    0  0.00000000000E+00  0.00000000000E+00  0.13323421803E+04  0.13323421803E+04  0.25500000920E-02 0.  1.
       -2   -1    0    0    0  501  0.00000000000E+00  0.00000000000E+00 -0.91798176029E+02  0.91798176064E+02  0.25500000920E-02 0. -1.
    10030    2    1    2    0    0  0.00000000000E+00  0.00000000000E+00  0.12405440043E+04  0.14241403564E+04  0.69944715891E+03 0.  0.
        3    1    3    3  502    0 -0.26670125380E+03  0.17964835981E+03  0.90021445428E+03  0.95592320082E+03  0.10100000352E+00 0. -1.
       -3    1    3    3    0  502  0.26670125380E+03 -0.17964835981E+03  0.34032955002E+03  0.46821715558E+03  0.10100000352E+00 0.  1.
</event>
<event>
 5   0  0.1223742E-02  0.6996004E+03  0.7818609E-02  0.9717916E-01
       -1   -1    0    0    0  501  0.00000000000E+00  0.00000000000E+00  0.43631102582E+03  0.43631102585E+03  0.50400001928E-02 0.  1.
        1   -1    0    0  501    0  0.00000000000E+00  0.00000000000E+00 -0.28044254562E+03  0.28044254566E+03  0.50400001928E-02 0. -1.
    10030    2    1    2    0    0  0.00000000000E+00  0.00000000000E+00  0.15586848020E+03  0.71675357151E+03  0.69960038533E+03 0.  0.
        2    1    3    3  502    0  0.19992129596E+03 -0.55799472531E+02  0.36640138593E+03  0.42110815871E+03  0.25500000920E-02 0.  1.
       -2    1    3    3    0  502 -0.19992129596E+03  0.55799472531E+02 -0.21053290573E+03  0.29564541281E+03  0.25500000920E-02 0. -1.
</event>
<event>
 5   0  0.2006362E-02  0.6985151E+03  0.7818609E-02  0.9719775E-01
        2   -1    0    0  501    0  0.00000000000E+00  0.00000000000E+00  0.53067989312E+03  0.53067989313E+03  0.25500000920E-02 0. -1.
       -2   -1    0    0    0  501  0.00000000000E+00  0.00000000000E+00 -0.22985764444E+03  0.22985764446E+03  0.25500000920E-02 0.  1.
    10030    2    1    2    0    0  0.00000000000E+00  0.00000000000E+00  0.30082224868E+03  0.76053753758E+03  0.69851508271E+03 0.  0.
        4    1    3    3  502    0 -0.18546031994E+03  0.16654443936E+02  0.47212344908E+03  0.50751853645E+03  0.12699999809E+01 0. -1.
       -4    1    3    3    0  502  0.18546031994E+03 -0.16654443936E+02 -0.17130120040E+03  0.25301900113E+03  0.12699999809E+01 0.  1.
</event>
<event>
 5   0  0.1257442E-02  0.6995425E+03  0.7818609E-02  0.9718015E-01
        1   -1    0    0  501    0  0.00000000000E+00  0.00000000000E+00  0.10728197354E+04  0.10728197354E+04  0.50400001928E-02 0.  1.
       -1   -1    0    0    0  501  0.00000000000E+00  0.00000000000E+00 -0.11403587731E+03  0.11403587742E+03  0.50400001928E-02 0. -1.
    10030    2    1    2    0    0  0.00000000000E+00  0.00000000000E+00  0.95878385812E+03  0.11868556129E+04  0.69954253566E+03 0.  0.
        1    1    3    3  502    0 -0.32923932751E+03  0.97850442580E+02  0.36727782923E+03  0.50285807915E+03  0.50400001928E-02 0. -1.
       -1    1    3    3    0  502  0.32923932751E+03 -0.97850442580E+02  0.59150602889E+03  0.68399753372E+03  0.50400001928E-02 0.  1.
</event>
<event>
 5   0  0.1948138E-02  0.7089073E+03  0.7818609E-02  0.9702120E-01
       -2   -1    0    0    0  501  0.00000000000E+00  0.00000000000E+00  0.10634813586E+03  0.10634813589E+03  0.25500000920E-02 0. -1.
        2   -1    0    0  501    0  0.00000000000E+00  0.00000000000E+00 -0.11813785587E+04  0.11813785587E+04  0.25500000920E-02 0.  1.
    10030    2    1    2    0    0  0.00000000000E+00  0.00000000000E+00 -0.10750304229E+04  0.12877266946E+04  0.70890734933E+03 0.  0.
        3    1    3    3  502    0 -0.10798206256E+03  0.23558297655E+01  0.75728035008E+02  0.13191065634E+03  0.10100000352E+00 0. -1.
       -3    1    3    3    0  502  0.10798206256E+03 -0.23558297655E+01 -0.11507584579E+04  0.11558160383E+04  0.10100000352E+00 0.  1.
</event>
<event>
 5   0  0.1257442E-02  0.7099704E+03  0.7818609E-02  0.9700332E-01
       -1   -1    0    0    0  501  0.00000000000E+00  0.00000000000E+00  0.25744482134E+03  0.25744482139E+03  0.50400001928E-02 0. -1.
        1   -1    0    0  501    0  0.00000000000E+00  0.00000000000E+00 -0.48948157378E+03  0.48948157380E+03  0.50400001928E-02 0.  1.
    10030    2    1    2    0    0  0.00000000000E+00  0.00000000000E+00 -0.23203675244E+03  0.74692639519E+03  0.70997041160E+03 0.  0.
        1    1    3    3  502    0  0.24744213762E+03  0.14073490904E+03  0.10710754971E+03  0.30414791356E+03  0.50400001928E-02 0. -1.
       -1    1    3    3    0  502 -0.24744213762E+03 -0.14073490904E+03 -0.33914430215E+03  0.44277848163E+03  0.50400001928E-02 0.  1.
</event>
<event>
 5   0  0.1973067E-02  0.6972537E+03  0.7818609E-02  0.9721940E-01
        2   -1    0    0  501    0  0.00000000000E+00  0.00000000000E+00  0.10772115936E+04  0.10772115936E+04  0.25500000920E-02 0. -1.
       -2   -1    0    0    0  501  0.00000000000E+00  0.00000000000E+00 -0.11282897284E+03  0.11282897287E+03  0.25500000920E-02 0.  1.
    10030    2    1    2    0    0  0.00000000000E+00  0.00000000000E+00  0.96438262080E+03  0.11900405665E+04  0.69725369173E+03 0.  0.
        5    1    3    3  502    0  0.19731890680E+03  0.14770018291E+03  0.90292779658E+03  0.93597584950E+03  0.46999998093E+01 0. -1.
       -5    1    3    3    0  502 -0.19731890680E+03 -0.14770018291E+03  0.61454824228E+02  0.25406471702E+03  0.46999998093E+01 0.  1.
</event>
<event>
 5   0  0.7947250E-03  0.7073837E+03  0.7818609E-02  0.9704688E-01
       -3   -1    0    0    0  501  0.00000000000E+00  0.00000000000E+00  0.11117683203E+03  0.11117687790E+03  0.10100000352E+00 0.  1.
        3   -1    0    0  501    0  0.00000000000E+00  0.00000000000E+00 -0.11252155952E+04  0.11252155998E+04  0.10100000352E+00 0. -1.
    10030    2    1    2    0    0  0.00000000000E+00  0.00000000000E+00 -0.10140387632E+04  0.12363924777E+04  0.70738373289E+03 0.  0.
        2    1    3    3  502    0  0.21934002108E+03 -0.25957766894E+03 -0.33570156368E+03  0.47768834078E+03  0.25500000920E-02 0.  1.
       -2    1    3    3    0  502 -0.21934002108E+03  0.25957766894E+03 -0.67833719953E+03  0.75870413689E+03  0.25500000920E-02 0. -1.
</event>
<event>
 5   0  0.1223742E-02  0.7041135E+03  0.7818609E-02  0.9710223E-01
       -1   -1    0    0    0  501  0.00000000000E+00  0.00000000000E+00  0.16168728251E+03  0.16168728259E+03  0.50400001928E-02 0. -1.
        1   -1    0    0  501    0  0.00000000000E+00  0.00000000000E+00 -0.76656586174E+03  0.76656586175E+03  0.50400001928E-02 0.  1.
    10030    2    1    2    0    0  0.00000000000E+00  0.00000000000E+00 -0.60487857922E+03  0.92825314435E+03  0.70411348829E+03 0.  0.
        2    1    3    3  502    0  0.31714930062E+03  0.15157845368E+03 -0.32828138023E+03  0.48096608105E+03  0.25500000920E-02 0. -1.
       -2    1    3    3    0  502 -0.31714930062E+03 -0.15157845368E+03 -0.27659719899E+03  0.44728706330E+03  0.25500000920E-02 0.  1.
</event>
<event>
 5   0  0.2026361E-02  0.6961646E+03  0.7818609E-02  0.9723814E-01
       -2   -1    0    0    0  501  0.00000000000E+00  0.00000000000E+00  0.97707389196E+03  0.97707389197E+03  0.25500000920E-02 0. -1.
        2   -1    0    0  501    0  0.00000000000E+00  0.00000000000E+00 -0.12400421524E+03  0.12400421527E+03  0.25500000920E-02 0.  1.
    10030    2    1    2    0    0  0.00000000000E+00  0.00000000000E+00  0.85306967672E+03  0.11010781072E+04  0.69616458175E+03 0.  0.
        2    1    3    3  502    0  0.22826961186E+03  0.16114883270E+03  0.75483482191E+03  0.80489227251E+03  0.25500000920E-02 0. -1.
       -2    1    3    3    0  502 -0.22826961186E+03 -0.16114883270E+03  0.98234854816E+02  0.29618583472E+03  0.25500000920E-02 0.  1.
</event>
<event>
 5   0  0.1948138E-02  0.7037525E+03  0.7818609E-02  0.9710836E-01
       -2   -1    0    0    0  501  0.00000000000E+00  0.00000000000E+00  0.89487096400E+02  0.89487096437E+02  0.25500000920E-02 0.  1.
        2   -1    0    0  501    0  0.00000000000E+00  0.00000000000E+00 -0.13836284239E+04  0.13836284239E+04  0.25500000920E-02 0. -1.
    10030    2    1    2    0    0  0.00000000000E+00  0.00000000000E+00 -0.12941413275E+04  0.14731155203E+04  0.70375248541E+03 0.  0.
        3    1    3    3  502    0 -0.12068859502E+03 -0.31341068296E+03 -0.86685864160E+03  0.92964289266E+03  0.10100000352E+00 0.  1.
       -3    1    3    3    0  502  0.12068859502E+03  0.31341068296E+03 -0.42728268589E+03  0.54347262767E+03  0.10100000352E+00 0. -1.
</event>
<event>
 5   0  0.1197259E-02  0.7019018E+03  0.7818609E-02  0.9713985E-01
        1   -1    0    0  501    0  0.00000000000E+00  0.00000000000E+00  0.11628919055E+03  0.11628919066E+03  0.50400001928E-02 0.  1.
       -1   -1    0    0    0  501  0.00000000000E+00  0.00000000000E+00 -0.10591400068E+04  0.10591400068E+04  0.50400001928E-02 0. -1.
    10030    2    1    2    0    0  0.00000000000E+00  0.00000000000E+00 -0.94285081624E+03  0.11754291975E+04  0.70190179979E+03 0.  0.
        3    1    3    3  502    0 -0.30264217000E+03 -0.15999815191E+03 -0.34198109453E+03  0.48388301364E+03  0.10100000352E+00 0.  1.
       -3    1    3    3    0  502  0.30264217000E+03  0.15999815191E+03 -0.60086972172E+03  0.69154618382E+03  0.10100000352E+00 0. -1.
</event>
<event>
 5   0  0.1973067E-02  0.7036567E+03  0.7818609E-02  0.9710999E-01
        2   -1    0    0  501    0  0.00000000000E+00  0.00000000000E+00  0.12470429318E+04  0.12470429318E+04  0.25500000920E-02 0. -1.
       -2   -1    0    0    0  501  0.00000000000E+00  0.00000000000E+00 -0.99261367064E+02  0.99261367096E+02  0.25500000920E-02 0.  1.
    10030    2    1    2    0    0  0.00000000000E+00  0.00000000000E+00  0.11477815648E+04  0.13463042989E+04  0.70365669534E+03 0.  0.
        5    1    3    3  502    0  0.15995558565E+03 -0.24860101080E+03  0.93878840998E+03  0.98424286671E+03  0.46999998093E+01 0. -1.
       -5    1    3    3    0  502 -0.15995558565E+03  0.24860101080E+03  0.20899315477E+03  0.36206143221E+03  0.46999998093E+01 0.  1.
</event>
<event>
 5   0  0.2006362E-02  0.7015860E+03  0.7818609E-02  0.9714524E-01
        2   -1    0    0  501    0  0.00000000000E+00  0.00000000000E+00  0.22094523667E+03  0.22094523668E+03  0.25500000920E-02 0.  1.
       -2   -1    0    0    0  501  0.00000000000E+00  0.00000000000E+00 -0.55695128300E+03  0.55695128301E+03  0.25500000920E-02 0. -1.
    10030    2    1    2    0    0  0.00000000000E+00  0.00000000000E+00 -0.33600604633E+03  0.77789651969E+03  0.70158601195E+03 0.  0.
        4    1    3    3  502    0 -0.17311713264E+03  0.16616508710E+02 -0.50578363175E+03  0.53484983408E+03  0.12699999809E+01 0. -1.
       -4    1    3    3    0  502  0.17311713264E+03 -0.16616508710E+02  0.16977758541E+03  0.24304668560E+03  0.12699999809E+01 0.  1.
</event>
<event>
 5   0  0.2026361E-02  0.6968829E+03  0.7818609E-02  0.9722578E-01
        2   -1    0    0  501    0  0.00000000000E+00  0.00000000000E+00  0.70380225235E+03  0.70380225236E+03  0.25500000920E-02 0.  1.
       -2   -1    0    0    0  501  0.00000000000E+00  0.00000000000E+00 -0.17250787682E+03  0.17250787684E+03  0.25500000920E-02 0. -1.
    10030    2    1    2    0    0  0.00000000000E+00  0.00000000000E+00  0.53129437553E+03  0.87631012920E+03  0.69688286610E+03 0.  0.
        2    1    3    3  502    0  0.28018019060E+03 -0.12231787699E+03  0.47587000945E+03  0.56561017330E+03  0.25500000920E-02 0.  1.
       -2    1    3    3    0  502 -0.28018019060E+03  0.12231787699E+03  0.55424366077E+02  0.31069995590E+03  0.25500000920E-02 0. -1.
</event>
<event>
 5   0  0.7947250E-03  0.6994382E+03  0.7818609E-02  0.9718193E-01
       -4   -1    0    0    0  501  0.00000000000E+00  0.00000000000E+00  0.20142284243E+03  0.20142684616E+03  0.12699999809E+01 0. -1.
        4   -1    0    0  501    0  0.00000000000E+00  0.00000000000E+00 -0.60718675373E+03  0.60718808191E+03  0.12699999809E+01 0.  1.
    10030    2    1    2    0    0  0.00000000000E+00  0.00000000000E+00 -0.40576391130E+03  0.80861492806E+03  0.69943816751E+03 0.  0.
        1    1    3    3  502    0 -0.24084756544E+03  0.15342706487E+03  0.30511314533E+02  0.28719044962E+03  0.50400001928E-02 0. -1.
       -1    1    3    3    0  502  0.24084756544E+03 -0.15342706487E+03 -0.43627522584E+03  0.52142447844E+03  0.50400001928E-02 0.  1.
</event>
<event>
 5   0  0.2006362E-02  0.7240998E+03  0.7818609E-02  0.9676883E-01
       -2   -1    0    0    0  501  0.00000000000E+00  0.00000000000E+00  0.81356697457E+02  0.81356697497E+02  0.25500000920E-02 0. -1.
        2   -1    0    0  501    0  0.00000000000E+00  0.00000000000E+00 -0.16111782625E+04  0.16111782625E+04  0.25500000920E-02 0.  1.
    10030    2    1    2    0    0  0.00000000000E+00  0.00000000000E+00 -0.15298215650E+04  0.16925349600E+04  0.72409983424E+03 0.  0.
        4    1    3    3  502    0  0.23784237257E+03 -0.15493385779E+03 -0.23961182542E+03  0.37146861814E+03  0.12699999809E+01 0.  1.
       -4    1    3    3    0  502 -0.23784237257E+03  0.15493385779E+03 -0.12902097396E+04  0.13210663418E+04  0.12699999809E+01 0. -1.
</event>
<event>
 5   0  0.1973067E-02  0.7045687E+03  0.7818609E-02  0.9709451E-01
       -2   -1    0    0    0  501  0.00000000000E+00  0.00000000000E+00  0.26613364155E+03  0.26613364156E+03  0.25500000920E-02 0. -1.
        2   -1    0    0  501    0  0.00000000000E+00  0.00000000000E+00 -0.46632310641E+03  0.46632310642E+03  0.25500000920E-02 0.  1.
    10030    2    1    2    0    0  0.00000000000E+00  0.00000000000E+00 -0.20018946486E+03  0.73245674799E+03  0.70456870909E+03 0.  0.
        5    1    3    3  502    0  0.10086030733E+03 -0.30940671539E+03 -0.24025278546E+03  0.40453529889E+03  0.46999998093E+01 0.  1.
       -5    1    3    3    0  502 -0.10086030733E+03  0.30940671539E+03  0.40063320600E+02  0.32792144910E+03  0.46999998093E+01 0. -1.
</event>
<event>
 5   0  0.2006362E-02  0.7067505E+03  0.7818609E-02  0.9705757E-01
        2   -1    0    0  501    0  0.00000000000E+00  0.00000000000E+00  0.59735045620E+03  0.59735045621E+03  0.25500000920E-02 0. -1.
       -2   -1    0    0    0  501  0.00000000000E+00  0.00000000000E+00 -0.20904659376E+03  0.20904659377E+03  0.25500000920E-02 0.  1.
    10030    2    1    2    0    0  0.00000000000E+00  0.00000000000E+00  0.38830386245E+03  0.80639704998E+03  0.70675053069E+03 0.  0.
        4    1    3    3  502    0  0.18267903323E+03  0.16346067425E+03 -0.96255750154E+02  0.26335869750E+03  0.12699999809E+01 0.  1.
       -4    1    3    3    0  502 -0.18267903323E+03 -0.16346067425E+03  0.48455961260E+03  0.54303835249E+03  0.12699999809E+01 0. -1.
</event>
<event>
 5   0  0.2026361E-02  0.7031505E+03  0.7818609E-02  0.9711860E-01
        2   -1    0    0  501    0  0.00000000000E+00  0.00000000000E+00  0.14124628523E+04  0.14124628523E+04  0.25500000920E-02 0.  1.
       -2   -1    0    0    0  501  0.00000000000E+00  0.00000000000E+00 -0.87510376369E+02  0.87510376406E+02  0.25500000920E-02 0. -1.
    10030    2    1    2    0    0  0.00000000000E+00  0.00000000000E+00  0.13249524759E+04  0.14999732287E+04  0.70315049838E+03 0.  0.
        2    1    3    3  502    0  0.27653830035E+03  0.59246430422E+02  0.21693701958E+03  0.35643406339E+03  0.25500000920E-02 0. -1.
       -2    1    3    3    0  502 -0.27653830035E+03 -0.59246430422E+02  0.11080154564E+04  0.11435391653E+04  0.25500000920E-02 0.  1.
</event>
<event>
 5   0  0.1973067E-02  0.6999996E+03  0.7818609E-02  0.9717233E-01
       -2   -1    0    0    0  501  0.00000000000E+00  0.00000000000E+00  0.14588438105E+03  0.14588438107E+03  0.25500000920E-02 0. -1.
        2   -1    0    0  501    0  0.00000000000E+00  0.00000000000E+00 -0.83970518933E+03  0.83970518933E+03  0.25500000920E-02 0.  1.
    10030    2    1    2    0    0  0.00000000000E+00  0.00000000000E+00 -0.69382080828E+03  0.98558957041E+03  0.69999963378E+03 0.  0.
        5    1    3    3  502    0  0.10202343870E+03 -0.19298896899E+03  0.38230366125E+02  0.22166906660E+03  0.46999998093E+01 0. -1.
       -5    1    3    3    0  502 -0.10202343870E+03  0.19298896899E+03 -0.73205117440E+03  0.76392050381E+03  0.46999998093E+01 0.  1.
</event>
<event>
 5   0  0.1257442E-02  0.7047199E+03  0.7818609E-02  0.9709194E-01
        1   -1    0    0  501    0  0.00000000000E+00  0.00000000000E+00  0.13634014312E+04  0.13634014312E+04  0.50400001928E-02 0. -1.
       -1   -1    0    0    0  501  0.00000000000E+00  0.00000000000E+00 -0.91064535928E+02  0.91064536067E+02  0.50400001928E-02 0.  1.
    10030    2    1    2    0    0  0.00000000000E+00  0.00000000000E+00  0.12723368953E+04  0.14544659673E+04  0.70471985562E+03 0.  0.
        1    1    3    3  502    0 -0.11615850887E+03  0.15482980044E+03  0.28484589862E+02  0.19564365099E+03  0.50400001928E-02 0.  1.
       -1    1    3    3    0  502  0.11615850887E+03 -0.15482980044E+03  0.12438523054E+04  0.12588223163E+04  0.50400001928E-02 0. -1.
</event>
<event>
 5   0  0.1948138E-02  0.6531554E+03  0.7818609E-02  0.9800876E-01
        2   -1    0    0  501    0  0.00000000000E+00  0.00000000000E+00  0.13349264085E+04  0.13349264085E+04  0.25500000920E-02 0. -1.
       -2   -1    0    0    0  501  0.00000000000E+00  0.00000000000E+00 -0.79894286845E+02  0.79894286886E+02  0.25500000920E-02 0.  1.
    10030    2    1    2    0    0  0.00000000000E+00  0.00000000000E+00  0.12550321217E+04  0.14148206954E+04  0.65315539783E+03 0.  0.
        3    1    3    3  502    0  0.21992181305E+03  0.13318492353E+03  0.10637061469E+04  0.10943375187E+04  0.10100000352E+00 0. -1.
       -3    1    3    3    0  502 -0.21992181305E+03 -0.13318492353E+03  0.19132597473E+03  0.32048317665E+03  0.10100000352E+00 0.  1.
</event>
<event>
 5   0  0.1257442E-02  0.6927084E+03  0.7818609E-02  0.9729784E-01
        1   -1    0    0  501    0  0.00000000000E+00  0.00000000000E+00  0.31679256967E+03  0.31679256971E+03  0.50400001928E-02 0. -1.
       -1   -1    0    0    0  501  0.00000000000E+00  0.00000000000E+00 -0.37867444047E+03  0.37867444050E+03  0.50400001928E-02 0.  1.
    10030    2    1    2    0    0  0.00000000000E+00  0.00000000000E+00 -0.61881870794E+02  0.69546701021E+03  0.69270844976E+03 0.  0.
        1    1    3    3  502    0  0.20945728359E+03  0.22366293558E+02 -0.30696969054E+03  0.37229423266E+03  0.50400001928E-02 0.  1.
       -1    1    3    3    0  502 -0.20945728359E+03 -0.22366293558E+02  0.24508781975E+03  0.32317277755E+03  0.50400001928E-02 0. -1.
</event>
<event>
 5   0  0.2026361E-02  0.6992354E+03  0.7818609E-02  0.9718541E-01
        2   -1    0    0  501    0  0.00000000000E+00  0.00000000000E+00  0.17508663596E+04  0.17508663596E+04  0.25500000920E-02 0.  1.
       -2   -1    0    0    0  501  0.00000000000E+00  0.00000000000E+00 -0.69812594348E+02  0.69812594395E+02  0.25500000920E-02 0. -1.
    10030    2    1    2    0    0  0.00000000000E+00  0.00000000000E+00  0.16810537653E+04  0.18206789540E+04  0.69923536228E+03 0.  0.
        2    1    3    3  502    0  0.31897988308E+03  0.14059542081E+03  0.91026268478E+03  0.97472734314E+03  0.25500000920E-02 0. -1.
       -2    1    3    3    0  502 -0.31897988308E+03 -0.14059542081E+03  0.77079108047E+03  0.84595161085E+03  0.25500000920E-02 0.  1.
</event>
<event>
 5   0  0.1973067E-02  0.7053544E+03  0.7818609E-02  0.9708119E-01
        2   -1    0    0  501    0  0.00000000000E+00  0.00000000000E+00  0.19433793298E+04  0.19433793298E+04  0.25500000920E-02 0. -1.
       -2   -1    0    0    0  501  0.00000000000E+00  0.00000000000E+00 -0.64002541186E+02  0.64002541237E+02  0.25500000920E-02 0.  1.
    10030    2    1    2    0    0  0.00000000000E+00  0.00000000000E+00  0.18793767886E+04  0.20073818710E+04  0.70535442338E+03 0.  0.
        5    1    3    3  502    0 -0.98338452349E+02  0.28176488977E+03  0.14743670685E+04  0.15042746581E+04  0.46999998093E+01 0. -1.
       -5    1    3    3    0  502  0.98338452349E+02 -0.28176488977E+03  0.40500972005E+03  0.50310721288E+03  0.46999998093E+01 0.  1.
</event>
<event>
 5   0  0.1257442E-02  0.6982949E+03  0.7818609E-02  0.9720153E-01
        1   -1    0    0  501    0  0.00000000000E+00  0.00000000000E+00  0.53451352284E+03  0.53451352286E+03  0.50400001928E-02 0.  1.
       -1   -1    0    0    0  501  0.00000000000E+00  0.00000000000E+00 -0.22806523221E+03  0.22806523226E+03  0.50400001928E-02 0. -1.
    10030    2    1    2    0    0  0.00000000000E+00  0.00000000000E+00  0.30644829063E+03  0.76257875512E+03  0.69829492547E+03 0.  0.
        1    1    3    3  502    0 -0.20871578182E+03  0.74790935655E+02  0.44777230416E+03  0.49965587962E+03  0.50400001928E-02 0.  1.
       -1    1    3    3    0  502  0.20871578182E+03 -0.74790935655E+02 -0.14132401353E+03  0.26292287550E+03  0.50400001928E-02 0. -1.
</event>
<event>
 5   0  0.1226303E-02  0.7001367E+03  0.7818609E-02  0.9716998E-01
        1   -1    0    0  501    0  0.00000000000E+00  0.00000000000E+00  0.17973895022E+04  0.17973895022E+04  0.50400001928E-02 0.  1.
       -1   -1    0    0    0  501  0.00000000000E+00  0.00000000000E+00 -0.68181027442E+02  0.68181027628E+02  0.50400001928E-02 0. -1.
    10030    2    1    2    0    0  0.00000000000E+00  0.00000000000E+00  0.17292084748E+04  0.18655705298E+04  0.70013673851E+03 0.  0.
        4    1    3    3  502    0 -0.12012713682E+03 -0.20503978815E+03  0.17967541663E+03  0.29792064709E+03  0.12699999809E+01 0. -1.
       -4    1    3    3    0  502  0.12012713682E+03  0.20503978815E+03  0.15495330581E+04  0.15676498828E+04  0.12699999809E+01 0.  1.
</event>
<event>
 5   0  0.1197259E-02  0.6996131E+03  0.7818609E-02  0.9717894E-01
        1   -1    0    0  501    0  0.00000000000E+00  0.00000000000E+00  0.11964328569E+04  0.11964328569E+04  0.50400001928E-02 0. -1.
       -1   -1    0    0    0  501  0.00000000000E+00  0.00000000000E+00 -0.10227454535E+03  0.10227454547E+03  0.50400001928E-02 0.  1.
    10030    2    1    2    0    0  0.00000000000E+00  0.00000000000E+00  0.10941583116E+04  0.12987074024E+04  0.69961311185E+03 0.  0.
        3    1    3    3  502    0  0.10301481892E+03  0.33025237110E+03  0.45087338768E+03  0.56830053973E+03  0.10100000352E+00 0.  1.
       -3    1    3    3    0  502 -0.10301481892E+03 -0.33025237110E+03  0.64328492389E+03  0.73040686268E+03  0.10100000352E+00 0. -1.
</event>
<event>
 5   0  0.7947250E-03  0.6989842E+03  0.7818609E-02  0.9718971E-01
        3   -1    0    0  501    0  0.00000000000E+00  0.00000000000E+00  0.33442705896E+03  0.33442707421E+03  0.10100000352E+00 0. -1.
       -3   -1    0    0    0  501  0.00000000000E+00  0.00000000000E+00 -0.36523572927E+03  0.36523574324E+03  0.10100000352E+00 0.  1.
    10030    2    1    2    0    0  0.00000000000E+00  0.00000000000E+00 -0.30808670318E+02  0.69966281745E+03  0.69898418004E+03 0.  0.
        2    1    3    3  502    0 -0.78537968208E+02  0.49729379663E+02 -0.35263423205E+03  0.36468085399E+03  0.25500000920E-02 0.  1.
       -2    1    3    3    0  502  0.78537968208E+02 -0.49729379663E+02  0.32182556173E+03  0.33498196345E+03  0.25500000920E-02 0. -1.
</event>
<event>
 5   0  0.1237686E-02  0.7010534E+03  0.7818609E-02  0.9715432E-01
       -1   -1    0    0    0  501  0.00000000000E+00  0.00000000000E+00  0.57431876874E+03  0.57431876877E+03  0.50400001928E-02 0.  1.
        1   -1    0    0  501    0  0.00000000000E+00  0.00000000000E+00 -0.21393860213E+03  0.21393860219E+03  0.50400001928E-02 0. -1.
    10030    2    1    2    0    0  0.00000000000E+00  0.00000000000E+00  0.36038016662E+03  0.78825737095E+03  0.70105336342E+03 0.  0.
        5    1    3    3  502    0 -0.31481083294E+02 -0.28324719538E+02  0.57139622807E+03  0.57298262434E+03  0.46999998093E+01 0.  1.
       -5    1    3    3    0  502  0.31481083294E+02  0.28324719538E+02 -0.21101606145E+03  0.21527474662E+03  0.46999998093E+01 0. -1.
</event>
<event>
 5   0  0.1197259E-02  0.6944049E+03  0.7818609E-02  0.9726849E-01
        1   -1    0    0  501    0  0.00000000000E+00  0.00000000000E+00  0.60029175230E+03  0.60029175232E+03  0.50400001928E-02 0. -1.
       -1   -1    0    0    0  501  0.00000000000E+00  0.00000000000E+00 -0.20081826278E+03  0.20081826285E+03  0.50400001928E-02 0.  1.
    10030    2    1    2    0    0  0.00000000000E+00  0.00000000000E+00  0.39947348951E+03  0.80111001517E+03  0.69440491615E+03 0.  0.
        3    1    3    3  502    0  0.59582325210E+02 -0.10768319089E+03  0.57428479143E+03  0.58732338192E+03  0.10100000352E+00 0. -1.
       -3    1    3    3    0  502 -0.59582325210E+02  0.10768319089E+03 -0.17481130192E+03  0.21378663325E+03  0.10100000352E+00 0.  1.
</event>
<event>
 5   0  0.1973067E-02  0.6868561E+03  0.7818609E-02  0.9739978E-01
       -2   -1    0    0    0  501  0.00000000000E+00  0.00000000000E+00  0.13162255683E+03  0.13162255685E+03  0.25500000920E-02 0. -1.
        2   -1    0    0  501    0  0.00000000000E+00  0.00000000000E+00 -0.89606857843E+03  0.89606857843E+03  0.25500000920E-02 0.  1.
    10030    2    1    2    0    0  0.00000000000E+00  0.00000000000E+00 -0.76444602160E+03  0.10276911353E+04  0.68685613457E+03 0.  0.
        5    1    3    3  502    0  0.23160730191E+03  0.21861148376E+03 -0.19010038929E+03  0.37093553501E+03  0.46999998093E+01 0. -1.
       -5    1    3    3    0  502 -0.23160730191E+03 -0.21861148376E+03 -0.57434563231E+03  0.65675560027E+03  0.46999998093E+01 0.  1.
</event>
<event>
 5   0  0.7947250E-03  0.7066154E+03  0.7818609E-02  0.9705985E-01
        3   -1    0    0  501    0  0.00000000000E+00  0.00000000000E+00  0.36622372980E+03  0.36622374373E+03  0.10100000352E+00 0. -1.
       -3   -1    0    0    0  501  0.00000000000E+00  0.00000000000E+00 -0.34084716021E+03  0.34084717517E+03  0.10100000352E+00 0.  1.
    10030    2    1    2    0    0  0.00000000000E+00  0.00000000000E+00  0.25376569599E+02  0.70707091890E+03  0.70661539332E+03 0.  0.
        5    1    3    3  502    0 -0.18067117135E+03 -0.12560386563E+03  0.28924633042E+03  0.36346104726E+03  0.46999998093E+01 0. -1.
       -5    1    3    3    0  502  0.18067117135E+03  0.12560386563E+03 -0.26386976082E+03  0.34360987164E+03  0.46999998093E+01 0.  1.
</event>
<event>
 5   0  0.1237686E-02  0.7008982E+03  0.7818609E-02  0.9715697E-01
       -1   -1    0    0    0  501  0.00000000000E+00  0.00000000000E+00  0.26991136354E+03  0.26991136359E+03  0.50400001928E-02 0.  1.
        1   -1    0    0  501    0  0.00000000000E+00  0.00000000000E+00 -0.45501818392E+03  0.45501818395E+03  0.50400001928E-02 0. -1.
    10030    2    1    2    0    0  0.00000000000E+00  0.00000000000E+00 -0.18510682038E+03  0.72492954754E+03  0.70089821939E+03 0.  0.
        5    1    3    3  502    0 -0.28323234297E+03 -0.19937709781E+03 -0.37622171698E+02  0.34843838054E+03  0.46999998093E+01 0. -1.
       -5    1    3    3    0  502  0.28323234297E+03  0.19937709781E+03 -0.14748464868E+03  0.37649116700E+03  0.46999998093E+01 0.  1.
</event>
<event>
 5   0  0.1973067E-02  0.6979703E+03  0.7818609E-02  0.9720710E-01
        2   -1    0    0  501    0  0.00000000000E+00  0.00000000000E+00  0.82556243342E+03  0.82556243343E+03  0.25500000920E-02 0.  1.
       -2   -1    0    0    0  501  0.00000000000E+00  0.00000000000E+00 -0.14752443410E+03  0.14752443412E+03  0.25500000920E-02 0. -1.
    10030    2    1    2    0    0  0.00000000000E+00  0.00000000000E+00  0.67803799932E+03  0.97308686754E+03  0.69797028824E+03 0.  0.
        5    1    3    3  502    0 -0.10121472177E+03  0.27898492448E+02  0.80297660532E+03  0.80982483567E+03  0.46999998093E+01 0.  1.
       -5    1    3    3    0  502  0.10121472177E+03 -0.27898492448E+02 -0.12493860600E+03  0.16326203187E+03  0.46999998093E+01 0. -1.
</event>
<event>
 5   0  0.1226303E-02  0.7035597E+03  0.7818609E-02  0.9711164E-01
        1   -1    0    0  501    0  0.00000000000E+00  0.00000000000E+00  0.41980453494E+03  0.41980453497E+03  0.50400001928E-02 0.  1.
       -1   -1    0    0    0  501  0.00000000000E+00  0.00000000000E+00 -0.29477778077E+03  0.29477778082E+03  0.50400001928E-02 0. -1.
    10030    2    1    2    0    0  0.00000000000E+00  0.00000000000E+00  0.12502675417E+03  0.71458231579E+03  0.70355966114E+03 0.  0.
        4    1    3    3  502    0  0.14471597971E+03  0.31980959774E+03  0.85819398089E+02  0.36136889127E+03  0.12699999809E+01 0.  1.
       -4    1    3    3    0  502 -0.14471597971E+03 -0.31980959774E+03  0.39207356080E+02  0.35321342452E+03  0.12699999809E+01 0. -1.
</event>
<event>
 5   0  0.1237686E-02  0.6948130E+03  0.7818609E-02  0.9726144E-01
        1   -1    0    0  501    0  0.00000000000E+00  0.00000000000E+00  0.73396069477E+03  0.73396069479E+03  0.50400001928E-02 0. -1.
       -1   -1    0    0    0  501  0.00000000000E+00  0.00000000000E+00 -0.16443833902E+03  0.16443833910E+03  0.50400001928E-02 0.  1.
    10030    2    1    2    0    0  0.00000000000E+00  0.00000000000E+00  0.56952235575E+03  0.89839903388E+03  0.69481300390E+03 0.  0.
        5    1    3    3  502    0  0.28945845134E+03 -0.19193000004E+03  0.27600419496E+03  0.44364820027E+03  0.46999998093E+01 0.  1.
       -5    1    3    3    0  502 -0.28945845134E+03  0.19193000004E+03  0.29351816079E+03  0.45475083362E+03  0.46999998093E+01 0. -1.
</event>
<event>
 5   0  0.1948138E-02  0.7033668E+03  0.7818609E-02  0.9711492E-01
       -2   -1    0    0    0  501  0.00000000000E+00  0.00000000000E+00  0.99379610057E+02  0.99379610090E+02  0.25500000920E-02 0. -1.
        2   -1    0    0  501    0  0.00000000000E+00  0.00000000000E+00 -0.12445331856E+04  0.12445331856E+04  0.25500000920E-02 0.  1.
    10030    2    1    2    0    0  0.00000000000E+00  0.00000000000E+00 -0.11451535756E+04  0.13439127957E+04  0.70336682524E+03 0.  0.
        3    1    3    3  502    0  0.30161189625E+02  0.92272484402E+01 -0.12418252349E+04  0.12422257297E+04  0.10100000352E+00 0.  1.
       -3    1    3    3    0  502 -0.30161189625E+02 -0.92272484402E+01  0.96671659302E+02  0.10168706598E+03  0.10100000352E+00 0. -1.
</event>
<event>
 5   0  0.1973067E-02  0.7063013E+03  0.7818609E-02  0.9706516E-01
        2   -1    0    0  501    0  0.00000000000E+00  0.00000000000E+00  0.10387371516E+04  0.10387371516E+04  0.25500000920E-02 0. -1.
       -2   -1    0    0    0  501  0.00000000000E+00  0.00000000000E+00 -0.12006441888E+03  0.12006441891E+03  0.25500000920E-02 0.  1.
    10030    2    1    2    0    0  0.00000000000E+00  0.00000000000E+00  0.91867273269E+03  0.11588015705E+04  0.70630127421E+03 0.  0.
        5    1    3    3  502    0  0.25130587734E+03  0.23778238729E+02  0.86446104552E+03  0.90057483745E+03  0.46999998093E+01 0. -1.
       -5    1    3    3    0  502 -0.25130587734E+03 -0.23778238729E+02  0.54211687164E+02  0.25822673302E+03  0.46999998093E+01 0.  1.
</event>
<event>
 5   0  0.1237686E-02  0.7071626E+03  0.7818609E-02  0.9705061E-01
       -1   -1    0    0    0  501  0.00000000000E+00  0.00000000000E+00  0.14467467412E+03  0.14467467421E+03  0.50400001928E-02 0. -1.
        1   -1    0    0  501    0  0.00000000000E+00  0.00000000000E+00 -0.86414376955E+03  0.86414376957E+03  0.50400001928E-02 0.  1.
    10030    2    1    2    0    0  0.00000000000E+00  0.00000000000E+00 -0.71946909543E+03  0.10088184438E+04  0.70716255078E+03 0.  0.
        5    1    3    3  502    0  0.23937361817E+02  0.15239642790E+03 -0.81355485959E+03  0.82806477288E+03  0.46999998093E+01 0.  1.
       -5    1    3    3    0  502 -0.23937361817E+02 -0.15239642790E+03  0.94085764159E+02  0.18075367090E+03  0.46999998093E+01 0. -1.
</event>
<event>
 5   0  0.2006362E-02  0.6909588E+03  0.7818609E-02  0.9732820E-01
       -2   -1    0    0    0  501  0.00000000000E+00  0.00000000000E+00  0.57748786133E+03  0.57748786133E+03  0.25500000920E-02 0.  1.
        2   -1    0    0  501    0  0.00000000000E+00  0.00000000000E+00 -0.20668143038E+03  0.20668143039E+03  0.25500000920E-02 0. -1.
    10030    2    1    2    0    0  0.00000000000E+00  0.00000000000E+00  0.37080643095E+03  0.78416929173E+03  0.69095880402E+03 0.  0.
        4    1    3    3  502    0 -0.26043830593E+03 -0.32529966699E+02  0.44035973958E+03  0.51264473378E+03  0.12699999809E+01 0.  1.
       -4    1    3    3    0  502  0.26043830593E+03  0.32529966699E+02 -0.69553308631E+02  0.27152455795E+03  0.12699999809E+01 0. -1.
</event>
<event>
 5   0  0.1257442E-02  0.6969394E+03  0.7818609E-02  0.9722481E-01
       -1   -1    0    0    0  501  0.00000000000E+00  0.00000000000E+00  0.33649784648E+03  0.33649784652E+03  0.50400001928E-02 0. -1.
        1   -1    0    0  501    0  0.00000000000E+00  0.00000000000E+00 -0.36086748008E+03  0.36086748012E+03  0.50400001928E-02 0.  1.
    10030    2    1    2    0    0  0.00000000000E+00  0.00000000000E+00 -0.24369633598E+02  0.69736532663E+03  0.69693939460E+03 0.  0.
        1    1    3    3  502    0 -0.33961340984E+03 -0.31913348993E+02 -0.83470197121E+02  0.35117375161E+03  0.50400001928E-02 0. -1.
       -1    1    3    3    0  502  0.33961340984E+03  0.31913348993E+02  0.59100563522E+02  0.34619157503E+03  0.50400001928E-02 0.  1.
</event>
<event>
 5   0  0.1223742E-02  0.7001022E+03  0.7818609E-02  0.9717057E-01
        1   -1    0    0  501    0  0.00000000000E+00  0.00000000000E+00  0.10372525764E+04  0.10372525764E+04  0.50400001928E-02 0.  1.
       -1   -1    0    0    0  501  0.00000000000E+00  0.00000000000E+00 -0.11813493549E+03  0.11813493560E+03  0.50400001928E-02 0. -1.
    10030    2    1    2    0    0  0.00000000000E+00  0.00000000000E+00  0.91911764089E+03  0.11553875120E+04  0.70010218187E+03 0.  0.
        2    1    3    3  502    0 -0.26315454610E+02 -0.32166612840E+03  0.23585672953E+03  0.39973741153E+03  0.25500000920E-02 0. -1.
       -2    1    3    3    0  502  0.26315454610E+02  0.32166612840E+03  0.68326091136E+03  0.75565010045E+03  0.25500000920E-02 0.  1.
</event>
<event>
 5   0  0.1226303E-02  0.6982404E+03  0.7818609E-02  0.9720246E-01
       -1   -1    0    0    0  501  0.00000000000E+00  0.00000000000E+00  0.35028734747E+03  0.35028734751E+03  0.50400001928E-02 0.  1.
        1   -1    0    0  501    0  0.00000000000E+00  0.00000000000E+00 -0.34795697623E+03  0.34795697626E+03  0.50400001928E-02 0. -1.
    10030    2    1    2    0    0  0.00000000000E+00  0.00000000000E+00  0.23303712447E+01  0.69824432377E+03  0.69824043498E+03 0.  0.
        4    1    3    3  502    0  0.22278617295E+03 -0.13325352876E+03  0.23460412532E+03  0.34990125793E+03  0.12699999809E+01 0.  1.
       -4    1    3    3    0  502 -0.22278617295E+03  0.13325352876E+03 -0.23227375407E+03  0.34834306584E+03  0.12699999809E+01 0. -1.
</event>
<event>
 5   0  0.1226303E-02  0.6906910E+03  0.7818609E-02  0.9733286E-01
        1   -1    0    0  501    0  0.00000000000E+00  0.00000000000E+00  0.96418775592E+03  0.96418775594E+03  0.50400001928E-02 0. -1.
       -1   -1    0    0    0  501  0.00000000000E+00  0.00000000000E+00 -0.12369324080E+03  0.12369324091E+03  0.50400001928E-02 0.  1.
    10030    2    1    2    0    0  0.00000000000E+00  0.00000000000E+00  0.84049451512E+03  0.10878809968E+04  0.69069098253E+03 0.  0.
        4    1    3    3  502    0 -0.13584801254E+03  0.30713992314E+03  0.29353277011E+03  0.44604115833E+03  0.12699999809E+01 0.  1.
       -4    1    3    3    0  502  0.13584801254E+03 -0.30713992314E+03  0.54696174501E+03  0.64183983851E+03  0.12699999809E+01 0. -1.
</event>
<event>
 5   0  0.1257442E-02  0.6963630E+03  0.7818609E-02  0.9723472E-01
        1   -1    0    0  501    0  0.00000000000E+00  0.00000000000E+00  0.47281994907E+03  0.47281994910E+03  0.50400001928E-02 0.  1.
       -1   -1    0    0    0  501  0.00000000000E+00  0.00000000000E+00 -0.25639856486E+03  0.25639856491E+03  0.50400001928E-02 0. -1.
    10030    2    1    2    0    0  0.00000000000E+00  0.00000000000E+00  0.21642138421E+03  0.72921851401E+03  0.69636299846E+03 0.  0.
        1    1    3    3  502    0 -0.18349089517E+03 -0.72203091159E+01  0.41798767218E+03  0.45654653169E+03  0.50400001928E-02 0.  1.
       -1    1    3    3    0  502  0.18349089517E+03  0.72203091159E+01 -0.20156628797E+03  0.27267198232E+03  0.50400001928E-02 0. -1.
</event>
<event>
 5   0  0.1237686E-02  0.7053241E+03  0.7818609E-02  0.9708170E-01
        1   -1    0    0  501    0  0.00000000000E+00  0.00000000000E+00  0.16305930340E+04  0.16305930340E+04  0.50400001928E-02 0. -1.
       -1   -1    0    0    0  501  0.00000000000E+00  0.00000000000E+00 -0.76273193534E+02  0.76273193701E+02  0.50400001928E-02 0.  1.
    10030    2    1    2    0    0  0.00000000000E+00  0.00000000000E+00  0.15543198405E+04  0.17068662277E+04  0.70532414735E+03 0.  0.
        5    1    3    3  502    0 -0.25867496977E+03 -0.20130103213E+03  0.46243669357E+03  0.56683739386E+03  0.46999998093E+01 0. -1.
       -5    1    3    3    0  502  0.25867496977E+03  0.20130103213E+03  0.10918831469E+04  0.11400288339E+04  0.46999998093E+01 0.  1.
</event>
<event>
 5   0  0.2006362E-02  0.6653453E+03  0.7818609E-02  0.9778403E-01
       -2   -1    0    0    0  501  0.00000000000E+00  0.00000000000E+00  0.88311574557E+02  0.88311574594E+02  0.25500000920E-02 0. -1.
        2   -1    0    0  501    0  0.00000000000E+00  0.00000000000E+00 -0.12531887944E+04  0.12531887944E+04  0.25500000920E-02 0.  1.
    10030    2    1    2    0    0  0.00000000000E+00  0.00000000000E+00 -0.11648772199E+04  0.13415003690E+04  0.66534525076E+03 0.  0.
        4    1    3    3  502    0 -0.22293326094E+03 -0.24283745498E+03 -0.67261229934E+03  0.74905152460E+03  0.12699999809E+01 0.  1.
       -4    1    3    3    0  502  0.22293326094E+03  0.24283745498E+03 -0.49226492052E+03  0.59244884442E+03  0.12699999809E+01 0. -1.
</event>
<event>
 5   0  0.1237686E-02  0.7024102E+03  0.7818609E-02  0.9713119E-01
        1   -1    0    0  501    0  0.00000000000E+00  0.00000000000E+00  0.35311304085E+03  0.35311304088E+03  0.50400001928E-02 0. -1.
       -1   -1    0    0    0  501  0.00000000000E+00  0.00000000000E+00 -0.34930749107E+03  0.34930749111E+03  0.50400001928E-02 0.  1.
    10030    2    1    2    0    0  0.00000000000E+00  0.00000000000E+00  0.38055497738E+01  0.70242053200E+03  0.70241022313E+03 0.  0.
        5    1    3    3  502    0 -0.69678842568E+02 -0.14783987236E+03 -0.30892516347E+03  0.34952627310E+03  0.46999998093E+01 0.  1.
       -5    1    3    3    0  502  0.69678842568E+02  0.14783987236E+03  0.31273071324E+03  0.35289425890E+03  0.46999998093E+01 0. -1.
</event>
<event>
 5   0  0.2006362E-02  0.7028434E+03  0.7818609E-02  0.9712382E-01
        2   -1    0    0  501    0  0.00000000000E+00  0.00000000000E+00  0.23571129200E+04  0.23571129200E+04  0.25500000920E-02 0. -1.
       -2   -1    0    0    0  501  0.00000000000E+00  0.00000000000E+00 -0.52393429105E+02  0.52393429168E+02  0.25500000920E-02 0.  1.
    10030    2    1    2    0    0  0.00000000000E+00  0.00000000000E+00  0.23047194909E+04  0.24095063492E+04  0.70284344984E+03 0.  0.
        4    1    3    3  502    0  0.54539448439E+02  0.34154454085E+03  0.93913644724E+03  0.10008027299E+04  0.12699999809E+01 0.  1.
       -4    1    3    3    0  502 -0.54539448439E+02 -0.34154454085E+03  0.13655830437E+04  0.14087036192E+04  0.12699999809E+01 0. -1.
</event>
<event>
 5   0  0.1257442E-02  0.6882997E+03  0.7818609E-02  0.9737453E-01
       -1   -1    0    0    0  501  0.00000000000E+00  0.00000000000E+00  0.11299656086E+04  0.11299656086E+04  0.50400001928E-02 0.  1.
        1   -1    0    0  501    0  0.00000000000E+00  0.00000000000E+00 -0.10481656244E+03  0.10481656256E+03  0.50400001928E-02 0. -1.
    10030    2    1    2    0    0  0.00000000000E+00  0.00000000000E+00  0.10251490461E+04  0.12347821711E+04  0.68829967556E+03 0.  0.
        1    1    3    3  502    0  0.29273951020E+02 -0.34006350029E+03  0.59156913619E+03  0.68297451736E+03  0.50400001928E-02 0. -1.
       -1    1    3    3    0  502 -0.29273951020E+02  0.34006350029E+03  0.43357990994E+03  0.55180765378E+03  0.50400001928E-02 0.  1.
</event>
<event>
 5   0  0.7947250E-03  0.7006218E+03  0.7818609E-02  0.9716169E-01
        3   -1    0    0  501    0  0.00000000000E+00  0.00000000000E+00  0.30164929324E+03  0.30164931014E+03  0.10100000352E+00 0. -1.
       -3   -1    0    0    0  501  0.00000000000E+00  0.00000000000E+00 -0.40682249561E+03  0.40682250815E+03  0.10100000352E+00 0.  1.
    10030    2    1    2    0    0  0.00000000000E+00  0.00000000000E+00 -0.10517320237E+03  0.70847181829E+03  0.70062180584E+03 0.  0.
        1    1    3    3  502    0  0.61829219885E+01  0.19581457177E+03  0.24107409533E+03  0.31064174624E+03  0.50400001928E-02 0. -1.
       -1    1    3    3    0  502 -0.61829219885E+01 -0.19581457177E+03 -0.34624729770E+03  0.39783007206E+03  0.50400001928E-02 0.  1.
</event>
<event>
 5   0  0.1909053E-02  0.7005238E+03  0.7818609E-02  0.9716337E-01
        2   -1    0    0  501    0  0.00000000000E+00  0.00000000000E+00  0.85464561473E+03  0.85464561474E+03  0.25500000920E-02 0. -1.
       -2   -1    0    0    0  501  0.00000000000E+00  0.00000000000E+00 -0.14354884146E+03  0.14354884149E+03  0.25500000920E-02 0.  1.
    10030    2    1    2    0    0  0.00000000000E+00  0.00000000000E+00  0.71109677327E+03  0.99819445622E+03  0.70052376939E+03 0.  0.
        1    1    3    3  502    0 -0.27137167285E+03 -0.14408299176E+03  0.59517709596E+03  0.66980464982E+03  0.50400001928E-02 0. -1.
       -1    1    3    3    0  502  0.27137167285E+03  0.14408299176E+03  0.11591967731E+03  0.32838980641E+03  0.50400001928E-02 0.  1.
</event>
<event>
 5   0  0.1257442E-02  0.7005775E+03  0.7818609E-02  0.9716245E-01
        1   -1    0    0  501    0  0.00000000000E+00  0.00000000000E+00  0.74439890440E+03  0.74439890441E+03  0.50400001928E-02 0. -1.
       -1   -1    0    0    0  501  0.00000000000E+00  0.00000000000E+00 -0.16483396456E+03  0.16483396464E+03  0.50400001928E-02 0.  1.
    10030    2    1    2    0    0  0.00000000000E+00  0.00000000000E+00  0.57956493984E+03  0.90923286905E+03  0.70057754080E+03 0.  0.
        1    1    3    3  502    0  0.24667315516E+03 -0.18204407771E+03  0.69859911152E+02  0.31443298001E+03  0.50400001928E-02 0.  1.
       -1    1    3    3    0  502 -0.24667315516E+03  0.18204407771E+03  0.50970502869E+03  0.59479988904E+03  0.50400001928E-02 0. -1.
</event>
<event>
 5   0  0.2026361E-02  0.6971717E+03  0.7818609E-02  0.9722081E-01
        2   -1    0    0  501    0  0.00000000000E+00  0.00000000000E+00  0.47770548747E+03  0.47770548748E+03  0.25500000920E-02 0. -1.
       -2   -1    0    0    0  501  0.00000000000E+00  0.00000000000E+00 -0.25436612258E+03  0.25436612259E+03  0.25500000920E-02 0.  1.
    10030    2    1    2    0    0  0.00000000000E+00  0.00000000000E+00  0.22333936489E+03  0.73207161007E+03  0.69717169360E+03 0.  0.
        2    1    3    3  502    0 -0.35267746822E+02  0.43537003030E+02  0.47294625025E+03  0.47625354616E+03  0.25500000920E-02 0. -1.
       -2    1    3    3    0  502  0.35267746822E+02 -0.43537003030E+02 -0.24960688536E+03  0.25581806391E+03  0.25500000920E-02 0.  1.
</event>
<event>
 5   0  0.1257442E-02  0.6978222E+03  0.7818609E-02  0.9720964E-01
        1   -1    0    0  501    0  0.00000000000E+00  0.00000000000E+00  0.14787909069E+03  0.14787909078E+03  0.50400001928E-02 0. -1.
       -1   -1    0    0    0  501  0.00000000000E+00  0.00000000000E+00 -0.82323316608E+03  0.82323316609E+03  0.50400001928E-02 0.  1.
    10030    2    1    2    0    0  0.00000000000E+00  0.00000000000E+00 -0.67535407538E+03  0.97111225687E+03  0.69782224693E+03 0.  0.
        1    1    3    3  502    0  0.14883625274E+03  0.11963840625E+03  0.68702094268E+02  0.20294224834E+03  0.50400001928E-02 0. -1.
       -1    1    3    3    0  502 -0.14883625274E+03 -0.11963840625E+03 -0.74405616965E+03  0.76817000853E+03  0.50400001928E-02 0.  1.
</event>
<event>
 5   0  0.1197259E-02  0.6937341E+03  0.7818609E-02  0.9728008E-01
       -1   -1    0    0    0  501  0.00000000000E+00  0.00000000000E+00  0.11083454367E+04  0.11083454367E+04  0.50400001928E-02 0. -1.
        1   -1    0    0  501    0  0.00000000000E+00  0.00000000000E+00 -0.10855527372E+03  0.10855527383E+03  0.50400001928E-02 0.  1.
    10030    2    1    2    0    0  0.00000000000E+00  0.00000000000E+00  0.99979016300E+03  0.12169007106E+04  0.69373407681E+03 0.  0.
        3    1    3    3  502    0 -0.29394152476E+03  0.10568619853E+03  0.23534357512E+03  0.39109819879E+03  0.10100000352E+00 0.  1.
       -3    1    3    3    0  502  0.29394152476E+03 -0.10568619853E+03  0.76444658787E+03  0.82580251178E+03  0.10100000352E+00 0. -1.
</event>
<event>
 5   0  0.1257442E-02  0.7001120E+03  0.7818609E-02  0.9717041E-01
       -1   -1    0    0    0  501  0.00000000000E+00  0.00000000000E+00  0.21345462894E+03  0.21345462900E+03  0.50400001928E-02 0.  1.
        1   -1    0    0  501    0  0.00000000000E+00  0.00000000000E+00 -0.57407617696E+03  0.57407617698E+03  0.50400001928E-02 0. -1.
    10030    2    1    2    0    0  0.00000000000E+00  0.00000000000E+00 -0.36062154803E+03  0.78753080598E+03  0.70011204065E+03 0.  0.
        1    1    3    3  502    0 -0.12393432875E+03 -0.58801828084E+02 -0.54258306708E+03  0.55965503441E+03  0.50400001928E-02 0. -1.
       -1    1    3    3    0  502  0.12393432875E+03  0.58801828084E+02  0.18196151905E+03  0.22787577157E+03  0.50400001928E-02 0.  1.
</event>
<event>
 5   0  0.1973067E-02  0.6821042E+03  0.7818609E-02  0.9748335E-01
        2   -1    0    0  501    0  0.00000000000E+00  0.00000000000E+00  0.70149087527E+03  0.70149087528E+03  0.25500000920E-02 0.  1.
       -2   -1    0    0    0  501  0.00000000000E+00  0.00000000000E+00 -0.16581333883E+03  0.16581333885E+03  0.25500000920E-02 0. -1.
    10030    2    1    2    0    0  0.00000000000E+00  0.00000000000E+00  0.53567753644E+03  0.86730421413E+03  0.68210422722E+03 0.  0.
        5    1    3    3  502    0  0.11914357864E+03 -0.31939717110E+03  0.25613608638E+03  0.42642411984E+03  0.46999998093E+01 0.  1.
       -5    1    3    3    0  502 -0.11914357864E+03  0.31939717110E+03  0.27954145006E+03  0.44088009429E+03  0.46999998093E+01 0. -1.
</event>
<event>
 5   0  0.1948138E-02  0.6994904E+03  0.7818609E-02  0.9718104E-01
        2   -1    0    0  501    0  0.00000000000E+00  0.00000000000E+00  0.33191239788E+03  0.33191239789E+03  0.25500000920E-02 0. -1.
       -2   -1    0    0    0  501  0.00000000000E+00  0.00000000000E+00 -0.36853606585E+03  0.36853606586E+03  0.25500000920E-02 0.  1.
    10030    2    1    2    0    0  0.00000000000E+00  0.00000000000E+00 -0.36623667974E+02  0.70044846375E+03  0.69949035541E+03 0.  0.
        3    1    3    3  502    0 -0.87597054174E+02  0.79647859313E+02  0.31123566149E+03  0.33299350231E+03  0.10100000352E+00 0. -1.
       -3    1    3    3    0  502  0.87597054174E+02 -0.79647859313E+02 -0.34785932947E+03  0.36745496144E+03  0.10100000352E+00 0.  1.
</event>
<event>
 5   0  0.1909053E-02  0.7028084E+03  0.7818609E-02  0.9712441E-01
       -2   -1    0    0    0  501  0.00000000000E+00  0.00000000000E+00  0.85743965564E+03  0.85743965565E+03  0.25500000920E-02 0.  1.
        2   -1    0    0  501    0  0.00000000000E+00  0.00000000000E+00 -0.14401587241E+03  0.14401587243E+03  0.25500000920E-02 0. -1.
    10030    2    1    2    0    0  0.00000000000E+00  0.00000000000E+00  0.71342378323E+03  0.10014555281E+04  0.70280842356E+03 0.  0.
        1    1    3    3  502    0  0.94723171873E+02 -0.10884345143E+03  0.81328157026E+03  0.82598201479E+03  0.50400001928E-02 0.  1.
       -1    1    3    3    0  502 -0.94723171873E+02  0.10884345143E+03 -0.99857787025E+02  0.17547351329E+03  0.50400001928E-02 0. -1.
</event>
<event>
 5   0  0.1223742E-02  0.6962853E+03  0.7818609E-02  0.9723606E-01
       -1   -1    0    0    0  501  0.00000000000E+00  0.00000000000E+00  0.55089449839E+03  0.55089449842E+03  0.50400001928E-02 0. -1.
        1   -1    0    0  501    0  0.00000000000E+00  0.00000000000E+00 -0.22001183168E+03  0.22001183173E+03  0.50400001928E-02 0.  1.
    10030    2    1    2    0    0  0.00000000000E+00  0.00000000000E+00  0.33088266672E+03  0.77090633015E+03  0.69628530843E+03 0.  0.
        2    1    3    3  502    0 -0.21337456811E+03 -0.24171629433E+03  0.20035554428E+02  0.32304318087E+03  0.25500000920E-02 0.  1.
       -2    1    3    3    0  502  0.21337456811E+03  0.24171629433E+03  0.31084711229E+03  0.44786314928E+03  0.25500000920E-02 0. -1.
</event>
<event>
 5   0  0.1257442E-02  0.6970082E+03  0.7818609E-02  0.9722362E-01
       -1   -1    0    0    0  501  0.00000000000E+00  0.00000000000E+00  0.14683697558E+03  0.14683697566E+03  0.50400001928E-02 0.  1.
        1   -1    0    0  501    0  0.00000000000E+00  0.00000000000E+00 -0.82714249597E+03  0.82714249598E+03  0.50400001928E-02 0. -1.
    10030    2    1    2    0    0  0.00000000000E+00  0.00000000000E+00 -0.68030552039E+03  0.97397947165E+03  0.69700818512E+03 0.  0.
        1    1    3    3  502    0  0.10360878102E+03  0.98651084801E+02  0.10391314201E+03  0.17681842988E+03  0.50400001928E-02 0.  1.
       -1    1    3    3    0  502 -0.10360878102E+03 -0.98651084801E+02 -0.78421866240E+03  0.79716104177E+03  0.50400001928E-02 0. -1.
</event>
<event>
 5   0  0.1973067E-02  0.7017171E+03  0.7818609E-02  0.9714300E-01
        2   -1    0    0  501    0  0.00000000000E+00  0.00000000000E+00  0.72374256742E+03  0.72374256742E+03  0.25500000920E-02 0. -1.
       -2   -1    0    0    0  501  0.00000000000E+00  0.00000000000E+00 -0.17009049388E+03  0.17009049390E+03  0.25500000920E-02 0.  1.
    10030    2    1    2    0    0  0.00000000000E+00  0.00000000000E+00  0.55365207353E+03  0.89383306132E+03  0.70171712462E+03 0.  0.
        5    1    3    3  502    0  0.51394708246E+02 -0.33380691306E+03  0.39774235608E+03  0.52181370532E+03  0.46999998093E+01 0.  1.
       -5    1    3    3    0  502 -0.51394708246E+02  0.33380691306E+03  0.15590971745E+03  0.37201935600E+03  0.46999998093E+01 0. -1.
</event>
<event>
 5   0  0.1197259E-02  0.7003792E+03  0.7818609E-02  0.9716584E-01
        1   -1    0    0  501    0  0.00000000000E+00  0.00000000000E+00  0.33909913991E+03  0.33909913995E+03  0.50400001928E-02 0. -1.
       -1   -1    0    0    0  501  0.00000000000E+00  0.00000000000E+00 -0.36164278662E+03  0.36164278665E+03  0.50400001928E-02 0.  1.
    10030    2    1    2    0    0  0.00000000000E+00  0.00000000000E+00 -0.22543646705E+02  0.70074192660E+03  0.70037920564E+03 0.  0.
        3    1    3    3  502    0 -0.23226875876E+03  0.17787042747E+03 -0.20384509292E+03  0.35656625944E+03  0.10100000352E+00 0.  1.
       -3    1    3    3    0  502  0.23226875876E+03 -0.17787042747E+03  0.18130144621E+03  0.34417566716E+03  0.10100000352E+00 0. -1.
</event>
<event>
 5   0  0.1226303E-02  0.6987550E+03  0.7818609E-02  0.9719364E-01
        1   -1    0    0  501    0  0.00000000000E+00  0.00000000000E+00  0.16439711988E+03  0.16439711996E+03  0.50400001928E-02 0.  1.
       -1   -1    0    0    0  501  0.00000000000E+00  0.00000000000E+00 -0.74249861093E+03  0.74249861094E+03  0.50400001928E-02 0. -1.
    10030    2    1    2    0    0  0.00000000000E+00  0.00000000000E+00 -0.57810149104E+03  0.90689573090E+03  0.69875498767E+03 0.  0.
        4    1    3    3  502    0 -0.10250406599E+03 -0.72548155934E+02  0.13408933060E+03  0.18371684723E+03  0.12699999809E+01 0.  1.
       -4    1    3    3    0  502  0.10250406599E+03  0.72548155934E+02 -0.71219082164E+03  0.72317888368E+03  0.12699999809E+01 0. -1.
</event>
<event>
 5   0  0.1948138E-02  0.6648282E+03  0.7818609E-02  0.9779346E-01
       -2   -1    0    0    0  501  0.00000000000E+00  0.00000000000E+00  0.14320717206E+03  0.14320717208E+03  0.25500000920E-02 0.  1.
        2   -1    0    0  501    0  0.00000000000E+00  0.00000000000E+00 -0.77160334378E+03  0.77160334378E+03  0.25500000920E-02 0. -1.
    10030    2    1    2    0    0  0.00000000000E+00  0.00000000000E+00 -0.62839617172E+03  0.91481051586E+03  0.66482819683E+03 0.  0.
        3    1    3    3  502    0  0.12673130319E+03  0.69554955073E+02  0.97687610548E+02  0.17447519720E+03  0.10100000352E+00 0. -1.
       -3    1    3    3    0  502 -0.12673130319E+03 -0.69554955073E+02 -0.72608378227E+03  0.74033531866E+03  0.10100000352E+00 0.  1.
</event>
<event>
 5   0  0.1237686E-02  0.7061843E+03  0.7818609E-02  0.9706714E-01
        1   -1    0    0  501    0  0.00000000000E+00  0.00000000000E+00  0.11881910206E+03  0.11881910217E+03  0.50400001928E-02 0.  1.
       -1   -1    0    0    0  501  0.00000000000E+00  0.00000000000E+00 -0.10492763858E+04  0.10492763858E+04  0.50400001928E-02 0. -1.
    10030    2    1    2    0    0  0.00000000000E+00  0.00000000000E+00 -0.93045728374E+03  0.11680954880E+04  0.70618433300E+03 0.  0.
        5    1    3    3  502    0  0.48532926830E+02  0.13396734074E+03 -0.99955306677E+03  0.10096688153E+04  0.46999998093E+01 0. -1.
       -5    1    3    3    0  502 -0.48532926830E+02 -0.13396734074E+03  0.69095783035E+02  0.15842667264E+03  0.46999998093E+01 0.  1.
</event>
<event>
 5   0  0.1973067E-02  0.6758270E+03  0.7818609E-02  0.9759488E-01
        2   -1    0    0  501    0  0.00000000000E+00  0.00000000000E+00  0.11618679677E+04  0.11618679677E+04  0.25500000920E-02 0. -1.
       -2   -1    0    0    0  501  0.00000000000E+00  0.00000000000E+00 -0.98277557987E+02  0.98277558020E+02  0.25500000920E-02 0.  1.
    10030    2    1    2    0    0  0.00000000000E+00  0.00000000000E+00  0.10635904097E+04  0.12601455257E+04  0.67582703879E+03 0.  0.
        5    1    3    3  502    0  0.72132325379E+02  0.29212329782E+03  0.81838795039E+03  0.87196331392E+03  0.46999998093E+01 0. -1.
       -5    1    3    3    0  502 -0.72132325379E+02 -0.29212329782E+03  0.24520245930E+03  0.38818221177E+03  0.46999998093E+01 0.  1.
</event>
<event>
 5   0  0.2006362E-02  0.6947778E+03  0.7818609E-02  0.9726205E-01
       -2   -1    0    0    0  501  0.00000000000E+00  0.00000000000E+00  0.45145422022E+03  0.45145422023E+03  0.25500000920E-02 0.  1.
        2   -1    0    0  501    0  0.00000000000E+00  0.00000000000E+00 -0.26731179048E+03  0.26731179049E+03  0.25500000920E-02 0. -1.
    10030    2    1    2    0    0  0.00000000000E+00  0.00000000000E+00  0.18414242974E+03  0.71876601072E+03  0.69477776572E+03 0.  0.
        4    1    3    3  502    0 -0.24859377090E+03  0.16988119703E+03  0.27131301186E+03  0.40530340159E+03  0.12699999809E+01 0.  1.
       -4    1    3    3    0  502  0.24859377090E+03 -0.16988119703E+03 -0.87170582121E+02  0.31346260913E+03  0.12699999809E+01 0. -1.
</event>
<event>
 5   0  0.1909053E-02  0.6997953E+03  0.7818609E-02  0.9717582E-01
        2   -1    0    0  501    0  0.00000000000E+00  0.00000000000E+00  0.16267481775E+03  0.16267481777E+03  0.25500000920E-02 0. -1.
       -2   -1    0    0    0  501  0.00000000000E+00  0.00000000000E+00 -0.75259563189E+03  0.75259563189E+03  0.25500000920E-02 0.  1.
    10030    2    1    2    0    0  0.00000000000E+00  0.00000000000E+00 -0.58992081413E+03  0.91527044966E+03  0.69979527655E+03 0.  0.
        1    1    3    3  502    0  0.11690696666E+03  0.28226947762E+02 -0.72471313007E+03  0.73462447574E+03  0.50400001928E-02 0.  1.
       -1    1    3    3    0  502 -0.11690696666E+03 -0.28226947762E+02  0.13479231594E+03  0.18064597393E+03  0.50400001928E-02 0. -1.
</event>
<event>
 5   0  0.1909053E-02  0.7013761E+03  0.7818609E-02  0.9714882E-01
        2   -1    0    0  501    0  0.00000000000E+00  0.00000000000E+00  0.39576138311E+03  0.39576138312E+03  0.25500000920E-02 0.  1.
       -2   -1    0    0    0  501  0.00000000000E+00  0.00000000000E+00 -0.31074809729E+03  0.31074809730E+03  0.25500000920E-02 0. -1.
    10030    2    1    2    0    0  0.00000000000E+00  0.00000000000E+00  0.85013285824E+02  0.70650948042E+03  0.70137606685E+03 0.  0.
        1    1    3    3  502    0 -0.23867633021E+03 -0.17340614031E+03 -0.14847535716E+03  0.33027414644E+03  0.50400001928E-02 0. -1.
       -1    1    3    3    0  502  0.23867633021E+03  0.17340614031E+03  0.23348864299E+03  0.37623533397E+03  0.50400001928E-02 0.  1.
</event>
<event>
 5   0  0.1223742E-02  0.6629977E+03  0.7818609E-02  0.9782691E-01
        1   -1    0    0  501    0  0.00000000000E+00  0.00000000000E+00  0.32863677800E+03  0.32863677804E+03  0.50400001928E-02 0. -1.
       -1   -1    0    0    0  501  0.00000000000E+00  0.00000000000E+00 -0.33438579780E+03  0.33438579784E+03  0.50400001928E-02 0.  1.
    10030    2    1    2    0    0  0.00000000000E+00  0.00000000000E+00 -0.57490198017E+01  0.66302257588E+03  0.66299765075E+03 0.  0.
        2    1    3    3  502    0 -0.13024708826E+03 -0.30194303038E+03  0.39050491916E+02  0.33114775935E+03  0.25500000920E-02 0.  1.
       -2    1    3    3    0  502  0.13024708826E+03  0.30194303038E+03 -0.44799511718E+02  0.33187481654E+03  0.25500000920E-02 0. -1.
</event>
<event>
 5   0  0.1909053E-02  0.6888048E+03  0.7818609E-02  0.9736571E-01
        2   -1    0    0  501    0  0.00000000000E+00  0.00000000000E+00  0.63112147180E+03  0.63112147180E+03  0.25500000920E-02 0.  1.
       -2   -1    0    0    0  501  0.00000000000E+00  0.00000000000E+00 -0.18794007177E+03  0.18794007179E+03  0.25500000920E-02 0. -1.
    10030    2    1    2    0    0  0.00000000000E+00  0.00000000000E+00  0.44318140003E+03  0.81906154359E+03  0.68880480461E+03 0.  0.
        1    1    3    3  502    0 -0.79913497255E+02  0.19965611157E+03  0.54146732467E+03  0.58261101401E+03  0.50400001928E-02 0. -1.
       -1    1    3    3    0  502  0.79913497255E+02 -0.19965611157E+03 -0.98285924646E+02  0.23645052958E+03  0.50400001928E-02 0.  1.
</event>
<event>
 5   0  0.1237686E-02  0.6733346E+03  0.7818609E-02  0.9763952E-01
        1   -1    0    0  501    0  0.00000000000E+00  0.00000000000E+00  0.10570213802E+04  0.10570213803E+04  0.50400001928E-02 0.  1.
       -1   -1    0    0    0  501  0.00000000000E+00  0.00000000000E+00 -0.10723045502E+03  0.10723045514E+03  0.50400001928E-02 0. -1.
    10030    2    1    2    0    0  0.00000000000E+00  0.00000000000E+00  0.94979092523E+03  0.11642518354E+04  0.67333463790E+03 0.  0.
        5    1    3    3  502    0  0.17722839255E+03 -0.16997592721E+02 -0.19102136725E+02  0.17912510407E+03  0.46999998093E+01 0. -1.
       -5    1    3    3    0  502 -0.17722839255E+03  0.16997592721E+02  0.96889306195E+03  0.98512673133E+03  0.46999998093E+01 0.  1.
</event>
<event>
 5   0  0.1197259E-02  0.6831645E+03  0.7818609E-02  0.9746464E-01
       -1   -1    0    0    0  501  0.00000000000E+00  0.00000000000E+00  0.34212147516E+03  0.34212147520E+03  0.50400001928E-02 0.  1.
        1   -1    0    0  501    0  0.00000000000E+00  0.00000000000E+00 -0.34104389702E+03  0.34104389706E+03  0.50400001928E-02 0. -1.
    10030    2    1    2    0    0  0.00000000000E+00  0.00000000000E+00  0.10775781398E+01  0.68316537225E+03  0.68316452240E+03 0.  0.
        3    1    3    3  502    0  0.22921875589E+03 -0.17917232402E+03  0.17952077397E+03  0.34186500002E+03  0.10100000352E+00 0.  1.
       -3    1    3    3    0  502 -0.22921875589E+03  0.17917232402E+03 -0.17844319584E+03  0.34130037223E+03  0.10100000352E+00 0. -1.
</event>
<event>
 5   0  0.2006362E-02  0.6872076E+03  0.7818609E-02  0.9739363E-01
       -2   -1    0    0    0  501  0.00000000000E+00  0.00000000000E+00  0.39303567045E+03  0.39303567046E+03  0.25500000920E-02 0.  1.
        2   -1    0    0  501    0  0.00000000000E+00  0.00000000000E+00 -0.30038892122E+03  0.30038892123E+03  0.25500000920E-02 0. -1.
    10030    2    1    2    0    0  0.00000000000E+00  0.00000000000E+00  0.92646749232E+02  0.69342459169E+03  0.68720756997E+03 0.  0.
        4    1    3    3  502    0  0.22216588455E+03  0.22756769218E+03  0.17756624439E+03  0.36424733194E+03  0.12699999809E+01 0.  1.
       -4    1    3    3    0  502 -0.22216588455E+03 -0.22756769218E+03 -0.84919495156E+02  0.32917725975E+03  0.12699999809E+01 0. -1.
</event>
<event>
 5   0  0.1226303E-02  0.6989535E+03  0.7818609E-02  0.9719024E-01
       -1   -1    0    0    0  501  0.00000000000E+00  0.00000000000E+00  0.23655066211E+03  0.23655066216E+03  0.50400001928E-02 0. -1.
        1   -1    0    0  501    0  0.00000000000E+00  0.00000000000E+00 -0.51631219313E+03  0.51631219316E+03  0.50400001928E-02 0.  1.
    10030    2    1    2    0    0  0.00000000000E+00  0.00000000000E+00 -0.27976153102E+03  0.75286285532E+03  0.69895347819E+03 0.  0.
        4    1    3    3  502    0 -0.17270692900E+03 -0.14871231074E+03 -0.42524739813E+03  0.48247279426E+03  0.12699999809E+01 0.  1.
       -4    1    3    3    0  502  0.17270692900E+03  0.14871231074E+03  0.14548586710E+03  0.27039006106E+03  0.12699999809E+01 0. -1.
</event>
<event>
 5   0  0.1948138E-02  0.6823784E+03  0.7818609E-02  0.9747851E-01
       -2   -1    0    0    0  501  0.00000000000E+00  0.00000000000E+00  0.24106535495E+03  0.24106535496E+03  0.25500000920E-02 0. -1.
        2   -1    0    0  501    0  0.00000000000E+00  0.00000000000E+00 -0.48289837686E+03  0.48289837687E+03  0.25500000920E-02 0.  1.
    10030    2    1    2    0    0  0.00000000000E+00  0.00000000000E+00 -0.24183302191E+03  0.72396373183E+03  0.68237839541E+03 0.  0.
        3    1    3    3  502    0  0.84983164122E+02 -0.28898662194E+03 -0.29091451783E+03  0.41876804168E+03  0.10100000352E+00 0.  1.
       -3    1    3    3    0  502 -0.84983164122E+02  0.28898662194E+03  0.49081495924E+02  0.30519569015E+03  0.10100000352E+00 0. -1.
</event>
<event>
 5   0  0.1948138E-02  0.6970841E+03  0.7818609E-02  0.9722232E-01
       -2   -1    0    0    0  501  0.00000000000E+00  0.00000000000E+00  0.38841613235E+03  0.38841613236E+03  0.25500000920E-02 0.  1.
        2   -1    0    0  501    0  0.00000000000E+00  0.00000000000E+00 -0.31276135924E+03  0.31276135925E+03  0.25500000920E-02 0. -1.
    10030    2    1    2    0    0  0.00000000000E+00  0.00000000000E+00  0.75654773114E+02  0.70117749161E+03  0.69708409109E+03 0.  0.
        3    1    3    3  502    0 -0.74789393216E+02 -0.61986311274E+02 -0.29887063843E+03  0.31426012289E+03  0.10100000352E+00 0. -1.
       -3    1    3    3    0  502  0.74789393216E+02  0.61986311274E+02  0.37452541155E+03  0.38691736872E+03  0.10100000352E+00 0.  1.
</event>
<event>
 5   0  0.1948138E-02  0.6930959E+03  0.7818609E-02  0.9729113E-01
        2   -1    0    0  501    0  0.00000000000E+00  0.00000000000E+00  0.94457205198E+03  0.94457205198E+03  0.25500000920E-02 0. -1.
       -2   -1    0    0    0  501  0.00000000000E+00  0.00000000000E+00 -0.12714273405E+03  0.12714273407E+03  0.25500000920E-02 0.  1.
    10030    2    1    2    0    0  0.00000000000E+00  0.00000000000E+00  0.81742931793E+03  0.10717147861E+04  0.69309587564E+03 0.  0.
        3    1    3    3  502    0  0.33448781654E+03 -0.85693861243E+02  0.45432118572E+03  0.57064287191E+03  0.10100000352E+00 0.  1.
       -3    1    3    3    0  502 -0.33448781654E+03  0.85693861243E+02  0.36310813221E+03  0.50107191414E+03  0.10100000352E+00 0. -1.
</event>
<event>
 5   0  0.1223742E-02  0.6941313E+03  0.7818609E-02  0.9727321E-01
       -1   -1    0    0    0  501  0.00000000000E+00  0.00000000000E+00  0.49387455101E+03  0.49387455104E+03  0.50400001928E-02 0.  1.
        1   -1    0    0  501    0  0.00000000000E+00  0.00000000000E+00 -0.24389708169E+03  0.24389708174E+03  0.50400001928E-02 0. -1.
    10030    2    1    2    0    0  0.00000000000E+00  0.00000000000E+00  0.24997746933E+03  0.73777163278E+03  0.69413128943E+03 0.  0.
        2    1    3    3  502    0 -0.53412946153E+02  0.58725782336E+01 -0.23944896151E+03  0.24540422809E+03  0.25500000920E-02 0. -1.
       -2    1    3    3    0  502  0.53412946153E+02 -0.58725782336E+01  0.48942643084E+03  0.49236740469E+03  0.25500000920E-02 0.  1.
</event>
<event>
 5   0  0.1973067E-02  0.6717863E+03  0.7818609E-02  0.9766736E-01
        2   -1    0    0  501    0  0.00000000000E+00  0.00000000000E+00  0.13726223311E+04  0.13726223311E+04  0.25500000920E-02 0.  1.
       -2   -1    0    0    0  501  0.00000000000E+00  0.00000000000E+00 -0.82196102678E+02  0.82196102718E+02  0.25500000920E-02 0. -1.
    10030    2    1    2    0    0  0.00000000000E+00  0.00000000000E+00  0.12904262284E+04  0.14548184338E+04  0.67178629369E+03 0.  0.
        5    1    3    3  502    0  0.18340834765E+03  0.25070630701E+03  0.92178149686E+03  0.97272580531E+03  0.46999998093E+01 0.  1.
       -5    1    3    3    0  502 -0.18340834765E+03 -0.25070630701E+03  0.36864473158E+03  0.48209262853E+03  0.46999998093E+01 0. -1.
</event>
<event>
 5   0  0.1973067E-02  0.6983468E+03  0.7818609E-02  0.9720064E-01
       -2   -1    0    0    0  501  0.00000000000E+00  0.00000000000E+00  0.75331964202E+02  0.75331964245E+02  0.25500000920E-02 0. -1.
        2   -1    0    0  501    0  0.00000000000E+00  0.00000000000E+00 -0.16184636527E+04  0.16184636527E+04  0.25500000920E-02 0.  1.
    10030    2    1    2    0    0  0.00000000000E+00  0.00000000000E+00 -0.15431316885E+04  0.16937956169E+04  0.69834675051E+03 0.  0.
        5    1    3    3  502    0  0.34194298947E+03 -0.53810111180E+02 -0.66096435281E+03  0.74613437248E+03  0.46999998093E+01 0. -1.
       -5    1    3    3    0  502 -0.34194298947E+03  0.53810111180E+02 -0.88216733568E+03  0.94766124446E+03  0.46999998093E+01 0.  1.
</event>
<event>
 5   0  0.2006362E-02  0.7024896E+03  0.7818609E-02  0.9712984E-01
        2   -1    0    0  501    0  0.00000000000E+00  0.00000000000E+00  0.76800020981E+03  0.76800020982E+03  0.25500000920E-02 0.  1.
       -2   -1    0    0    0  501  0.00000000000E+00  0.00000000000E+00 -0.16064174273E+03  0.16064174275E+03  0.25500000920E-02 0. -1.
    10030    2    1    2    0    0  0.00000000000E+00  0.00000000000E+00  0.60735846708E+03  0.92864195257E+03  0.70248955048E+03 0.  0.
        4    1    3    3  502    0 -0.15969442128E+03  0.13098579444E+02  0.71686935537E+03  0.73455916476E+03  0.12699999809E+01 0.  1.
       -4    1    3    3    0  502  0.15969442128E+03 -0.13098579444E+02 -0.10951088828E+03  0.19408278781E+03  0.12699999809E+01 0. -1.
</event>
<event>
 5   0  0.2006362E-02  0.7230264E+03  0.7818609E-02  0.9678645E-01
       -2   -1    0    0    0  501  0.00000000000E+00  0.00000000000E+00  0.82994774530E+02  0.82994774569E+02  0.25500000920E-02 0. -1.
        2   -1    0    0  501    0  0.00000000000E+00  0.00000000000E+00 -0.15746989000E+04  0.15746989000E+04  0.25500000920E-02 0.  1.
    10030    2    1    2    0    0  0.00000000000E+00  0.00000000000E+00 -0.14917041255E+04  0.16576936746E+04  0.72302636243E+03 0.  0.
        4    1    3    3  502    0 -0.14611052641E+03  0.32774886135E+03 -0.64532321803E+03  0.73838422971E+03  0.12699999809E+01 0. -1.
       -4    1    3    3    0  502  0.14611052641E+03 -0.32774886135E+03 -0.84638090744E+03  0.91930944487E+03  0.12699999809E+01 0.  1.
</event>
<event>
 5   0  0.1223742E-02  0.6978453E+03  0.7818609E-02  0.9720924E-01
       -1   -1    0    0    0  501  0.00000000000E+00  0.00000000000E+00  0.19622193525E+03  0.19622193531E+03  0.50400001928E-02 0.  1.
        1   -1    0    0  501    0  0.00000000000E+00  0.00000000000E+00 -0.62045572269E+03  0.62045572271E+03  0.50400001928E-02 0. -1.
    10030    2    1    2    0    0  0.00000000000E+00  0.00000000000E+00 -0.42423378745E+03  0.81667765802E+03  0.69784532004E+03 0.  0.
        2    1    3    3  502    0  0.30331180643E+03 -0.94604819398E+02 -0.38089327705E+03  0.49601190740E+03  0.25500000920E-02 0. -1.
       -2    1    3    3    0  502 -0.30331180643E+03  0.94604819398E+02 -0.43340510402E+02  0.32066575063E+03  0.25500000920E-02 0.  1.
</event>
<event>
 5   0  0.1948138E-02  0.7025189E+03  0.7818609E-02  0.9712934E-01
       -2   -1    0    0    0  501  0.00000000000E+00  0.00000000000E+00  0.13410209185E+03  0.13410209188E+03  0.25500000920E-02 0.  1.
        2   -1    0    0  501    0  0.00000000000E+00  0.00000000000E+00 -0.92006911372E+03  0.92006911372E+03  0.25500000920E-02 0. -1.
    10030    2    1    2    0    0  0.00000000000E+00  0.00000000000E+00 -0.78596702187E+03  0.10541712056E+04  0.70251887608E+03 0.  0.
        3    1    3    3  502    0  0.35615234094E+02  0.33311544189E+03 -0.55142466411E+03  0.64521586536E+03  0.10100000352E+00 0. -1.
       -3    1    3    3    0  502 -0.35615234094E+02 -0.33311544189E+03 -0.23454235776E+03  0.40895534024E+03  0.10100000352E+00 0.  1.
</event>
<event>
 5   0  0.1226303E-02  0.6969787E+03  0.7818609E-02  0.9722413E-01
       -1   -1    0    0    0  501  0.00000000000E+00  0.00000000000E+00  0.67938600796E+02  0.67938600983E+02  0.50400001928E-02 0.  1.
        1   -1    0    0  501    0  0.00000000000E+00  0.00000000000E+00 -0.17875673289E+04  0.17875673289E+04  0.50400001928E-02 0. -1.
    10030    2    1    2    0    0  0.00000000000E+00  0.00000000000E+00 -0.17196287281E+04  0.18555059299E+04  0.69697868930E+03 0.  0.
        4    1    3    3  502    0  0.16951789088E+03  0.26614411434E+02 -0.52331376015E+02  0.17940130445E+03  0.12699999809E+01 0.  1.
       -4    1    3    3    0  502 -0.16951789088E+03 -0.26614411434E+02 -0.16672973521E+04  0.16761046254E+04  0.12699999809E+01 0. -1.
</event>
<event>
 5   0  0.1909053E-02  0.7050298E+03  0.7818609E-02  0.9708669E-01
        2   -1    0    0  501    0  0.00000000000E+00  0.00000000000E+00  0.10241282099E+04  0.10241282099E+04  0.25500000920E-02 0.  1.
       -2   -1    0    0    0  501  0.00000000000E+00  0.00000000000E+00 -0.12133906012E+03  0.12133906015E+03  0.25500000920E-02 0. -1.
    10030    2    1    2    0    0  0.00000000000E+00  0.00000000000E+00  0.90278914976E+03  0.11454672700E+04  0.70502979922E+03 0.  0.
        1    1    3    3  502    0  0.21256992153E+02  0.35187323041E+03  0.45196767658E+03  0.57318531968E+03  0.50400001928E-02 0.  1.
       -1    1    3    3    0  502 -0.21256992153E+02 -0.35187323041E+03  0.45082147318E+03  0.57228195035E+03  0.50400001928E-02 0. -1.
</event>
<event>
 5   0  0.2026361E-02  0.6986522E+03  0.7818609E-02  0.9719540E-01
       -2   -1    0    0    0  501  0.00000000000E+00  0.00000000000E+00  0.10947090110E+03  0.10947090113E+03  0.25500000920E-02 0.  1.
        2   -1    0    0  501    0  0.00000000000E+00  0.00000000000E+00 -0.11147137040E+04  0.11147137040E+04  0.25500000920E-02 0. -1.
    10030    2    1    2    0    0  0.00000000000E+00  0.00000000000E+00 -0.10052428029E+04  0.12241846052E+04  0.69865217001E+03 0.  0.
        2    1    3    3  502    0 -0.26746305237E+03  0.10579709429E+03 -0.84997978011E+03  0.89732666078E+03  0.25500000920E-02 0. -1.
       -2    1    3    3    0  502  0.26746305237E+03 -0.10579709429E+03 -0.15526302283E+03  0.32685794439E+03  0.25500000920E-02 0.  1.
</event>
<event>
 5   0  0.1226303E-02  0.7012942E+03  0.7818609E-02  0.9715022E-01
       -1   -1    0    0    0  501  0.00000000000E+00  0.00000000000E+00  0.76054095904E+03  0.76054095906E+03  0.50400001928E-02 0. -1.
        1   -1    0    0  501    0  0.00000000000E+00  0.00000000000E+00 -0.16166569842E+03  0.16166569850E+03  0.50400001928E-02 0.  1.
    10030    2    1    2    0    0  0.00000000000E+00  0.00000000000E+00  0.59887526062E+03  0.92220665756E+03  0.70129419039E+03 0.  0.
        4    1    3    3  502    0  0.26851516658E+02 -0.11797541903E+03 -0.13334262661E+03  0.18005852497E+03  0.12699999809E+01 0.  1.
       -4    1    3    3    0  502 -0.26851516658E+02  0.11797541903E+03  0.73221788723E+03  0.74214813260E+03  0.12699999809E+01 0. -1.
</event>
<event>
 5   0  0.1223742E-02  0.6989076E+03  0.7818609E-02  0.9719102E-01
        1   -1    0    0  501    0  0.00000000000E+00  0.00000000000E+00  0.12343860621E+04  0.12343860621E+04  0.50400001928E-02 0.  1.
       -1   -1    0    0    0  501  0.00000000000E+00  0.00000000000E+00 -0.98930116107E+02  0.98930116235E+02  0.50400001928E-02 0. -1.
    10030    2    1    2    0    0  0.00000000000E+00  0.00000000000E+00  0.11354559460E+04  0.13333161784E+04  0.69890759486E+03 0.  0.
        2    1    3    3  502    0 -0.79189570476E+02 -0.11498908020E+03  0.11788653889E+04  0.11871044949E+04  0.25500000920E-02 0.  1.
       -2    1    3    3    0  502  0.79189570476E+02  0.11498908020E+03 -0.43409442911E+02  0.14621168345E+03  0.25500000920E-02 0. -1.
</event>
<event>
 5   0  0.2006362E-02  0.7019855E+03  0.7818609E-02  0.9713843E-01
        2   -1    0    0  501    0  0.00000000000E+00  0.00000000000E+00  0.21211226097E+04  0.21211226097E+04  0.25500000920E-02 0. -1.
       -2   -1    0    0    0  501  0.00000000000E+00  0.00000000000E+00 -0.58080529258E+02  0.58080529314E+02  0.25500000920E-02 0.  1.
    10030    2    1    2    0    0  0.00000000000E+00  0.00000000000E+00  0.20630420805E+04  0.21792031390E+04  0.70198553790E+03 0.  0.
        4    1    3    3  502    0  0.21124281572E+03 -0.27115365246E+03  0.81099298302E+03  0.88082862229E+03  0.12699999809E+01 0.  1.
       -4    1    3    3    0  502 -0.21124281572E+03  0.27115365246E+03  0.12520490974E+04  0.12983745167E+04  0.12699999809E+01 0. -1.
</event>
<event>
 5   0  0.2006362E-02  0.7049116E+03  0.7818609E-02  0.9708869E-01
       -2   -1    0    0    0  501  0.00000000000E+00  0.00000000000E+00  0.14259690706E+03  0.14259690708E+03  0.25500000920E-02 0.  1.
        2   -1    0    0  501    0  0.00000000000E+00  0.00000000000E+00 -0.87116249631E+03  0.87116249631E+03  0.25500000920E-02 0. -1.
    10030    2    1    2    0    0  0.00000000000E+00  0.00000000000E+00 -0.72856558926E+03  0.10137594034E+04  0.70491156191E+03 0.  0.
        4    1    3    3  502    0 -0.17492403519E+03  0.16870799875E+03  0.28301144822E+01  0.24304408937E+03  0.12699999809E+01 0.  1.
       -4    1    3    3    0  502  0.17492403519E+03 -0.16870799875E+03 -0.73139570374E+03  0.77071531403E+03  0.12699999809E+01 0. -1.
</event>
<event>
 5   0  0.1226303E-02  0.6996400E+03  0.7818609E-02  0.9717848E-01
        1   -1    0    0  501    0  0.00000000000E+00  0.00000000000E+00  0.21760643931E+03  0.21760643937E+03  0.50400001928E-02 0. -1.
       -1   -1    0    0    0  501  0.00000000000E+00  0.00000000000E+00 -0.56236402139E+03  0.56236402141E+03  0.50400001928E-02 0.  1.
    10030    2    1    2    0    0  0.00000000000E+00  0.00000000000E+00 -0.34475758208E+03  0.77997046079E+03  0.69963999978E+03 0.  0.
        4    1    3    3  502    0  0.22471972990E+03  0.15828118677E+03 -0.41360343794E+03  0.49660981451E+03  0.12699999809E+01 0.  1.
       -4    1    3    3    0  502 -0.22471972990E+03 -0.15828118677E+03  0.68845855861E+02  0.28336064628E+03  0.12699999809E+01 0. -1.
</event>
<event>
 5   0  0.1223742E-02  0.7028193E+03  0.7818609E-02  0.9712423E-01
       -1   -1    0    0    0  501  0.00000000000E+00  0.00000000000E+00  0.38770344962E+03  0.38770344965E+03  0.50400001928E-02 0.  1.
        1   -1    0    0  501    0  0.00000000000E+00  0.00000000000E+00 -0.31851342458E+03  0.31851342462E+03  0.50400001928E-02 0. -1.
    10030    2    1    2    0    0  0.00000000000E+00  0.00000000000E+00  0.69190025039E+02  0.70621687427E+03  0.70281933236E+03 0.  0.
        2    1    3    3  502    0  0.16514736255E+03  0.29554522616E+03 -0.60030927439E+02  0.34383767146E+03  0.25500000920E-02 0. -1.
       -2    1    3    3    0  502 -0.16514736255E+03 -0.29554522616E+03  0.12922095248E+03  0.36237920281E+03  0.25500000920E-02 0.  1.
</event>
<event>
 5   0  0.1973067E-02  0.7049510E+03  0.7818609E-02  0.9708803E-01
       -2   -1    0    0    0  501  0.00000000000E+00  0.00000000000E+00  0.99080519025E+02  0.99080519057E+02  0.25500000920E-02 0.  1.
        2   -1    0    0  501    0  0.00000000000E+00  0.00000000000E+00 -0.12539195000E+04  0.12539195000E+04  0.25500000920E-02 0. -1.
    10030    2    1    2    0    0  0.00000000000E+00  0.00000000000E+00 -0.11548389810E+04  0.13530000191E+04  0.70495104766E+03 0.  0.
        5    1    3    3  502    0  0.18999609309E+03 -0.12509200524E+03 -0.10940964687E+04  0.11175042272E+04  0.46999998093E+01 0. -1.
       -5    1    3    3    0  502 -0.18999609309E+03  0.12509200524E+03 -0.60742512311E+02  0.23549579182E+03  0.46999998093E+01 0.  1.
</event>
<event>
 5   0  0.1973067E-02  0.7032364E+03  0.7818609E-02  0.9711714E-01
       -2   -1    0    0    0  501  0.00000000000E+00  0.00000000000E+00  0.74746167845E+02  0.74746167889E+02  0.25500000920E-02 0.  1.
        2   -1    0    0  501    0  0.00000000000E+00  0.00000000000E+00 -0.16540693231E+04  0.16540693231E+04  0.25500000920E-02 0. -1.
    10030    2    1    2    0    0  0.00000000000E+00  0.00000000000E+00 -0.15793231553E+04  0.17288154910E+04  0.70323635655E+03 0.  0.
        5    1    3    3  502    0  0.13257342898E+03  0.20486939753E+03 -0.14119065114E+04  0.14328465623E+04  0.46999998093E+01 0. -1.
       -5    1    3    3    0  502 -0.13257342898E+03 -0.20486939753E+03 -0.16741664383E+03  0.29596892869E+03  0.46999998093E+01 0.  1.
</event>
<event>
 5   0  0.1197259E-02  0.6991123E+03  0.7818609E-02  0.9718751E-01
       -1   -1    0    0    0  501  0.00000000000E+00  0.00000000000E+00  0.92080814983E+02  0.92080815121E+02  0.50400001928E-02 0. -1.
        1   -1    0    0  501    0  0.00000000000E+00  0.00000000000E+00 -0.13269811747E+04  0.13269811748E+04  0.50400001928E-02 0.  1.
    10030    2    1    2    0    0  0.00000000000E+00  0.00000000000E+00 -0.12349003598E+04  0.14190619899E+04  0.69911231756E+03 0.  0.
        3    1    3    3  502    0 -0.24261612484E+03 -0.10609704519E+03 -0.10806299494E+04  0.11126006763E+04  0.10100000352E+00 0.  1.
       -3    1    3    3    0  502  0.24261612484E+03  0.10609704519E+03 -0.15427041034E+03  0.30646131361E+03  0.10100000352E+00 0. -1.
</event>
<event>
 5   0  0.2026361E-02  0.6993013E+03  0.7818609E-02  0.9718428E-01
        2   -1    0    0  501    0  0.00000000000E+00  0.00000000000E+00  0.23547230889E+03  0.23547230890E+03  0.25500000920E-02 0. -1.
       -2   -1    0    0    0  501  0.00000000000E+00  0.00000000000E+00 -0.51919298741E+03  0.51919298742E+03  0.25500000920E-02 0.  1.
    10030    2    1    2    0    0  0.00000000000E+00  0.00000000000E+00 -0.28372067853E+03  0.75466529632E+03  0.69930128418E+03 0.  0.
        2    1    3    3  502    0 -0.39404087399E+01 -0.18289029306E+03 -0.46342993556E+03  0.49822855327E+03  0.25500000920E-02 0.  1.
       -2    1    3    3    0  502  0.39404087399E+01  0.18289029306E+03  0.17970925703E+03  0.25643674305E+03  0.25500000920E-02 0. -1.
</event>
<event>
 5   0  0.1226303E-02  0.6924539E+03  0.7818609E-02  0.9730225E-01
        1   -1    0    0  501    0  0.00000000000E+00  0.00000000000E+00  0.97932342311E+03  0.97932342312E+03  0.50400001928E-02 0. -1.
       -1   -1    0    0    0  501  0.00000000000E+00  0.00000000000E+00 -0.12240398721E+03  0.12240398731E+03  0.50400001928E-02 0.  1.
    10030    2    1    2    0    0  0.00000000000E+00  0.00000000000E+00  0.85691943590E+03  0.11017274104E+04  0.69245387376E+03 0.  0.
        4    1    3    3  502    0  0.24590391931E+03 -0.39927924893E+02  0.45917682812E+02  0.25332394915E+03  0.12699999809E+01 0.  1.
       -4    1    3    3    0  502 -0.24590391931E+03  0.39927924893E+02  0.81100175309E+03  0.84840346129E+03  0.12699999809E+01 0. -1.
</event>
<event>
 5   0  0.1948138E-02  0.6973973E+03  0.7818609E-02  0.9721694E-01
       -2   -1    0    0    0  501  0.00000000000E+00  0.00000000000E+00  0.29760979088E+03  0.29760979089E+03  0.25500000920E-02 0.  1.
        2   -1    0    0  501    0  0.00000000000E+00  0.00000000000E+00 -0.40855758739E+03  0.40855758740E+03  0.25500000920E-02 0. -1.
    10030    2    1    2    0    0  0.00000000000E+00  0.00000000000E+00 -0.11094779651E+03  0.70616737829E+03  0.69739727029E+03 0.  0.
        3    1    3    3  502    0  0.76972800379E+02 -0.21601880110E+03  0.21051137863E+03  0.31129404935E+03  0.10100000352E+00 0.  1.
       -3    1    3    3    0  502 -0.76972800379E+02  0.21601880110E+03 -0.32145917514E+03  0.39487332894E+03  0.10100000352E+00 0. -1.
</event>
<event>
 5   0  0.1973067E-02  0.6977701E+03  0.7818609E-02  0.9721053E-01
        2   -1    0    0  501    0  0.00000000000E+00  0.00000000000E+00  0.98550764398E+03  0.98550764398E+03  0.25500000920E-02 0. -1.
       -2   -1    0    0    0  501  0.00000000000E+00  0.00000000000E+00 -0.12351075405E+03  0.12351075408E+03  0.25500000920E-02 0.  1.
    10030    2    1    2    0    0  0.00000000000E+00  0.00000000000E+00  0.86199688992E+03  0.11090183981E+04  0.69777014052E+03 0.  0.
        5    1    3    3  502    0 -0.31343981399E+03  0.14385622168E+03  0.34750597804E+03  0.48961375009E+03  0.46999998093E+01 0. -1.
       -5    1    3    3    0  502  0.31343981399E+03 -0.14385622168E+03  0.51449091188E+03  0.61940464797E+03  0.46999998093E+01 0.  1.
</event>
<event>
 5   0  0.2026361E-02  0.7026018E+03  0.7818609E-02  0.9712793E-01
       -2   -1    0    0    0  501  0.00000000000E+00  0.00000000000E+00  0.16529223734E+03  0.16529223736E+03  0.25500000920E-02 0.  1.
        2   -1    0    0  501    0  0.00000000000E+00  0.00000000000E+00 -0.74663102825E+03  0.74663102825E+03  0.25500000920E-02 0. -1.
    10030    2    1    2    0    0  0.00000000000E+00  0.00000000000E+00 -0.58133879091E+03  0.91192326562E+03  0.70260177381E+03 0.  0.
        2    1    3    3  502    0  0.92037242575E+02 -0.16448189204E+02 -0.73018641311E+03  0.73614780774E+03  0.25500000920E-02 0. -1.
       -2    1    3    3    0  502 -0.92037242575E+02  0.16448189204E+02  0.14884762220E+03  0.17577545787E+03  0.25500000920E-02 0.  1.
</event>
<event>
 5   0  0.1197259E-02  0.7064430E+03  0.7818609E-02  0.9706277E-01
       -1   -1    0    0    0  501  0.00000000000E+00  0.00000000000E+00  0.82408416395E+02  0.82408416549E+02  0.50400001928E-02 0.  1.
        1   -1    0    0  501    0  0.00000000000E+00  0.00000000000E+00 -0.15139888282E+04  0.15139888282E+04  0.50400001928E-02 0. -1.
    10030    2    1    2    0    0  0.00000000000E+00  0.00000000000E+00 -0.14315804118E+04  0.15963972447E+04  0.70644298256E+03 0.  0.
        3    1    3    3  502    0 -0.25090445645E+03  0.23153252032E+03 -0.92048399608E+03  0.98175921257E+03  0.10100000352E+00 0. -1.
       -3    1    3    3    0  502  0.25090445645E+03 -0.23153252032E+03 -0.51109641571E+03  0.61463803217E+03  0.10100000352E+00 0.  1.
</event>
<event>
 5   0  0.2026361E-02  0.7064853E+03  0.7818609E-02  0.9706205E-01
        2   -1    0    0  501    0  0.00000000000E+00  0.00000000000E+00  0.12287141303E+04  0.12287141303E+04  0.25500000920E-02 0.  1.
       -2   -1    0    0    0  501  0.00000000000E+00  0.00000000000E+00 -0.10155361701E+03  0.10155361704E+03  0.25500000920E-02 0. -1.
    10030    2    1    2    0    0  0.00000000000E+00  0.00000000000E+00  0.11271605133E+04  0.13302677473E+04  0.70648528427E+03 0.  0.
        2    1    3    3  502    0  0.30102500734E+03  0.95634386501E+02  0.26575229058E+03  0.41277871902E+03  0.25500000920E-02 0. -1.
       -2    1    3    3    0  502 -0.30102500734E+03 -0.95634386501E+02  0.86140822268E+03  0.91748902829E+03  0.25500000920E-02 0.  1.
</event>
<event>
 5   0  0.1197259E-02  0.7010071E+03  0.7818609E-02  0.9715511E-01
       -1   -1    0    0    0  501  0.00000000000E+00  0.00000000000E+00  0.12644626246E+03  0.12644626256E+03  0.50400001928E-02 0. -1.
        1   -1    0    0  501    0  0.00000000000E+00  0.00000000000E+00 -0.97158070543E+03  0.97158070544E+03  0.50400001928E-02 0.  1.
    10030    2    1    2    0    0  0.00000000000E+00  0.00000000000E+00 -0.84513444297E+03  0.10980269680E+04  0.70100712963E+03 0.  0.
        3    1    3    3  502    0  0.10715461738E+03 -0.16234343541E+03 -0.87927557297E+03  0.90053486688E+03  0.10100000352E+00 0.  1.
       -3    1    3    3    0  502 -0.10715461738E+03  0.16234343541E+03  0.34141130005E+02  0.19749210112E+03  0.10100000352E+00 0. -1.
</event>
<event>
 5   0  0.1226303E-02  0.6933324E+03  0.7818609E-02  0.9728703E-01
        1   -1    0    0  501    0  0.00000000000E+00  0.00000000000E+00  0.31050704442E+03  0.31050704447E+03  0.50400001928E-02 0. -1.
       -1   -1    0    0    0  501  0.00000000000E+00  0.00000000000E+00 -0.38703611038E+03  0.38703611041E+03  0.50400001928E-02 0.  1.
    10030    2    1    2    0    0  0.00000000000E+00  0.00000000000E+00 -0.76529065955E+02  0.69754315488E+03  0.69333235535E+03 0.  0.
        4    1    3    3  502    0  0.20708586206E+03  0.42192181436E+01  0.24140478314E+03  0.31808841269E+03  0.12699999809E+01 0. -1.
       -4    1    3    3    0  502 -0.20708586206E+03 -0.42192181436E+01 -0.31793384910E+03  0.37945474218E+03  0.12699999809E+01 0.  1.
</event>
<event>
 5   0  0.1948138E-02  0.6974352E+03  0.7818609E-02  0.9721628E-01
        2   -1    0    0  501    0  0.00000000000E+00  0.00000000000E+00  0.12218225494E+04  0.12218225494E+04  0.25500000920E-02 0.  1.
       -2   -1    0    0    0  501  0.00000000000E+00  0.00000000000E+00 -0.99526695529E+02  0.99526695562E+02  0.25500000920E-02 0. -1.
    10030    2    1    2    0    0  0.00000000000E+00  0.00000000000E+00  0.11222958538E+04  0.13213492449E+04  0.69743518949E+03 0.  0.
        3    1    3    3  502    0  0.49694868477E+02  0.32813755727E+03  0.76396674058E+03  0.83293999025E+03  0.10100000352E+00 0.  1.
       -3    1    3    3    0  502 -0.49694868477E+02 -0.32813755727E+03  0.35832911325E+03  0.48840925467E+03  0.10100000352E+00 0. -1.
</event>
<event>
 5   0  0.1257442E-02  0.6737313E+03  0.7818609E-02  0.9763241E-01
        1   -1    0    0  501    0  0.00000000000E+00  0.00000000000E+00  0.20290065107E+03  0.20290065113E+03  0.50400001928E-02 0. -1.
       -1   -1    0    0    0  501  0.00000000000E+00  0.00000000000E+00 -0.55928093579E+03  0.55928093582E+03  0.50400001928E-02 0.  1.
    10030    2    1    2    0    0  0.00000000000E+00  0.00000000000E+00 -0.35638028472E+03  0.76218158695E+03  0.67373129966E+03 0.  0.
        1    1    3    3  502    0 -0.13044416551E+03 -0.16785441599E+03  0.11743605034E+03  0.24286212391E+03  0.50400001928E-02 0. -1.
       -1    1    3    3    0  502  0.13044416551E+03  0.16785441599E+03 -0.47381633507E+03  0.51931946304E+03  0.50400001928E-02 0.  1.
</event>
<event>
 5   0  0.1223742E-02  0.7043267E+03  0.7818609E-02  0.9709861E-01
       -1   -1    0    0    0  501  0.00000000000E+00  0.00000000000E+00  0.12282148018E+03  0.12282148028E+03  0.50400001928E-02 0. -1.
        1   -1    0    0  501    0  0.00000000000E+00  0.00000000000E+00 -0.10097502212E+04  0.10097502212E+04  0.50400001928E-02 0.  1.
    10030    2    1    2    0    0  0.00000000000E+00  0.00000000000E+00 -0.88692874103E+03  0.11325717015E+04  0.70432667660E+03 0.  0.
        2    1    3    3  502    0 -0.16670932496E+03 -0.16119113151E+03 -0.17279982920E+02  0.23253640086E+03  0.25500000920E-02 0. -1.
       -2    1    3    3    0  502  0.16670932496E+03  0.16119113151E+03 -0.86964875811E+03  0.90003530064E+03  0.25500000920E-02 0.  1.
</event>
<event>
 5   0  0.1223742E-02  0.7005805E+03  0.7818609E-02  0.9716240E-01
        1   -1    0    0  501    0  0.00000000000E+00  0.00000000000E+00  0.96496035318E+03  0.96496035320E+03  0.50400001928E-02 0.  1.
       -1   -1    0    0    0  501  0.00000000000E+00  0.00000000000E+00 -0.12715886114E+03  0.12715886124E+03  0.50400001928E-02 0. -1.
    10030    2    1    2    0    0  0.00000000000E+00  0.00000000000E+00  0.83780149204E+03  0.10921192144E+04  0.70058050107E+03 0.  0.
        2    1    3    3  502    0  0.23167766734E+03  0.10817109459E+02  0.82812230935E+03  0.85998727354E+03  0.25500000920E-02 0.  1.
       -2    1    3    3    0  502 -0.23167766734E+03 -0.10817109459E+02  0.96791826912E+01  0.23213194090E+03  0.25500000920E-02 0. -1.
</event>
<event>
 5   0  0.2006362E-02  0.6973705E+03  0.7818609E-02  0.9721740E-01
        2   -1    0    0  501    0  0.00000000000E+00  0.00000000000E+00  0.52074098947E+03  0.52074098947E+03  0.25500000920E-02 0. -1.
       -2   -1    0    0    0  501  0.00000000000E+00  0.00000000000E+00 -0.23347771512E+03  0.23347771514E+03  0.25500000920E-02 0.  1.
    10030    2    1    2    0    0  0.00000000000E+00  0.00000000000E+00  0.28726327434E+03  0.75421870461E+03  0.69737053680E+03 0.  0.
        4    1    3    3  502    0 -0.16442134196E+03  0.27272702559E+03  0.29721248965E+03  0.43560450535E+03  0.12699999809E+01 0. -1.
       -4    1    3    3    0  502  0.16442134196E+03 -0.27272702559E+03 -0.99492153080E+01  0.31861419925E+03  0.12699999809E+01 0.  1.
</event>
<event>
 5   0  0.1226303E-02  0.7005053E+03  0.7818609E-02  0.9716369E-01
       -1   -1    0    0    0  501  0.00000000000E+00  0.00000000000E+00  0.12836562459E+03  0.12836562469E+03  0.50400001928E-02 0. -1.
        1   -1    0    0  501    0  0.00000000000E+00  0.00000000000E+00 -0.95568346640E+03  0.95568346641E+03  0.50400001928E-02 0.  1.
    10030    2    1    2    0    0  0.00000000000E+00  0.00000000000E+00 -0.82731784181E+03  0.10840490911E+04  0.70050526089E+03 0.  0.
        4    1    3    3  502    0  0.18857786257E+02 -0.32993765710E+03 -0.23411393402E+03  0.40500051935E+03  0.12699999809E+01 0. -1.
       -4    1    3    3    0  502 -0.18857786257E+02  0.32993765710E+03 -0.59320390779E+03  0.67904857175E+03  0.12699999809E+01 0.  1.
</event>
<event>
 5   0  0.1226303E-02  0.6964588E+03  0.7818609E-02  0.9723307E-01
        1   -1    0    0  501    0  0.00000000000E+00  0.00000000000E+00  0.12666011424E+04  0.12666011424E+04  0.50400001928E-02 0. -1.
       -1   -1    0    0    0  501  0.00000000000E+00  0.00000000000E+00 -0.95739461042E+02  0.95739461175E+02  0.50400001928E-02 0.  1.
    10030    2    1    2    0    0  0.00000000000E+00  0.00000000000E+00  0.11708616814E+04  0.13623406036E+04  0.69645878795E+03 0.  0.
        4    1    3    3  502    0  0.22491961914E+03 -0.12624997205E+03  0.10430663283E+04  0.10744844665E+04  0.12699999809E+01 0. -1.
       -4    1    3    3    0  502 -0.22491961914E+03  0.12624997205E+03  0.12779535304E+03  0.28785613711E+03  0.12699999809E+01 0.  1.
</event>
<event>
 5   0  0.1973067E-02  0.6978857E+03  0.7818609E-02  0.9720855E-01
       -2   -1    0    0    0  501  0.00000000000E+00  0.00000000000E+00  0.45189466662E+03  0.45189466663E+03  0.25500000920E-02 0. -1.
        2   -1    0    0  501    0  0.00000000000E+00  0.00000000000E+00 -0.26944578649E+03  0.26944578650E+03  0.25500000920E-02 0.  1.
    10030    2    1    2    0    0  0.00000000000E+00  0.00000000000E+00  0.18244888013E+03  0.72134045313E+03  0.69788570373E+03 0.  0.
        5    1    3    3  502    0 -0.28226953071E+03  0.12335820999E+03  0.26057758076E+03  0.40350477263E+03  0.46999998093E+01 0. -1.
       -5    1    3    3    0  502  0.28226953071E+03 -0.12335820999E+03 -0.78128700631E+02  0.31783568050E+03  0.46999998093E+01 0.  1.
</event>
<event>
 5   0  0.1909053E-02  0.6972568E+03  0.7818609E-02  0.9721935E-01
        2   -1    0    0  501    0  0.00000000000E+00  0.00000000000E+00  0.11703071672E+04  0.11703071672E+04  0.25500000920E-02 0.  1.
       -2   -1    0    0    0  501  0.00000000000E+00  0.00000000000E+00 -0.10385457621E+03  0.10385457624E+03  0.25500000920E-02 0. -1.
    10030    2    1    2    0    0  0.00000000000E+00  0.00000000000E+00  0.10664525910E+04  0.12741617434E+04  0.69725678168E+03 0.  0.
        1    1    3    3  502    0 -0.19927698655E+03  0.27679894827E+03  0.40128932684E+03  0.52665178153E+03  0.50400001928E-02 0. -1.
       -1    1    3    3    0  502  0.19927698655E+03 -0.27679894827E+03  0.66516326415E+03  0.74750996189E+03  0.50400001928E-02 0.  1.
</event>
<event>
 5   0  0.1909053E-02  0.7011354E+03  0.7818609E-02  0.9715293E-01
        2   -1    0    0  501    0  0.00000000000E+00  0.00000000000E+00  0.12133655149E+04  0.12133655149E+04  0.25500000920E-02 0. -1.
       -2   -1    0    0    0  501  0.00000000000E+00  0.00000000000E+00 -0.10128662867E+03  0.10128662870E+03  0.25500000920E-02 0.  1.
    10030    2    1    2    0    0  0.00000000000E+00  0.00000000000E+00  0.11120788863E+04  0.13146521436E+04  0.70113537172E+03 0.  0.
        1    1    3    3  502    0 -0.16033457776E+03  0.19301729150E+03  0.97001388555E+02  0.26902067030E+03  0.50400001928E-02 0.  1.
       -1    1    3    3    0  502  0.16033457776E+03 -0.19301729150E+03  0.10150774977E+04  0.10456314733E+04  0.50400001928E-02 0. -1.
</event>
<event>
 5   0  0.7947250E-03  0.7010847E+03  0.7818609E-02  0.9715379E-01
       -3   -1    0    0    0  501  0.00000000000E+00  0.00000000000E+00  0.25060340875E+03  0.25060342911E+03  0.10100000352E+00 0.  1.
        3   -1    0    0  501    0  0.00000000000E+00  0.00000000000E+00 -0.49033623867E+03  0.49033624907E+03  0.10100000352E+00 0. -1.
    10030    2    1    2    0    0  0.00000000000E+00  0.00000000000E+00 -0.23973282992E+03  0.74093967818E+03  0.70108471454E+03 0.  0.
        3    1    3    3  502    0  0.49055709253E+02 -0.70049900039E+01 -0.48661597563E+03  0.48913254894E+03  0.10100000352E+00 0. -1.
       -3    1    3    3    0  502 -0.49055709253E+02  0.70049900039E+01  0.24688314571E+03  0.25180712924E+03  0.10100000352E+00 0.  1.
</event>
<event>
 5   0  0.1197259E-02  0.7003800E+03  0.7818609E-02  0.9716583E-01
        1   -1    0    0  501    0  0.00000000000E+00  0.00000000000E+00  0.56016581083E+03  0.56016581085E+03  0.50400001928E-02 0. -1.
       -1   -1    0    0    0  501  0.00000000000E+00  0.00000000000E+00 -0.21892272112E+03  0.21892272118E+03  0.50400001928E-02 0.  1.
    10030    2    1    2    0    0  0.00000000000E+00  0.00000000000E+00  0.34124308971E+03  0.77908853203E+03  0.70037996435E+03 0.  0.
        3    1    3    3  502    0  0.23344768501E+02  0.22857112796E+03  0.46459992640E+03  0.51830766979E+03  0.10100000352E+00 0. -1.
       -3    1    3    3    0  502 -0.23344768501E+02 -0.22857112796E+03 -0.12335683669E+03  0.26078086224E+03  0.10100000352E+00 0.  1.
</event>
<event>
 5   0  0.1973067E-02  0.6963329E+03  0.7818609E-02  0.9723524E-01
       -2   -1    0    0    0  501  0.00000000000E+00  0.00000000000E+00  0.20808839295E+03  0.20808839297E+03  0.25500000920E-02 0. -1.
        2   -1    0    0  501    0  0.00000000000E+00  0.00000000000E+00 -0.58254038921E+03  0.58254038921E+03  0.25500000920E-02 0.  1.
    10030    2    1    2    0    0  0.00000000000E+00  0.00000000000E+00 -0.37445199626E+03  0.79062878218E+03  0.69633294745E+03 0.  0.
        5    1    3    3  502    0 -0.13787178796E+03 -0.13758357877E+03  0.14039648884E+03  0.24014815248E+03  0.46999998093E+01 0. -1.
       -5    1    3    3    0  502  0.13787178796E+03  0.13758357877E+03 -0.51484848510E+03  0.55048062970E+03  0.46999998093E+01 0.  1.
</event>
<event>
 5   0  0.2026361E-02  0.6962481E+03  0.7818609E-02  0.9723670E-01
       -2   -1    0    0    0  501  0.00000000000E+00  0.00000000000E+00  0.27545648028E+03  0.27545648029E+03  0.25500000920E-02 0.  1.
        2   -1    0    0  501    0  0.00000000000E+00  0.00000000000E+00 -0.43996192472E+03  0.43996192473E+03  0.25500000920E-02 0. -1.
    10030    2    1    2    0    0  0.00000000000E+00  0.00000000000E+00 -0.16450544444E+03  0.71541840502E+03  0.69624812602E+03 0.  0.
        2    1    3    3  502    0  0.27099788845E+03 -0.54633757829E+02  0.13515179639E+03  0.30771855829E+03  0.25500000920E-02 0.  1.
       -2    1    3    3    0  502 -0.27099788845E+03  0.54633757829E+02 -0.29965724083E+03  0.40769984674E+03  0.25500000920E-02 0. -1.
</event>
<event>
 5   0  0.1237686E-02  0.7076358E+03  0.7818609E-02  0.9704262E-01
        1   -1    0    0  501    0  0.00000000000E+00  0.00000000000E+00  0.21504027251E+04  0.21504027251E+04  0.50400001928E-02 0.  1.
       -1   -1    0    0    0  501  0.00000000000E+00  0.00000000000E+00 -0.58215663998E+02  0.58215664216E+02  0.50400001928E-02 0. -1.
    10030    2    1    2    0    0  0.00000000000E+00  0.00000000000E+00  0.20921870611E+04  0.22086183893E+04  0.70763584632E+03 0.  0.
        5    1    3    3  502    0  0.28648551737E+03 -0.18155265775E+03  0.13602235502E+04  0.14018792800E+04  0.46999998093E+01 0. -1.
       -5    1    3    3    0  502 -0.28648551737E+03  0.18155265775E+03  0.73196351087E+03  0.80673910928E+03  0.46999998093E+01 0.  1.
</event>
<event>
 5   0  0.1909053E-02  0.6952546E+03  0.7818609E-02  0.9725382E-01
       -2   -1    0    0    0  501  0.00000000000E+00  0.00000000000E+00  0.50606763144E+03  0.50606763145E+03  0.25500000920E-02 0.  1.
        2   -1    0    0  501    0  0.00000000000E+00  0.00000000000E+00 -0.23879166393E+03  0.23879166395E+03  0.25500000920E-02 0. -1.
    10030    2    1    2    0    0  0.00000000000E+00  0.00000000000E+00  0.26727596751E+03  0.74485929540E+03  0.69525457721E+03 0.  0.
        1    1    3    3  502    0  0.12198978385E+03 -0.28430604852E+03  0.30348389678E+03  0.43337502492E+03  0.50400001928E-02 0. -1.
       -1    1    3    3    0  502 -0.12198978385E+03  0.28430604852E+03 -0.36207929273E+02  0.31148427048E+03  0.50400001928E-02 0.  1.
</event>
<event>
 5   0  0.2006362E-02  0.7502435E+03  0.7818609E-02  0.9634968E-01
       -2   -1    0    0    0  501  0.00000000000E+00  0.00000000000E+00  0.11831016296E+03  0.11831016299E+03  0.25500000920E-02 0. -1.
        2   -1    0    0  501    0  0.00000000000E+00  0.00000000000E+00 -0.11893850863E+04  0.11893850863E+04  0.25500000920E-02 0.  1.
    10030    2    1    2    0    0  0.00000000000E+00  0.00000000000E+00 -0.10710749234E+04  0.13076952493E+04  0.75024354289E+03 0.  0.
        4    1    3    3  502    0  0.31681285591E+03 -0.20077743771E+03 -0.54551473012E+03  0.66201956077E+03  0.12699999809E+01 0. -1.
       -4    1    3    3    0  502 -0.31681285591E+03  0.20077743771E+03 -0.52556019326E+03  0.64567568856E+03  0.12699999809E+01 0.  1.
</event>
<event>
 5   0  0.1909053E-02  0.6915203E+03  0.7818609E-02  0.9731845E-01
        2   -1    0    0  501    0  0.00000000000E+00  0.00000000000E+00  0.86619951453E+03  0.86619951453E+03  0.25500000920E-02 0.  1.
       -2   -1    0    0    0  501  0.00000000000E+00  0.00000000000E+00 -0.13801678552E+03  0.13801678554E+03  0.25500000920E-02 0. -1.
    10030    2    1    2    0    0  0.00000000000E+00  0.00000000000E+00  0.72818272901E+03  0.10042163001E+04  0.69152027483E+03 0.  0.
        1    1    3    3  502    0 -0.67405162377E+02 -0.76725767596E+02  0.84379617772E+03  0.84995428636E+03  0.50400001928E-02 0.  1.
       -1    1    3    3    0  502  0.67405162377E+02  0.76725767596E+02 -0.11561344871E+03  0.15426201372E+03  0.50400001928E-02 0. -1.
</event>
<event>
 5   0  0.2026361E-02  0.7439815E+03  0.7818609E-02  0.9644840E-01
       -2   -1    0    0    0  501  0.00000000000E+00  0.00000000000E+00  0.18360594216E+03  0.18360594218E+03  0.25500000920E-02 0. -1.
        2   -1    0    0  501    0  0.00000000000E+00  0.00000000000E+00 -0.75366354510E+03  0.75366354511E+03  0.25500000920E-02 0.  1.
    10030    2    1    2    0    0  0.00000000000E+00  0.00000000000E+00 -0.57005760295E+03  0.93726948728E+03  0.74398146557E+03 0.  0.
        2    1    3    3  502    0  0.30763450222E+03  0.20913576288E+03 -0.28428242397E+03  0.46818078864E+03  0.25500000920E-02 0. -1.
       -2    1    3    3    0  502 -0.30763450222E+03 -0.20913576288E+03 -0.28577517897E+03  0.46908869864E+03  0.25500000920E-02 0.  1.
</event>
<event>
 5   0  0.1223742E-02  0.7007027E+03  0.7818609E-02  0.9716031E-01
       -1   -1    0    0    0  501  0.00000000000E+00  0.00000000000E+00  0.11370261385E+03  0.11370261396E+03  0.50400001928E-02 0.  1.
        1   -1    0    0  501    0  0.00000000000E+00  0.00000000000E+00 -0.10795359251E+04  0.10795359251E+04  0.50400001928E-02 0. -1.
    10030    2    1    2    0    0  0.00000000000E+00  0.00000000000E+00 -0.96583331125E+03  0.11932385391E+04  0.70070266589E+03 0.  0.
        2    1    3    3  502    0  0.81396280282E+02 -0.64657767366E+02  0.86835922438E+02  0.13544910024E+03  0.25500000920E-02 0.  1.
       -2    1    3    3    0  502 -0.81396280282E+02  0.64657767366E+02 -0.10526692337E+04  0.10577894388E+04  0.25500000920E-02 0. -1.
</event>
<event>
 5   0  0.1223742E-02  0.7011624E+03  0.7818609E-02  0.9715246E-01
        1   -1    0    0  501    0  0.00000000000E+00  0.00000000000E+00  0.28847493779E+04  0.28847493779E+04  0.50400001928E-02 0.  1.
       -1   -1    0    0    0  501  0.00000000000E+00  0.00000000000E+00 -0.42605844704E+02  0.42605845002E+02  0.50400001928E-02 0. -1.
    10030    2    1    2    0    0  0.00000000000E+00  0.00000000000E+00  0.28421435332E+04  0.29273552229E+04  0.70116241898E+03 0.  0.
        2    1    3    3  502    0  0.67689487800E+02 -0.34373646068E+03  0.13665462783E+04  0.14107392926E+04  0.25500000920E-02 0. -1.
       -2    1    3    3    0  502 -0.67689487800E+02  0.34373646068E+03  0.14755972550E+04  0.15166159303E+04  0.25500000920E-02 0.  1.
</event>
<event>
 5   0  0.1909053E-02  0.6918724E+03  0.7818609E-02  0.9731233E-01
        2   -1    0    0  501    0  0.00000000000E+00  0.00000000000E+00  0.90154510483E+03  0.90154510483E+03  0.25500000920E-02 0. -1.
       -2   -1    0    0    0  501  0.00000000000E+00  0.00000000000E+00 -0.13274085421E+03  0.13274085424E+03  0.25500000920E-02 0.  1.
    10030    2    1    2    0    0  0.00000000000E+00  0.00000000000E+00  0.76880425062E+03  0.10342859591E+04  0.69187243720E+03 0.  0.
        1    1    3    3  502    0  0.30508952933E+03  0.89005570222E+02  0.58866513319E+03  0.66897552384E+03  0.50400001928E-02 0. -1.
       -1    1    3    3    0  502 -0.30508952933E+03 -0.89005570222E+02  0.18013911743E+03  0.36531043523E+03  0.50400001928E-02 0.  1.
</event>
<event>
 5   0  0.1257442E-02  0.6987062E+03  0.7818609E-02  0.9719447E-01
        1   -1    0    0  501    0  0.00000000000E+00  0.00000000000E+00  0.14054251741E+04  0.14054251741E+04  0.50400001928E-02 0.  1.
       -1   -1    0    0    0  501  0.00000000000E+00  0.00000000000E+00 -0.86840333357E+02  0.86840333503E+02  0.50400001928E-02 0. -1.
    10030    2    1    2    0    0  0.00000000000E+00  0.00000000000E+00  0.13185848408E+04  0.14922655076E+04  0.69870620648E+03 0.  0.
        1    1    3    3  502    0 -0.17450951942E+02  0.13130785378E+03 -0.31125970930E+02  0.13607025494E+03  0.50400001928E-02 0. -1.
       -1    1    3    3    0  502  0.17450951942E+02 -0.13130785378E+03  0.13497108117E+04  0.13561952527E+04  0.50400001928E-02 0.  1.
</event>
<event>
 5   0  0.1237686E-02  0.7021495E+03  0.7818609E-02  0.9713563E-01
        1   -1    0    0  501    0  0.00000000000E+00  0.00000000000E+00  0.36685101362E+03  0.36685101366E+03  0.50400001928E-02 0.  1.
       -1   -1    0    0    0  501  0.00000000000E+00  0.00000000000E+00 -0.33597696814E+03  0.33597696818E+03  0.50400001928E-02 0. -1.
    10030    2    1    2    0    0  0.00000000000E+00  0.00000000000E+00  0.30874045479E+02  0.70282798184E+03  0.70214953206E+03 0.  0.
        5    1    3    3  502    0 -0.30475928900E+03 -0.17420673683E+03  0.13156674226E+02  0.35131381906E+03  0.46999998093E+01 0.  1.
       -5    1    3    3    0  502  0.30475928900E+03  0.17420673683E+03  0.17717371253E+02  0.35151416278E+03  0.46999998093E+01 0. -1.
</event>
<event>
 5   0  0.1909053E-02  0.7027878E+03  0.7818609E-02  0.9712476E-01
        2   -1    0    0  501    0  0.00000000000E+00  0.00000000000E+00  0.79776689672E+03  0.79776689672E+03  0.25500000920E-02 0. -1.
       -2   -1    0    0    0  501  0.00000000000E+00  0.00000000000E+00 -0.15477915133E+03  0.15477915135E+03  0.25500000920E-02 0.  1.
    10030    2    1    2    0    0  0.00000000000E+00  0.00000000000E+00  0.64298774539E+03  0.95254604808E+03  0.70278782928E+03 0.  0.
        1    1    3    3  502    0 -0.16412519203E+03  0.14343754090E+02 -0.99187697119E+02  0.19230450131E+03  0.50400001928E-02 0.  1.
       -1    1    3    3    0  502  0.16412519203E+03 -0.14343754090E+02  0.74217544251E+03  0.76024154676E+03  0.50400001928E-02 0. -1.
</event>
<event>
 5   0  0.1226303E-02  0.7033740E+03  0.7818609E-02  0.9711480E-01
       -1   -1    0    0    0  501  0.00000000000E+00  0.00000000000E+00  0.78143164076E+03  0.78143164078E+03  0.50400001928E-02 0.  1.
        1   -1    0    0  501    0  0.00000000000E+00  0.00000000000E+00 -0.15827839787E+03  0.15827839795E+03  0.50400001928E-02 0. -1.
    10030    2    1    2    0    0  0.00000000000E+00  0.00000000000E+00  0.62315324289E+03  0.93971003873E+03  0.70337400632E+03 0.  0.
        4    1    3    3  502    0  0.10927795745E+03 -0.51302275504E+02  0.75287966597E+03  0.76249786871E+03  0.12699999809E+01 0.  1.
       -4    1    3    3    0  502 -0.10927795745E+03  0.51302275504E+02 -0.12972642308E+03  0.17721217002E+03  0.12699999809E+01 0. -1.
</event>
<event>
 5   0  0.2026361E-02  0.6962117E+03  0.7818609E-02  0.9723733E-01
        2   -1    0    0  501    0  0.00000000000E+00  0.00000000000E+00  0.28458165542E+03  0.28458165543E+03  0.25500000920E-02 0. -1.
       -2   -1    0    0    0  501  0.00000000000E+00  0.00000000000E+00 -0.42580992950E+03  0.42580992951E+03  0.25500000920E-02 0.  1.
    10030    2    1    2    0    0  0.00000000000E+00  0.00000000000E+00 -0.14122827408E+03  0.71039158494E+03  0.69621173399E+03 0.  0.
        2    1    3    3  502    0 -0.29026699875E+03  0.55593625601E+02  0.11706717469E+03  0.31788410650E+03  0.25500000920E-02 0. -1.
       -2    1    3    3    0  502  0.29026699875E+03 -0.55593625601E+02 -0.25829544877E+03  0.39250747844E+03  0.25500000920E-02 0.  1.
</event>
<event>
 5   0  0.1226303E-02  0.7009657E+03  0.7818609E-02  0.9715582E-01
        1   -1    0    0  501    0  0.00000000000E+00  0.00000000000E+00  0.10451510485E+04  0.10451510485E+04  0.50400001928E-02 0. -1.
       -1   -1    0    0    0  501  0.00000000000E+00  0.00000000000E+00 -0.11753156356E+03  0.11753156367E+03  0.50400001928E-02 0.  1.
    10030    2    1    2    0    0  0.00000000000E+00  0.00000000000E+00  0.92761948492E+03  0.11626826122E+04  0.70096572515E+03 0.  0.
        4    1    3    3  502    0  0.17286956785E+02 -0.21844712842E+03  0.91751027770E+03  0.94331580575E+03  0.12699999809E+01 0. -1.
       -4    1    3    3    0  502 -0.17286956785E+02  0.21844712842E+03  0.10109207226E+02  0.21936680642E+03  0.12699999809E+01 0.  1.
</event>
<event>
 5   0  0.1257442E-02  0.6988938E+03  0.7818609E-02  0.9719126E-01
        1   -1    0    0  501    0  0.00000000000E+00  0.00000000000E+00  0.13864043563E+04  0.13864043563E+04  0.50400001928E-02 0.  1.
       -1   -1    0    0    0  501  0.00000000000E+00  0.00000000000E+00 -0.88079020584E+02  0.88079020729E+02  0.50400001928E-02 0. -1.
    10030    2    1    2    0    0  0.00000000000E+00  0.00000000000E+00  0.12983253357E+04  0.14744833770E+04  0.69889380581E+03 0.  0.
        1    1    3    3  502    0 -0.72621089944E+02 -0.25501703150E+03  0.11293571489E+04  0.11600668424E+04  0.50400001928E-02 0.  1.
       -1    1    3    3    0  502  0.72621089944E+02  0.25501703150E+03  0.16896818679E+03  0.31441653461E+03  0.50400001928E-02 0. -1.
</event>
<event>
 5   0  0.1973067E-02  0.6992036E+03  0.7818609E-02  0.9718595E-01
        2   -1    0    0  501    0  0.00000000000E+00  0.00000000000E+00  0.37079596729E+03  0.37079596730E+03  0.25500000920E-02 0. -1.
       -2   -1    0    0    0  501  0.00000000000E+00  0.00000000000E+00 -0.32961910678E+03  0.32961910679E+03  0.25500000920E-02 0.  1.
    10030    2    1    2    0    0  0.00000000000E+00  0.00000000000E+00  0.41176860513E+02  0.70041507408E+03  0.69920364856E+03 0.  0.
        5    1    3    3  502    0 -0.17809955244E+03 -0.24056685333E+03 -0.16029985572E+03  0.33957325461E+03  0.46999998093E+01 0.  1.
       -5    1    3    3    0  502  0.17809955244E+03  0.24056685333E+03  0.20147671623E+03  0.36084181948E+03  0.46999998093E+01 0. -1.
</event>
<event>
 5   0  0.1197259E-02  0.6742584E+03  0.7818609E-02  0.9762295E-01
        1   -1    0    0  501    0  0.00000000000E+00  0.00000000000E+00  0.47385514370E+03  0.47385514373E+03  0.50400001928E-02 0. -1.
       -1   -1    0    0    0  501  0.00000000000E+00  0.00000000000E+00 -0.23985409861E+03  0.23985409866E+03  0.50400001928E-02 0.  1.
    10030    2    1    2    0    0  0.00000000000E+00  0.00000000000E+00  0.23400104509E+03  0.71370924239E+03  0.67425840267E+03 0.  0.
        3    1    3    3  502    0  0.22452374657E+03  0.22899608718E+03  0.22703449229E+03  0.39293102652E+03  0.10100000352E+00 0. -1.
       -3    1    3    3    0  502 -0.22452374657E+03 -0.22899608718E+03  0.69665528073E+01  0.32077821587E+03  0.10100000352E+00 0.  1.
</event>
<event>
 5   0  0.1197259E-02  0.7173512E+03  0.7818609E-02  0.9688011E-01
       -1   -1    0    0    0  501  0.00000000000E+00  0.00000000000E+00  0.36780674163E+03  0.36780674167E+03  0.50400001928E-02 0.  1.
        1   -1    0    0  501    0  0.00000000000E+00  0.00000000000E+00 -0.34977116716E+03  0.34977116720E+03  0.50400001928E-02 0. -1.
    10030    2    1    2    0    0  0.00000000000E+00  0.00000000000E+00  0.18035574468E+02  0.71757790886E+03  0.71735122035E+03 0.  0.
        3    1    3    3  502    0  0.19547438256E+02 -0.35503435079E+03  0.56114408711E+02  0.35997267903E+03  0.10100000352E+00 0.  1.
       -3    1    3    3    0  502 -0.19547438256E+02  0.35503435079E+03 -0.38078834243E+02  0.35760522983E+03  0.10100000352E+00 0. -1.
</event>
<event>
 5   0  0.2026361E-02  0.6995342E+03  0.7818609E-02  0.9718029E-01
        2   -1    0    0  501    0  0.00000000000E+00  0.00000000000E+00  0.25212240464E+03  0.25212240465E+03  0.25500000920E-02 0.  1.
       -2   -1    0    0    0  501  0.00000000000E+00  0.00000000000E+00 -0.48522866737E+03  0.48522866737E+03  0.25500000920E-02 0. -1.
    10030    2    1    2    0    0  0.00000000000E+00  0.00000000000E+00 -0.23310626273E+03  0.73735107203E+03  0.69953418337E+03 0.  0.
        2    1    3    3  502    0  0.10924619451E+03  0.89890175751E+02 -0.45372394767E+03  0.47526876124E+03  0.25500000920E-02 0. -1.
       -2    1    3    3    0  502 -0.10924619451E+03 -0.89890175751E+02  0.22061768494E+03  0.26208231079E+03  0.25500000920E-02 0.  1.
</event>
<event>
 5   0  0.2006362E-02  0.7090437E+03  0.7818609E-02  0.9701890E-01
       -2   -1    0    0    0  501  0.00000000000E+00  0.00000000000E+00  0.81101750349E+02  0.81101750389E+02  0.25500000920E-02 0. -1.
        2   -1    0    0  501    0  0.00000000000E+00  0.00000000000E+00 -0.15497289144E+04  0.15497289144E+04  0.25500000920E-02 0.  1.
    10030    2    1    2    0    0  0.00000000000E+00  0.00000000000E+00 -0.14686271640E+04  0.16308306648E+04  0.70904365890E+03 0.  0.
        4    1    3    3  502    0  0.17107049483E+03 -0.28849192689E+03 -0.47014480992E+03  0.57752096177E+03  0.12699999809E+01 0. -1.
       -4    1    3    3    0  502 -0.17107049483E+03  0.28849192689E+03 -0.99848235411E+03  0.10533097030E+04  0.12699999809E+01 0.  1.
</event>
<event>
 5   0  0.1197259E-02  0.6872599E+03  0.7818609E-02  0.9739271E-01
       -1   -1    0    0    0  501  0.00000000000E+00  0.00000000000E+00  0.11576059343E+03  0.11576059354E+03  0.50400001928E-02 0.  1.
        1   -1    0    0  501    0  0.00000000000E+00  0.00000000000E+00 -0.10200494836E+04  0.10200494837E+04  0.50400001928E-02 0. -1.
    10030    2    1    2    0    0  0.00000000000E+00  0.00000000000E+00 -0.90428889021E+03  0.11358100772E+04  0.68725987406E+03 0.  0.
        3    1    3    3  502    0 -0.22642004718E+03 -0.40422886062E+02 -0.87408068124E+03  0.90383466131E+03  0.10100000352E+00 0. -1.
       -3    1    3    3    0  502  0.22642004718E+03  0.40422886062E+02 -0.30208208977E+02  0.23197541588E+03  0.10100000352E+00 0.  1.
</event>
<event>
 5   0  0.2026361E-02  0.7016589E+03  0.7818609E-02  0.9714400E-01
        2   -1    0    0  501    0  0.00000000000E+00  0.00000000000E+00  0.19493117502E+03  0.19493117504E+03  0.25500000920E-02 0.  1.
       -2   -1    0    0    0  501  0.00000000000E+00  0.00000000000E+00 -0.63140896048E+03  0.63140896049E+03  0.25500000920E-02 0. -1.
    10030    2    1    2    0    0  0.00000000000E+00  0.00000000000E+00 -0.43647778546E+03  0.82634013553E+03  0.70165886468E+03 0.  0.
        2    1    3    3  502    0 -0.47560606245E+02 -0.30561850510E+03 -0.41324117631E+03  0.51617143637E+03  0.25500000920E-02 0.  1.
       -2    1    3    3    0  502  0.47560606245E+02  0.30561850510E+03 -0.23236609151E+02  0.31016869916E+03  0.25500000920E-02 0. -1.
</event>
<event>
 5   0  0.2006362E-02  0.6964991E+03  0.7818609E-02  0.9723238E-01
       -2   -1    0    0    0  501  0.00000000000E+00  0.00000000000E+00  0.81350902944E+03  0.81350902945E+03  0.25500000920E-02 0.  1.
        2   -1    0    0  501    0  0.00000000000E+00  0.00000000000E+00 -0.14907976102E+03  0.14907976104E+03  0.25500000920E-02 0. -1.
    10030    2    1    2    0    0  0.00000000000E+00  0.00000000000E+00  0.66442926843E+03  0.96258879049E+03  0.69649905013E+03 0.  0.
        4    1    3    3  502    0  0.15097596554E+03  0.24275290070E+03  0.57354208917E+02  0.29157131400E+03  0.12699999809E+01 0. -1.
       -4    1    3    3    0  502 -0.15097596554E+03 -0.24275290070E+03  0.60707505951E+03  0.67101747648E+03  0.12699999809E+01 0.  1.
</event>
<event>
 5   0  0.1948138E-02  0.7055171E+03  0.7818609E-02  0.9707843E-01
       -2   -1    0    0    0  501  0.00000000000E+00  0.00000000000E+00  0.47394738988E+03  0.47394738988E+03  0.25500000920E-02 0.  1.
        2   -1    0    0  501    0  0.00000000000E+00  0.00000000000E+00 -0.26255782307E+03  0.26255782308E+03  0.25500000920E-02 0. -1.
    10030    2    1    2    0    0  0.00000000000E+00  0.00000000000E+00  0.21138956681E+03  0.73650521296E+03  0.70551710097E+03 0.  0.
        3    1    3    3  502    0 -0.30111761153E+03 -0.39103654602E+01 -0.86090234158E+02  0.31320703305E+03  0.10100000352E+00 0. -1.
       -3    1    3    3    0  502  0.30111761153E+03  0.39103654602E+01  0.29747980097E+03  0.42329817991E+03  0.10100000352E+00 0.  1.
</event>
<event>
 5   0  0.1197259E-02  0.7053643E+03  0.7818609E-02  0.9708102E-01
       -1   -1    0    0    0  501  0.00000000000E+00  0.00000000000E+00  0.12574232054E+03  0.12574232064E+03  0.50400001928E-02 0.  1.
        1   -1    0    0  501    0  0.00000000000E+00  0.00000000000E+00 -0.98920318660E+03  0.98920318661E+03  0.50400001928E-02 0. -1.
    10030    2    1    2    0    0  0.00000000000E+00  0.00000000000E+00 -0.86346086606E+03  0.11149455073E+04  0.70536431503E+03 0.  0.
        3    1    3    3  502    0  0.60434189514E+02  0.82063537745E+02  0.10195915792E+03  0.14416100573E+03  0.10100000352E+00 0.  1.
       -3    1    3    3    0  502 -0.60434189514E+02 -0.82063537745E+02 -0.96542002398E+03  0.97078450152E+03  0.10100000352E+00 0. -1.
</event>
<event>
 5   0  0.2026361E-02  0.6986480E+03  0.7818609E-02  0.9719547E-01
       -2   -1    0    0    0  501  0.00000000000E+00  0.00000000000E+00  0.58974084205E+02  0.58974084260E+02  0.25500000920E-02 0. -1.
        2   -1    0    0  501    0  0.00000000000E+00  0.00000000000E+00 -0.20691674375E+04  0.20691674375E+04  0.25500000920E-02 0.  1.
    10030    2    1    2    0    0  0.00000000000E+00  0.00000000000E+00 -0.20101933533E+04  0.21281415217E+04  0.69864799364E+03 0.  0.
        2    1    3    3  502    0  0.28781750202E+03 -0.13355204834E+03 -0.14502025330E+04  0.14845074775E+04  0.25500000920E-02 0.  1.
       -2    1    3    3    0  502 -0.28781750202E+03  0.13355204834E+03 -0.55999082028E+03  0.64363404423E+03  0.25500000920E-02 0. -1.
</event>
<event>
 5   0  0.1237686E-02  0.6838902E+03  0.7818609E-02  0.9745186E-01
        1   -1    0    0  501    0  0.00000000000E+00  0.00000000000E+00  0.92982918551E+03  0.92982918552E+03  0.50400001928E-02 0. -1.
       -1   -1    0    0    0  501  0.00000000000E+00  0.00000000000E+00 -0.12575046893E+03  0.12575046903E+03  0.50400001928E-02 0.  1.
    10030    2    1    2    0    0  0.00000000000E+00  0.00000000000E+00  0.80407871658E+03  0.10555796546E+04  0.68389021388E+03 0.  0.
        5    1    3    3  502    0  0.35467691377E+01 -0.13967835056E+03  0.88370248204E+03  0.89469256616E+03  0.46999998093E+01 0. -1.
       -5    1    3    3    0  502 -0.35467691377E+01  0.13967835056E+03 -0.79623765458E+02  0.16088708839E+03  0.46999998093E+01 0.  1.
</event>
<event>
 5   0  0.1223742E-02  0.6993261E+03  0.7818609E-02  0.9718385E-01
       -1   -1    0    0    0  501  0.00000000000E+00  0.00000000000E+00  0.52982737277E+03  0.52982737279E+03  0.50400001928E-02 0. -1.
        1   -1    0    0  501    0  0.00000000000E+00  0.00000000000E+00 -0.23076242288E+03  0.23076242294E+03  0.50400001928E-02 0.  1.
    10030    2    1    2    0    0  0.00000000000E+00  0.00000000000E+00  0.29906494989E+03  0.76058979573E+03  0.69932609927E+03 0.  0.
        2    1    3    3  502    0 -0.18982443678E+03  0.11025661877E+03 -0.14647648491E+03  0.26390376924E+03  0.25500000920E-02 0.  1.
       -2    1    3    3    0  502  0.18982443678E+03 -0.11025661877E+03  0.44554143479E+03  0.49668602649E+03  0.25500000920E-02 0. -1.
</event>
<event>
 5   0  0.2026361E-02  0.6739638E+03  0.7818609E-02  0.9762824E-01
       -2   -1    0    0    0  501  0.00000000000E+00  0.00000000000E+00  0.89201571578E+02  0.89201571615E+02  0.25500000920E-02 0.  1.
        2   -1    0    0  501    0  0.00000000000E+00  0.00000000000E+00 -0.12730359536E+04  0.12730359536E+04  0.25500000920E-02 0. -1.
    10030    2    1    2    0    0  0.00000000000E+00  0.00000000000E+00 -0.11838343821E+04  0.13622375252E+04  0.67396382029E+03 0.  0.
        2    1    3    3  502    0 -0.14848436282E+03  0.30110153075E+02  0.16479074533E+02  0.15240008931E+03  0.25500000920E-02 0.  1.
       -2    1    3    3    0  502  0.14848436282E+03 -0.30110153075E+02 -0.12003134566E+04  0.12098374359E+04  0.25500000920E-02 0. -1.
</event>
<event>
 5   0  0.1197259E-02  0.6992761E+03  0.7818609E-02  0.9718471E-01
        1   -1    0    0  501    0  0.00000000000E+00  0.00000000000E+00  0.47952672861E+03  0.47952672864E+03  0.50400001928E-02 0. -1.
       -1   -1    0    0    0  501  0.00000000000E+00  0.00000000000E+00 -0.25493208920E+03  0.25493208925E+03  0.50400001928E-02 0.  1.
    10030    2    1    2    0    0  0.00000000000E+00  0.00000000000E+00  0.22459463941E+03  0.73445881789E+03  0.69927605645E+03 0.  0.
        3    1    3    3  502    0  0.57076227769E+02 -0.24108496082E+03 -0.14682811771E+03  0.28798986173E+03  0.10100000352E+00 0.  1.
       -3    1    3    3    0  502 -0.57076227769E+02  0.24108496082E+03  0.37142275711E+03  0.44646895616E+03  0.10100000352E+00 0. -1.
</event>
<event>
 5   0  0.1197259E-02  0.6822294E+03  0.7818609E-02  0.9748114E-01
        1   -1    0    0  501    0  0.00000000000E+00  0.00000000000E+00  0.57957804662E+03  0.57957804664E+03  0.50400001928E-02 0. -1.
       -1   -1    0    0    0  501  0.00000000000E+00  0.00000000000E+00 -0.20076544032E+03  0.20076544038E+03  0.50400001928E-02 0.  1.
    10030    2    1    2    0    0  0.00000000000E+00  0.00000000000E+00  0.37881260630E+03  0.78034348703E+03  0.68222940940E+03 0.  0.
        3    1    3    3  502    0  0.12884856719E+03 -0.42762559452E+02  0.54734630717E+03  0.56393136101E+03  0.10100000352E+00 0. -1.
       -3    1    3    3    0  502 -0.12884856719E+03  0.42762559452E+02 -0.16853370086E+03  0.21641212602E+03  0.10100000352E+00 0.  1.
</event>
<event>
 5   0  0.1197259E-02  0.6982922E+03  0.7818609E-02  0.9720157E-01
       -1   -1    0    0    0  501  0.00000000000E+00  0.00000000000E+00  0.23819069627E+03  0.23819069632E+03  0.50400001928E-02 0.  1.
        1   -1    0    0  501    0  0.00000000000E+00  0.00000000000E+00 -0.51178740819E+03  0.51178740821E+03  0.50400001928E-02 0. -1.
    10030    2    1    2    0    0  0.00000000000E+00  0.00000000000E+00 -0.27359671192E+03  0.74997810454E+03  0.69829219995E+03 0.  0.
        3    1    3    3  502    0 -0.22372205412E+03 -0.26287247952E+03 -0.80481611707E+02  0.35444435108E+03  0.10100000352E+00 0.  1.
       -3    1    3    3    0  502  0.22372205412E+03  0.26287247952E+03 -0.19311510021E+03  0.39553375345E+03  0.10100000352E+00 0. -1.
</event>
<event>
 5   0  0.7947250E-03  0.7467370E+03  0.7818609E-02  0.9640483E-01
        4   -1    0    0  501    0  0.00000000000E+00  0.00000000000E+00  0.83328419648E+03  0.83328516428E+03  0.12699999809E+01 0.  1.
       -4   -1    0    0    0  501  0.00000000000E+00  0.00000000000E+00 -0.16729122441E+03  0.16729604497E+03  0.12699999809E+01 0. -1.
    10030    2    1    2    0    0  0.00000000000E+00  0.00000000000E+00  0.66599297207E+03  0.10005812092E+04  0.74673698010E+03 0.  0.
        5    1    3    3  502    0 -0.29402114905E+03  0.19193025436E+02  0.25787751565E+02  0.29581059218E+03  0.46999998093E+01 0. -1.
       -5    1    3    3    0  502  0.29402114905E+03 -0.19193025436E+02  0.64020522051E+03  0.70477061707E+03  0.46999998093E+01 0.  1.
</event>
<event>
 5   0  0.1973067E-02  0.7005549E+03  0.7818609E-02  0.9716284E-01
        2   -1    0    0  501    0  0.00000000000E+00  0.00000000000E+00  0.12430155707E+04  0.12430155707E+04  0.25500000920E-02 0. -1.
       -2   -1    0    0    0  501  0.00000000000E+00  0.00000000000E+00 -0.98706952347E+02  0.98706952380E+02  0.25500000920E-02 0.  1.
    10030    2    1    2    0    0  0.00000000000E+00  0.00000000000E+00  0.11443086183E+04  0.13417225231E+04  0.70055486216E+03 0.  0.
        5    1    3    3  502    0 -0.19381578991E+03  0.18166515524E+03  0.13497265966E+03  0.29800419108E+03  0.46999998093E+01 0.  1.
       -5    1    3    3    0  502  0.19381578991E+03 -0.18166515524E+03  0.10093359587E+04  0.10437183320E+04  0.46999998093E+01 0. -1.
</event>
<event>
 5   0  0.1226303E-02  0.7026240E+03  0.7818609E-02  0.9712755E-01
       -1   -1    0    0    0  501  0.00000000000E+00  0.00000000000E+00  0.10384109942E+03  0.10384109954E+03  0.50400001928E-02 0. -1.
        1   -1    0    0  501    0  0.00000000000E+00  0.00000000000E+00 -0.11885479408E+04  0.11885479408E+04  0.50400001928E-02 0.  1.
    10030    2    1    2    0    0  0.00000000000E+00  0.00000000000E+00 -0.10847068414E+04  0.12923890404E+04  0.70262401034E+03 0.  0.
        4    1    3    3  502    0 -0.13717064238E+03 -0.16725226239E+03 -0.10515295253E+04  0.10735478843E+04  0.12699999809E+01 0.  1.
       -4    1    3    3    0  502  0.13717064238E+03  0.16725226239E+03 -0.33177316139E+02  0.21884115612E+03  0.12699999809E+01 0. -1.
</event>
<event>
 5   0  0.1197259E-02  0.7030245E+03  0.7818609E-02  0.9712074E-01
        1   -1    0    0  501    0  0.00000000000E+00  0.00000000000E+00  0.33982678500E+03  0.33982678504E+03  0.50400001928E-02 0. -1.
       -1   -1    0    0    0  501  0.00000000000E+00  0.00000000000E+00 -0.36359956180E+03  0.36359956184E+03  0.50400001928E-02 0.  1.
    10030    2    1    2    0    0  0.00000000000E+00  0.00000000000E+00 -0.23772776799E+02  0.70342634688E+03  0.70302452344E+03 0.  0.
        3    1    3    3  502    0  0.16107323758E+03  0.29149497999E+03 -0.12440931905E+03  0.35551596321E+03  0.10100000352E+00 0.  1.
       -3    1    3    3    0  502 -0.16107323758E+03 -0.29149497999E+03  0.10063654225E+03  0.34791038367E+03  0.10100000352E+00 0. -1.
</event>
<event>
 5   0  0.2026361E-02  0.6979653E+03  0.7818609E-02  0.9720718E-01
       -2   -1    0    0    0  501  0.00000000000E+00  0.00000000000E+00  0.60206321745E+02  0.60206321799E+02  0.25500000920E-02 0.  1.
        2   -1    0    0  501    0  0.00000000000E+00  0.00000000000E+00 -0.20228587023E+04  0.20228587023E+04  0.25500000920E-02 0. -1.
    10030    2    1    2    0    0  0.00000000000E+00  0.00000000000E+00 -0.19626523805E+04  0.20830650241E+04  0.69796527688E+03 0.  0.
        2    1    3    3  502    0  0.31468115062E+02  0.20654755507E+03 -0.14707531061E+03  0.25550593294E+03  0.25500000920E-02 0.  1.
       -2    1    3    3    0  502 -0.31468115062E+02 -0.20654755507E+03 -0.18155770699E+04  0.18275590911E+04  0.25500000920E-02 0. -1.
</event>
<event>
 5   0  0.7947250E-03  0.6976247E+03  0.7818609E-02  0.9721303E-01
        4   -1    0    0  501    0  0.00000000000E+00  0.00000000000E+00  0.46978907792E+03  0.46979079454E+03  0.12699999809E+01 0.  1.
       -4   -1    0    0    0  501  0.00000000000E+00  0.00000000000E+00 -0.25898496581E+03  0.25898807968E+03  0.12699999809E+01 0. -1.
    10030    2    1    2    0    0  0.00000000000E+00  0.00000000000E+00  0.21080411212E+03  0.72877887422E+03  0.69762473710E+03 0.  0.
        4    1    3    3  502    0 -0.16350446554E+03 -0.14269051230E+03 -0.17987582287E+03  0.28187092278E+03  0.12699999809E+01 0. -1.
       -4    1    3    3    0  502  0.16350446554E+03  0.14269051230E+03  0.39067993499E+03  0.44690795144E+03  0.12699999809E+01 0.  1.
</event>
<event>
 5   0  0.1973067E-02  0.6967433E+03  0.7818609E-02  0.9722818E-01
        2   -1    0    0  501    0  0.00000000000E+00  0.00000000000E+00  0.21438757848E+03  0.21438757850E+03  0.25500000920E-02 0. -1.
       -2   -1    0    0    0  501  0.00000000000E+00  0.00000000000E+00 -0.56609071263E+03  0.56609071264E+03  0.25500000920E-02 0.  1.
    10030    2    1    2    0    0  0.00000000000E+00  0.00000000000E+00 -0.35170313415E+03  0.78047829114E+03  0.69674333034E+03 0.  0.
        5    1    3    3  502    0  0.17910909581E+03 -0.26181746779E+03 -0.33706524378E+03  0.46288608016E+03  0.46999998093E+01 0.  1.
       -5    1    3    3    0  502 -0.17910909581E+03  0.26181746779E+03 -0.14637890366E+02  0.31759221098E+03  0.46999998093E+01 0. -1.
</event>
<event>
 5   0  0.1257442E-02  0.6968235E+03  0.7818609E-02  0.9722680E-01
       -1   -1    0    0    0  501  0.00000000000E+00  0.00000000000E+00  0.97882167174E+02  0.97882167304E+02  0.50400001928E-02 0. -1.
        1   -1    0    0  501    0  0.00000000000E+00  0.00000000000E+00 -0.12401723895E+04  0.12401723895E+04  0.50400001928E-02 0.  1.
    10030    2    1    2    0    0  0.00000000000E+00  0.00000000000E+00 -0.11422902223E+04  0.13380545568E+04  0.69682353935E+03 0.  0.
        1    1    3    3  502    0  0.78527170549E+02 -0.31894331034E+03 -0.79424964406E+03  0.85949045884E+03  0.50400001928E-02 0.  1.
       -1    1    3    3    0  502 -0.78527170549E+02  0.31894331034E+03 -0.34804057826E+03  0.47856409797E+03  0.50400001928E-02 0. -1.
</event>
<event>
 5   0  0.1948138E-02  0.6986091E+03  0.7818609E-02  0.9719614E-01
        2   -1    0    0  501    0  0.00000000000E+00  0.00000000000E+00  0.11546900170E+04  0.11546900170E+04  0.25500000920E-02 0.  1.
       -2   -1    0    0    0  501  0.00000000000E+00  0.00000000000E+00 -0.10566790688E+03  0.10566790691E+03  0.25500000920E-02 0. -1.
    10030    2    1    2    0    0  0.00000000000E+00  0.00000000000E+00  0.10490221101E+04  0.12603579239E+04  0.69860912450E+03 0.  0.
        3    1    3    3  502    0  0.26506611656E+03 -0.15960259390E+03  0.81697851427E+03  0.87360571032E+03  0.10100000352E+00 0.  1.
       -3    1    3    3    0  502 -0.26506611656E+03  0.15960259390E+03  0.23204359581E+03  0.38675221355E+03  0.10100000352E+00 0. -1.
</event>
<event>
 5   0  0.1973067E-02  0.7032854E+03  0.7818609E-02  0.9711630E-01
       -2   -1    0    0    0  501  0.00000000000E+00  0.00000000000E+00  0.19641649892E+03  0.19641649894E+03  0.25500000920E-02 0. -1.
        2   -1    0    0  501    0  0.00000000000E+00  0.00000000000E+00 -0.62954280163E+03  0.62954280164E+03  0.25500000920E-02 0.  1.
    10030    2    1    2    0    0  0.00000000000E+00  0.00000000000E+00 -0.43312630271E+03  0.82595930058E+03  0.70328541298E+03 0.  0.
        5    1    3    3  502    0 -0.13587261521E+02  0.35026667414E+03 -0.24892175624E+03  0.42994823807E+03  0.46999998093E+01 0. -1.
       -5    1    3    3    0  502  0.13587261521E+02 -0.35026667414E+03 -0.18420454647E+03  0.39601106251E+03  0.46999998093E+01 0.  1.
</event>
<event>
 5   0  0.1257442E-02  0.6991740E+03  0.7818609E-02  0.9718646E-01
        1   -1    0    0  501    0  0.00000000000E+00  0.00000000000E+00  0.11841824060E+04  0.11841824060E+04  0.50400001928E-02 0. -1.
       -1   -1    0    0    0  501  0.00000000000E+00  0.00000000000E+00 -0.10320292009E+03  0.10320292021E+03  0.50400001928E-02 0.  1.
    10030    2    1    2    0    0  0.00000000000E+00  0.00000000000E+00  0.10809794859E+04  0.12873853262E+04  0.69917403357E+03 0.  0.
        1    1    3    3  502    0 -0.16303449209E+03  0.15757349758E+03  0.10304312990E+04  0.10550821365E+04  0.50400001928E-02 0. -1.
       -1    1    3    3    0  502  0.16303449209E+03 -0.15757349758E+03  0.50548186961E+02  0.23230318978E+03  0.50400001928E-02 0.  1.
</event>
<event>
 5   0  0.2026361E-02  0.6941412E+03  0.7818609E-02  0.9727304E-01
        2   -1    0    0  501    0  0.00000000000E+00  0.00000000000E+00  0.10645122597E+04  0.10645122597E+04  0.25500000920E-02 0.  1.
       -2   -1    0    0    0  501  0.00000000000E+00  0.00000000000E+00 -0.11315793331E+03  0.11315793334E+03  0.25500000920E-02 0. -1.
    10030    2    1    2    0    0  0.00000000000E+00  0.00000000000E+00  0.95135432635E+03  0.11776701930E+04  0.69414121707E+03 0.  0.
        2    1    3    3  502    0 -0.11889511467E+03 -0.23869708860E+03  0.85255476387E+03  0.89328717320E+03  0.25500000920E-02 0.  1.
       -2    1    3    3    0  502  0.11889511467E+03  0.23869708860E+03  0.98799562476E+02  0.28438301980E+03  0.25500000920E-02 0. -1.
</event>
<event>
 5   0  0.1973067E-02  0.6880093E+03  0.7818609E-02  0.9737960E-01
        2   -1    0    0  501    0  0.00000000000E+00  0.00000000000E+00  0.57476970550E+03  0.57476970551E+03  0.25500000920E-02 0. -1.
       -2   -1    0    0    0  501  0.00000000000E+00  0.00000000000E+00 -0.20588976700E+03  0.20588976702E+03  0.25500000920E-02 0.  1.
    10030    2    1    2    0    0  0.00000000000E+00  0.00000000000E+00  0.36887993850E+03  0.78065947253E+03  0.68800930446E+03 0.  0.
        5    1    3    3  502    0 -0.17169288384E+03 -0.22134451014E+03 -0.42053519507E+02  0.28330624248E+03  0.46999998093E+01 0.  1.
       -5    1    3    3    0  502  0.17169288384E+03  0.22134451014E+03  0.41093345801E+03  0.49735323005E+03  0.46999998093E+01 0. -1.
</event>
<event>
 5   0  0.1223742E-02  0.7007777E+03  0.7818609E-02  0.9715903E-01
        1   -1    0    0  501    0  0.00000000000E+00  0.00000000000E+00  0.14780432086E+04  0.14780432086E+04  0.50400001928E-02 0.  1.
       -1   -1    0    0    0  501  0.00000000000E+00  0.00000000000E+00 -0.83064101223E+02  0.83064101376E+02  0.50400001928E-02 0. -1.
    10030    2    1    2    0    0  0.00000000000E+00  0.00000000000E+00  0.13949791073E+04  0.15611073100E+04  0.70077765608E+03 0.  0.
        2    1    3    3  502    0 -0.30466622937E+03  0.17012218032E+03  0.76826045753E+03  0.84379333854E+03  0.25500000920E-02 0.  1.
       -2    1    3    3    0  502  0.30466622937E+03 -0.17012218032E+03  0.62671864981E+03  0.71731397141E+03  0.25500000920E-02 0. -1.
</event>
<event>
 5   0  0.1973067E-02  0.7017143E+03  0.7818609E-02  0.9714305E-01
        2   -1    0    0  501    0  0.00000000000E+00  0.00000000000E+00  0.32853579948E+03  0.32853579949E+03  0.25500000920E-02 0. -1.
       -2   -1    0    0    0  501  0.00000000000E+00  0.00000000000E+00 -0.37469503191E+03  0.37469503192E+03  0.25500000920E-02 0.  1.
    10030    2    1    2    0    0  0.00000000000E+00  0.00000000000E+00 -0.46159232432E+02  0.70323083140E+03  0.70171427768E+03 0.  0.
        5    1    3    3  502    0  0.95609220898E+01  0.27820431615E+03 -0.23705825919E+03  0.36566071843E+03  0.46999998093E+01 0.  1.
       -5    1    3    3    0  502 -0.95609220898E+01 -0.27820431615E+03  0.19089902675E+03  0.33757011297E+03  0.46999998093E+01 0. -1.
</event>
<event>
 5   0  0.1226303E-02  0.7002478E+03  0.7818609E-02  0.9716809E-01
       -1   -1    0    0    0  501  0.00000000000E+00  0.00000000000E+00  0.12220018591E+03  0.12220018601E+03  0.50400001928E-02 0.  1.
        1   -1    0    0  501    0  0.00000000000E+00  0.00000000000E+00 -0.10031632977E+04  0.10031632977E+04  0.50400001928E-02 0. -1.
    10030    2    1    2    0    0  0.00000000000E+00  0.00000000000E+00 -0.88096311178E+03  0.11253634837E+04  0.70024778911E+03 0.  0.
        4    1    3    3  502    0  0.29727679575E+03 -0.16453506441E+03 -0.30468600116E+03  0.45637753331E+03  0.12699999809E+01 0. -1.
       -4    1    3    3    0  502 -0.29727679575E+03  0.16453506441E+03 -0.57627711062E+03  0.66898595040E+03  0.12699999809E+01 0.  1.
</event>
<event>
 5   0  0.1237686E-02  0.6986723E+03  0.7818609E-02  0.9719505E-01
        1   -1    0    0  501    0  0.00000000000E+00  0.00000000000E+00  0.20858406005E+04  0.20858406005E+04  0.50400001928E-02 0. -1.
       -1   -1    0    0    0  501  0.00000000000E+00  0.00000000000E+00 -0.58506747750E+02  0.58506747967E+02  0.50400001928E-02 0.  1.
    10030    2    1    2    0    0  0.00000000000E+00  0.00000000000E+00  0.20273338527E+04  0.21443473485E+04  0.69867231260E+03 0.  0.
        5    1    3    3  502    0  0.30632902127E+03 -0.16659283027E+03  0.10767920025E+04  0.11318541192E+04  0.46999998093E+01 0. -1.
       -5    1    3    3    0  502 -0.30632902127E+03  0.16659283027E+03  0.95054185020E+03  0.10124932293E+04  0.46999998093E+01 0.  1.
</event>
<event>
 5   0  0.1237686E-02  0.7004032E+03  0.7818609E-02  0.9716543E-01
       -1   -1    0    0    0  501  0.00000000000E+00  0.00000000000E+00  0.10263772640E+03  0.10263772652E+03  0.50400001928E-02 0.  1.
        1   -1    0    0  501    0  0.00000000000E+00  0.00000000000E+00 -0.11948934776E+04  0.11948934776E+04  0.50400001928E-02 0. -1.
    10030    2    1    2    0    0  0.00000000000E+00  0.00000000000E+00 -0.10922557512E+04  0.12975312041E+04  0.70040316937E+03 0.  0.
        5    1    3    3  502    0  0.84717079370E+02 -0.61693154268E+02 -0.11651011564E+04  0.11698144398E+04  0.46999998093E+01 0. -1.
       -5    1    3    3    0  502 -0.84717079370E+02  0.61693154268E+02  0.72845405263E+02  0.12771676431E+03  0.46999998093E+01 0.  1.
</event>
<event>
 5   0  0.1237686E-02  0.7206644E+03  0.7818609E-02  0.9682532E-01
        1   -1    0    0  501    0  0.00000000000E+00  0.00000000000E+00  0.46308959413E+03  0.46308959416E+03  0.50400001928E-02 0.  1.
       -1   -1    0    0    0  501  0.00000000000E+00  0.00000000000E+00 -0.28037616955E+03  0.28037616960E+03  0.50400001928E-02 0. -1.
    10030    2    1    2    0    0  0.00000000000E+00  0.00000000000E+00  0.18271342458E+03  0.74346576376E+03  0.72066437845E+03 0.  0.
        5    1    3    3  502    0  0.31690639155E+03  0.80557692011E+02 -0.64751818166E+02  0.33336780094E+03  0.46999998093E+01 0. -1.
       -5    1    3    3    0  502 -0.31690639155E+03 -0.80557692011E+02  0.24746524275E+03  0.41009796282E+03  0.46999998093E+01 0.  1.
</event>
<event>
 5   0  0.1948138E-02  0.7013685E+03  0.7818609E-02  0.9714895E-01
       -2   -1    0    0    0  501  0.00000000000E+00  0.00000000000E+00  0.78131019359E+02  0.78131019401E+02  0.25500000920E-02 0. -1.
        2   -1    0    0  501    0  0.00000000000E+00  0.00000000000E+00 -0.15740154462E+04  0.15740154462E+04  0.25500000920E-02 0.  1.
    10030    2    1    2    0    0  0.00000000000E+00  0.00000000000E+00 -0.14958844269E+04  0.16521464656E+04  0.70136846618E+03 0.  0.
        3    1    3    3  502    0  0.19360242312E+03 -0.17464621042E+03 -0.13003613899E+04  0.13262439262E+04  0.10100000352E+00 0.  1.
       -3    1    3    3    0  502 -0.19360242312E+03  0.17464621042E+03 -0.19552303693E+03  0.32590253946E+03  0.10100000352E+00 0. -1.
</event>
<event>
 5   0  0.1237686E-02  0.7027074E+03  0.7818609E-02  0.9712613E-01
        1   -1    0    0  501    0  0.00000000000E+00  0.00000000000E+00  0.54854149928E+03  0.54854149930E+03  0.50400001928E-02 0. -1.
       -1   -1    0    0    0  501  0.00000000000E+00  0.00000000000E+00 -0.22505030134E+03  0.22505030139E+03  0.50400001928E-02 0.  1.
    10030    2    1    2    0    0  0.00000000000E+00  0.00000000000E+00  0.32349119794E+03  0.77359180069E+03  0.70270742059E+03 0.  0.
        5    1    3    3  502    0  0.17983349219E+02  0.29027859309E+03  0.37871058883E+03  0.47752367747E+03  0.46999998093E+01 0. -1.
       -5    1    3    3    0  502 -0.17983349219E+02 -0.29027859309E+03 -0.55219390891E+02  0.29606812322E+03  0.46999998093E+01 0.  1.
</event>
<event>
 5   0  0.1237686E-02  0.6983762E+03  0.7818609E-02  0.9720013E-01
        1   -1    0    0  501    0  0.00000000000E+00  0.00000000000E+00  0.41082789779E+03  0.41082789782E+03  0.50400001928E-02 0. -1.
       -1   -1    0    0    0  501  0.00000000000E+00  0.00000000000E+00 -0.29679659765E+03  0.29679659770E+03  0.50400001928E-02 0.  1.
    10030    2    1    2    0    0  0.00000000000E+00  0.00000000000E+00  0.11403130014E+03  0.70762449552E+03  0.69837618033E+03 0.  0.
        5    1    3    3  502    0 -0.32216710258E+02 -0.13427453282E+03  0.38195335039E+03  0.40617486192E+03  0.46999998093E+01 0. -1.
       -5    1    3    3    0  502  0.32216710258E+02  0.13427453282E+03 -0.26792205025E+03  0.30144963360E+03  0.46999998093E+01 0.  1.
</event>
<event>
 5   0  0.1948138E-02  0.7043156E+03  0.7818609E-02  0.9709880E-01
        2   -1    0    0  501    0  0.00000000000E+00  0.00000000000E+00  0.32994166957E+03  0.32994166958E+03  0.25500000920E-02 0.  1.
       -2   -1    0    0    0  501  0.00000000000E+00  0.00000000000E+00 -0.37586976759E+03  0.37586976760E+03  0.25500000920E-02 0. -1.
    10030    2    1    2    0    0  0.00000000000E+00  0.00000000000E+00 -0.45928098022E+02  0.70581143718E+03  0.70431555049E+03 0.  0.
        3    1    3    3  502    0 -0.34550532591E+03 -0.50136708303E+02 -0.69186503647E+02  0.35591347578E+03  0.10100000352E+00 0.  1.
       -3    1    3    3    0  502  0.34550532591E+03  0.50136708303E+02  0.23258405625E+02  0.34989796139E+03  0.10100000352E+00 0. -1.
</event>
<event>
 5   0  0.1909053E-02  0.6956111E+03  0.7818609E-02  0.9724767E-01
        2   -1    0    0  501    0  0.00000000000E+00  0.00000000000E+00  0.27192745319E+03  0.27192745320E+03  0.25500000920E-02 0. -1.
       -2   -1    0    0    0  501  0.00000000000E+00  0.00000000000E+00 -0.44485649974E+03  0.44485649975E+03  0.25500000920E-02 0.  1.
    10030    2    1    2    0    0  0.00000000000E+00  0.00000000000E+00 -0.17292904655E+03  0.71678395295E+03  0.69561108392E+03 0.  0.
        1    1    3    3  502    0 -0.92584894674E+02 -0.29918092376E+02 -0.43054688313E+03  0.44140420656E+03  0.50400001928E-02 0.  1.
       -1    1    3    3    0  502  0.92584894674E+02  0.29918092376E+02  0.25761783658E+03  0.27537974639E+03  0.50400001928E-02 0. -1.
</event>
<event>
 5   0  0.2006362E-02  0.7000452E+03  0.7818609E-02  0.9717155E-01
        2   -1    0    0  501    0  0.00000000000E+00  0.00000000000E+00  0.50324891606E+03  0.50324891606E+03  0.25500000920E-02 0. -1.
       -2   -1    0    0    0  501  0.00000000000E+00  0.00000000000E+00 -0.24344971496E+03  0.24344971498E+03  0.25500000920E-02 0.  1.
    10030    2    1    2    0    0  0.00000000000E+00  0.00000000000E+00  0.25979920109E+03  0.74669863104E+03  0.70004515619E+03 0.  0.
        4    1    3    3  502    0 -0.13019966422E+03 -0.24324083288E+03 -0.99852881027E+02  0.29341142802E+03  0.12699999809E+01 0. -1.
       -4    1    3    3    0  502  0.13019966422E+03  0.24324083288E+03  0.35965208212E+03  0.45328720302E+03  0.12699999809E+01 0.  1.
</event>
<event>
 5   0  0.1223742E-02  0.6987019E+03  0.7818609E-02  0.9719455E-01
       -1   -1    0    0    0  501  0.00000000000E+00  0.00000000000E+00  0.14771125629E+03  0.14771125637E+03  0.50400001928E-02 0.  1.
        1   -1    0    0  501    0  0.00000000000E+00  0.00000000000E+00 -0.82624759734E+03  0.82624759735E+03  0.50400001928E-02 0. -1.
    10030    2    1    2    0    0  0.00000000000E+00  0.00000000000E+00 -0.67853634105E+03  0.97395885373E+03  0.69870185532E+03 0.  0.
        2    1    3    3  502    0 -0.18655411309E+03 -0.28266150016E+03 -0.21979306492E+03  0.40374367137E+03  0.25500000920E-02 0.  1.
       -2    1    3    3    0  502  0.18655411309E+03  0.28266150016E+03 -0.45874327613E+03  0.57021518235E+03  0.25500000920E-02 0. -1.
</event>
<event>
 5   0  0.1973067E-02  0.7037139E+03  0.7818609E-02  0.9710902E-01
        2   -1    0    0  501    0  0.00000000000E+00  0.00000000000E+00  0.10681872098E+04  0.10681872098E+04  0.25500000920E-02 0.  1.
       -2   -1    0    0    0  501  0.00000000000E+00  0.00000000000E+00 -0.11590037918E+03  0.11590037920E+03  0.25500000920E-02 0. -1.
    10030    2    1    2    0    0  0.00000000000E+00  0.00000000000E+00  0.95228683060E+03  0.11840875890E+04  0.70371386987E+03 0.  0.
        5    1    3    3  502    0  0.29584321306E+03 -0.65394452080E+02  0.17523272367E+03  0.35004033842E+03  0.46999998093E+01 0. -1.
       -5    1    3    3    0  502 -0.29584321306E+03  0.65394452080E+02  0.77705410693E+03  0.83404725056E+03  0.46999998093E+01 0.  1.
</event>
<event>
 5   0  0.1226303E-02  0.6964467E+03  0.7818609E-02  0.9723328E-01
       -1   -1    0    0    0  501  0.00000000000E+00  0.00000000000E+00  0.45770553546E+03  0.45770553549E+03  0.50400001928E-02 0. -1.
        1   -1    0    0  501    0  0.00000000000E+00  0.00000000000E+00 -0.26492909453E+03  0.26492909458E+03  0.50400001928E-02 0.  1.
    10030    2    1    2    0    0  0.00000000000E+00  0.00000000000E+00  0.19277644093E+03  0.72263463007E+03  0.69644673335E+03 0.  0.
        4    1    3    3  502    0  0.88976274821E+02  0.33655667397E+03  0.10511444364E+03  0.36364519994E+03  0.12699999809E+01 0. -1.
       -4    1    3    3    0  502 -0.88976274821E+02 -0.33655667397E+03  0.87661997298E+02  0.35898943013E+03  0.12699999809E+01 0.  1.
</event>
<event>
 5   0  0.1909053E-02  0.6890959E+03  0.7818609E-02  0.9736063E-01
        2   -1    0    0  501    0  0.00000000000E+00  0.00000000000E+00  0.95304605560E+03  0.95304605560E+03  0.25500000920E-02 0.  1.
       -2   -1    0    0    0  501  0.00000000000E+00  0.00000000000E+00 -0.12456197546E+03  0.12456197549E+03  0.25500000920E-02 0. -1.
    10030    2    1    2    0    0  0.00000000000E+00  0.00000000000E+00  0.82848408014E+03  0.10776080311E+04  0.68909592774E+03 0.  0.
        1    1    3    3  502    0 -0.31298521682E+03  0.13384724454E+03  0.33092704360E+03  0.47474997528E+03  0.50400001928E-02 0.  1.
       -1    1    3    3    0  502  0.31298521682E+03 -0.13384724454E+03  0.49755703653E+03  0.60285805581E+03  0.50400001928E-02 0. -1.
</event>
<event>
 5   0  0.1973067E-02  0.6979260E+03  0.7818609E-02  0.9720786E-01
       -2   -1    0    0    0  501  0.00000000000E+00  0.00000000000E+00  0.19105394405E+03  0.19105394406E+03  0.25500000920E-02 0.  1.
        2   -1    0    0  501    0  0.00000000000E+00  0.00000000000E+00 -0.63738631636E+03  0.63738631637E+03  0.25500000920E-02 0. -1.
    10030    2    1    2    0    0  0.00000000000E+00  0.00000000000E+00 -0.44633237232E+03  0.82844026043E+03  0.69792598355E+03 0.  0.
        5    1    3    3  502    0  0.97082673590E+02 -0.29771777462E+03 -0.40587275635E+03  0.51265554047E+03  0.46999998093E+01 0. -1.
       -5    1    3    3    0  502 -0.97082673590E+02  0.29771777462E+03 -0.40459615964E+02  0.31578471995E+03  0.46999998093E+01 0.  1.
</event>
<event>
 5   0  0.2026361E-02  0.6987262E+03  0.7818609E-02  0.9719413E-01
       -2   -1    0    0    0  501  0.00000000000E+00  0.00000000000E+00  0.78400808946E+02  0.78400808987E+02  0.25500000920E-02 0.  1.
        2   -1    0    0  501    0  0.00000000000E+00  0.00000000000E+00 -0.15568026129E+04  0.15568026129E+04  0.25500000920E-02 0. -1.
    10030    2    1    2    0    0  0.00000000000E+00  0.00000000000E+00 -0.14784018039E+04  0.16352034219E+04  0.69872622465E+03 0.  0.
        2    1    3    3  502    0 -0.29636927014E+03 -0.17666587103E+02 -0.11701382280E+04  0.12072159398E+04  0.25500000920E-02 0. -1.
       -2    1    3    3    0  502  0.29636927014E+03  0.17666587103E+02 -0.30826357592E+03  0.42798748210E+03  0.25500000920E-02 0.  1.
</event>
<event>
 5   0  0.1257442E-02  0.6992360E+03  0.7818609E-02  0.9718540E-01
       -1   -1    0    0    0  501  0.00000000000E+00  0.00000000000E+00  0.75872072071E+02  0.75872072239E+02  0.50400001928E-02 0. -1.
        1   -1    0    0  501    0  0.00000000000E+00  0.00000000000E+00 -0.16110372382E+04  0.16110372382E+04  0.50400001928E-02 0.  1.
    10030    2    1    2    0    0  0.00000000000E+00  0.00000000000E+00 -0.15351651661E+04  0.16869093104E+04  0.69923596473E+03 0.  0.
        1    1    3    3  502    0  0.75488689446E+02 -0.14429324541E+03 -0.21211305923E+02  0.16422241756E+03  0.50400001928E-02 0. -1.
       -1    1    3    3    0  502 -0.75488689446E+02  0.14429324541E+03 -0.15139538602E+04  0.15226868929E+04  0.50400001928E-02 0.  1.
</event>
<event>
 5   0  0.1226303E-02  0.7048282E+03  0.7818609E-02  0.9709011E-01
       -1   -1    0    0    0  501  0.00000000000E+00  0.00000000000E+00  0.31888705982E+03  0.31888705986E+03  0.50400001928E-02 0. -1.
        1   -1    0    0  501    0  0.00000000000E+00  0.00000000000E+00 -0.38946606032E+03  0.38946606035E+03  0.50400001928E-02 0.  1.
    10030    2    1    2    0    0  0.00000000000E+00  0.00000000000E+00 -0.70579000499E+02  0.70835312021E+03  0.70482816885E+03 0.  0.
        4    1    3    3  502    0 -0.14563262088E+01 -0.18642070615E+03 -0.33584915968E+03  0.38412377110E+03  0.12699999809E+01 0.  1.
       -4    1    3    3    0  502  0.14563262088E+01  0.18642070615E+03  0.26527015918E+03  0.32422934911E+03  0.12699999809E+01 0. -1.
</event>
<event>
 5   0  0.2026361E-02  0.6989240E+03  0.7818609E-02  0.9719074E-01
       -2   -1    0    0    0  501  0.00000000000E+00  0.00000000000E+00  0.28803462021E+03  0.28803462022E+03  0.25500000920E-02 0.  1.
        2   -1    0    0  501    0  0.00000000000E+00  0.00000000000E+00 -0.42398967828E+03  0.42398967829E+03  0.25500000920E-02 0. -1.
    10030    2    1    2    0    0  0.00000000000E+00  0.00000000000E+00 -0.13595505807E+03  0.71202429851E+03  0.69892404727E+03 0.  0.
        2    1    3    3  502    0  0.23780095662E+03  0.10386338532E+02 -0.32863759989E+03  0.40578299997E+03  0.25500000920E-02 0. -1.
       -2    1    3    3    0  502 -0.23780095662E+03 -0.10386338532E+02  0.19268254182E+03  0.30624129853E+03  0.25500000920E-02 0.  1.
</event>
<event>
 5   0  0.1973067E-02  0.6983864E+03  0.7818609E-02  0.9719996E-01
       -2   -1    0    0    0  501  0.00000000000E+00  0.00000000000E+00  0.13661167516E+03  0.13661167518E+03  0.25500000920E-02 0.  1.
        2   -1    0    0  501    0  0.00000000000E+00  0.00000000000E+00 -0.89257308623E+03  0.89257308623E+03  0.25500000920E-02 0. -1.
    10030    2    1    2    0    0  0.00000000000E+00  0.00000000000E+00 -0.75596141107E+03  0.10291847614E+04  0.69838643894E+03 0.  0.
        5    1    3    3  502    0 -0.19246977210E+03  0.18827845612E+03 -0.50375507205E+02  0.27395833978E+03  0.46999998093E+01 0.  1.
       -5    1    3    3    0  502  0.19246977210E+03 -0.18827845612E+03 -0.70558590386E+03  0.75522642164E+03  0.46999998093E+01 0. -1.
</event>
<event>
 5   0  0.1226303E-02  0.7007536E+03  0.7818609E-02  0.9715944E-01
       -1   -1    0    0    0  501  0.00000000000E+00  0.00000000000E+00  0.55803034985E+02  0.55803035212E+02  0.50400001928E-02 0.  1.
        1   -1    0    0  501    0  0.00000000000E+00  0.00000000000E+00 -0.21999502880E+04  0.21999502880E+04  0.50400001928E-02 0. -1.
    10030    2    1    2    0    0  0.00000000000E+00  0.00000000000E+00 -0.21441472530E+04  0.22557533232E+04  0.70075360334E+03 0.  0.
        4    1    3    3  502    0 -0.35606046054E+02 -0.64721345967E+02  0.30444468519E+02  0.79906956535E+02  0.12699999809E+01 0.  1.
       -4    1    3    3    0  502  0.35606046054E+02  0.64721345967E+02 -0.21745917215E+04  0.21758463667E+04  0.12699999809E+01 0. -1.
</event>
<event>
 5   0  0.1223742E-02  0.7007764E+03  0.7818609E-02  0.9715905E-01
        1   -1    0    0  501    0  0.00000000000E+00  0.00000000000E+00  0.17617963961E+04  0.17617963961E+04  0.50400001928E-02 0.  1.
       -1   -1    0    0    0  501  0.00000000000E+00  0.00000000000E+00 -0.69685628655E+02  0.69685628837E+02  0.50400001928E-02 0. -1.
    10030    2    1    2    0    0  0.00000000000E+00  0.00000000000E+00  0.16921107674E+04  0.18314820249E+04  0.70077639685E+03 0.  0.
        2    1    3    3  502    0  0.14326156990E+03  0.97818788370E+02  0.50418278698E+02  0.18064992555E+03  0.25500000920E-02 0. -1.
       -2    1    3    3    0  502 -0.14326156990E+03 -0.97818788370E+02  0.16416924887E+04  0.16508320994E+04  0.25500000920E-02 0.  1.
</event>
<event>
 5   0  0.7947250E-03  0.6994879E+03  0.7818609E-02  0.9718108E-01
       -3   -1    0    0    0  501  0.00000000000E+00  0.00000000000E+00  0.70470890457E+03  0.70470891181E+03  0.10100000352E+00 0. -1.
        3   -1    0    0  501    0  0.00000000000E+00  0.00000000000E+00 -0.17357634837E+03  0.17357637776E+03  0.10100000352E+00 0.  1.
    10030    2    1    2    0    0  0.00000000000E+00  0.00000000000E+00  0.53113255620E+03  0.87828528956E+03  0.69948785380E+03 0.  0.
        3    1    3    3  502    0 -0.40505732686E+02 -0.19239055315E+03  0.62875290032E+03  0.65877542394E+03  0.10100000352E+00 0. -1.
       -3    1    3    3    0  502  0.40505732686E+02  0.19239055315E+03 -0.97620344122E+02  0.21950986563E+03  0.10100000352E+00 0.  1.
</event>
<event>
 5   0  0.2006362E-02  0.7020852E+03  0.7818609E-02  0.9713673E-01
       -2   -1    0    0    0  501  0.00000000000E+00  0.00000000000E+00  0.12908686638E+03  0.12908686640E+03  0.25500000920E-02 0.  1.
        2   -1    0    0  501    0  0.00000000000E+00  0.00000000000E+00 -0.95463540110E+03  0.95463540110E+03  0.25500000920E-02 0. -1.
    10030    2    1    2    0    0  0.00000000000E+00  0.00000000000E+00 -0.82554853472E+03  0.10837222675E+04  0.70208515858E+03 0.  0.
        4    1    3    3  502    0 -0.55286589202E+02  0.87422991895E+02 -0.93057440035E+03  0.93630642097E+03  0.12699999809E+01 0. -1.
       -4    1    3    3    0  502  0.55286589202E+02 -0.87422991895E+02  0.10502586563E+03  0.14741584653E+03  0.12699999809E+01 0.  1.
</event>
<event>
 5   0  0.1237686E-02  0.7080350E+03  0.7818609E-02  0.9703589E-01
        1   -1    0    0  501    0  0.00000000000E+00  0.00000000000E+00  0.56129279749E+03  0.56129279751E+03  0.50400001928E-02 0. -1.
       -1   -1    0    0    0  501  0.00000000000E+00  0.00000000000E+00 -0.22328523877E+03  0.22328523883E+03  0.50400001928E-02 0.  1.
    10030    2    1    2    0    0  0.00000000000E+00  0.00000000000E+00  0.33800755871E+03  0.78457803634E+03  0.70803501704E+03 0.  0.
        5    1    3    3  502    0 -0.16507684726E+03  0.28207557605E+03  0.18328583708E+02  0.32737596595E+03  0.46999998093E+01 0.  1.
       -5    1    3    3    0  502  0.16507684726E+03 -0.28207557605E+03  0.31967897500E+03  0.45720207038E+03  0.46999998093E+01 0. -1.
</event>
<event>
 5   0  0.2006362E-02  0.7009406E+03  0.7818609E-02  0.9715625E-01
       -2   -1    0    0    0  501  0.00000000000E+00  0.00000000000E+00  0.87811556738E+02  0.87811556775E+02  0.25500000920E-02 0. -1.
        2   -1    0    0  501    0  0.00000000000E+00  0.00000000000E+00 -0.13987845028E+04  0.13987845028E+04  0.25500000920E-02 0.  1.
    10030    2    1    2    0    0  0.00000000000E+00  0.00000000000E+00 -0.13109729460E+04  0.14865960595E+04  0.70094063874E+03 0.  0.
        4    1    3    3  502    0  0.70294848295E+02  0.32602461314E+03 -0.42711796735E+03  0.54190846552E+03  0.12699999809E+01 0. -1.
       -4    1    3    3    0  502 -0.70294848295E+02 -0.32602461314E+03 -0.88385497868E+03  0.94468759402E+03  0.12699999809E+01 0.  1.
</event>
<event>
 5   0  0.2006362E-02  0.7004810E+03  0.7818609E-02  0.9716410E-01
       -2   -1    0    0    0  501  0.00000000000E+00  0.00000000000E+00  0.67314624311E+02  0.67314624359E+02  0.25500000920E-02 0.  1.
        2   -1    0    0  501    0  0.00000000000E+00  0.00000000000E+00 -0.18223144208E+04  0.18223144208E+04  0.25500000920E-02 0. -1.
    10030    2    1    2    0    0  0.00000000000E+00  0.00000000000E+00 -0.17549997965E+04  0.18896290452E+04  0.70048100805E+03 0.  0.
        4    1    3    3  502    0  0.30024036109E+03  0.96706014112E+02 -0.12881270041E+04  0.13261859293E+04  0.12699999809E+01 0. -1.
       -4    1    3    3    0  502 -0.30024036109E+03 -0.96706014112E+02 -0.46687279241E+03  0.56344311584E+03  0.12699999809E+01 0.  1.
</event>
<event>
 5   0  0.1948138E-02  0.7026767E+03  0.7818609E-02  0.9712666E-01
        2   -1    0    0  501    0  0.00000000000E+00  0.00000000000E+00  0.11959120730E+04  0.11959120730E+04  0.25500000920E-02 0.  1.
       -2   -1    0    0    0  501  0.00000000000E+00  0.00000000000E+00 -0.10321714719E+03  0.10321714722E+03  0.25500000920E-02 0. -1.
    10030    2    1    2    0    0  0.00000000000E+00  0.00000000000E+00  0.10926949258E+04  0.12991292202E+04  0.70267668948E+03 0.  0.
        3    1    3    3  502    0  0.15620082666E+03  0.90792440926E+02  0.11034456346E+04  0.11181387411E+04  0.10100000352E+00 0.  1.
       -3    1    3    3    0  502 -0.15620082666E+03 -0.90792440926E+02 -0.10750708854E+02  0.18099047909E+03  0.10100000352E+00 0. -1.
</event>
<event>
 5   0  0.1223742E-02  0.7013696E+03  0.7818609E-02  0.9714893E-01
       -1   -1    0    0    0  501  0.00000000000E+00  0.00000000000E+00  0.32877808889E+03  0.32877808893E+03  0.50400001928E-02 0.  1.
        1   -1    0    0  501    0  0.00000000000E+00  0.00000000000E+00 -0.37405115497E+03  0.37405115500E+03  0.50400001928E-02 0. -1.
    10030    2    1    2    0    0  0.00000000000E+00  0.00000000000E+00 -0.45273066075E+02  0.70282924394E+03  0.70136958561E+03 0.  0.
        2    1    3    3  502    0 -0.33182694211E+03  0.59163815489E+02 -0.11963854430E+03  0.35766305073E+03  0.25500000920E-02 0. -1.
       -2    1    3    3    0  502  0.33182694211E+03 -0.59163815489E+02  0.74365478229E+02  0.34516619320E+03  0.25500000920E-02 0.  1.
</event>
<event>
 5   0  0.1226303E-02  0.7027087E+03  0.7818609E-02  0.9712611E-01
       -1   -1    0    0    0  501  0.00000000000E+00  0.00000000000E+00  0.88041044620E+02  0.88041044764E+02  0.50400001928E-02 0. -1.
        1   -1    0    0  501    0  0.00000000000E+00  0.00000000000E+00 -0.14021855273E+04  0.14021855273E+04  0.50400001928E-02 0.  1.
    10030    2    1    2    0    0  0.00000000000E+00  0.00000000000E+00 -0.13141444827E+04  0.14902265721E+04  0.70270869837E+03 0.  0.
        4    1    3    3  502    0 -0.79525529757E+02  0.30532305642E+03 -0.32920942837E+03  0.45599006490E+03  0.12699999809E+01 0. -1.
       -4    1    3    3    0  502  0.79525529757E+02 -0.30532305642E+03 -0.98493505434E+03  0.10342365072E+04  0.12699999809E+01 0.  1.
</event>
<event>
 5   0  0.1237686E-02  0.6458686E+03  0.7818609E-02  0.9814562E-01
       -1   -1    0    0    0  501  0.00000000000E+00  0.00000000000E+00  0.94488841697E+02  0.94488841832E+02  0.50400001928E-02 0. -1.
        1   -1    0    0  501    0  0.00000000000E+00  0.00000000000E+00 -0.11036918707E+04  0.11036918707E+04  0.50400001928E-02 0.  1.
    10030    2    1    2    0    0  0.00000000000E+00  0.00000000000E+00 -0.10092030290E+04  0.11981807126E+04  0.64586861370E+03 0.  0.
        5    1    3    3  502    0  0.29340407381E+03 -0.46445408946E+02 -0.26978550781E+03  0.40130965197E+03  0.46999998093E+01 0. -1.
       -5    1    3    3    0  502 -0.29340407381E+03  0.46445408946E+02 -0.73941752121E+03  0.79687106059E+03  0.46999998093E+01 0.  1.
</event>
<event>
 5   0  0.1909053E-02  0.7090732E+03  0.7818609E-02  0.9701840E-01
        2   -1    0    0  501    0  0.00000000000E+00  0.00000000000E+00  0.36222406570E+03  0.36222406571E+03  0.25500000920E-02 0.  1.
       -2   -1    0    0    0  501  0.00000000000E+00  0.00000000000E+00 -0.34701225150E+03  0.34701225151E+03  0.25500000920E-02 0. -1.
    10030    2    1    2    0    0  0.00000000000E+00  0.00000000000E+00  0.15211814200E+02  0.70923631723E+03  0.70907316575E+03 0.  0.
        1    1    3    3  502    0 -0.59626033866E+02  0.34546092477E+03 -0.45299307178E+02  0.35348343910E+03  0.50400001928E-02 0.  1.
       -1    1    3    3    0  502  0.59626033866E+02 -0.34546092477E+03  0.60511121377E+02  0.35575287813E+03  0.50400001928E-02 0. -1.
</event>
<event>
 5   0  0.1973067E-02  0.6961102E+03  0.7818609E-02  0.9723907E-01
        2   -1    0    0  501    0  0.00000000000E+00  0.00000000000E+00  0.10976900619E+04  0.10976900619E+04  0.25500000920E-02 0.  1.
       -2   -1    0    0    0  501  0.00000000000E+00  0.00000000000E+00 -0.11036116326E+03  0.11036116329E+03  0.25500000920E-02 0. -1.
    10030    2    1    2    0    0  0.00000000000E+00  0.00000000000E+00  0.98732889868E+03  0.12080512252E+04  0.69611019862E+03 0.  0.
        5    1    3    3  502    0 -0.19558717306E+02  0.34568628262E+03  0.43258534542E+03  0.55410623574E+03  0.46999998093E+01 0.  1.
       -5    1    3    3    0  502  0.19558717306E+02 -0.34568628262E+03  0.55474355325E+03  0.65394498949E+03  0.46999998093E+01 0. -1.
</event>
<event>
 5   0  0.2006362E-02  0.7014292E+03  0.7818609E-02  0.9714791E-01
        2   -1    0    0  501    0  0.00000000000E+00  0.00000000000E+00  0.14193273329E+04  0.14193273329E+04  0.25500000920E-02 0. -1.
       -2   -1    0    0    0  501  0.00000000000E+00  0.00000000000E+00 -0.86661290272E+02  0.86661290309E+02  0.25500000920E-02 0.  1.
    10030    2    1    2    0    0  0.00000000000E+00  0.00000000000E+00  0.13326660426E+04  0.15059886232E+04  0.70142922099E+03 0.  0.
        4    1    3    3  502    0  0.32810332448E+03  0.12308302654E+03  0.63612911601E+03  0.72626654067E+03  0.12699999809E+01 0. -1.
       -4    1    3    3    0  502 -0.32810332448E+03 -0.12308302654E+03  0.69653692659E+03  0.77972208251E+03  0.12699999809E+01 0.  1.
</event>
<event>
 5   0  0.1237686E-02  0.7115348E+03  0.7818609E-02  0.9697707E-01
       -1   -1    0    0    0  501  0.00000000000E+00  0.00000000000E+00  0.72882944750E+03  0.72882944752E+03  0.50400001928E-02 0.  1.
        1   -1    0    0  501    0  0.00000000000E+00  0.00000000000E+00 -0.17366265843E+03  0.17366265850E+03  0.50400001928E-02 0. -1.
    10030    2    1    2    0    0  0.00000000000E+00  0.00000000000E+00  0.55516678908E+03  0.90249210602E+03  0.71153484647E+03 0.  0.
        5    1    3    3  502    0  0.20255464198E+03 -0.25215173271E+03  0.89712067412E+02  0.33567726217E+03  0.46999998093E+01 0. -1.
       -5    1    3    3    0  502 -0.20255464198E+03  0.25215173271E+03  0.46545472166E+03  0.56681484386E+03  0.46999998093E+01 0.  1.
</event>
<event>
 5   0  0.1257442E-02  0.6972040E+03  0.7818609E-02  0.9722026E-01
       -1   -1    0    0    0  501  0.00000000000E+00  0.00000000000E+00  0.12698798139E+03  0.12698798149E+03  0.50400001928E-02 0.  1.
        1   -1    0    0  501    0  0.00000000000E+00  0.00000000000E+00 -0.95696733931E+03  0.95696733933E+03  0.50400001928E-02 0. -1.
    10030    2    1    2    0    0  0.00000000000E+00  0.00000000000E+00 -0.82997935792E+03  0.10839553208E+04  0.69720398949E+03 0.  0.
        1    1    3    3  502    0 -0.25092323651E+03 -0.23058349032E+03 -0.30082497376E+03  0.45456229661E+03  0.50400001928E-02 0. -1.
       -1    1    3    3    0  502  0.25092323651E+03  0.23058349032E+03 -0.52915438416E+03  0.62939302421E+03  0.50400001928E-02 0.  1.
</event>
<event>
 5   0  0.7947250E-03  0.6893673E+03  0.7818609E-02  0.9735590E-01
       -4   -1    0    0    0  501  0.00000000000E+00  0.00000000000E+00  0.43206419959E+03  0.43206606609E+03  0.12699999809E+01 0.  1.
        4   -1    0    0  501    0  0.00000000000E+00  0.00000000000E+00 -0.27497098983E+03  0.27497392267E+03  0.12699999809E+01 0. -1.
    10030    2    1    2    0    0  0.00000000000E+00  0.00000000000E+00  0.15709320975E+03  0.70703998876E+03  0.68936729626E+03 0.  0.
        1    1    3    3  502    0 -0.38073775078E+02 -0.31771456206E+03 -0.52857602994E+02  0.32432403783E+03  0.50400001928E-02 0. -1.
       -1    1    3    3    0  502  0.38073775078E+02  0.31771456206E+03  0.20995081275E+03  0.38271595093E+03  0.50400001928E-02 0.  1.
</event>
<event>
 5   0  0.1223742E-02  0.6985603E+03  0.7818609E-02  0.9719697E-01
        1   -1    0    0  501    0  0.00000000000E+00  0.00000000000E+00  0.20896217395E+03  0.20896217401E+03  0.50400001928E-02 0.  1.
       -1   -1    0    0    0  501  0.00000000000E+00  0.00000000000E+00 -0.58382159308E+03  0.58382159310E+03  0.50400001928E-02 0. -1.
    10030    2    1    2    0    0  0.00000000000E+00  0.00000000000E+00 -0.37485941913E+03  0.79278376711E+03  0.69856031757E+03 0.  0.
        2    1    3    3  502    0 -0.22733502981E+03  0.24511670922E+03 -0.72625759336E+02  0.34210804995E+03  0.25500000920E-02 0.  1.
       -2    1    3    3    0  502  0.22733502981E+03 -0.24511670922E+03 -0.30223365980E+03  0.45067571716E+03  0.25500000920E-02 0. -1.
</event>
<event>
 5   0  0.1197259E-02  0.7005430E+03  0.7818609E-02  0.9716304E-01
        1   -1    0    0  501    0  0.00000000000E+00  0.00000000000E+00  0.94732451145E+03  0.94732451146E+03  0.50400001928E-02 0. -1.
       -1   -1    0    0    0  501  0.00000000000E+00  0.00000000000E+00 -0.12951223068E+03  0.12951223078E+03  0.50400001928E-02 0.  1.
    10030    2    1    2    0    0  0.00000000000E+00  0.00000000000E+00  0.81781228077E+03  0.10768367422E+04  0.70054296291E+03 0.  0.
        3    1    3    3  502    0  0.18292073590E+03 -0.11905543518E+02  0.86770843352E+03  0.88685944399E+03  0.10100000352E+00 0. -1.
       -3    1    3    3    0  502 -0.18292073590E+03  0.11905543518E+02 -0.49896152758E+02  0.18997729825E+03  0.10100000352E+00 0.  1.
</event>
<event>
 5   0  0.1909053E-02  0.6994552E+03  0.7818609E-02  0.9718164E-01
       -2   -1    0    0    0  501  0.00000000000E+00  0.00000000000E+00  0.40932101155E+03  0.40932101155E+03  0.25500000920E-02 0.  1.
        2   -1    0    0  501    0  0.00000000000E+00  0.00000000000E+00 -0.29881042822E+03  0.29881042823E+03  0.25500000920E-02 0. -1.
    10030    2    1    2    0    0  0.00000000000E+00  0.00000000000E+00  0.11051058332E+03  0.70813143979E+03  0.69945517868E+03 0.  0.
        1    1    3    3  502    0 -0.12275297185E+03  0.32168509531E+03  0.11733304867E+03  0.36375353878E+03  0.50400001928E-02 0.  1.
       -1    1    3    3    0  502  0.12275297185E+03 -0.32168509531E+03 -0.68224653469E+01  0.34437790100E+03  0.50400001928E-02 0. -1.
</event>
<event>
 5   0  0.1223742E-02  0.6997173E+03  0.7818609E-02  0.9717716E-01
        1   -1    0    0  501    0  0.00000000000E+00  0.00000000000E+00  0.42656729432E+03  0.42656729435E+03  0.50400001928E-02 0.  1.
       -1   -1    0    0    0  501  0.00000000000E+00  0.00000000000E+00 -0.28694433895E+03  0.28694433899E+03  0.50400001928E-02 0. -1.
    10030    2    1    2    0    0  0.00000000000E+00  0.00000000000E+00  0.13962295537E+03  0.71351163334E+03  0.69971728666E+03 0.  0.
        2    1    3    3  502    0 -0.14482045376E+01 -0.23940155219E+03 -0.19033731313E+03  0.30584880785E+03  0.25500000920E-02 0. -1.
       -2    1    3    3    0  502  0.14482045376E+01  0.23940155219E+03  0.32996026850E+03  0.40766282549E+03  0.25500000920E-02 0.  1.
</event>
<event>
 5   0  0.1226303E-02  0.6982073E+03  0.7818609E-02  0.9720303E-01
       -1   -1    0    0    0  501  0.00000000000E+00  0.00000000000E+00  0.77920471822E+02  0.77920471985E+02  0.50400001928E-02 0.  1.
        1   -1    0    0  501    0  0.00000000000E+00  0.00000000000E+00 -0.15640735315E+04  0.15640735315E+04  0.50400001928E-02 0. -1.
    10030    2    1    2    0    0  0.00000000000E+00  0.00000000000E+00 -0.14861530597E+04  0.16419940035E+04  0.69820726917E+03 0.  0.
        4    1    3    3  502    0  0.17958067063E+03 -0.20780461941E+03 -0.23628170297E+03  0.36230185366E+03  0.12699999809E+01 0.  1.
       -4    1    3    3    0  502 -0.17958067063E+03  0.20780461941E+03 -0.12498713567E+04  0.12796921498E+04  0.12699999809E+01 0. -1.
</event>
<event>
 5   0  0.2006362E-02  0.7099545E+03  0.7818609E-02  0.9700358E-01
       -2   -1    0    0    0  501  0.00000000000E+00  0.00000000000E+00  0.46572480349E+02  0.46572480419E+02  0.25500000920E-02 0.  1.
        2   -1    0    0  501    0  0.00000000000E+00  0.00000000000E+00 -0.27056505064E+04  0.27056505064E+04  0.25500000920E-02 0. -1.
    10030    2    1    2    0    0  0.00000000000E+00  0.00000000000E+00 -0.26590780261E+04  0.27522229868E+04  0.70995452006E+03 0.  0.
        4    1    3    3  502    0  0.26392006509E+02 -0.57406678002E+02  0.24589919402E+02  0.67811073749E+02  0.12699999809E+01 0.  1.
       -4    1    3    3    0  502 -0.26392006509E+02  0.57406678002E+02 -0.26836679455E+04  0.26844119131E+04  0.12699999809E+01 0. -1.
</event>
<event>
 5   0  0.1237686E-02  0.6971736E+03  0.7818609E-02  0.9722078E-01
        1   -1    0    0  501    0  0.00000000000E+00  0.00000000000E+00  0.52856197995E+03  0.52856197998E+03  0.50400001928E-02 0. -1.
       -1   -1    0    0    0  501  0.00000000000E+00  0.00000000000E+00 -0.22989310081E+03  0.22989310087E+03  0.50400001928E-02 0.  1.
    10030    2    1    2    0    0  0.00000000000E+00  0.00000000000E+00  0.29866887914E+03  0.75845508084E+03  0.69717358691E+03 0.  0.
        5    1    3    3  502    0 -0.28359622447E+03 -0.12517630487E+03 -0.24030310325E+02  0.31095895492E+03  0.46999998093E+01 0.  1.
       -5    1    3    3    0  502  0.28359622447E+03  0.12517630487E+03  0.32269918947E+03  0.44749612592E+03  0.46999998093E+01 0. -1.
</event>
<event>
 5   0  0.1237686E-02  0.6992437E+03  0.7818609E-02  0.9718527E-01
       -1   -1    0    0    0  501  0.00000000000E+00  0.00000000000E+00  0.42760405068E+03  0.42760405071E+03  0.50400001928E-02 0.  1.
        1   -1    0    0  501    0  0.00000000000E+00  0.00000000000E+00 -0.28586123741E+03  0.28586123745E+03  0.50400001928E-02 0. -1.
    10030    2    1    2    0    0  0.00000000000E+00  0.00000000000E+00  0.14174281327E+03  0.71346528816E+03  0.69924365732E+03 0.  0.
        5    1    3    3  502    0  0.40044927500E+02 -0.31432469943E+03 -0.79813363403E+02  0.32679638288E+03  0.46999998093E+01 0. -1.
       -5    1    3    3    0  502 -0.40044927500E+02  0.31432469943E+03  0.22155617667E+03  0.38666890528E+03  0.46999998093E+01 0.  1.
</event>
<event>
 5   0  0.7947250E-03  0.7002742E+03  0.7818609E-02  0.9716763E-01
       -3   -1    0    0    0  501  0.00000000000E+00  0.00000000000E+00  0.21738834489E+03  0.21738836835E+03  0.10100000352E+00 0. -1.
        3   -1    0    0  501    0  0.00000000000E+00  0.00000000000E+00 -0.56394913479E+03  0.56394914383E+03  0.10100000352E+00 0.  1.
    10030    2    1    2    0    0  0.00000000000E+00  0.00000000000E+00 -0.34656078990E+03  0.78133751218E+03  0.70027417977E+03 0.  0.
        3    1    3    3  502    0 -0.19176076230E+03  0.25397074574E+03 -0.10354142523E+02  0.31840312203E+03  0.10100000352E+00 0. -1.
       -3    1    3    3    0  502  0.19176076230E+03 -0.25397074574E+03 -0.33620664738E+03  0.46293439016E+03  0.10100000352E+00 0.  1.
</event>
<event>
 5   0  0.1223742E-02  0.7025427E+03  0.7818609E-02  0.9712894E-01
        1   -1    0    0  501    0  0.00000000000E+00  0.00000000000E+00  0.17320912128E+03  0.17320912135E+03  0.50400001928E-02 0. -1.
       -1   -1    0    0    0  501  0.00000000000E+00  0.00000000000E+00 -0.71238481717E+03  0.71238481719E+03  0.50400001928E-02 0.  1.
    10030    2    1    2    0    0  0.00000000000E+00  0.00000000000E+00 -0.53917569589E+03  0.88559393854E+03  0.70254266272E+03 0.  0.
        2    1    3    3  502    0  0.22474620536E+03  0.18234800195E+03 -0.52052987856E+03  0.59557787494E+03  0.25500000920E-02 0.  1.
       -2    1    3    3    0  502 -0.22474620536E+03 -0.18234800195E+03 -0.18645817334E+02  0.29001606360E+03  0.25500000920E-02 0. -1.
</event>
<event>
 5   0  0.1909053E-02  0.6985816E+03  0.7818609E-02  0.9719661E-01
        2   -1    0    0  501    0  0.00000000000E+00  0.00000000000E+00  0.62989859132E+03  0.62989859132E+03  0.25500000920E-02 0.  1.
       -2   -1    0    0    0  501  0.00000000000E+00  0.00000000000E+00 -0.19368843909E+03  0.19368843911E+03  0.25500000920E-02 0. -1.
    10030    2    1    2    0    0  0.00000000000E+00  0.00000000000E+00  0.43621015223E+03  0.82358703043E+03  0.69858163430E+03 0.  0.
        1    1    3    3  502    0 -0.24794438527E+03  0.23210366728E+03  0.31428493298E+03  0.46273485894E+03  0.50400001928E-02 0. -1.
       -1    1    3    3    0  502  0.24794438527E+03 -0.23210366728E+03  0.12192521925E+03  0.36085217149E+03  0.50400001928E-02 0.  1.
</event>
<event>
 5   0  0.1223742E-02  0.7213845E+03  0.7818609E-02  0.9681345E-01
        1   -1    0    0  501    0  0.00000000000E+00  0.00000000000E+00  0.89020806688E+03  0.89020806689E+03  0.50400001928E-02 0.  1.
       -1   -1    0    0    0  501  0.00000000000E+00  0.00000000000E+00 -0.14614435665E+03  0.14614435674E+03  0.50400001928E-02 0. -1.
    10030    2    1    2    0    0  0.00000000000E+00  0.00000000000E+00  0.74406371023E+03  0.10363524236E+04  0.72138446136E+03 0.  0.
        2    1    3    3  502    0  0.92120995927E+02 -0.10551489202E+03  0.84954020891E+03  0.86101000975E+03  0.25500000920E-02 0.  1.
       -2    1    3    3    0  502 -0.92120995927E+02  0.10551489202E+03 -0.10547649868E+03  0.17534241389E+03  0.25500000920E-02 0. -1.
</event>
<event>
 5   0  0.1909053E-02  0.7099903E+03  0.7818609E-02  0.9700298E-01
       -2   -1    0    0    0  501  0.00000000000E+00  0.00000000000E+00  0.54583743562E+02  0.54583743622E+02  0.25500000920E-02 0. -1.
        2   -1    0    0  501    0  0.00000000000E+00  0.00000000000E+00 -0.23087748294E+04  0.23087748294E+04  0.25500000920E-02 0.  1.
    10030    2    1    2    0    0  0.00000000000E+00  0.00000000000E+00 -0.22541910858E+04  0.23633585730E+04  0.70999034726E+03 0.  0.
        1    1    3    3  502    0 -0.17707729897E+03  0.25998386281E+03 -0.16748048673E+04  0.17040890007E+04  0.50400001928E-02 0. -1.
       -1    1    3    3    0  502  0.17707729897E+03 -0.25998386281E+03 -0.57938621850E+03  0.65926957229E+03  0.50400001928E-02 0.  1.
</event>
<event>
 5   0  0.1948138E-02  0.6955929E+03  0.7818609E-02  0.9724799E-01
        2   -1    0    0  501    0  0.00000000000E+00  0.00000000000E+00  0.15161253408E+04  0.15161253408E+04  0.25500000920E-02 0.  1.
       -2   -1    0    0    0  501  0.00000000000E+00  0.00000000000E+00 -0.79783878852E+02  0.79783878893E+02  0.25500000920E-02 0. -1.
    10030    2    1    2    0    0  0.00000000000E+00  0.00000000000E+00  0.14363414619E+04  0.15959092197E+04  0.69559287101E+03 0.  0.
        3    1    3    3  502    0  0.12883651579E+03 -0.22259469583E+03  0.18101132819E+03  0.31450335061E+03  0.10100000352E+00 0. -1.
       -3    1    3    3    0  502 -0.12883651579E+03  0.22259469583E+03  0.12553301337E+04  0.12814058691E+04  0.10100000352E+00 0.  1.
</event>
<event>
 5   0  0.1948138E-02  0.6901857E+03  0.7818609E-02  0.9734165E-01
       -2   -1    0    0    0  501  0.00000000000E+00  0.00000000000E+00  0.16947056165E+03  0.16947056166E+03  0.25500000920E-02 0.  1.
        2   -1    0    0  501    0  0.00000000000E+00  0.00000000000E+00 -0.70271254763E+03  0.70271254764E+03  0.25500000920E-02 0. -1.
    10030    2    1    2    0    0  0.00000000000E+00  0.00000000000E+00 -0.53324198599E+03  0.87218310930E+03  0.69018574350E+03 0.  0.
        3    1    3    3  502    0 -0.24276376249E+03  0.16546554931E+03 -0.49540179629E+03  0.57596531350E+03  0.10100000352E+00 0. -1.
       -3    1    3    3    0  502  0.24276376249E+03 -0.16546554931E+03 -0.37840189696E+02  0.29621779580E+03  0.10100000352E+00 0.  1.
</event>
<event>
 5   0  0.1257442E-02  0.6971993E+03  0.7818609E-02  0.9722034E-01
       -1   -1    0    0    0  501  0.00000000000E+00  0.00000000000E+00  0.23569446050E+03  0.23569446055E+03  0.50400001928E-02 0.  1.
        1   -1    0    0  501    0  0.00000000000E+00  0.00000000000E+00 -0.51559009362E+03  0.51559009364E+03  0.50400001928E-02 0. -1.
    10030    2    1    2    0    0  0.00000000000E+00  0.00000000000E+00 -0.27989563312E+03  0.75128455420E+03  0.69719933730E+03 0.  0.
        1    1    3    3  502    0 -0.72508900092E+02 -0.22122463799E+03  0.13964883091E+03  0.27147684441E+03  0.50400001928E-02 0.  1.
       -1    1    3    3    0  502  0.72508900092E+02  0.22122463799E+03 -0.41954446404E+03  0.47980770979E+03  0.50400001928E-02 0. -1.
</event>
<event>
 5   0  0.1197259E-02  0.7055521E+03  0.7818609E-02  0.9707784E-01
       -1   -1    0    0    0  501  0.00000000000E+00  0.00000000000E+00  0.52486698017E+03  0.52486698020E+03  0.50400001928E-02 0.  1.
        1   -1    0    0  501    0  0.00000000000E+00  0.00000000000E+00 -0.23710952195E+03  0.23710952200E+03  0.50400001928E-02 0. -1.
    10030    2    1    2    0    0  0.00000000000E+00  0.00000000000E+00  0.28775745823E+03  0.76197650220E+03  0.70555214913E+03 0.  0.
        3    1    3    3  502    0 -0.15310901158E+03  0.13513811559E+03 -0.16678222357E+03  0.26366835231E+03  0.10100000352E+00 0. -1.
       -3    1    3    3    0  502  0.15310901158E+03 -0.13513811559E+03  0.45453968180E+03  0.49830814988E+03  0.10100000352E+00 0.  1.
</event>
<event>
 5   0  0.1948138E-02  0.7020444E+03  0.7818609E-02  0.9713742E-01
        2   -1    0    0  501    0  0.00000000000E+00  0.00000000000E+00  0.13284086054E+04  0.13284086054E+04  0.25500000920E-02 0.  1.
       -2   -1    0    0    0  501  0.00000000000E+00  0.00000000000E+00 -0.92755043805E+02  0.92755043840E+02  0.25500000920E-02 0. -1.
    10030    2    1    2    0    0  0.00000000000E+00  0.00000000000E+00  0.12356535615E+04  0.14211636492E+04  0.70204443850E+03 0.  0.
        3    1    3    3  502    0 -0.69023577928E+02 -0.31420231269E+03  0.90216462851E+03  0.95780393335E+03  0.10100000352E+00 0.  1.
       -3    1    3    3    0  502  0.69023577928E+02  0.31420231269E+03  0.33348893303E+03  0.46335971584E+03  0.10100000352E+00 0. -1.
</event>
<event>
 5   0  0.1237686E-02  0.7025808E+03  0.7818609E-02  0.9712829E-01
        1   -1    0    0  501    0  0.00000000000E+00  0.00000000000E+00  0.57162667741E+03  0.57162667743E+03  0.50400001928E-02 0.  1.
       -1   -1    0    0    0  501  0.00000000000E+00  0.00000000000E+00 -0.21588378813E+03  0.21588378819E+03  0.50400001928E-02 0. -1.
    10030    2    1    2    0    0  0.00000000000E+00  0.00000000000E+00  0.35574288928E+03  0.78751046562E+03  0.70258076417E+03 0.  0.
        5    1    3    3  502    0 -0.13112558182E+02  0.34511226158E+03  0.24971669113E+03  0.42620995777E+03  0.46999998093E+01 0. -1.
       -5    1    3    3    0  502  0.13112558182E+02 -0.34511226158E+03  0.10602619815E+03  0.36130050785E+03  0.46999998093E+01 0.  1.
</event>
<event>
 5   0  0.2026361E-02  0.7016650E+03  0.7818609E-02  0.9714389E-01
       -2   -1    0    0    0  501  0.00000000000E+00  0.00000000000E+00  0.16323663474E+03  0.16323663476E+03  0.25500000920E-02 0. -1.
        2   -1    0    0  501    0  0.00000000000E+00  0.00000000000E+00 -0.75401861088E+03  0.75401861089E+03  0.25500000920E-02 0.  1.
    10030    2    1    2    0    0  0.00000000000E+00  0.00000000000E+00 -0.59078197614E+03  0.91725524565E+03  0.70166504996E+03 0.  0.
        2    1    3    3  502    0  0.32870638798E+03  0.98425750727E+02 -0.39099007205E+03  0.52020068661E+03  0.25500000920E-02 0.  1.
       -2    1    3    3    0  502 -0.32870638798E+03 -0.98425750727E+02 -0.19979190409E+03  0.39705455904E+03  0.25500000920E-02 0. -1.
</event>
<event>
 5   0  0.1257442E-02  0.7029371E+03  0.7818609E-02  0.9712222E-01
        1   -1    0    0  501    0  0.00000000000E+00  0.00000000000E+00  0.74712348565E+03  0.74712348567E+03  0.50400001928E-02 0.  1.
       -1   -1    0    0    0  501  0.00000000000E+00  0.00000000000E+00 -0.16534100628E+03  0.16534100636E+03  0.50400001928E-02 0. -1.
    10030    2    1    2    0    0  0.00000000000E+00  0.00000000000E+00  0.58178247937E+03  0.91246449203E+03  0.70293712088E+03 0.  0.
        1    1    3    3  502    0  0.22747800439E+03  0.23107813418E+03  0.11487505663E+03  0.34400526920E+03  0.50400001928E-02 0. -1.
       -1    1    3    3    0  502 -0.22747800439E+03 -0.23107813418E+03  0.46690742274E+03  0.56845922283E+03  0.50400001928E-02 0.  1.
</event>
<event>
 5   0  0.1257442E-02  0.6974055E+03  0.7818609E-02  0.9721679E-01
        1   -1    0    0  501    0  0.00000000000E+00  0.00000000000E+00  0.20156261801E+04  0.20156261801E+04  0.50400001928E-02 0. -1.
       -1   -1    0    0    0  501  0.00000000000E+00  0.00000000000E+00 -0.60325477050E+02  0.60325477260E+02  0.50400001928E-02 0.  1.
    10030    2    1    2    0    0  0.00000000000E+00  0.00000000000E+00  0.19553007030E+04  0.20759516574E+04  0.69740550928E+03 0.  0.
        1    1    3    3  502    0  0.12017788798E+03 -0.20317436865E+03  0.21367526644E+03  0.31840174049E+03  0.50400001928E-02 0.  1.
       -1    1    3    3    0  502 -0.12017788798E+03  0.20317436865E+03  0.17416254366E+04  0.17575499169E+04  0.50400001928E-02 0. -1.
</event>
<event>
 5   0  0.1223742E-02  0.7000865E+03  0.7818609E-02  0.9717084E-01
        1   -1    0    0  501    0  0.00000000000E+00  0.00000000000E+00  0.34930501565E+03  0.34930501568E+03  0.50400001928E-02 0.  1.
       -1   -1    0    0    0  501  0.00000000000E+00  0.00000000000E+00 -0.35078303949E+03  0.35078303952E+03  0.50400001928E-02 0. -1.
    10030    2    1    2    0    0  0.00000000000E+00  0.00000000000E+00 -0.14780238399E+01  0.70008805520E+03  0.70008649500E+03 0.  0.
        2    1    3    3  502    0 -0.25669943418E+02 -0.86798542830E+02 -0.33887781730E+03  0.35075790525E+03  0.25500000920E-02 0. -1.
       -2    1    3    3    0  502  0.25669943418E+02  0.86798542830E+02  0.33739979346E+03  0.34933014995E+03  0.25500000920E-02 0.  1.
</event>
<event>
 5   0  0.2006362E-02  0.6991812E+03  0.7818609E-02  0.9718633E-01
        2   -1    0    0  501    0  0.00000000000E+00  0.00000000000E+00  0.58964753920E+03  0.58964753920E+03  0.25500000920E-02 0.  1.
       -2   -1    0    0    0  501  0.00000000000E+00  0.00000000000E+00 -0.20726549000E+03  0.20726549001E+03  0.25500000920E-02 0. -1.
    10030    2    1    2    0    0  0.00000000000E+00  0.00000000000E+00  0.38238204920E+03  0.79691302922E+03  0.69918119582E+03 0.  0.
        4    1    3    3  502    0 -0.18919888264E+03 -0.16249459565E+03  0.47040526823E+03  0.53243162950E+03  0.12699999809E+01 0.  1.
       -4    1    3    3    0  502  0.18919888264E+03  0.16249459565E+03 -0.88023219030E+02  0.26448139972E+03  0.12699999809E+01 0. -1.
</event>
<event>
 5   0  0.1197259E-02  0.6939946E+03  0.7818609E-02  0.9727558E-01
       -1   -1    0    0    0  501  0.00000000000E+00  0.00000000000E+00  0.10948020378E+03  0.10948020390E+03  0.50400001928E-02 0. -1.
        1   -1    0    0  501    0  0.00000000000E+00  0.00000000000E+00 -0.10998071388E+04  0.10998071388E+04  0.50400001928E-02 0.  1.
    10030    2    1    2    0    0  0.00000000000E+00  0.00000000000E+00 -0.99032693504E+03  0.12092873427E+04  0.69399455259E+03 0.  0.
        3    1    3    3  502    0  0.10554532745E+03 -0.29444500426E+03 -0.75694178536E+03  0.81902292600E+03  0.10100000352E+00 0. -1.
       -3    1    3    3    0  502 -0.10554532745E+03  0.29444500426E+03 -0.23338514967E+03  0.39026441673E+03  0.10100000352E+00 0.  1.
</event>
<event>
 5   0  0.1237686E-02  0.6989332E+03  0.7818609E-02  0.9719058E-01
       -1   -1    0    0    0  501  0.00000000000E+00  0.00000000000E+00  0.79263403091E+03  0.79263403092E+03  0.50400001928E-02 0.  1.
        1   -1    0    0  501    0  0.00000000000E+00  0.00000000000E+00 -0.15407730283E+03  0.15407730292E+03  0.50400001928E-02 0. -1.
    10030    2    1    2    0    0  0.00000000000E+00  0.00000000000E+00  0.63855672807E+03  0.94671133384E+03  0.69893322618E+03 0.  0.
        5    1    3    3  502    0 -0.67577630090E+02 -0.29386166061E+03  0.55846874259E+03  0.63468956043E+03  0.46999998093E+01 0.  1.
       -5    1    3    3    0  502  0.67577630090E+02  0.29386166061E+03  0.80087985484E+02  0.31202177341E+03  0.46999998093E+01 0. -1.
</event>
<event>
 5   0  0.1223742E-02  0.6974098E+03  0.7818609E-02  0.9721672E-01
       -1   -1    0    0    0  501  0.00000000000E+00  0.00000000000E+00  0.16655994519E+03  0.16655994527E+03  0.50400001928E-02 0.  1.
        1   -1    0    0  501    0  0.00000000000E+00  0.00000000000E+00 -0.73003812506E+03  0.73003812507E+03  0.50400001928E-02 0. -1.
    10030    2    1    2    0    0  0.00000000000E+00  0.00000000000E+00 -0.56347817987E+03  0.89659807034E+03  0.69740980818E+03 0.  0.
        2    1    3    3  502    0  0.21592058632E+03  0.10428928644E+03  0.43744521869E+02  0.24374482161E+03  0.25500000920E-02 0.  1.
       -2    1    3    3    0  502 -0.21592058632E+03 -0.10428928644E+03 -0.60722270174E+03  0.65285324873E+03  0.25500000920E-02 0. -1.
</event>
<event>
 5   0  0.2026361E-02  0.7036947E+03  0.7818609E-02  0.9710934E-01
        2   -1    0    0  501    0  0.00000000000E+00  0.00000000000E+00  0.10133193767E+04  0.10133193767E+04  0.25500000920E-02 0.  1.
       -2   -1    0    0    0  501  0.00000000000E+00  0.00000000000E+00 -0.12216935169E+03  0.12216935171E+03  0.25500000920E-02 0. -1.
    10030    2    1    2    0    0  0.00000000000E+00  0.00000000000E+00  0.89115002497E+03  0.11354887284E+04  0.70369473869E+03 0.  0.
        2    1    3    3  502    0 -0.23827731296E+03 -0.21569514020E+02  0.86185897652E+03  0.89445079084E+03  0.25500000920E-02 0.  1.
       -2    1    3    3    0  502  0.23827731296E+03  0.21569514020E+02  0.29291048447E+02  0.24103793754E+03  0.25500000920E-02 0. -1.
</event>
<event>
 5   0  0.7947250E-03  0.7041301E+03  0.7818609E-02  0.9710195E-01
       -3   -1    0    0    0  501  0.00000000000E+00  0.00000000000E+00  0.16265295340E+03  0.16265298475E+03  0.10100000352E+00 0. -1.
        3   -1    0    0  501    0  0.00000000000E+00  0.00000000000E+00 -0.76205059351E+03  0.76205060020E+03  0.10100000352E+00 0.  1.
    10030    2    1    2    0    0  0.00000000000E+00  0.00000000000E+00 -0.59939764011E+03  0.92470358496E+03  0.70413009384E+03 0.  0.
        4    1    3    3  502    0 -0.87729190647E+02  0.21206581789E+01  0.14805678210E+03  0.17211429838E+03  0.12699999809E+01 0. -1.
       -4    1    3    3    0  502  0.87729190647E+02 -0.21206581789E+01 -0.74745442221E+03  0.75258928657E+03  0.12699999809E+01 0.  1.
</event>
<event>
 5   0  0.2006362E-02  0.7009479E+03  0.7818609E-02  0.9715612E-01
        2   -1    0    0  501    0  0.00000000000E+00  0.00000000000E+00  0.18094355791E+04  0.18094355791E+04  0.25500000920E-02 0. -1.
       -2   -1    0    0    0  501  0.00000000000E+00  0.00000000000E+00 -0.67884150232E+02  0.67884150280E+02  0.25500000920E-02 0.  1.
    10030    2    1    2    0    0  0.00000000000E+00  0.00000000000E+00  0.17415514289E+04  0.18773197294E+04  0.70094792028E+03 0.  0.
        4    1    3    3  502    0 -0.20247145842E+03  0.25023319636E+03  0.12420700604E+04  0.12831020972E+04  0.12699999809E+01 0. -1.
       -4    1    3    3    0  502  0.20247145842E+03 -0.25023319636E+03  0.49948136850E+03  0.59421763219E+03  0.12699999809E+01 0.  1.
</event>
<event>
 5   0  0.2006362E-02  0.7010555E+03  0.7818609E-02  0.9715429E-01
        2   -1    0    0  501    0  0.00000000000E+00  0.00000000000E+00  0.14189638843E+03  0.14189638846E+03  0.25500000920E-02 0. -1.
       -2   -1    0    0    0  501  0.00000000000E+00  0.00000000000E+00 -0.86591143834E+03  0.86591143835E+03  0.25500000920E-02 0.  1.
    10030    2    1    2    0    0  0.00000000000E+00  0.00000000000E+00 -0.72401504991E+03  0.10078078268E+04  0.70105550655E+03 0.  0.
        4    1    3    3  502    0  0.87010252853E+02  0.30597436747E+03 -0.15035431308E+03  0.35185100541E+03  0.12699999809E+01 0. -1.
       -4    1    3    3    0  502 -0.87010252853E+02 -0.30597436747E+03 -0.57366073683E+03  0.65595682139E+03  0.12699999809E+01 0.  1.
</event>
<event>
 5   0  0.1226303E-02  0.6952630E+03  0.7818609E-02  0.9725368E-01
        1   -1    0    0  501    0  0.00000000000E+00  0.00000000000E+00  0.41363575990E+03  0.41363575993E+03  0.50400001928E-02 0. -1.
       -1   -1    0    0    0  501  0.00000000000E+00  0.00000000000E+00 -0.29215956497E+03  0.29215956501E+03  0.50400001928E-02 0.  1.
    10030    2    1    2    0    0  0.00000000000E+00  0.00000000000E+00  0.12147619493E+03  0.70579532494E+03  0.69526295369E+03 0.  0.
        4    1    3    3  502    0 -0.34185985029E+03 -0.62858315972E+02  0.65984135014E+02  0.35380057109E+03  0.12699999809E+01 0. -1.
       -4    1    3    3    0  502  0.34185985029E+03  0.62858315972E+02  0.55492059918E+02  0.35199475386E+03  0.12699999809E+01 0.  1.
</event>
<event>
 5   0  0.2026361E-02  0.7059687E+03  0.7818609E-02  0.9707079E-01
        2   -1    0    0  501    0  0.00000000000E+00  0.00000000000E+00  0.12014577243E+04  0.12014577243E+04  0.25500000920E-02 0. -1.
       -2   -1    0    0    0  501  0.00000000000E+00  0.00000000000E+00 -0.10370563990E+03  0.10370563993E+03  0.25500000920E-02 0.  1.
    10030    2    1    2    0    0  0.00000000000E+00  0.00000000000E+00  0.10977520844E+04  0.13051633642E+04  0.70596867390E+03 0.  0.
        2    1    3    3  502    0  0.11588354377E+03  0.26004846821E+02 -0.65658396957E+02  0.13570656901E+03  0.25500000920E-02 0.  1.
       -2    1    3    3    0  502 -0.11588354377E+03 -0.26004846821E+02  0.11634104813E+04  0.11694567952E+04  0.25500000920E-02 0. -1.
</event>
<event>
 5   0  0.7947250E-03  0.7005492E+03  0.7818609E-02  0.9716293E-01
        3   -1    0    0  501    0  0.00000000000E+00  0.00000000000E+00  0.19752150314E+04  0.19752150340E+04  0.10100000352E+00 0.  1.
       -3   -1    0    0    0  501  0.00000000000E+00  0.00000000000E+00 -0.62115875918E+02  0.62115958030E+02  0.10100000352E+00 0. -1.
    10030    2    1    2    0    0  0.00000000000E+00  0.00000000000E+00  0.19130991555E+04  0.20373309920E+04  0.70054920763E+03 0.  0.
        3    1    3    3  502    0  0.14760239574E+03  0.30714904794E+03  0.72090922119E+03  0.79739395551E+03  0.10100000352E+00 0. -1.
       -3    1    3    3    0  502 -0.14760239574E+03 -0.30714904794E+03  0.11921899343E+04  0.12399370365E+04  0.10100000352E+00 0.  1.
</event>
<event>
 5   0  0.2006362E-02  0.6939011E+03  0.7818609E-02  0.9727719E-01
        2   -1    0    0  501    0  0.00000000000E+00  0.00000000000E+00  0.18193063977E+04  0.18193063977E+04  0.25500000920E-02 0.  1.
       -2   -1    0    0    0  501  0.00000000000E+00  0.00000000000E+00 -0.66165142852E+02  0.66165142901E+02  0.25500000920E-02 0. -1.
    10030    2    1    2    0    0  0.00000000000E+00  0.00000000000E+00  0.17531412548E+04  0.18854715406E+04  0.69390105271E+03 0.  0.
        4    1    3    3  502    0 -0.28429531367E+03 -0.19861768164E+03  0.90377608134E+03  0.96803183157E+03  0.12699999809E+01 0. -1.
       -4    1    3    3    0  502  0.28429531367E+03  0.19861768164E+03  0.84936517346E+03  0.91743970898E+03  0.12699999809E+01 0.  1.
</event>
<event>
 5   0  0.1973067E-02  0.7004387E+03  0.7818609E-02  0.9716482E-01
        2   -1    0    0  501    0  0.00000000000E+00  0.00000000000E+00  0.20885124854E+03  0.20885124856E+03  0.25500000920E-02 0. -1.
       -2   -1    0    0    0  501  0.00000000000E+00  0.00000000000E+00 -0.58727726279E+03  0.58727726280E+03  0.25500000920E-02 0.  1.
    10030    2    1    2    0    0  0.00000000000E+00  0.00000000000E+00 -0.37842601425E+03  0.79612851136E+03  0.70043868992E+03 0.  0.
        5    1    3    3  502    0 -0.82715668653E+02  0.15071133962E+03 -0.53597479132E+03  0.56289151411E+03  0.46999998093E+01 0.  1.
       -5    1    3    3    0  502  0.82715668653E+02 -0.15071133962E+03  0.15754877707E+03  0.23323699725E+03  0.46999998093E+01 0. -1.
</event>
<event>
 5   0  0.7947250E-03  0.7275599E+03  0.7818609E-02  0.9671228E-01
        4   -1    0    0  501    0  0.00000000000E+00  0.00000000000E+00  0.23437916866E+03  0.23438260943E+03  0.12699999809E+01 0. -1.
       -4   -1    0    0    0  501  0.00000000000E+00  0.00000000000E+00 -0.56461464495E+03  0.56461607327E+03  0.12699999809E+01 0.  1.
    10030    2    1    2    0    0  0.00000000000E+00  0.00000000000E+00 -0.33023547628E+03  0.79899868270E+03  0.72755991173E+03 0.  0.
        2    1    3    3  502    0  0.32494786905E+03  0.37757527216E+02 -0.33986142754E+03  0.47172294665E+03  0.25500000920E-02 0.  1.
       -2    1    3    3    0  502 -0.32494786905E+03 -0.37757527216E+02  0.96259512543E+01  0.32727573605E+03  0.25500000920E-02 0. -1.
</event>
<event>
 5   0  0.1948138E-02  0.6992238E+03  0.7818609E-02  0.9718561E-01
        2   -1    0    0  501    0  0.00000000000E+00  0.00000000000E+00  0.69708826320E+03  0.69708826321E+03  0.25500000920E-02 0. -1.
       -2   -1    0    0    0  501  0.00000000000E+00  0.00000000000E+00 -0.17534145252E+03  0.17534145253E+03  0.25500000920E-02 0.  1.
    10030    2    1    2    0    0  0.00000000000E+00  0.00000000000E+00  0.52174681069E+03  0.87242971574E+03  0.69922376565E+03 0.  0.
        3    1    3    3  502    0 -0.30904325828E+03  0.14959302883E+03  0.34309608291E+03  0.48538720839E+03  0.10100000352E+00 0. -1.
       -3    1    3    3    0  502  0.30904325828E+03 -0.14959302883E+03  0.17865072778E+03  0.38704250735E+03  0.10100000352E+00 0.  1.
</event>
<event>
 5   0  0.1237686E-02  0.6998925E+03  0.7818609E-02  0.9717416E-01
        1   -1    0    0  501    0  0.00000000000E+00  0.00000000000E+00  0.58292511385E+03  0.58292511387E+03  0.50400001928E-02 0. -1.
       -1   -1    0    0    0  501  0.00000000000E+00  0.00000000000E+00 -0.21008252257E+03  0.21008252263E+03  0.50400001928E-02 0.  1.
    10030    2    1    2    0    0  0.00000000000E+00  0.00000000000E+00  0.37284259128E+03  0.79300763650E+03  0.69989250152E+03 0.  0.
        5    1    3    3  502    0 -0.29380644261E+02  0.33361333660E+03  0.71546209022E+02  0.34249384029E+03  0.46999998093E+01 0.  1.
       -5    1    3    3    0  502  0.29380644261E+02 -0.33361333660E+03  0.30129638226E+03  0.45051379621E+03  0.46999998093E+01 0. -1.
</event>
<event>
 5   0  0.1223742E-02  0.7189411E+03  0.7818609E-02  0.9685378E-01
       -1   -1    0    0    0  501  0.00000000000E+00  0.00000000000E+00  0.83186573404E+03  0.83186573406E+03  0.50400001928E-02 0.  1.
        1   -1    0    0  501    0  0.00000000000E+00  0.00000000000E+00 -0.15533645196E+03  0.15533645204E+03  0.50400001928E-02 0. -1.
    10030    2    1    2    0    0  0.00000000000E+00  0.00000000000E+00  0.67652928208E+03  0.98720218609E+03  0.71894108709E+03 0.  0.
        2    1    3    3  502    0  0.27087936519E+03  0.10049626947E+03  0.63194817221E+03  0.69486230509E+03  0.25500000920E-02 0.  1.
       -2    1    3    3    0  502 -0.27087936519E+03 -0.10049626947E+03  0.44581109870E+02  0.29233988100E+03  0.25500000920E-02 0. -1.
</event>
<event>
 5   0  0.1909053E-02  0.6930755E+03  0.7818609E-02  0.9729148E-01
       -2   -1    0    0    0  501  0.00000000000E+00  0.00000000000E+00  0.97589033187E+02  0.97589033220E+02  0.25500000920E-02 0. -1.
        2   -1    0    0  501    0  0.00000000000E+00  0.00000000000E+00 -0.12305521562E+04  0.12305521562E+04  0.25500000920E-02 0.  1.
    10030    2    1    2    0    0  0.00000000000E+00  0.00000000000E+00 -0.11329631230E+04  0.13281411894E+04  0.69307545112E+03 0.  0.
        1    1    3    3  502    0 -0.34527171042E+03  0.20487571905E+02 -0.52555605657E+03  0.62915933057E+03  0.50400001928E-02 0. -1.
       -1    1    3    3    0  502  0.34527171042E+03 -0.20487571905E+02 -0.60740706646E+03  0.69898185887E+03  0.50400001928E-02 0.  1.
</event>
<event>
 5   0  0.1226303E-02  0.6951734E+03  0.7818609E-02  0.9725522E-01
        1   -1    0    0  501    0  0.00000000000E+00  0.00000000000E+00  0.83177464534E+03  0.83177464536E+03  0.50400001928E-02 0.  1.
       -1   -1    0    0    0  501  0.00000000000E+00  0.00000000000E+00 -0.14525150433E+03  0.14525150442E+03  0.50400001928E-02 0. -1.
    10030    2    1    2    0    0  0.00000000000E+00  0.00000000000E+00  0.68652314101E+03  0.97702614977E+03  0.69517341304E+03 0.  0.
        4    1    3    3  502    0 -0.22299306840E+03  0.26616162043E+03  0.32117380635E+03  0.47299275209E+03  0.12699999809E+01 0.  1.
       -4    1    3    3    0  502  0.22299306840E+03 -0.26616162043E+03  0.36534933466E+03  0.50403339768E+03  0.12699999809E+01 0. -1.
</event>
<event>
 5   0  0.1948138E-02  0.7004246E+03  0.7818609E-02  0.9716506E-01
       -2   -1    0    0    0  501  0.00000000000E+00  0.00000000000E+00  0.27122442011E+03  0.27122442013E+03  0.25500000920E-02 0.  1.
        2   -1    0    0  501    0  0.00000000000E+00  0.00000000000E+00 -0.45220362066E+03  0.45220362067E+03  0.25500000920E-02 0. -1.
    10030    2    1    2    0    0  0.00000000000E+00  0.00000000000E+00 -0.18097920055E+03  0.72342804080E+03  0.70042462776E+03 0.  0.
        3    1    3    3  502    0 -0.54449997072E+02  0.82080550130E+02 -0.43760236131E+03  0.44855083961E+03  0.10100000352E+00 0. -1.
       -3    1    3    3    0  502  0.54449997072E+02 -0.82080550130E+02  0.25662316076E+03  0.27487720118E+03  0.10100000352E+00 0.  1.
</event>
<event>
 5   0  0.1197259E-02  0.6913223E+03  0.7818609E-02  0.9732188E-01
       -1   -1    0    0    0  501  0.00000000000E+00  0.00000000000E+00  0.56305120532E+02  0.56305120757E+02  0.50400001928E-02 0. -1.
        1   -1    0    0  501    0  0.00000000000E+00  0.00000000000E+00 -0.21220385824E+04  0.21220385824E+04  0.50400001928E-02 0.  1.
    10030    2    1    2    0    0  0.00000000000E+00  0.00000000000E+00 -0.20657334619E+04  0.21783437032E+04  0.69132232253E+03 0.  0.
        3    1    3    3  502    0  0.20576097730E+03 -0.64167886331E+02 -0.18136377671E+03  0.28168764105E+03  0.10100000352E+00 0. -1.
       -3    1    3    3    0  502 -0.20576097730E+03  0.64167886331E+02 -0.18843696852E+04  0.18966560621E+04  0.10100000352E+00 0.  1.
</event>
<event>
 5   0  0.1197259E-02  0.6960826E+03  0.7818609E-02  0.9723955E-01
       -1   -1    0    0    0  501  0.00000000000E+00  0.00000000000E+00  0.46577280733E+03  0.46577280736E+03  0.50400001928E-02 0.  1.
        1   -1    0    0  501    0  0.00000000000E+00  0.00000000000E+00 -0.26006832233E+03  0.26006832238E+03  0.50400001928E-02 0. -1.
    10030    2    1    2    0    0  0.00000000000E+00  0.00000000000E+00  0.20570448500E+03  0.72584112973E+03  0.69608261756E+03 0.  0.
        3    1    3    3  502    0  0.65745351697E+02  0.25272504604E+03  0.34277649884E+03  0.43091546564E+03  0.10100000352E+00 0.  1.
       -3    1    3    3    0  502 -0.65745351697E+02 -0.25272504604E+03 -0.13707201384E+03  0.29492566410E+03  0.10100000352E+00 0. -1.
</event>
<event>
 5   0  0.1237686E-02  0.7017086E+03  0.7818609E-02  0.9714315E-01
       -1   -1    0    0    0  501  0.00000000000E+00  0.00000000000E+00  0.49859616133E+03  0.49859616136E+03  0.50400001928E-02 0. -1.
        1   -1    0    0  501    0  0.00000000000E+00  0.00000000000E+00 -0.24689066902E+03  0.24689066907E+03  0.50400001928E-02 0.  1.
    10030    2    1    2    0    0  0.00000000000E+00  0.00000000000E+00  0.25170549231E+03  0.74548683043E+03  0.70170860012E+03 0.  0.
        5    1    3    3  502    0  0.24931130359E+03 -0.56218876979E+02  0.38117967683E+03  0.45895176681E+03  0.46999998093E+01 0. -1.
       -5    1    3    3    0  502 -0.24931130359E+03  0.56218876979E+02 -0.12947418453E+03  0.28653506362E+03  0.46999998093E+01 0.  1.
</event>
<event>
 5   0  0.2026361E-02  0.6963918E+03  0.7818609E-02  0.9723423E-01
       -2   -1    0    0    0  501  0.00000000000E+00  0.00000000000E+00  0.27597796914E+03  0.27597796915E+03  0.25500000920E-02 0.  1.
        2   -1    0    0  501    0  0.00000000000E+00  0.00000000000E+00 -0.43931188533E+03  0.43931188533E+03  0.25500000920E-02 0. -1.
    10030    2    1    2    0    0  0.00000000000E+00  0.00000000000E+00 -0.16333391619E+03  0.71528985448E+03  0.69639184929E+03 0.  0.
        2    1    3    3  502    0  0.12320106616E+03 -0.32524950050E+03 -0.64644299097E+02  0.35375786308E+03  0.25500000920E-02 0.  1.
       -2    1    3    3    0  502 -0.12320106616E+03  0.32524950050E+03 -0.98689617090E+02  0.36153199140E+03  0.25500000920E-02 0. -1.
</event>
<event>
 5   0  0.1973067E-02  0.6996241E+03  0.7818609E-02  0.9717875E-01
       -2   -1    0    0    0  501  0.00000000000E+00  0.00000000000E+00  0.59158420821E+02  0.59158420876E+02  0.25500000920E-02 0.  1.
        2   -1    0    0  501    0  0.00000000000E+00  0.00000000000E+00 -0.20684874816E+04  0.20684874816E+04  0.25500000920E-02 0. -1.
    10030    2    1    2    0    0  0.00000000000E+00  0.00000000000E+00 -0.20093290608E+04  0.21276459025E+04  0.69962405036E+03 0.  0.
        5    1    3    3  502    0  0.14727439846E+02  0.26251946854E+03 -0.30313901924E+03  0.40130876371E+03  0.46999998093E+01 0.  1.
       -5    1    3    3    0  502 -0.14727439846E+02 -0.26251946854E+03 -0.17061900416E+04  0.17263371388E+04  0.46999998093E+01 0. -1.
</event>
<event>
 5   0  0.1226303E-02  0.7009867E+03  0.7818609E-02  0.9715546E-01
        1   -1    0    0  501    0  0.00000000000E+00  0.00000000000E+00  0.10848528771E+04  0.10848528771E+04  0.50400001928E-02 0. -1.
       -1   -1    0    0    0  501  0.00000000000E+00  0.00000000000E+00 -0.11323709577E+03  0.11323709588E+03  0.50400001928E-02 0.  1.
    10030    2    1    2    0    0  0.00000000000E+00  0.00000000000E+00  0.97161578131E+03  0.11980899730E+04  0.70098670232E+03 0.  0.
        4    1    3    3  502    0 -0.90700264245E+02  0.18177574988E+02  0.10636086353E+04  0.10676244210E+04  0.12699999809E+01 0. -1.
       -4    1    3    3    0  502  0.90700264245E+02 -0.18177574988E+02 -0.91992854031E+02  0.13046555200E+03  0.12699999809E+01 0.  1.
</event>
<event>
 5   0  0.2006362E-02  0.6944082E+03  0.7818609E-02  0.9726843E-01
       -2   -1    0    0    0  501  0.00000000000E+00  0.00000000000E+00  0.67135542400E+03  0.67135542400E+03  0.25500000920E-02 0. -1.
        2   -1    0    0  501    0  0.00000000000E+00  0.00000000000E+00 -0.17956316255E+03  0.17956316257E+03  0.25500000920E-02 0.  1.
    10030    2    1    2    0    0  0.00000000000E+00  0.00000000000E+00  0.49179226145E+03  0.85091858657E+03  0.69440824631E+03 0.  0.
        4    1    3    3  502    0  0.24389132715E+03 -0.46910212537E+02  0.54320216005E+03  0.59728866311E+03  0.12699999809E+01 0. -1.
       -4    1    3    3    0  502 -0.24389132715E+03  0.46910212537E+02 -0.51409898600E+02  0.25362992346E+03  0.12699999809E+01 0.  1.
</event>
<event>
 5   0  0.1237686E-02  0.6996596E+03  0.7818609E-02  0.9717814E-01
        1   -1    0    0  501    0  0.00000000000E+00  0.00000000000E+00  0.81426839624E+03  0.81426839626E+03  0.50400001928E-02 0. -1.
       -1   -1    0    0    0  501  0.00000000000E+00  0.00000000000E+00 -0.15029552559E+03  0.15029552567E+03  0.50400001928E-02 0.  1.
    10030    2    1    2    0    0  0.00000000000E+00  0.00000000000E+00  0.66397287065E+03  0.96456392193E+03  0.69965962191E+03 0.  0.
        5    1    3    3  502    0  0.16240826029E+03 -0.29871179828E+03  0.44528194045E+03  0.56027071843E+03  0.46999998093E+01 0. -1.
       -5    1    3    3    0  502 -0.16240826029E+03  0.29871179828E+03  0.21869093020E+03  0.40429320350E+03  0.46999998093E+01 0.  1.
</event>
<event>
 5   0  0.2026361E-02  0.6967552E+03  0.7818609E-02  0.9722797E-01
        2   -1    0    0  501    0  0.00000000000E+00  0.00000000000E+00  0.93417539920E+03  0.93417539921E+03  0.25500000920E-02 0. -1.
       -2   -1    0    0    0  501  0.00000000000E+00  0.00000000000E+00 -0.12991879170E+03  0.12991879173E+03  0.25500000920E-02 0.  1.
    10030    2    1    2    0    0  0.00000000000E+00  0.00000000000E+00  0.80425660750E+03  0.10640941909E+04  0.69675516250E+03 0.  0.
        2    1    3    3  502    0 -0.86720360144E+02 -0.16477761692E+03  0.85180102228E+03  0.87191574447E+03  0.25500000920E-02 0. -1.
       -2    1    3    3    0  502  0.86720360144E+02  0.16477761692E+03 -0.47544414778E+02  0.19217844646E+03  0.25500000920E-02 0.  1.
</event>
<event>
 5   0  0.1948138E-02  0.6996440E+03  0.7818609E-02  0.9717841E-01
       -2   -1    0    0    0  501  0.00000000000E+00  0.00000000000E+00  0.25078022502E+03  0.25078022503E+03  0.25500000920E-02 0. -1.
        2   -1    0    0  501    0  0.00000000000E+00  0.00000000000E+00 -0.48797880053E+03  0.48797880054E+03  0.25500000920E-02 0.  1.
    10030    2    1    2    0    0  0.00000000000E+00  0.00000000000E+00 -0.23719857551E+03  0.73875902557E+03  0.69964400493E+03 0.  0.
        3    1    3    3  502    0 -0.13020061249E+02  0.28977981360E+03  0.87866480437E+02  0.30308809107E+03  0.10100000352E+00 0. -1.
       -3    1    3    3    0  502  0.13020061249E+02 -0.28977981360E+03 -0.32506505595E+03  0.43567093450E+03  0.10100000352E+00 0.  1.
</event>
<event>
 5   0  0.1223742E-02  0.7026653E+03  0.7818609E-02  0.9712685E-01
       -1   -1    0    0    0  501  0.00000000000E+00  0.00000000000E+00  0.13413651001E+03  0.13413651010E+03  0.50400001928E-02 0. -1.
        1   -1    0    0  501    0  0.00000000000E+00  0.00000000000E+00 -0.92021655638E+03  0.92021655640E+03  0.50400001928E-02 0.  1.
    10030    2    1    2    0    0  0.00000000000E+00  0.00000000000E+00 -0.78608004637E+03  0.10543530665E+04  0.70266531830E+03 0.  0.
        2    1    3    3  502    0 -0.25539834992E+03 -0.85943742549E+01 -0.75482196583E+03  0.79690550288E+03  0.25500000920E-02 0.  1.
       -2    1    3    3    0  502  0.25539834992E+03  0.85943742549E+01 -0.31258080545E+02  0.25744756363E+03  0.25500000920E-02 0. -1.
</event>
<event>
 5   0  0.1237686E-02  0.7007719E+03  0.7818609E-02  0.9715913E-01
       -1   -1    0    0    0  501  0.00000000000E+00  0.00000000000E+00  0.36521383239E+03  0.36521383242E+03  0.50400001928E-02 0. -1.
        1   -1    0    0  501    0  0.00000000000E+00  0.00000000000E+00 -0.33616011976E+03  0.33616011980E+03  0.50400001928E-02 0.  1.
    10030    2    1    2    0    0  0.00000000000E+00  0.00000000000E+00  0.29053712623E+02  0.70137395222E+03  0.70077193340E+03 0.  0.
        5    1    3    3  502    0 -0.25789790331E+03  0.17144604933E+03  0.17850642799E+03  0.35747966543E+03  0.46999998093E+01 0. -1.
       -5    1    3    3    0  502  0.25789790331E+03 -0.17144604933E+03 -0.14945271536E+03  0.34389428680E+03  0.46999998093E+01 0.  1.
</event>
<event>
 5   0  0.1948138E-02  0.6868083E+03  0.7818609E-02  0.9740061E-01
        2   -1    0    0  501    0  0.00000000000E+00  0.00000000000E+00  0.13894553585E+04  0.13894553585E+04  0.25500000920E-02 0. -1.
       -2   -1    0    0    0  501  0.00000000000E+00  0.00000000000E+00 -0.84872410544E+02  0.84872410582E+02  0.25500000920E-02 0.  1.
    10030    2    1    2    0    0  0.00000000000E+00  0.00000000000E+00  0.13045829479E+04  0.14743277691E+04  0.68680834488E+03 0.  0.
        3    1    3    3  502    0 -0.31628625419E+03  0.53958818457E+02  0.91500562333E+03  0.96963078005E+03  0.10100000352E+00 0. -1.
       -3    1    3    3    0  502  0.31628625419E+03 -0.53958818457E+02  0.38957732461E+03  0.50469698902E+03  0.10100000352E+00 0.  1.
</event>
<event>
 5   0  0.1948138E-02  0.6998982E+03  0.7818609E-02  0.9717406E-01
        2   -1    0    0  501    0  0.00000000000E+00  0.00000000000E+00  0.11322981973E+04  0.11322981973E+04  0.25500000920E-02 0. -1.
       -2   -1    0    0    0  501  0.00000000000E+00  0.00000000000E+00 -0.10815559422E+03  0.10815559425E+03  0.25500000920E-02 0.  1.
    10030    2    1    2    0    0  0.00000000000E+00  0.00000000000E+00  0.10241426031E+04  0.12404537916E+04  0.69989823371E+03 0.  0.
        3    1    3    3  502    0 -0.95980792722E+02 -0.68961612826E+02  0.10958567595E+04  0.11022114426E+04  0.10100000352E+00 0. -1.
       -3    1    3    3    0  502  0.95980792722E+02  0.68961612826E+02 -0.71714156428E+02  0.13824234897E+03  0.10100000352E+00 0.  1.
</event>
<event>
 5   0  0.2026361E-02  0.6982333E+03  0.7818609E-02  0.9720258E-01
        2   -1    0    0  501    0  0.00000000000E+00  0.00000000000E+00  0.26697169717E+03  0.26697169718E+03  0.25500000920E-02 0. -1.
       -2   -1    0    0    0  501  0.00000000000E+00  0.00000000000E+00 -0.45653686595E+03  0.45653686596E+03  0.25500000920E-02 0.  1.
    10030    2    1    2    0    0  0.00000000000E+00  0.00000000000E+00 -0.18956516878E+03  0.72350856314E+03  0.69823326168E+03 0.  0.
        2    1    3    3  502    0  0.10995848090E+03  0.12984472852E+03 -0.41066507417E+03  0.44451808084E+03  0.25500000920E-02 0.  1.
       -2    1    3    3    0  502 -0.10995848090E+03 -0.12984472852E+03  0.22109990538E+03  0.27899048230E+03  0.25500000920E-02 0. -1.
</event>
<event>
 5   0  0.1257442E-02  0.6974897E+03  0.7818609E-02  0.9721535E-01
        1   -1    0    0  501    0  0.00000000000E+00  0.00000000000E+00  0.43864734213E+03  0.43864734216E+03  0.50400001928E-02 0. -1.
       -1   -1    0    0    0  501  0.00000000000E+00  0.00000000000E+00 -0.27726825708E+03  0.27726825712E+03  0.50400001928E-02 0.  1.
    10030    2    1    2    0    0  0.00000000000E+00  0.00000000000E+00  0.16137908506E+03  0.71591559929E+03  0.69748973914E+03 0.  0.
        1    1    3    3  502    0 -0.33251673545E+03  0.61179434714E+02  0.16846282295E+03  0.37774333260E+03  0.50400001928E-02 0.  1.
       -1    1    3    3    0  502  0.33251673545E+03 -0.61179434714E+02 -0.70837378898E+01  0.33817226668E+03  0.50400001928E-02 0. -1.
</event>
<event>
 5   0  0.2006362E-02  0.6971604E+03  0.7818609E-02  0.9722101E-01
        2   -1    0    0  501    0  0.00000000000E+00  0.00000000000E+00  0.14336216796E+04  0.14336216796E+04  0.25500000920E-02 0. -1.
       -2   -1    0    0    0  501  0.00000000000E+00  0.00000000000E+00 -0.84756086420E+02  0.84756086458E+02  0.25500000920E-02 0.  1.
    10030    2    1    2    0    0  0.00000000000E+00  0.00000000000E+00  0.13488655931E+04  0.15183777660E+04  0.69716042055E+03 0.  0.
        4    1    3    3  502    0  0.11411334570E+03 -0.11634443773E+03  0.13455394534E+04  0.13553729809E+04  0.12699999809E+01 0. -1.
       -4    1    3    3    0  502 -0.11411334570E+03  0.11634443773E+03  0.33261397347E+01  0.16300478509E+03  0.12699999809E+01 0.  1.
</event>
<event>
 5   0  0.1948138E-02  0.6861628E+03  0.7818609E-02  0.9741193E-01
        2   -1    0    0  501    0  0.00000000000E+00  0.00000000000E+00  0.90591953472E+03  0.90591953473E+03  0.25500000920E-02 0. -1.
       -2   -1    0    0    0  501  0.00000000000E+00  0.00000000000E+00 -0.12992860386E+03  0.12992860389E+03  0.25500000920E-02 0.  1.
    10030    2    1    2    0    0  0.00000000000E+00  0.00000000000E+00  0.77599093086E+03  0.10358481386E+04  0.68616283890E+03 0.  0.
        3    1    3    3  502    0  0.11756864633E+03  0.10908173688E+03  0.84584648721E+03  0.86091666382E+03  0.10100000352E+00 0. -1.
       -3    1    3    3    0  502 -0.11756864633E+03 -0.10908173688E+03 -0.69855556345E+02  0.17493147479E+03  0.10100000352E+00 0.  1.
</event>
<event>
 5   0  0.7947250E-03  0.6890158E+03  0.7818609E-02  0.9736203E-01
       -4   -1    0    0    0  501  0.00000000000E+00  0.00000000000E+00  0.99008513675E+02  0.99016658599E+02  0.12699999809E+01 0. -1.
        4   -1    0    0  501    0  0.00000000000E+00  0.00000000000E+00 -0.11986846634E+04  0.11986853362E+04  0.12699999809E+01 0.  1.
    10030    2    1    2    0    0  0.00000000000E+00  0.00000000000E+00 -0.10996761497E+04  0.12977019948E+04  0.68901584378E+03 0.  0.
        1    1    3    3  502    0  0.71382211077E+02  0.29281627333E+03 -0.23553405994E+03  0.38250893244E+03  0.50400001928E-02 0. -1.
       -1    1    3    3    0  502 -0.71382211077E+02 -0.29281627333E+03 -0.86414208980E+03  0.91519306235E+03  0.50400001928E-02 0.  1.
</event>
<event>
 5   0  0.1226303E-02  0.6993431E+03  0.7818609E-02  0.9718356E-01
        1   -1    0    0  501    0  0.00000000000E+00  0.00000000000E+00  0.34718383432E+03  0.34718383436E+03  0.50400001928E-02 0. -1.
       -1   -1    0    0    0  501  0.00000000000E+00  0.00000000000E+00 -0.35217707239E+03  0.35217707242E+03  0.50400001928E-02 0.  1.
    10030    2    1    2    0    0  0.00000000000E+00  0.00000000000E+00 -0.49932380618E+01  0.69936090678E+03  0.69934308141E+03 0.  0.
        4    1    3    3  502    0  0.33541803487E+03  0.85628233754E+02  0.46811036357E+02  0.34932841075E+03  0.12699999809E+01 0. -1.
       -4    1    3    3    0  502 -0.33541803487E+03 -0.85628233754E+02 -0.51804274418E+02  0.35003249603E+03  0.12699999809E+01 0.  1.
</event>
<event>
 5   0  0.1909053E-02  0.7039028E+03  0.7818609E-02  0.9710581E-01
       -2   -1    0    0    0  501  0.00000000000E+00  0.00000000000E+00  0.38876675759E+03  0.38876675760E+03  0.25500000920E-02 0.  1.
        2   -1    0    0  501    0  0.00000000000E+00  0.00000000000E+00 -0.31862241708E+03  0.31862241709E+03  0.25500000920E-02 0. -1.
    10030    2    1    2    0    0  0.00000000000E+00  0.00000000000E+00  0.70144340505E+02  0.70738917469E+03  0.70390284554E+03 0.  0.
        1    1    3    3  502    0  0.53235645481E+02  0.21431736573E+03  0.31048029656E+03  0.38100391308E+03  0.50400001928E-02 0.  1.
       -1    1    3    3    0  502 -0.53235645481E+02 -0.21431736573E+03 -0.24033595605E+03  0.32638526161E+03  0.50400001928E-02 0. -1.
</event>
<event>
 5   0  0.1237686E-02  0.7061678E+03  0.7818609E-02  0.9706742E-01
        1   -1    0    0  501    0  0.00000000000E+00  0.00000000000E+00  0.66707086529E+03  0.66707086530E+03  0.50400001928E-02 0. -1.
       -1   -1    0    0    0  501  0.00000000000E+00  0.00000000000E+00 -0.18688906866E+03  0.18688906873E+03  0.50400001928E-02 0.  1.
    10030    2    1    2    0    0  0.00000000000E+00  0.00000000000E+00  0.48018179662E+03  0.85395993403E+03  0.70616783496E+03 0.  0.
        5    1    3    3  502    0 -0.19523612169E+03 -0.19855720106E+03 -0.22366441122E+02  0.27940016642E+03  0.46999998093E+01 0.  1.
       -5    1    3    3    0  502  0.19523612169E+03  0.19855720106E+03  0.50254823775E+03  0.57455976762E+03  0.46999998093E+01 0. -1.
</event>
<event>
 5   0  0.1226303E-02  0.7008411E+03  0.7818609E-02  0.9715795E-01
       -1   -1    0    0    0  501  0.00000000000E+00  0.00000000000E+00  0.10660283901E+03  0.10660283913E+03  0.50400001928E-02 0. -1.
        1   -1    0    0  501    0  0.00000000000E+00  0.00000000000E+00 -0.11518882424E+04  0.11518882424E+04  0.50400001928E-02 0.  1.
    10030    2    1    2    0    0  0.00000000000E+00  0.00000000000E+00 -0.10452854033E+04  0.12584910815E+04  0.70084108596E+03 0.  0.
        4    1    3    3  502    0 -0.13501812856E+03  0.19335789942E+03 -0.57231404952E+02  0.24268131144E+03  0.12699999809E+01 0. -1.
       -4    1    3    3    0  502  0.13501812856E+03 -0.19335789942E+03 -0.98805399839E+03  0.10158097701E+04  0.12699999809E+01 0.  1.
</event>
<event>
 5   0  0.1948138E-02  0.7009229E+03  0.7818609E-02  0.9715655E-01
       -2   -1    0    0    0  501  0.00000000000E+00  0.00000000000E+00  0.26784949721E+03  0.26784949722E+03  0.25500000920E-02 0. -1.
        2   -1    0    0  501    0  0.00000000000E+00  0.00000000000E+00 -0.45855317974E+03  0.45855317974E+03  0.25500000920E-02 0.  1.
    10030    2    1    2    0    0  0.00000000000E+00  0.00000000000E+00 -0.19070368253E+03  0.72640267696E+03  0.70092293055E+03 0.  0.
        3    1    3    3  502    0  0.10353633185E+02 -0.31922947086E+03  0.54143736110E+02  0.32395402011E+03  0.10100000352E+00 0. -1.
       -3    1    3    3    0  502 -0.10353633185E+02  0.31922947086E+03 -0.24484741864E+03  0.40244865685E+03  0.10100000352E+00 0.  1.
</event>
<event>
 5   0  0.1226303E-02  0.7045262E+03  0.7818609E-02  0.9709523E-01
       -1   -1    0    0    0  501  0.00000000000E+00  0.00000000000E+00  0.12045001798E+03  0.12045001809E+03  0.50400001928E-02 0.  1.
        1   -1    0    0  501    0  0.00000000000E+00  0.00000000000E+00 -0.10302140447E+04  0.10302140447E+04  0.50400001928E-02 0. -1.
    10030    2    1    2    0    0  0.00000000000E+00  0.00000000000E+00 -0.90976402670E+03  0.11506640628E+04  0.70452622457E+03 0.  0.
        4    1    3    3  502    0  0.20335577843E+03  0.26635942536E+03 -0.63219837610E+03  0.71552590152E+03  0.12699999809E+01 0. -1.
       -4    1    3    3    0  502 -0.20335577843E+03 -0.26635942536E+03 -0.27756565060E+03  0.43513816127E+03  0.12699999809E+01 0.  1.
</event>
<event>
 5   0  0.1257442E-02  0.7008641E+03  0.7818609E-02  0.9715756E-01
       -1   -1    0    0    0  501  0.00000000000E+00  0.00000000000E+00  0.12862251237E+04  0.12862251238E+04  0.50400001928E-02 0.  1.
        1   -1    0    0  501    0  0.00000000000E+00  0.00000000000E+00 -0.95475218478E+02  0.95475218611E+02  0.50400001928E-02 0. -1.
    10030    2    1    2    0    0  0.00000000000E+00  0.00000000000E+00  0.11907499053E+04  0.13817003424E+04  0.70086410894E+03 0.  0.
        1    1    3    3  502    0  0.55933075683E+02 -0.12967630525E+03  0.12276403945E+04  0.12357367807E+04  0.50400001928E-02 0.  1.
       -1    1    3    3    0  502 -0.55933075683E+02  0.12967630525E+03 -0.36890489223E+02  0.14596356161E+03  0.50400001928E-02 0. -1.
</event>
<event>
 5   0  0.1223742E-02  0.7005546E+03  0.7818609E-02  0.9716284E-01
       -1   -1    0    0    0  501  0.00000000000E+00  0.00000000000E+00  0.10559529869E+03  0.10559529881E+03  0.50400001928E-02 0.  1.
        1   -1    0    0  501    0  0.00000000000E+00  0.00000000000E+00 -0.11619286414E+04  0.11619286414E+04  0.50400001928E-02 0. -1.
    10030    2    1    2    0    0  0.00000000000E+00  0.00000000000E+00 -0.10563333427E+04  0.12675239402E+04  0.70055464318E+03 0.  0.
        2    1    3    3  502    0  0.56124912333E+02 -0.33450499267E+03 -0.68642336074E+03  0.76565045946E+03  0.25500000920E-02 0. -1.
       -2    1    3    3    0  502 -0.56124912333E+02  0.33450499267E+03 -0.36990998195E+03  0.50187348073E+03  0.25500000920E-02 0.  1.
</event>
<event>
 5   0  0.1909053E-02  0.6994402E+03  0.7818609E-02  0.9718190E-01
        2   -1    0    0  501    0  0.00000000000E+00  0.00000000000E+00  0.92805951981E+03  0.92805951982E+03  0.25500000920E-02 0. -1.
       -2   -1    0    0    0  501  0.00000000000E+00  0.00000000000E+00 -0.13178481714E+03  0.13178481716E+03  0.25500000920E-02 0.  1.
    10030    2    1    2    0    0  0.00000000000E+00  0.00000000000E+00  0.79627470267E+03  0.10598443370E+04  0.69944021654E+03 0.  0.
        1    1    3    3  502    0 -0.32035001183E+03  0.12812609383E+03  0.48470357437E+03  0.59496048695E+03  0.50400001928E-02 0. -1.
       -1    1    3    3    0  502  0.32035001183E+03 -0.12812609383E+03  0.31157112830E+03  0.46488385003E+03  0.50400001928E-02 0.  1.
</event>
<event>
 5   0  0.1237686E-02  0.7356859E+03  0.7818609E-02  0.9658078E-01
        1   -1    0    0  501    0  0.00000000000E+00  0.00000000000E+00  0.16127124501E+04  0.16127124501E+04  0.50400001928E-02 0. -1.
       -1   -1    0    0    0  501  0.00000000000E+00  0.00000000000E+00 -0.83901151038E+02  0.83901151189E+02  0.50400001928E-02 0.  1.
    10030    2    1    2    0    0  0.00000000000E+00  0.00000000000E+00  0.15288112991E+04  0.16966136013E+04  0.73568588675E+03 0.  0.
        5    1    3    3  502    0  0.97501497192E+02 -0.35423374416E+03  0.80423317499E+03  0.88419521442E+03  0.46999998093E+01 0.  1.
       -5    1    3    3    0  502 -0.97501497192E+02  0.35423374416E+03  0.72457812408E+03  0.81241838688E+03  0.46999998093E+01 0. -1.
</event>
<event>
 5   0  0.1948138E-02  0.7055214E+03  0.7818609E-02  0.9707836E-01
       -2   -1    0    0    0  501  0.00000000000E+00  0.00000000000E+00  0.16888401849E+03  0.16888401851E+03  0.25500000920E-02 0.  1.
        2   -1    0    0  501    0  0.00000000000E+00  0.00000000000E+00 -0.73683772972E+03  0.73683772972E+03  0.25500000920E-02 0. -1.
    10030    2    1    2    0    0  0.00000000000E+00  0.00000000000E+00 -0.56795371123E+03  0.90572174823E+03  0.70552141507E+03 0.  0.
        3    1    3    3  502    0 -0.15894886566E+03 -0.13819200955E+03  0.79303662175E+02  0.22505744696E+03  0.10100000352E+00 0.  1.
       -3    1    3    3    0  502  0.15894886566E+03  0.13819200955E+03 -0.64725737340E+03  0.68066430127E+03  0.10100000352E+00 0. -1.
</event>
<event>
 5   0  0.2026361E-02  0.7140064E+03  0.7818609E-02  0.9693575E-01
        2   -1    0    0  501    0  0.00000000000E+00  0.00000000000E+00  0.10329917504E+04  0.10329917504E+04  0.25500000920E-02 0.  1.
       -2   -1    0    0    0  501  0.00000000000E+00  0.00000000000E+00 -0.12338073951E+03  0.12338073954E+03  0.25500000920E-02 0. -1.
    10030    2    1    2    0    0  0.00000000000E+00  0.00000000000E+00  0.90961101088E+03  0.11563724899E+04  0.71400640359E+03 0.  0.
        2    1    3    3  502    0 -0.60542747521E+02  0.99632249202E+02 -0.91681519174E+02  0.14831557681E+03  0.25500000920E-02 0. -1.
       -2    1    3    3    0  502  0.60542747521E+02 -0.99632249202E+02  0.10012925301E+04  0.10080569131E+04  0.25500000920E-02 0.  1.
</event>
<event>
 5   0  0.1909053E-02  0.7170912E+03  0.7818609E-02  0.9688442E-01
       -2   -1    0    0    0  501  0.00000000000E+00  0.00000000000E+00  0.63850930408E+02  0.63850930459E+02  0.25500000920E-02 0. -1.
        2   -1    0    0  501    0  0.00000000000E+00  0.00000000000E+00 -0.20133604739E+04  0.20133604739E+04  0.25500000920E-02 0.  1.
    10030    2    1    2    0    0  0.00000000000E+00  0.00000000000E+00 -0.19495095435E+04  0.20772114044E+04  0.71709117847E+03 0.  0.
        1    1    3    3  502    0  0.28822373446E+03 -0.14793791271E+03 -0.14197231238E+04  0.14562184917E+04  0.50400001928E-02 0.  1.
       -1    1    3    3    0  502 -0.28822373446E+03  0.14793791271E+03 -0.52978641965E+03  0.62099291268E+03  0.50400001928E-02 0. -1.
</event>
<event>
 5   0  0.1948138E-02  0.6978236E+03  0.7818609E-02  0.9720961E-01
       -2   -1    0    0    0  501  0.00000000000E+00  0.00000000000E+00  0.24432022673E+03  0.24432022674E+03  0.25500000920E-02 0.  1.
        2   -1    0    0  501    0  0.00000000000E+00  0.00000000000E+00 -0.49827816321E+03  0.49827816321E+03  0.25500000920E-02 0. -1.
    10030    2    1    2    0    0  0.00000000000E+00  0.00000000000E+00 -0.25395793648E+03  0.74259838996E+03  0.69782357030E+03 0.  0.
        3    1    3    3  502    0 -0.15427015546E+03 -0.10623231269E+03 -0.44023884835E+03  0.47842955482E+03  0.10100000352E+00 0. -1.
       -3    1    3    3    0  502  0.15427015546E+03  0.10623231269E+03  0.18628091188E+03  0.26416883513E+03  0.10100000352E+00 0.  1.
</event>
<event>
 5   0  0.1257442E-02  0.7047967E+03  0.7818609E-02  0.9709064E-01
       -1   -1    0    0    0  501  0.00000000000E+00  0.00000000000E+00  0.16241452963E+03  0.16241452970E+03  0.50400001928E-02 0. -1.
        1   -1    0    0  501    0  0.00000000000E+00  0.00000000000E+00 -0.76461499260E+03  0.76461499262E+03  0.50400001928E-02 0.  1.
    10030    2    1    2    0    0  0.00000000000E+00  0.00000000000E+00 -0.60220046298E+03  0.92702952233E+03  0.70479666405E+03 0.  0.
        1    1    3    3  502    0  0.85311761266E+02 -0.34153984493E+03 -0.32218723948E+03  0.47721292899E+03  0.50400001928E-02 0. -1.
       -1    1    3    3    0  502 -0.85311761266E+02  0.34153984493E+03 -0.28001322349E+03  0.44981659334E+03  0.50400001928E-02 0.  1.
</event>
<event>
 5   0  0.1237686E-02  0.6986973E+03  0.7818609E-02  0.9719463E-01
        1   -1    0    0  501    0  0.00000000000E+00  0.00000000000E+00  0.10315363498E+04  0.10315363498E+04  0.50400001928E-02 0. -1.
       -1   -1    0    0    0  501  0.00000000000E+00  0.00000000000E+00 -0.11831332049E+03  0.11831332059E+03  0.50400001928E-02 0.  1.
    10030    2    1    2    0    0  0.00000000000E+00  0.00000000000E+00  0.91322302930E+03  0.11498496704E+04  0.69869733309E+03 0.  0.
        5    1    3    3  502    0  0.15706411610E+03 -0.29077480650E+03  0.27039742595E+03  0.42703159440E+03  0.46999998093E+01 0.  1.
       -5    1    3    3    0  502 -0.15706411610E+03  0.29077480650E+03  0.64282560335E+03  0.72281807599E+03  0.46999998093E+01 0. -1.
</event>
<event>
 5   0  0.7947250E-03  0.7001256E+03  0.7818609E-02  0.9717017E-01
       -3   -1    0    0    0  501  0.00000000000E+00  0.00000000000E+00  0.18561820408E+03  0.18561823155E+03  0.10100000352E+00 0.  1.
        3   -1    0    0  501    0  0.00000000000E+00  0.00000000000E+00 -0.66019357044E+03  0.66019357816E+03  0.10100000352E+00 0. -1.
    10030    2    1    2    0    0  0.00000000000E+00  0.00000000000E+00 -0.47457536636E+03  0.84581180972E+03  0.70012558809E+03 0.  0.
        2    1    3    3  502    0  0.23801064973E+03  0.19351070186E+03 -0.44105168912E+03  0.53723556621E+03  0.25500000920E-02 0. -1.
       -2    1    3    3    0  502 -0.23801064973E+03 -0.19351070186E+03 -0.33523677239E+02  0.30857624351E+03  0.25500000920E-02 0.  1.
</event>
<event>
 5   0  0.2006362E-02  0.6945760E+03  0.7818609E-02  0.9726553E-01
        2   -1    0    0  501    0  0.00000000000E+00  0.00000000000E+00  0.26199115132E+03  0.26199115133E+03  0.25500000920E-02 0.  1.
       -2   -1    0    0    0  501  0.00000000000E+00  0.00000000000E+00 -0.46035504029E+03  0.46035504030E+03  0.25500000920E-02 0. -1.
    10030    2    1    2    0    0  0.00000000000E+00  0.00000000000E+00 -0.19836388897E+03  0.72234619162E+03  0.69457597720E+03 0.  0.
        4    1    3    3  502    0 -0.18701947873E+03 -0.21798492222E+03 -0.30221452863E+03  0.41692798654E+03  0.12699999809E+01 0. -1.
       -4    1    3    3    0  502  0.18701947873E+03  0.21798492222E+03  0.10385063966E+03  0.30541820509E+03  0.12699999809E+01 0.  1.
</event>
<event>
 5   0  0.2026361E-02  0.7102534E+03  0.7818609E-02  0.9699856E-01
        2   -1    0    0  501    0  0.00000000000E+00  0.00000000000E+00  0.58192962442E+03  0.58192962442E+03  0.25500000920E-02 0.  1.
       -2   -1    0    0    0  501  0.00000000000E+00  0.00000000000E+00 -0.21671862051E+03  0.21671862052E+03  0.25500000920E-02 0. -1.
    10030    2    1    2    0    0  0.00000000000E+00  0.00000000000E+00  0.36521100391E+03  0.79864824494E+03  0.71025343489E+03 0.  0.
        2    1    3    3  502    0  0.63727052186E+02  0.30163717000E+02 -0.20876956126E+03  0.22035361744E+03  0.25500000920E-02 0. -1.
       -2    1    3    3    0  502 -0.63727052186E+02 -0.30163717000E+02  0.57398056517E+03  0.57829462751E+03  0.25500000920E-02 0.  1.
</event>
<event>
 5   0  0.1223742E-02  0.7044232E+03  0.7818609E-02  0.9709698E-01
        1   -1    0    0  501    0  0.00000000000E+00  0.00000000000E+00  0.48956909408E+03  0.48956909411E+03  0.50400001928E-02 0. -1.
       -1   -1    0    0    0  501  0.00000000000E+00  0.00000000000E+00 -0.25339227928E+03  0.25339227933E+03  0.50400001928E-02 0.  1.
    10030    2    1    2    0    0  0.00000000000E+00  0.00000000000E+00  0.23617681480E+03  0.74296137344E+03  0.70442324960E+03 0.  0.
        2    1    3    3  502    0 -0.72044135683E+01 -0.20739699901E+03  0.41824082443E+03  0.46689485540E+03  0.25500000920E-02 0. -1.
       -2    1    3    3    0  502  0.72044135683E+01  0.20739699901E+03 -0.18206400963E+03  0.27606651804E+03  0.25500000920E-02 0.  1.
</event>
<event>
 5   0  0.7947250E-03  0.6905188E+03  0.7818609E-02  0.9733585E-01
       -4   -1    0    0    0  501  0.00000000000E+00  0.00000000000E+00  0.57621180739E+03  0.57621320696E+03  0.12699999809E+01 0. -1.
        4   -1    0    0  501    0  0.00000000000E+00  0.00000000000E+00 -0.20687180775E+03  0.20687570602E+03  0.12699999809E+01 0.  1.
    10030    2    1    2    0    0  0.00000000000E+00  0.00000000000E+00  0.36933999963E+03  0.78308891298E+03  0.69051879794E+03 0.  0.
        2    1    3    3  502    0  0.14178327599E+03  0.30741711544E+03  0.10778556132E+03  0.35528229262E+03  0.25500000920E-02 0. -1.
       -2    1    3    3    0  502 -0.14178327599E+03 -0.30741711544E+03  0.26155443831E+03  0.42780662036E+03  0.25500000920E-02 0.  1.
</event>
<event>
 5   0  0.1909053E-02  0.7015371E+03  0.7818609E-02  0.9714607E-01
       -2   -1    0    0    0  501  0.00000000000E+00  0.00000000000E+00  0.10258332116E+03  0.10258332119E+03  0.25500000920E-02 0. -1.
        2   -1    0    0  501    0  0.00000000000E+00  0.00000000000E+00 -0.11994014101E+04  0.11994014101E+04  0.25500000920E-02 0.  1.
    10030    2    1    2    0    0  0.00000000000E+00  0.00000000000E+00 -0.10968180889E+04  0.13019847313E+04  0.70153711255E+03 0.  0.
        1    1    3    3  502    0 -0.18531276718E+03  0.29697414988E+03 -0.59007861721E+03  0.68609565068E+03  0.50400001928E-02 0.  1.
       -1    1    3    3    0  502  0.18531276718E+03 -0.29697414988E+03 -0.50673947173E+03  0.61588908060E+03  0.50400001928E-02 0. -1.
</event>
<event>
 5   0  0.1226303E-02  0.7002032E+03  0.7818609E-02  0.9716885E-01
       -1   -1    0    0    0  501  0.00000000000E+00  0.00000000000E+00  0.81777372273E+02  0.81777372428E+02  0.50400001928E-02 0.  1.
        1   -1    0    0  501    0  0.00000000000E+00  0.00000000000E+00 -0.14988392384E+04  0.14988392384E+04  0.50400001928E-02 0. -1.
    10030    2    1    2    0    0  0.00000000000E+00  0.00000000000E+00 -0.14170618661E+04  0.15806166108E+04  0.70020321195E+03 0.  0.
        4    1    3    3  502    0  0.10095735016E+03 -0.13537749983E+03 -0.14008112743E+04  0.14109547452E+04  0.12699999809E+01 0. -1.
       -4    1    3    3    0  502 -0.10095735016E+03  0.13537749983E+03 -0.16250591860E+02  0.16966186563E+03  0.12699999809E+01 0.  1.
</event>
<event>
 5   0  0.1237686E-02  0.7049601E+03  0.7818609E-02  0.9708787E-01
        1   -1    0    0  501    0  0.00000000000E+00  0.00000000000E+00  0.14655858827E+04  0.14655858827E+04  0.50400001928E-02 0.  1.
       -1   -1    0    0    0  501  0.00000000000E+00  0.00000000000E+00 -0.84773042784E+02  0.84773042934E+02  0.50400001928E-02 0. -1.
    10030    2    1    2    0    0  0.00000000000E+00  0.00000000000E+00  0.13808128399E+04  0.15503589257E+04  0.70496006940E+03 0.  0.
        5    1    3    3  502    0 -0.32737312744E+03 -0.11038808659E+03  0.53706905509E+03  0.63861095681E+03  0.46999998093E+01 0. -1.
       -5    1    3    3    0  502  0.32737312744E+03  0.11038808659E+03  0.84374378486E+03  0.91174796886E+03  0.46999998093E+01 0.  1.
</event>
<event>
 5   0  0.1257442E-02  0.7017054E+03  0.7818609E-02  0.9714320E-01
        1   -1    0    0  501    0  0.00000000000E+00  0.00000000000E+00  0.11670401189E+04  0.11670401189E+04  0.50400001928E-02 0.  1.
       -1   -1    0    0    0  501  0.00000000000E+00  0.00000000000E+00 -0.10547848938E+03  0.10547848950E+03  0.50400001928E-02 0. -1.
    10030    2    1    2    0    0  0.00000000000E+00  0.00000000000E+00  0.10615616295E+04  0.12725186084E+04  0.70170543358E+03 0.  0.
        1    1    3    3  502    0 -0.19167746279E+03 -0.28803635296E+03  0.42515616224E+03  0.54814501063E+03  0.50400001928E-02 0. -1.
       -1    1    3    3    0  502  0.19167746279E+03  0.28803635296E+03  0.63640546730E+03  0.72437359781E+03  0.50400001928E-02 0.  1.
</event>
<event>
 5   0  0.1197259E-02  0.6680018E+03  0.7818609E-02  0.9773574E-01
        1   -1    0    0  501    0  0.00000000000E+00  0.00000000000E+00  0.44706230573E+03  0.44706230575E+03  0.50400001928E-02 0. -1.
       -1   -1    0    0    0  501  0.00000000000E+00  0.00000000000E+00 -0.24953256815E+03  0.24953256820E+03  0.50400001928E-02 0.  1.
    10030    2    1    2    0    0  0.00000000000E+00  0.00000000000E+00  0.19752973758E+03  0.69659487395E+03  0.66800181227E+03 0.  0.
        3    1    3    3  502    0 -0.16275900597E+03 -0.10325496998E+02 -0.20518962576E+03  0.26210666270E+03  0.10100000352E+00 0.  1.
       -3    1    3    3    0  502  0.16275900597E+03  0.10325496998E+02  0.40271936334E+03  0.43448821125E+03  0.10100000352E+00 0. -1.
</event>
<event>
 5   0  0.1948138E-02  0.6997728E+03  0.7818609E-02  0.9717621E-01
       -2   -1    0    0    0  501  0.00000000000E+00  0.00000000000E+00  0.15447710585E+03  0.15447710587E+03  0.25500000920E-02 0.  1.
        2   -1    0    0  501    0  0.00000000000E+00  0.00000000000E+00 -0.79248313128E+03  0.79248313129E+03  0.25500000920E-02 0. -1.
    10030    2    1    2    0    0  0.00000000000E+00  0.00000000000E+00 -0.63800602543E+03  0.94696023716E+03  0.69977282190E+03 0.  0.
        3    1    3    3  502    0 -0.10980954600E+03  0.26029818854E+03 -0.39673897732E+02  0.28528461527E+03  0.10100000352E+00 0.  1.
       -3    1    3    3    0  502  0.10980954600E+03 -0.26029818854E+03 -0.59833212770E+03  0.66167562188E+03  0.10100000352E+00 0. -1.
</event>
<event>
 5   0  0.1909053E-02  0.6892410E+03  0.7818609E-02  0.9735810E-01
       -2   -1    0    0    0  501  0.00000000000E+00  0.00000000000E+00  0.12041898953E+03  0.12041898955E+03  0.25500000920E-02 0.  1.
        2   -1    0    0  501    0  0.00000000000E+00  0.00000000000E+00 -0.98625048251E+03  0.98625048251E+03  0.25500000920E-02 0. -1.
    10030    2    1    2    0    0  0.00000000000E+00  0.00000000000E+00 -0.86583149298E+03  0.11066694721E+04  0.68924099281E+03 0.  0.
        1    1    3    3  502    0 -0.22755522165E+03  0.58133183748E+02 -0.27982233721E+02  0.23652452597E+03  0.50400001928E-02 0.  1.
       -1    1    3    3    0  502  0.22755522165E+03 -0.58133183748E+02 -0.83784925926E+03  0.87014494610E+03  0.50400001928E-02 0. -1.
</event>
<event>
 5   0  0.1237686E-02  0.7006928E+03  0.7818609E-02  0.9716048E-01
       -1   -1    0    0    0  501  0.00000000000E+00  0.00000000000E+00  0.19446230641E+03  0.19446230648E+03  0.50400001928E-02 0.  1.
        1   -1    0    0  501    0  0.00000000000E+00  0.00000000000E+00 -0.63118972882E+03  0.63118972884E+03  0.50400001928E-02 0. -1.
    10030    2    1    2    0    0  0.00000000000E+00  0.00000000000E+00 -0.43672742241E+03  0.82565203531E+03  0.70069282994E+03 0.  0.
        5    1    3    3  502    0 -0.54634848554E+02 -0.81954966692E+02 -0.61450033143E+03  0.62236189679E+03  0.46999998093E+01 0. -1.
       -5    1    3    3    0  502  0.54634848554E+02  0.81954966692E+02  0.17777290902E+03  0.20329013853E+03  0.46999998093E+01 0.  1.
</event>
<event>
 5   0  0.2006362E-02  0.7008834E+03  0.7818609E-02  0.9715723E-01
       -2   -1    0    0    0  501  0.00000000000E+00  0.00000000000E+00  0.12575406877E+03  0.12575406879E+03  0.25500000920E-02 0.  1.
        2   -1    0    0  501    0  0.00000000000E+00  0.00000000000E+00 -0.97658387594E+03  0.97658387595E+03  0.25500000920E-02 0. -1.
    10030    2    1    2    0    0  0.00000000000E+00  0.00000000000E+00 -0.85082980718E+03  0.11023379447E+04  0.70088343084E+03 0.  0.
        4    1    3    3  502    0 -0.33327375192E+03  0.30708761802E+02 -0.26201668403E+03  0.42505149968E+03  0.12699999809E+01 0. -1.
       -4    1    3    3    0  502  0.33327375192E+03 -0.30708761802E+02 -0.58881312315E+03  0.67728644506E+03  0.12699999809E+01 0.  1.
</event>
<event>
 5   0  0.1223742E-02  0.6981910E+03  0.7818609E-02  0.9720331E-01
        1   -1    0    0  501    0  0.00000000000E+00  0.00000000000E+00  0.14888262621E+03  0.14888262630E+03  0.50400001928E-02 0. -1.
       -1   -1    0    0    0  501  0.00000000000E+00  0.00000000000E+00 -0.81854856699E+03  0.81854856701E+03  0.50400001928E-02 0.  1.
    10030    2    1    2    0    0  0.00000000000E+00  0.00000000000E+00 -0.66966594078E+03  0.96743119330E+03  0.69819097784E+03 0.  0.
        2    1    3    3  502    0 -0.17276099430E+03  0.23721820521E+03 -0.72847791017E+02  0.30236672881E+03  0.25500000920E-02 0. -1.
       -2    1    3    3    0  502  0.17276099430E+03 -0.23721820521E+03 -0.59681814976E+03  0.66506446449E+03  0.25500000920E-02 0.  1.
</event>
<event>
 5   0  0.1973067E-02  0.6882591E+03  0.7818609E-02  0.9737524E-01
       -2   -1    0    0    0  501  0.00000000000E+00  0.00000000000E+00  0.11675320318E+03  0.11675320321E+03  0.25500000920E-02 0.  1.
        2   -1    0    0  501    0  0.00000000000E+00  0.00000000000E+00 -0.10143202580E+04  0.10143202580E+04  0.25500000920E-02 0. -1.
    10030    2    1    2    0    0  0.00000000000E+00  0.00000000000E+00 -0.89756705484E+03  0.11310734612E+04  0.68825907678E+03 0.  0.
        5    1    3    3  502    0 -0.31214745184E+03  0.14386270611E+03 -0.42175302995E+03  0.54408659069E+03  0.46999998093E+01 0. -1.
       -5    1    3    3    0  502  0.31214745184E+03 -0.14386270611E+03 -0.47581402489E+03  0.58698687054E+03  0.46999998093E+01 0.  1.
</event>
<event>
 5   0  0.1973067E-02  0.6778900E+03  0.7818609E-02  0.9755809E-01
        2   -1    0    0  501    0  0.00000000000E+00  0.00000000000E+00  0.71249206000E+03  0.71249206001E+03  0.25500000920E-02 0. -1.
       -2   -1    0    0    0  501  0.00000000000E+00  0.00000000000E+00 -0.16124208276E+03  0.16124208278E+03  0.25500000920E-02 0.  1.
    10030    2    1    2    0    0  0.00000000000E+00  0.00000000000E+00  0.55124997724E+03  0.87373414278E+03  0.67788997253E+03 0.  0.
        5    1    3    3  502    0  0.17005466524E+03  0.12653892902E+02  0.65312804146E+03  0.67503854610E+03  0.46999998093E+01 0. -1.
       -5    1    3    3    0  502 -0.17005466524E+03 -0.12653892902E+02 -0.10187806422E+03  0.19869559669E+03  0.46999998093E+01 0.  1.
</event>
<event>
 5   0  0.1948138E-02  0.7154171E+03  0.7818609E-02  0.9691224E-01
       -2   -1    0    0    0  501  0.00000000000E+00  0.00000000000E+00  0.29717935662E+03  0.29717935663E+03  0.25500000920E-02 0. -1.
        2   -1    0    0  501    0  0.00000000000E+00  0.00000000000E+00 -0.43056627736E+03  0.43056627737E+03  0.25500000920E-02 0.  1.
    10030    2    1    2    0    0  0.00000000000E+00  0.00000000000E+00 -0.13338692074E+03  0.72774563400E+03  0.71541710714E+03 0.  0.
        3    1    3    3  502    0  0.74825302344E+02 -0.32149219783E+03 -0.20690686816E+03  0.38957222877E+03  0.10100000352E+00 0.  1.
       -3    1    3    3    0  502 -0.74825302344E+02  0.32149219783E+03  0.73519947421E+02  0.33817340523E+03  0.10100000352E+00 0. -1.
</event>
<event>
 5   0  0.1973067E-02  0.7018138E+03  0.7818609E-02  0.9714135E-01
        2   -1    0    0  501    0  0.00000000000E+00  0.00000000000E+00  0.12265036378E+04  0.12265036378E+04  0.25500000920E-02 0. -1.
       -2   -1    0    0    0  501  0.00000000000E+00  0.00000000000E+00 -0.10039568087E+03  0.10039568091E+03  0.25500000920E-02 0.  1.
    10030    2    1    2    0    0  0.00000000000E+00  0.00000000000E+00  0.11261079569E+04  0.13268993187E+04  0.70181384378E+03 0.  0.
        5    1    3    3  502    0  0.24912123450E+03  0.92053545594E+02  0.12952368763E+03  0.29552279166E+03  0.46999998093E+01 0.  1.
       -5    1    3    3    0  502 -0.24912123450E+03 -0.92053545594E+02  0.99658426927E+03  0.10313765270E+04  0.46999998093E+01 0. -1.
</event>
<event>
 5   0  0.2026361E-02  0.7187689E+03  0.7818609E-02  0.9685663E-01
        2   -1    0    0  501    0  0.00000000000E+00  0.00000000000E+00  0.14305085346E+04  0.14305085346E+04  0.25500000920E-02 0.  1.
       -2   -1    0    0    0  501  0.00000000000E+00  0.00000000000E+00 -0.90287590336E+02  0.90287590372E+02  0.25500000920E-02 0. -1.
    10030    2    1    2    0    0  0.00000000000E+00  0.00000000000E+00  0.13402209443E+04  0.15207961250E+04  0.71876886013E+03 0.  0.
        2    1    3    3  502    0 -0.37746584807E+02  0.17846172084E+03  0.14940004764E+02  0.18302074806E+03  0.25500000920E-02 0. -1.
       -2    1    3    3    0  502  0.37746584807E+02 -0.17846172084E+03  0.13252809395E+04  0.13377753769E+04  0.25500000920E-02 0.  1.
</event>
<event>
 5   0  0.1973067E-02  0.7055079E+03  0.7818609E-02  0.9707859E-01
        2   -1    0    0  501    0  0.00000000000E+00  0.00000000000E+00  0.67634434741E+03  0.67634434742E+03  0.25500000920E-02 0. -1.
       -2   -1    0    0    0  501  0.00000000000E+00  0.00000000000E+00 -0.18398226418E+03  0.18398226420E+03  0.25500000920E-02 0.  1.
    10030    2    1    2    0    0  0.00000000000E+00  0.00000000000E+00  0.49236208323E+03  0.86032661162E+03  0.70550794301E+03 0.  0.
        5    1    3    3  502    0 -0.89073795399E+02 -0.22961639086E+03 -0.61726335774E+02  0.25394892893E+03  0.46999998093E+01 0.  1.
       -5    1    3    3    0  502  0.89073795399E+02  0.22961639086E+03  0.55408841901E+03  0.60637768268E+03  0.46999998093E+01 0. -1.
</event>
<event>
 5   0  0.2026361E-02  0.7005642E+03  0.7818609E-02  0.9716268E-01
        2   -1    0    0  501    0  0.00000000000E+00  0.00000000000E+00  0.20463323291E+03  0.20463323293E+03  0.25500000920E-02 0.  1.
       -2   -1    0    0    0  501  0.00000000000E+00  0.00000000000E+00 -0.59959733430E+03  0.59959733431E+03  0.25500000920E-02 0. -1.
    10030    2    1    2    0    0  0.00000000000E+00  0.00000000000E+00 -0.39496410139E+03  0.80423056724E+03  0.70056417543E+03 0.  0.
        2    1    3    3  502    0 -0.28969327447E+03  0.15331397551E+03 -0.55623792305E+02  0.33244755171E+03  0.25500000920E-02 0.  1.
       -2    1    3    3    0  502  0.28969327447E+03 -0.15331397551E+03 -0.33934030909E+03  0.47178301553E+03  0.25500000920E-02 0. -1.
</event>
<event>
 5   0  0.2006362E-02  0.7010564E+03  0.7818609E-02  0.9715427E-01
        2   -1    0    0  501    0  0.00000000000E+00  0.00000000000E+00  0.17508701125E+04  0.17508701125E+04  0.25500000920E-02 0. -1.
       -2   -1    0    0    0  501  0.00000000000E+00  0.00000000000E+00 -0.70176551765E+02  0.70176551812E+02  0.25500000920E-02 0.  1.
    10030    2    1    2    0    0  0.00000000000E+00  0.00000000000E+00  0.16806935608E+04  0.18210466643E+04  0.70105642321E+03 0.  0.
        4    1    3    3  502    0 -0.59874501668E+02  0.33248289085E+03  0.10831691392E+04  0.11346307001E+04  0.12699999809E+01 0. -1.
       -4    1    3    3    0  502  0.59874501668E+02 -0.33248289085E+03  0.59752442154E+03  0.68641596419E+03  0.12699999809E+01 0.  1.
</event>
<event>
 5   0  0.1909053E-02  0.7024369E+03  0.7818609E-02  0.9713074E-01
        2   -1    0    0  501    0  0.00000000000E+00  0.00000000000E+00  0.13151050774E+03  0.13151050776E+03  0.25500000920E-02 0. -1.
       -2   -1    0    0    0  501  0.00000000000E+00  0.00000000000E+00 -0.93798136450E+03  0.93798136450E+03  0.25500000920E-02 0.  1.
    10030    2    1    2    0    0  0.00000000000E+00  0.00000000000E+00 -0.80647085676E+03  0.10694918723E+04  0.70243691676E+03 0.  0.
        1    1    3    3  502    0 -0.34991506072E+03 -0.25753209358E+02 -0.42733919604E+03  0.55292184439E+03  0.50400001928E-02 0. -1.
       -1    1    3    3    0  502  0.34991506072E+03  0.25753209358E+02 -0.37913166072E+03  0.51657002787E+03  0.50400001928E-02 0.  1.
</event>
<event>
 5   0  0.1257442E-02  0.7457773E+03  0.7818609E-02  0.9641999E-01
        1   -1    0    0  501    0  0.00000000000E+00  0.00000000000E+00  0.41122757628E+03  0.41122757631E+03  0.50400001928E-02 0. -1.
       -1   -1    0    0    0  501  0.00000000000E+00  0.00000000000E+00 -0.33812403685E+03  0.33812403689E+03  0.50400001928E-02 0.  1.
    10030    2    1    2    0    0  0.00000000000E+00  0.00000000000E+00  0.73103539427E+02  0.74935161320E+03  0.74577725409E+03 0.  0.
        1    1    3    3  502    0  0.21916554004E+03 -0.13287491688E+03  0.30869420088E+03  0.40122485860E+03  0.50400001928E-02 0. -1.
       -1    1    3    3    0  502 -0.21916554004E+03  0.13287491688E+03 -0.23559066145E+03  0.34812675460E+03  0.50400001928E-02 0.  1.
</event>
<event>
 5   0  0.1237686E-02  0.6940469E+03  0.7818609E-02  0.9727467E-01
       -1   -1    0    0    0  501  0.00000000000E+00  0.00000000000E+00  0.27734060308E+03  0.27734060312E+03  0.50400001928E-02 0.  1.
        1   -1    0    0  501    0  0.00000000000E+00  0.00000000000E+00 -0.43421440833E+03  0.43421440836E+03  0.50400001928E-02 0. -1.
    10030    2    1    2    0    0  0.00000000000E+00  0.00000000000E+00 -0.15687380525E+03  0.71155501148E+03  0.69404693184E+03 0.  0.
        5    1    3    3  502    0  0.11189179415E+03 -0.20063811780E+02 -0.41454983364E+03  0.42987903497E+03  0.46999998093E+01 0. -1.
       -5    1    3    3    0  502 -0.11189179415E+03  0.20063811780E+02  0.25767602839E+03  0.28167597651E+03  0.46999998093E+01 0.  1.
</event>
<event>
 5   0  0.1223742E-02  0.7029845E+03  0.7818609E-02  0.9712142E-01
        1   -1    0    0  501    0  0.00000000000E+00  0.00000000000E+00  0.43251755297E+03  0.43251755300E+03  0.50400001928E-02 0. -1.
       -1   -1    0    0    0  501  0.00000000000E+00  0.00000000000E+00 -0.28564571769E+03  0.28564571774E+03  0.50400001928E-02 0.  1.
    10030    2    1    2    0    0  0.00000000000E+00  0.00000000000E+00  0.14687183528E+03  0.71816327074E+03  0.70298445746E+03 0.  0.
        2    1    3    3  502    0  0.32978691779E+03 -0.23066182034E+02  0.19540957836E+03  0.38402651369E+03  0.25500000920E-02 0. -1.
       -2    1    3    3    0  502 -0.32978691779E+03  0.23066182034E+02 -0.48537743085E+02  0.33413675704E+03  0.25500000920E-02 0.  1.
</event>
<event>
 5   0  0.1237686E-02  0.6994096E+03  0.7818609E-02  0.9718242E-01
       -1   -1    0    0    0  501  0.00000000000E+00  0.00000000000E+00  0.35797085903E+03  0.35797085906E+03  0.50400001928E-02 0.  1.
        1   -1    0    0  501    0  0.00000000000E+00  0.00000000000E+00 -0.34162957626E+03  0.34162957630E+03  0.50400001928E-02 0. -1.
    10030    2    1    2    0    0  0.00000000000E+00  0.00000000000E+00  0.16341282766E+02  0.69960043536E+03  0.69940955930E+03 0.  0.
        5    1    3    3  502    0 -0.20008467375E+02  0.20065843581E+03  0.29391833647E+03  0.35647471880E+03  0.46999998093E+01 0.  1.
       -5    1    3    3    0  502  0.20008467375E+02 -0.20065843581E+03 -0.27757705370E+03  0.34312571657E+03  0.46999998093E+01 0. -1.
</event>
<event>
 5   0  0.1909053E-02  0.7555010E+03  0.7818609E-02  0.9626760E-01
        2   -1    0    0  501    0  0.00000000000E+00  0.00000000000E+00  0.85082795152E+03  0.85082795153E+03  0.25500000920E-02 0. -1.
       -2   -1    0    0    0  501  0.00000000000E+00  0.00000000000E+00 -0.16771360351E+03  0.16771360353E+03  0.25500000920E-02 0.  1.
    10030    2    1    2    0    0  0.00000000000E+00  0.00000000000E+00  0.68311434801E+03  0.10185415551E+04  0.75550095097E+03 0.  0.
        1    1    3    3  502    0  0.29378940053E+02 -0.15920628792E+03  0.80168655407E+03  0.81786985226E+03  0.50400001928E-02 0. -1.
       -1    1    3    3    0  502 -0.29378940053E+02  0.15920628792E+03 -0.11857220606E+03  0.20067170280E+03  0.50400001928E-02 0.  1.
</event>
<event>
 5   0  0.2006362E-02  0.7744532E+03  0.7818609E-02  0.9597749E-01
        2   -1    0    0  501    0  0.00000000000E+00  0.00000000000E+00  0.49252326617E+03  0.49252326617E+03  0.25500000920E-02 0.  1.
       -2   -1    0    0    0  501  0.00000000000E+00  0.00000000000E+00 -0.30444130959E+03  0.30444130960E+03  0.25500000920E-02 0. -1.
    10030    2    1    2    0    0  0.00000000000E+00  0.00000000000E+00  0.18808195657E+03  0.79696457577E+03  0.77445317008E+03 0.  0.
        4    1    3    3  502    0  0.23626955435E+03  0.27720489105E+03  0.22930351772E+03  0.43040396150E+03  0.12699999809E+01 0.  1.
       -4    1    3    3    0  502 -0.23626955435E+03 -0.27720489105E+03 -0.41221561145E+02  0.36656061428E+03  0.12699999809E+01 0. -1.
</event>
<event>
 5   0  0.1226303E-02  0.6857398E+03  0.7818609E-02  0.9741935E-01
       -1   -1    0    0    0  501  0.00000000000E+00  0.00000000000E+00  0.18369749896E+03  0.18369749903E+03  0.50400001928E-02 0.  1.
        1   -1    0    0  501    0  0.00000000000E+00  0.00000000000E+00 -0.63996383026E+03  0.63996383028E+03  0.50400001928E-02 0. -1.
    10030    2    1    2    0    0  0.00000000000E+00  0.00000000000E+00 -0.45626633131E+03  0.82366132931E+03  0.68573976136E+03 0.  0.
        4    1    3    3  502    0  0.28737432990E+03  0.16755102801E+03 -0.32791207234E+03  0.46710308558E+03  0.12699999809E+01 0.  1.
       -4    1    3    3    0  502 -0.28737432990E+03 -0.16755102801E+03 -0.12835425897E+03  0.35655824373E+03  0.12699999809E+01 0. -1.
</event>
<event>
 5   0  0.1223742E-02  0.6857478E+03  0.7818609E-02  0.9741921E-01
       -1   -1    0    0    0  501  0.00000000000E+00  0.00000000000E+00  0.17564456032E+03  0.17564456039E+03  0.50400001928E-02 0.  1.
        1   -1    0    0  501    0  0.00000000000E+00  0.00000000000E+00 -0.66932056418E+03  0.66932056420E+03  0.50400001928E-02 0. -1.
    10030    2    1    2    0    0  0.00000000000E+00  0.00000000000E+00 -0.49367600386E+03  0.84496512459E+03  0.68574781443E+03 0.  0.
        2    1    3    3  502    0  0.13662581759E+03  0.15898986409E+03  0.87485362757E+02  0.22715210679E+03  0.25500000920E-02 0.  1.
       -2    1    3    3    0  502 -0.13662581759E+03 -0.15898986409E+03 -0.58116136662E+03  0.61781301781E+03  0.25500000920E-02 0. -1.
</event>
<event>
 5   0  0.1223742E-02  0.6998449E+03  0.7818609E-02  0.9717497E-01
        1   -1    0    0  501    0  0.00000000000E+00  0.00000000000E+00  0.32038213861E+03  0.32038213865E+03  0.50400001928E-02 0.  1.
       -1   -1    0    0    0  501  0.00000000000E+00  0.00000000000E+00 -0.38218651290E+03  0.38218651293E+03  0.50400001928E-02 0. -1.
    10030    2    1    2    0    0  0.00000000000E+00  0.00000000000E+00 -0.61804374290E+02  0.70256865158E+03  0.69984493247E+03 0.  0.
        2    1    3    3  502    0  0.25548414098E+03 -0.23147755709E+03 -0.91066447705E+02  0.35657692527E+03  0.25500000920E-02 0. -1.
       -2    1    3    3    0  502 -0.25548414098E+03  0.23147755709E+03  0.29262073415E+02  0.34599172631E+03  0.25500000920E-02 0.  1.
</event>
<event>
 5   0  0.2026361E-02  0.7000467E+03  0.7818609E-02  0.9717152E-01
       -2   -1    0    0    0  501  0.00000000000E+00  0.00000000000E+00  0.12219961735E+03  0.12219961738E+03  0.25500000920E-02 0. -1.
        2   -1    0    0  501    0  0.00000000000E+00  0.00000000000E+00 -0.10025918293E+04  0.10025918293E+04  0.25500000920E-02 0.  1.
    10030    2    1    2    0    0  0.00000000000E+00  0.00000000000E+00 -0.88039221190E+03  0.11247914466E+04  0.70004667820E+03 0.  0.
        2    1    3    3  502    0  0.25370757655E+03 -0.21392027870E+03 -0.61902044764E+03  0.70236438879E+03  0.25500000920E-02 0. -1.
       -2    1    3    3    0  502 -0.25370757655E+03  0.21392027870E+03 -0.26137176426E+03  0.42242705785E+03  0.25500000920E-02 0.  1.
</event>
<event>
 5   0  0.1226303E-02  0.6994992E+03  0.7818609E-02  0.9718089E-01
        1   -1    0    0  501    0  0.00000000000E+00  0.00000000000E+00  0.81286979264E+03  0.81286979266E+03  0.50400001928E-02 0. -1.
       -1   -1    0    0    0  501  0.00000000000E+00  0.00000000000E+00 -0.15048507206E+03  0.15048507215E+03  0.50400001928E-02 0.  1.
    10030    2    1    2    0    0  0.00000000000E+00  0.00000000000E+00  0.66238472058E+03  0.96335486481E+03  0.69949916189E+03 0.  0.
        4    1    3    3  502    0 -0.12719347334E+03 -0.12573624777E+02 -0.11716587571E+03  0.17339472608E+03  0.12699999809E+01 0.  1.
       -4    1    3    3    0  502  0.12719347334E+03  0.12573624777E+02  0.77955059629E+03  0.78996013873E+03  0.12699999809E+01 0. -1.
</event>
<event>
 5   0  0.1223742E-02  0.7088439E+03  0.7818609E-02  0.9702226E-01
        1   -1    0    0  501    0  0.00000000000E+00  0.00000000000E+00  0.97127182076E+03  0.97127182077E+03  0.50400001928E-02 0. -1.
       -1   -1    0    0    0  501  0.00000000000E+00  0.00000000000E+00 -0.12933036000E+03  0.12933036010E+03  0.50400001928E-02 0.  1.
    10030    2    1    2    0    0  0.00000000000E+00  0.00000000000E+00  0.84194146076E+03  0.11006021809E+04  0.70884394417E+03 0.  0.
        2    1    3    3  502    0  0.25505433366E+03  0.11406275260E+02  0.39278215330E+02  0.25831297768E+03  0.25500000920E-02 0.  1.
       -2    1    3    3    0  502 -0.25505433366E+03 -0.11406275260E+02  0.80266324543E+03  0.84228920318E+03  0.25500000920E-02 0. -1.
</event>
<event>
 5   0  0.1197259E-02  0.6981681E+03  0.7818609E-02  0.9720370E-01
        1   -1    0    0  501    0  0.00000000000E+00  0.00000000000E+00  0.33423599832E+03  0.33423599836E+03  0.50400001928E-02 0.  1.
       -1   -1    0    0    0  501  0.00000000000E+00  0.00000000000E+00 -0.36459169508E+03  0.36459169511E+03  0.50400001928E-02 0. -1.
    10030    2    1    2    0    0  0.00000000000E+00  0.00000000000E+00 -0.30355696755E+02  0.69882769348E+03  0.69816808638E+03 0.  0.
        3    1    3    3  502    0  0.97078203270E+02 -0.11890349562E+03 -0.32899828198E+03  0.36304558745E+03  0.10100000352E+00 0. -1.
       -3    1    3    3    0  502 -0.97078203270E+02  0.11890349562E+03  0.29864258522E+03  0.33578210603E+03  0.10100000352E+00 0.  1.
</event>
<event>
 5   0  0.1226303E-02  0.6969748E+03  0.7818609E-02  0.9722420E-01
       -1   -1    0    0    0  501  0.00000000000E+00  0.00000000000E+00  0.37353073976E+03  0.37353073980E+03  0.50400001928E-02 0.  1.
        1   -1    0    0  501    0  0.00000000000E+00  0.00000000000E+00 -0.32512304664E+03  0.32512304667E+03  0.50400001928E-02 0. -1.
    10030    2    1    2    0    0  0.00000000000E+00  0.00000000000E+00  0.48407693128E+02  0.69865378647E+03  0.69697475463E+03 0.  0.
        4    1    3    3  502    0  0.26568752201E+03 -0.93492258435E+02 -0.18150059171E+03  0.33507422973E+03  0.12699999809E+01 0. -1.
       -4    1    3    3    0  502 -0.26568752201E+03  0.93492258435E+02  0.22990828484E+03  0.36357955674E+03  0.12699999809E+01 0.  1.
</event>
<event>
 5   0  0.2006362E-02  0.6994990E+03  0.7818609E-02  0.9718089E-01
        2   -1    0    0  501    0  0.00000000000E+00  0.00000000000E+00  0.57960462243E+03  0.57960462244E+03  0.25500000920E-02 0.  1.
       -2   -1    0    0    0  501  0.00000000000E+00  0.00000000000E+00 -0.21104854143E+03  0.21104854144E+03  0.25500000920E-02 0. -1.
    10030    2    1    2    0    0  0.00000000000E+00  0.00000000000E+00  0.36855608101E+03  0.79065316388E+03  0.69949899264E+03 0.  0.
        4    1    3    3  502    0 -0.14366613431E+03  0.20290195430E+03 -0.93774342074E+02  0.26571488731E+03  0.12699999809E+01 0. -1.
       -4    1    3    3    0  502  0.14366613431E+03 -0.20290195430E+03  0.46233042308E+03  0.52493827657E+03  0.12699999809E+01 0.  1.
</event>
<event>
 5   0  0.2026361E-02  0.6985793E+03  0.7818609E-02  0.9719665E-01
        2   -1    0    0  501    0  0.00000000000E+00  0.00000000000E+00  0.37198910793E+03  0.37198910794E+03  0.25500000920E-02 0.  1.
       -2   -1    0    0    0  501  0.00000000000E+00  0.00000000000E+00 -0.32797538799E+03  0.32797538800E+03  0.25500000920E-02 0. -1.
    10030    2    1    2    0    0  0.00000000000E+00  0.00000000000E+00  0.44013719940E+02  0.69996449595E+03  0.69857933554E+03 0.  0.
        2    1    3    3  502    0 -0.25336604572E+03 -0.21870116244E+03  0.12209847685E+03  0.35627600204E+03  0.25500000920E-02 0.  1.
       -2    1    3    3    0  502  0.25336604572E+03  0.21870116244E+03 -0.78084756907E+02  0.34368849391E+03  0.25500000920E-02 0. -1.
</event>
<event>
 5   0  0.1973067E-02  0.6991571E+03  0.7818609E-02  0.9718675E-01
        2   -1    0    0  501    0  0.00000000000E+00  0.00000000000E+00  0.16456071170E+04  0.16456071170E+04  0.25500000920E-02 0.  1.
       -2   -1    0    0    0  501  0.00000000000E+00  0.00000000000E+00 -0.74261454206E+02  0.74261454250E+02  0.25500000920E-02 0. -1.
    10030    2    1    2    0    0  0.00000000000E+00  0.00000000000E+00  0.15713456628E+04  0.17198685712E+04  0.69915714284E+03 0.  0.
        5    1    3    3  502    0 -0.27812477847E+03  0.21029731343E+03  0.84616554564E+03  0.91520302287E+03  0.46999998093E+01 0. -1.
       -5    1    3    3    0  502  0.27812477847E+03 -0.21029731343E+03  0.72518011711E+03  0.80466554834E+03  0.46999998093E+01 0.  1.
</event>
<event>
 5   0  0.1948138E-02  0.7012658E+03  0.7818609E-02  0.9715070E-01
       -2   -1    0    0    0  501  0.00000000000E+00  0.00000000000E+00  0.26576278740E+03  0.26576278741E+03  0.25500000920E-02 0. -1.
        2   -1    0    0  501    0  0.00000000000E+00  0.00000000000E+00 -0.46260594905E+03  0.46260594906E+03  0.25500000920E-02 0.  1.
    10030    2    1    2    0    0  0.00000000000E+00  0.00000000000E+00 -0.19684316165E+03  0.72836873647E+03  0.70126584543E+03 0.  0.
        3    1    3    3  502    0  0.10589941667E+03  0.20867030858E+03  0.17279389762E+03  0.29088782269E+03  0.10100000352E+00 0. -1.
       -3    1    3    3    0  502 -0.10589941667E+03 -0.20867030858E+03 -0.36963705927E+03  0.43748091378E+03  0.10100000352E+00 0.  1.
</event>
<event>
 5   0  0.1909053E-02  0.7011104E+03  0.7818609E-02  0.9715335E-01
       -2   -1    0    0    0  501  0.00000000000E+00  0.00000000000E+00  0.16915619455E+03  0.16915619457E+03  0.25500000920E-02 0.  1.
        2   -1    0    0  501    0  0.00000000000E+00  0.00000000000E+00 -0.72648211411E+03  0.72648211412E+03  0.25500000920E-02 0. -1.
    10030    2    1    2    0    0  0.00000000000E+00  0.00000000000E+00 -0.55732591957E+03  0.89563830868E+03  0.70111040454E+03 0.  0.
        1    1    3    3  502    0  0.10051813588E+03 -0.13350556941E+03 -0.67232144215E+03  0.69277973000E+03  0.50400001928E-02 0. -1.
       -1    1    3    3    0  502 -0.10051813588E+03  0.13350556941E+03  0.11499552258E+03  0.20285857868E+03  0.50400001928E-02 0.  1.
</event>
<event>
 5   0  0.1197259E-02  0.6886449E+03  0.7818609E-02  0.9736850E-01
       -1   -1    0    0    0  501  0.00000000000E+00  0.00000000000E+00  0.22908478162E+03  0.22908478168E+03  0.50400001928E-02 0.  1.
        1   -1    0    0  501    0  0.00000000000E+00  0.00000000000E+00 -0.51752867224E+03  0.51752867226E+03  0.50400001928E-02 0. -1.
    10030    2    1    2    0    0  0.00000000000E+00  0.00000000000E+00 -0.28844389061E+03  0.74661345394E+03  0.68864488060E+03 0.  0.
        3    1    3    3  502    0  0.14568405632E+03 -0.98096030879E+02  0.17686907207E+03  0.24925760650E+03  0.10100000352E+00 0.  1.
       -3    1    3    3    0  502 -0.14568405632E+03  0.98096030879E+02 -0.46531296268E+03  0.49735584744E+03  0.10100000352E+00 0. -1.
</event>
<event>
 5   0  0.1197259E-02  0.6960355E+03  0.7818609E-02  0.9724036E-01
        1   -1    0    0  501    0  0.00000000000E+00  0.00000000000E+00  0.13045930367E+03  0.13045930377E+03  0.50400001928E-02 0. -1.
       -1   -1    0    0    0  501  0.00000000000E+00  0.00000000000E+00 -0.92838421068E+03  0.92838421069E+03  0.50400001928E-02 0.  1.
    10030    2    1    2    0    0  0.00000000000E+00  0.00000000000E+00 -0.79792490701E+03  0.10588435145E+04  0.69603550979E+03 0.  0.
        3    1    3    3  502    0  0.17615141046E+03 -0.23605130508E+03 -0.68097601411E+03  0.74194196541E+03  0.10100000352E+00 0.  1.
       -3    1    3    3    0  502 -0.17615141046E+03  0.23605130508E+03 -0.11694889290E+03  0.31690154905E+03  0.10100000352E+00 0. -1.
</event>
<event>
 5   0  0.1948138E-02  0.6910436E+03  0.7818609E-02  0.9732673E-01
       -2   -1    0    0    0  501  0.00000000000E+00  0.00000000000E+00  0.70053378365E+02  0.70053378411E+02  0.25500000920E-02 0.  1.
        2   -1    0    0  501    0  0.00000000000E+00  0.00000000000E+00 -0.17042050579E+04  0.17042050579E+04  0.25500000920E-02 0. -1.
    10030    2    1    2    0    0  0.00000000000E+00  0.00000000000E+00 -0.16341516795E+04  0.17742584363E+04  0.69104362170E+03 0.  0.
        3    1    3    3  502    0  0.29297477780E+03  0.10889332218E+03 -0.11952349634E+04  0.12354264867E+04  0.10100000352E+00 0. -1.
       -3    1    3    3    0  502 -0.29297477780E+03 -0.10889332218E+03 -0.43891671612E+03  0.53883194962E+03  0.10100000352E+00 0.  1.
</event>
<event>
 5   0  0.1223742E-02  0.7021898E+03  0.7818609E-02  0.9713495E-01
        1   -1    0    0  501    0  0.00000000000E+00  0.00000000000E+00  0.97211289377E+03  0.97211289378E+03  0.50400001928E-02 0.  1.
       -1   -1    0    0    0  501  0.00000000000E+00  0.00000000000E+00 -0.12680382280E+03  0.12680382290E+03  0.50400001928E-02 0. -1.
    10030    2    1    2    0    0  0.00000000000E+00  0.00000000000E+00  0.84530907097E+03  0.10989167167E+04  0.70218980678E+03 0.  0.
        2    1    3    3  502    0 -0.70975034319E+02 -0.83530514724E+02  0.94464887112E+03  0.95098700943E+03  0.25500000920E-02 0.  1.
       -2    1    3    3    0  502  0.70975034319E+02  0.83530514724E+02 -0.99339800153E+02  0.14792970725E+03  0.25500000920E-02 0. -1.
</event>
<event>
 5   0  0.1909053E-02  0.6976400E+03  0.7818609E-02  0.9721277E-01
        2   -1    0    0  501    0  0.00000000000E+00  0.00000000000E+00  0.11866854135E+04  0.11866854135E+04  0.25500000920E-02 0. -1.
       -2   -1    0    0    0  501  0.00000000000E+00  0.00000000000E+00 -0.10253383349E+03  0.10253383352E+03  0.25500000920E-02 0.  1.
    10030    2    1    2    0    0  0.00000000000E+00  0.00000000000E+00  0.10841515800E+04  0.12892192470E+04  0.69764003502E+03 0.  0.
        1    1    3    3  502    0  0.30660901940E+03 -0.14201784043E+03  0.38206609794E+03  0.51005162582E+03  0.50400001928E-02 0. -1.
       -1    1    3    3    0  502 -0.30660901940E+03  0.14201784043E+03  0.70208548206E+03  0.77916762120E+03  0.50400001928E-02 0.  1.
</event>
<event>
 5   0  0.1948138E-02  0.6980310E+03  0.7818609E-02  0.9720605E-01
        2   -1    0    0  501    0  0.00000000000E+00  0.00000000000E+00  0.14145434078E+04  0.14145434078E+04  0.25500000920E-02 0.  1.
       -2   -1    0    0    0  501  0.00000000000E+00  0.00000000000E+00 -0.86113878440E+02  0.86113878478E+02  0.25500000920E-02 0. -1.
    10030    2    1    2    0    0  0.00000000000E+00  0.00000000000E+00  0.13284295293E+04  0.15006572863E+04  0.69803099959E+03 0.  0.
        3    1    3    3  502    0 -0.15281522389E+03  0.11202428955E+02  0.13383674527E+04  0.13471100310E+04  0.10100000352E+00 0.  1.
       -3    1    3    3    0  502  0.15281522389E+03 -0.11202428955E+02 -0.99379233557E+01  0.15354725523E+03  0.10100000352E+00 0. -1.
</event>
<event>
 5   0  0.7947250E-03  0.7025081E+03  0.7818609E-02  0.9712953E-01
       -3   -1    0    0    0  501  0.00000000000E+00  0.00000000000E+00  0.11822798241E+03  0.11822802555E+03  0.10100000352E+00 0.  1.
        3   -1    0    0  501    0  0.00000000000E+00  0.00000000000E+00 -0.10435716157E+04  0.10435716206E+04  0.10100000352E+00 0. -1.
    10030    2    1    2    0    0  0.00000000000E+00  0.00000000000E+00 -0.92534363327E+03  0.11617996461E+04  0.70250806264E+03 0.  0.
        3    1    3    3  502    0  0.52214362702E+02  0.21332675218E+03 -0.91601722784E+03  0.94197782074E+03  0.10100000352E+00 0. -1.
       -3    1    3    3    0  502 -0.52214362702E+02 -0.21332675218E+03 -0.93264054288E+01  0.21982182537E+03  0.10100000352E+00 0.  1.
</event>
<event>
 5   0  0.1257442E-02  0.7152765E+03  0.7818609E-02  0.9691458E-01
       -1   -1    0    0    0  501  0.00000000000E+00  0.00000000000E+00  0.65844759718E+02  0.65844759910E+02  0.50400001928E-02 0.  1.
        1   -1    0    0  501    0  0.00000000000E+00  0.00000000000E+00 -0.19425254354E+04  0.19425254354E+04  0.50400001928E-02 0. -1.
    10030    2    1    2    0    0  0.00000000000E+00  0.00000000000E+00 -0.18766806757E+04  0.20083701953E+04  0.71527650805E+03 0.  0.
        1    1    3    3  502    0 -0.13656085853E+03  0.28467063333E+03 -0.46666874970E+03  0.56344117664E+03  0.50400001928E-02 0.  1.
       -1    1    3    3    0  502  0.13656085853E+03 -0.28467063333E+03 -0.14100119260E+04  0.14449290187E+04  0.50400001928E-02 0. -1.
</event>
<event>
 5   0  0.1948138E-02  0.7028024E+03  0.7818609E-02  0.9712452E-01
        2   -1    0    0  501    0  0.00000000000E+00  0.00000000000E+00  0.71095811530E+03  0.71095811530E+03  0.25500000920E-02 0. -1.
       -2   -1    0    0    0  501  0.00000000000E+00  0.00000000000E+00 -0.17368506964E+03  0.17368506966E+03  0.25500000920E-02 0.  1.
    10030    2    1    2    0    0  0.00000000000E+00  0.00000000000E+00  0.53727304565E+03  0.88464318497E+03  0.70280241827E+03 0.  0.
        3    1    3    3  502    0  0.84611473079E+02  0.30063648757E+03  0.47137286133E+03  0.56545007174E+03  0.10100000352E+00 0. -1.
       -3    1    3    3    0  502 -0.84611473079E+02 -0.30063648757E+03  0.65900184325E+02  0.31919311322E+03  0.10100000352E+00 0.  1.
</event>
<event>
 5   0  0.1909053E-02  0.7024693E+03  0.7818609E-02  0.9713019E-01
        2   -1    0    0  501    0  0.00000000000E+00  0.00000000000E+00  0.49410670909E+03  0.49410670910E+03  0.25500000920E-02 0.  1.
       -2   -1    0    0    0  501  0.00000000000E+00  0.00000000000E+00 -0.24967433526E+03  0.24967433528E+03  0.25500000920E-02 0. -1.
    10030    2    1    2    0    0  0.00000000000E+00  0.00000000000E+00  0.24443237383E+03  0.74378104438E+03  0.70246925669E+03 0.  0.
        1    1    3    3  502    0 -0.67506134255E+02  0.12341946907E+03 -0.21854335313E+03  0.25990506100E+03  0.50400001928E-02 0. -1.
       -1    1    3    3    0  502  0.67506134255E+02 -0.12341946907E+03  0.46297572696E+03  0.48387598338E+03  0.50400001928E-02 0.  1.
</event>
<event>
 5   0  0.1223742E-02  0.6993598E+03  0.7818609E-02  0.9718328E-01
       -1   -1    0    0    0  501  0.00000000000E+00  0.00000000000E+00  0.10150358651E+04  0.10150358651E+04  0.50400001928E-02 0. -1.
        1   -1    0    0  501    0  0.00000000000E+00  0.00000000000E+00 -0.12046474840E+03  0.12046474851E+03  0.50400001928E-02 0.  1.
    10030    2    1    2    0    0  0.00000000000E+00  0.00000000000E+00  0.89457111673E+03  0.11355006137E+04  0.69935982207E+03 0.  0.
        2    1    3    3  502    0  0.13307416052E+03  0.12968672156E+03 -0.33672213200E+02  0.18884172181E+03  0.25500000920E-02 0.  1.
       -2    1    3    3    0  502 -0.13307416052E+03 -0.12968672156E+03  0.92824332993E+03  0.94665889185E+03  0.25500000920E-02 0. -1.
</event>
<event>
 5   0  0.2006362E-02  0.6966559E+03  0.7818609E-02  0.9722968E-01
        2   -1    0    0  501    0  0.00000000000E+00  0.00000000000E+00  0.82564403873E+03  0.82564403874E+03  0.25500000920E-02 0. -1.
       -2   -1    0    0    0  501  0.00000000000E+00  0.00000000000E+00 -0.14695481124E+03  0.14695481127E+03  0.25500000920E-02 0.  1.
    10030    2    1    2    0    0  0.00000000000E+00  0.00000000000E+00  0.67868922749E+03  0.97259885001E+03  0.69665590898E+03 0.  0.
        4    1    3    3  502    0 -0.16141397225E+02  0.27384704286E+03  0.63902771394E+03  0.69542129654E+03  0.12699999809E+01 0.  1.
       -4    1    3    3    0  502  0.16141397225E+02 -0.27384704286E+03  0.39661513545E+02  0.27717755347E+03  0.12699999809E+01 0. -1.
</event>
<event>
 5   0  0.2026361E-02  0.7008133E+03  0.7818609E-02  0.9715842E-01
        2   -1    0    0  501    0  0.00000000000E+00  0.00000000000E+00  0.97362243092E+03  0.97362243092E+03  0.25500000920E-02 0. -1.
       -2   -1    0    0    0  501  0.00000000000E+00  0.00000000000E+00 -0.12611133599E+03  0.12611133602E+03  0.25500000920E-02 0.  1.
    10030    2    1    2    0    0  0.00000000000E+00  0.00000000000E+00  0.84751109493E+03  0.10997337669E+04  0.70081331474E+03 0.  0.
        2    1    3    3  502    0  0.27650963257E+03  0.16263620331E+03  0.64499241975E+03  0.72036333407E+03  0.25500000920E-02 0. -1.
       -2    1    3    3    0  502 -0.27650963257E+03 -0.16263620331E+03  0.20251867518E+03  0.37937043287E+03  0.25500000920E-02 0.  1.
</event>
<event>
 5   0  0.1197259E-02  0.6988103E+03  0.7818609E-02  0.9719269E-01
       -1   -1    0    0    0  501  0.00000000000E+00  0.00000000000E+00  0.40236196913E+03  0.40236196916E+03  0.50400001928E-02 0.  1.
        1   -1    0    0  501    0  0.00000000000E+00  0.00000000000E+00 -0.30341819294E+03  0.30341819298E+03  0.50400001928E-02 0. -1.
    10030    2    1    2    0    0  0.00000000000E+00  0.00000000000E+00  0.98943776189E+02  0.70578016214E+03  0.69881025066E+03 0.  0.
        3    1    3    3  502    0 -0.96773732920E+02  0.28772796857E+03 -0.12526059094E+03  0.32839422212E+03  0.10100000352E+00 0. -1.
       -3    1    3    3    0  502  0.96773732920E+02 -0.28772796857E+03  0.22420436712E+03  0.37738594001E+03  0.10100000352E+00 0.  1.
</event>
<event>
 5   0  0.1226303E-02  0.7020445E+03  0.7818609E-02  0.9713742E-01
        1   -1    0    0  501    0  0.00000000000E+00  0.00000000000E+00  0.82449357394E+03  0.82449357395E+03  0.50400001928E-02 0. -1.
       -1   -1    0    0    0  501  0.00000000000E+00  0.00000000000E+00 -0.14944520449E+03  0.14944520458E+03  0.50400001928E-02 0.  1.
    10030    2    1    2    0    0  0.00000000000E+00  0.00000000000E+00  0.67504836945E+03  0.97393877853E+03  0.70204447383E+03 0.  0.
        4    1    3    3  502    0 -0.90212966053E+02  0.14420645898E+03 -0.88446184123E+02  0.19172433972E+03  0.12699999809E+01 0.  1.
       -4    1    3    3    0  502  0.90212966053E+02 -0.14420645898E+03  0.76349455357E+03  0.78221443881E+03  0.12699999809E+01 0. -1.
</event>
<event>
 5   0  0.1237686E-02  0.6760328E+03  0.7818609E-02  0.9759121E-01
        1   -1    0    0  501    0  0.00000000000E+00  0.00000000000E+00  0.91510012531E+03  0.91510012532E+03  0.50400001928E-02 0. -1.
       -1   -1    0    0    0  501  0.00000000000E+00  0.00000000000E+00 -0.12485527755E+03  0.12485527765E+03  0.50400001928E-02 0.  1.
    10030    2    1    2    0    0  0.00000000000E+00  0.00000000000E+00  0.79024484776E+03  0.10399554030E+04  0.67603278084E+03 0.  0.
        5    1    3    3  502    0 -0.55980588098E+02 -0.16455871816E+03  0.84102219036E+03  0.85880953223E+03  0.46999998093E+01 0. -1.
       -5    1    3    3    0  502  0.55980588098E+02  0.16455871816E+03 -0.50777342610E+02  0.18114587074E+03  0.46999998093E+01 0.  1.
</event>
<event>
 5   0  0.1226303E-02  0.6984871E+03  0.7818609E-02  0.9719823E-01
        1   -1    0    0  501    0  0.00000000000E+00  0.00000000000E+00  0.47092828761E+03  0.47092828764E+03  0.50400001928E-02 0.  1.
       -1   -1    0    0    0  501  0.00000000000E+00  0.00000000000E+00 -0.25900135175E+03  0.25900135180E+03  0.50400001928E-02 0. -1.
    10030    2    1    2    0    0  0.00000000000E+00  0.00000000000E+00  0.21192693587E+03  0.72992963944E+03  0.69848711684E+03 0.  0.
        4    1    3    3  502    0  0.13840363449E+03 -0.11754120595E+03 -0.20579093657E+03  0.27445040282E+03  0.12699999809E+01 0. -1.
       -4    1    3    3    0  502 -0.13840363449E+03  0.11754120595E+03  0.41771787244E+03  0.45547923662E+03  0.12699999809E+01 0.  1.
</event>
<event>
 5   0  0.1257442E-02  0.7037413E+03  0.7818609E-02  0.9710855E-01
       -1   -1    0    0    0  501  0.00000000000E+00  0.00000000000E+00  0.71849399617E+02  0.71849399794E+02  0.50400001928E-02 0.  1.
        1   -1    0    0  501    0  0.00000000000E+00  0.00000000000E+00 -0.17232288921E+04  0.17232288921E+04  0.50400001928E-02 0. -1.
    10030    2    1    2    0    0  0.00000000000E+00  0.00000000000E+00 -0.16513794925E+04  0.17950782919E+04  0.70374132028E+03 0.  0.
        1    1    3    3  502    0  0.41104385994E+02 -0.33938398846E+03 -0.10382144882E+04  0.10930509529E+04  0.50400001928E-02 0. -1.
       -1    1    3    3    0  502 -0.41104385994E+02  0.33938398846E+03 -0.61316500434E+03  0.70202733903E+03  0.50400001928E-02 0.  1.
</event>
<event>
 5   0  0.1973067E-02  0.7091223E+03  0.7818609E-02  0.9701758E-01
        2   -1    0    0  501    0  0.00000000000E+00  0.00000000000E+00  0.10635839829E+03  0.10635839832E+03  0.25500000920E-02 0.  1.
       -2   -1    0    0    0  501  0.00000000000E+00  0.00000000000E+00 -0.11819810371E+04  0.11819810371E+04  0.25500000920E-02 0. -1.
    10030    2    1    2    0    0  0.00000000000E+00  0.00000000000E+00 -0.10756226389E+04  0.12883394355E+04  0.70912230239E+03 0.  0.
        5    1    3    3  502    0 -0.17755764045E+03  0.56969258202E+02 -0.10856304781E+04  0.11015388495E+04  0.46999998093E+01 0. -1.
       -5    1    3    3    0  502  0.17755764045E+03 -0.56969258202E+02  0.10007839229E+02  0.18680058594E+03  0.46999998093E+01 0.  1.
</event>
<event>
 5   0  0.1226303E-02  0.7006193E+03  0.7818609E-02  0.9716174E-01
       -1   -1    0    0    0  501  0.00000000000E+00  0.00000000000E+00  0.48615868962E+03  0.48615868965E+03  0.50400001928E-02 0. -1.
        1   -1    0    0  501    0  0.00000000000E+00  0.00000000000E+00 -0.25242137230E+03  0.25242137235E+03  0.50400001928E-02 0.  1.
    10030    2    1    2    0    0  0.00000000000E+00  0.00000000000E+00  0.23373731732E+03  0.73858006199E+03  0.70061927926E+03 0.  0.
        4    1    3    3  502    0 -0.32052608522E+03 -0.69953089104E+02  0.24634357233E+03  0.41026476148E+03  0.12699999809E+01 0. -1.
       -4    1    3    3    0  502  0.32052608522E+03  0.69953089104E+02 -0.12606255009E+02  0.32831530051E+03  0.12699999809E+01 0.  1.
</event>
<event>
 5   0  0.1973067E-02  0.7014855E+03  0.7818609E-02  0.9714695E-01
        2   -1    0    0  501    0  0.00000000000E+00  0.00000000000E+00  0.51979005355E+03  0.51979005355E+03  0.25500000920E-02 0. -1.
       -2   -1    0    0    0  501  0.00000000000E+00  0.00000000000E+00 -0.23667342339E+03  0.23667342340E+03  0.25500000920E-02 0.  1.
    10030    2    1    2    0    0  0.00000000000E+00  0.00000000000E+00  0.28311663016E+03  0.75646347696E+03  0.70148554204E+03 0.  0.
        5    1    3    3  502    0  0.37730552595E+02  0.19759320588E+03  0.45135710657E+03  0.49417810277E+03  0.46999998093E+01 0. -1.
       -5    1    3    3    0  502 -0.37730552595E+02 -0.19759320588E+03 -0.16824047641E+03  0.26228537418E+03  0.46999998093E+01 0.  1.
</event>
<event>
 5   0  0.1948138E-02  0.7235464E+03  0.7818609E-02  0.9677791E-01
       -2   -1    0    0    0  501  0.00000000000E+00  0.00000000000E+00  0.27286940381E+03  0.27286940382E+03  0.25500000920E-02 0.  1.
        2   -1    0    0  501    0  0.00000000000E+00  0.00000000000E+00 -0.47964285354E+03  0.47964285355E+03  0.25500000920E-02 0. -1.
    10030    2    1    2    0    0  0.00000000000E+00  0.00000000000E+00 -0.20677344973E+03  0.75251225737E+03  0.72354643111E+03 0.  0.
        3    1    3    3  502    0  0.10273550472E+03 -0.34374343570E+03 -0.15178700808E+03  0.38955543834E+03  0.10100000352E+00 0.  1.
       -3    1    3    3    0  502 -0.10273550472E+03  0.34374343570E+03 -0.54986441654E+02  0.36295681903E+03  0.10100000352E+00 0. -1.
</event>
<event>
 5   0  0.1948138E-02  0.6957234E+03  0.7818609E-02  0.9724574E-01
       -2   -1    0    0    0  501  0.00000000000E+00  0.00000000000E+00  0.25202726629E+03  0.25202726631E+03  0.25500000920E-02 0. -1.
        2   -1    0    0  501    0  0.00000000000E+00  0.00000000000E+00 -0.48013752210E+03  0.48013752210E+03  0.25500000920E-02 0.  1.
    10030    2    1    2    0    0  0.00000000000E+00  0.00000000000E+00 -0.22811025580E+03  0.73216478841E+03  0.69572335636E+03 0.  0.
        3    1    3    3  502    0 -0.55743506610E+02  0.28746647588E+03  0.83566509237E+02  0.30451220821E+03  0.10100000352E+00 0. -1.
       -3    1    3    3    0  502  0.55743506610E+02 -0.28746647588E+03 -0.31167676504E+03  0.42765258020E+03  0.10100000352E+00 0.  1.
</event>
<event>
 5   0  0.1237686E-02  0.7009403E+03  0.7818609E-02  0.9715626E-01
       -1   -1    0    0    0  501  0.00000000000E+00  0.00000000000E+00  0.75466499508E+03  0.75466499510E+03  0.50400001928E-02 0.  1.
        1   -1    0    0  501    0  0.00000000000E+00  0.00000000000E+00 -0.16276006069E+03  0.16276006076E+03  0.50400001928E-02 0. -1.
    10030    2    1    2    0    0  0.00000000000E+00  0.00000000000E+00  0.59190493440E+03  0.91742505587E+03  0.70094028402E+03 0.  0.
        5    1    3    3  502    0 -0.84447362759E+01  0.14085890026E+03  0.71579463152E+03  0.72958658695E+03  0.46999998093E+01 0.  1.
       -5    1    3    3    0  502  0.84447362759E+01 -0.14085890026E+03 -0.12388969712E+03  0.18783846891E+03  0.46999998093E+01 0. -1.
</event>
<event>
 5   0  0.1973067E-02  0.6980327E+03  0.7818609E-02  0.9720602E-01
        2   -1    0    0  501    0  0.00000000000E+00  0.00000000000E+00  0.42337535552E+03  0.42337535553E+03  0.25500000920E-02 0. -1.
       -2   -1    0    0    0  501  0.00000000000E+00  0.00000000000E+00 -0.28771729268E+03  0.28771729269E+03  0.25500000920E-02 0.  1.
    10030    2    1    2    0    0  0.00000000000E+00  0.00000000000E+00  0.13565806284E+03  0.71109264823E+03  0.69803269576E+03 0.  0.
        5    1    3    3  502    0 -0.16000929653E+03 -0.30844056031E+03  0.34791303923E+02  0.34924358125E+03  0.46999998093E+01 0. -1.
       -5    1    3    3    0  502  0.16000929653E+03  0.30844056031E+03  0.10086675892E+03  0.36184906697E+03  0.46999998093E+01 0.  1.
</event>
<event>
 5   0  0.1948138E-02  0.7002399E+03  0.7818609E-02  0.9716822E-01
       -2   -1    0    0    0  501  0.00000000000E+00  0.00000000000E+00  0.33510875308E+03  0.33510875309E+03  0.25500000920E-02 0. -1.
        2   -1    0    0  501    0  0.00000000000E+00  0.00000000000E+00 -0.36580360311E+03  0.36580360312E+03  0.25500000920E-02 0.  1.
    10030    2    1    2    0    0  0.00000000000E+00  0.00000000000E+00 -0.30694850035E+02  0.70091235621E+03  0.70023992836E+03 0.  0.
        3    1    3    3  502    0 -0.15617153830E+03  0.30620107852E+03  0.51314795773E+02  0.34753685894E+03  0.10100000352E+00 0. -1.
       -3    1    3    3    0  502  0.15617153830E+03 -0.30620107852E+03 -0.82009645807E+02  0.35337549726E+03  0.10100000352E+00 0.  1.
</event>
<event>
 5   0  0.1257442E-02  0.6948959E+03  0.7818609E-02  0.9726001E-01
        1   -1    0    0  501    0  0.00000000000E+00  0.00000000000E+00  0.24933629169E+03  0.24933629174E+03  0.50400001928E-02 0. -1.
       -1   -1    0    0    0  501  0.00000000000E+00  0.00000000000E+00 -0.48416574974E+03  0.48416574977E+03  0.50400001928E-02 0.  1.
    10030    2    1    2    0    0  0.00000000000E+00  0.00000000000E+00 -0.23482945805E+03  0.73350204151E+03  0.69489594223E+03 0.  0.
        1    1    3    3  502    0  0.23543666997E+03  0.24735775677E+02  0.15103266918E+03  0.28080803291E+03  0.50400001928E-02 0.  1.
       -1    1    3    3    0  502 -0.23543666997E+03 -0.24735775677E+02 -0.38586212723E+03  0.45269400860E+03  0.50400001928E-02 0. -1.
</event>
<event>
 5   0  0.1197259E-02  0.7014973E+03  0.7818609E-02  0.9714675E-01
       -1   -1    0    0    0  501  0.00000000000E+00  0.00000000000E+00  0.74978138416E+03  0.74978138417E+03  0.50400001928E-02 0.  1.
        1   -1    0    0  501    0  0.00000000000E+00  0.00000000000E+00 -0.16408063910E+03  0.16408063918E+03  0.50400001928E-02 0. -1.
    10030    2    1    2    0    0  0.00000000000E+00  0.00000000000E+00  0.58570074505E+03  0.91386202335E+03  0.70149728080E+03 0.  0.
        3    1    3    3  502    0 -0.38154184702E+02 -0.15512983584E+03  0.69963538459E+03  0.71764245230E+03  0.10100000352E+00 0.  1.
       -3    1    3    3    0  502  0.38154184702E+02  0.15512983584E+03 -0.11393463953E+03  0.19621957105E+03  0.10100000352E+00 0. -1.
</event>
<event>
 5   0  0.1223742E-02  0.6961686E+03  0.7818609E-02  0.9723807E-01
       -1   -1    0    0    0  501  0.00000000000E+00  0.00000000000E+00  0.14611851755E+03  0.14611851764E+03  0.50400001928E-02 0.  1.
        1   -1    0    0  501    0  0.00000000000E+00  0.00000000000E+00 -0.82920814013E+03  0.82920814015E+03  0.50400001928E-02 0. -1.
    10030    2    1    2    0    0  0.00000000000E+00  0.00000000000E+00 -0.68308962258E+03  0.97532665779E+03  0.69616855496E+03 0.  0.
        2    1    3    3  502    0 -0.26373755127E+03  0.42876245203E+02 -0.65408475672E+03  0.70655695972E+03  0.25500000920E-02 0. -1.
       -2    1    3    3    0  502  0.26373755127E+03 -0.42876245203E+02 -0.29004865864E+02  0.26876969807E+03  0.25500000920E-02 0.  1.
</event>
<event>
 5   0  0.7947250E-03  0.7077431E+03  0.7818609E-02  0.9704081E-01
       -3   -1    0    0    0  501  0.00000000000E+00  0.00000000000E+00  0.35534588053E+03  0.35534589488E+03  0.10100000352E+00 0. -1.
        3   -1    0    0  501    0  0.00000000000E+00  0.00000000000E+00 -0.35240334191E+03  0.35240335639E+03  0.10100000352E+00 0.  1.
    10030    2    1    2    0    0  0.00000000000E+00  0.00000000000E+00  0.29425386130E+01  0.70774925127E+03  0.70774313429E+03 0.  0.
        3    1    3    3  502    0 -0.66069068066E+02  0.12272179462E+03 -0.32379960865E+03  0.35252227928E+03  0.10100000352E+00 0.  1.
       -3    1    3    3    0  502  0.66069068066E+02 -0.12272179462E+03  0.32674214726E+03  0.35522697199E+03  0.10100000352E+00 0. -1.
</event>
<event>
 5   0  0.1909053E-02  0.6945900E+03  0.7818609E-02  0.9726529E-01
       -2   -1    0    0    0  501  0.00000000000E+00  0.00000000000E+00  0.12338600066E+04  0.12338600066E+04  0.25500000920E-02 0.  1.
        2   -1    0    0  501    0  0.00000000000E+00  0.00000000000E+00 -0.97753236310E+02  0.97753236343E+02  0.25500000920E-02 0. -1.
    10030    2    1    2    0    0  0.00000000000E+00  0.00000000000E+00  0.11361067703E+04  0.13316132429E+04  0.69458997638E+03 0.  0.
        1    1    3    3  502    0 -0.20531439026E+03 -0.10357308187E+03  0.10669929128E+04  0.10914922162E+04  0.50400001928E-02 0.  1.
       -1    1    3    3    0  502  0.20531439026E+03  0.10357308187E+03  0.69113857482E+02  0.24012102669E+03  0.50400001928E-02 0. -1.
</event>
<event>
 5   0  0.1973067E-02  0.7142632E+03  0.7818609E-02  0.9693146E-01
        2   -1    0    0  501    0  0.00000000000E+00  0.00000000000E+00  0.50321889593E+03  0.50321889594E+03  0.25500000920E-02 0. -1.
       -2   -1    0    0    0  501  0.00000000000E+00  0.00000000000E+00 -0.25345429866E+03  0.25345429868E+03  0.25500000920E-02 0.  1.
    10030    2    1    2    0    0  0.00000000000E+00  0.00000000000E+00  0.24976459727E+03  0.75667319461E+03  0.71426323537E+03 0.  0.
        5    1    3    3  502    0  0.29677839000E+03 -0.43868383663E+02  0.33008165549E+03  0.44606931876E+03  0.46999998093E+01 0. -1.
       -5    1    3    3    0  502 -0.29677839000E+03  0.43868383663E+02 -0.80317058221E+02  0.31060387585E+03  0.46999998093E+01 0.  1.
</event>
<event>
 5   0  0.2026361E-02  0.6994194E+03  0.7818609E-02  0.9718226E-01
        2   -1    0    0  501    0  0.00000000000E+00  0.00000000000E+00  0.17200393431E+03  0.17200393433E+03  0.25500000920E-02 0.  1.
       -2   -1    0    0    0  501  0.00000000000E+00  0.00000000000E+00 -0.71101213706E+03  0.71101213707E+03  0.25500000920E-02 0. -1.
    10030    2    1    2    0    0  0.00000000000E+00  0.00000000000E+00 -0.53900820276E+03  0.88301607140E+03  0.69941943046E+03 0.  0.
        2    1    3    3  502    0 -0.33808075652E+03 -0.63490437554E+02 -0.34902399165E+03  0.49004834491E+03  0.25500000920E-02 0. -1.
       -2    1    3    3    0  502  0.33808075652E+03  0.63490437554E+02 -0.18998421110E+03  0.39296772649E+03  0.25500000920E-02 0.  1.
</event>
<event>
 5   0  0.1948138E-02  0.6991637E+03  0.7818609E-02  0.9718663E-01
        2   -1    0    0  501    0  0.00000000000E+00  0.00000000000E+00  0.14096237310E+04  0.14096237310E+04  0.25500000920E-02 0.  1.
       -2   -1    0    0    0  501  0.00000000000E+00  0.00000000000E+00 -0.86695092168E+02  0.86695092206E+02  0.25500000920E-02 0. -1.
    10030    2    1    2    0    0  0.00000000000E+00  0.00000000000E+00  0.13229286388E+04  0.14963188232E+04  0.69916366985E+03 0.  0.
        3    1    3    3  502    0 -0.70273936838E+01 -0.18642773220E+03  0.12941789444E+04  0.13075564362E+04  0.10100000352E+00 0.  1.
       -3    1    3    3    0  502  0.70273936838E+01  0.18642773220E+03  0.28749694399E+02  0.18876238695E+03  0.10100000352E+00 0. -1.
</event>
<event>
 5   0  0.1223742E-02  0.7018843E+03  0.7818609E-02  0.9714015E-01
        1   -1    0    0  501    0  0.00000000000E+00  0.00000000000E+00  0.39851692423E+02  0.39851692742E+02  0.50400001928E-02 0.  1.
       -1   -1    0    0    0  501  0.00000000000E+00  0.00000000000E+00 -0.30904684043E+04  0.30904684043E+04  0.50400001928E-02 0. -1.
    10030    2    1    2    0    0  0.00000000000E+00  0.00000000000E+00 -0.30506167119E+04  0.31303200970E+04  0.70188431183E+03 0.  0.
        2    1    3    3  502    0  0.27231901339E+03 -0.14493671923E+03 -0.77907960857E+03  0.83793158082E+03  0.25500000920E-02 0.  1.
       -2    1    3    3    0  502 -0.27231901339E+03  0.14493671923E+03 -0.22715371033E+04  0.22923885162E+04  0.25500000920E-02 0. -1.
</event>
<event>
 5   0  0.1257442E-02  0.7012117E+03  0.7818609E-02  0.9715162E-01
        1   -1    0    0  501    0  0.00000000000E+00  0.00000000000E+00  0.73025356768E+03  0.73025356770E+03  0.50400001928E-02 0.  1.
       -1   -1    0    0    0  501  0.00000000000E+00  0.00000000000E+00 -0.16833121220E+03  0.16833121227E+03  0.50400001928E-02 0. -1.
    10030    2    1    2    0    0  0.00000000000E+00  0.00000000000E+00  0.56192235548E+03  0.89858477997E+03  0.70121171781E+03 0.  0.
        1    1    3    3  502    0 -0.32791550923E+03  0.12362656937E+03  0.26737764526E+03  0.44079804339E+03  0.50400001928E-02 0.  1.
       -1    1    3    3    0  502  0.32791550923E+03 -0.12362656937E+03  0.29454471022E+03  0.45778673658E+03  0.50400001928E-02 0. -1.
</event>
<event>
 5   0  0.1948138E-02  0.7003838E+03  0.7818609E-02  0.9716576E-01
       -2   -1    0    0    0  501  0.00000000000E+00  0.00000000000E+00  0.99655258571E+02  0.99655258604E+02  0.25500000920E-02 0. -1.
        2   -1    0    0  501    0  0.00000000000E+00  0.00000000000E+00 -0.12305860205E+04  0.12305860205E+04  0.25500000920E-02 0.  1.
    10030    2    1    2    0    0  0.00000000000E+00  0.00000000000E+00 -0.11309307619E+04  0.13302412791E+04  0.70038380360E+03 0.  0.
        3    1    3    3  502    0 -0.75216896730E+02 -0.23433290915E+03 -0.10386354119E+04  0.10673954389E+04  0.10100000352E+00 0.  1.
       -3    1    3    3    0  502  0.75216896730E+02  0.23433290915E+03 -0.92295349944E+02  0.26284584015E+03  0.10100000352E+00 0. -1.
</event>
<event>
 5   0  0.1973067E-02  0.6894347E+03  0.7818609E-02  0.9735473E-01
        2   -1    0    0  501    0  0.00000000000E+00  0.00000000000E+00  0.11878864354E+04  0.11878864354E+04  0.25500000920E-02 0. -1.
       -2   -1    0    0    0  501  0.00000000000E+00  0.00000000000E+00 -0.10003486810E+03  0.10003486813E+03  0.25500000920E-02 0.  1.
    10030    2    1    2    0    0  0.00000000000E+00  0.00000000000E+00  0.10878515673E+04  0.12879213035E+04  0.68943473341E+03 0.  0.
        5    1    3    3  502    0 -0.26102304658E+03 -0.10711071430E+03  0.91379790012E+03  0.95637567317E+03  0.46999998093E+01 0. -1.
       -5    1    3    3    0  502  0.26102304658E+03  0.10711071430E+03  0.17405366718E+03  0.33154563037E+03  0.46999998093E+01 0.  1.
</event>
<event>
 5   0  0.1197259E-02  0.7079473E+03  0.7818609E-02  0.9703737E-01
       -1   -1    0    0    0  501  0.00000000000E+00  0.00000000000E+00  0.47010391185E+03  0.47010391188E+03  0.50400001928E-02 0. -1.
        1   -1    0    0  501    0  0.00000000000E+00  0.00000000000E+00 -0.26653115859E+03  0.26653115864E+03  0.50400001928E-02 0.  1.
    10030    2    1    2    0    0  0.00000000000E+00  0.00000000000E+00  0.20357275326E+03  0.73663507052E+03  0.70794728705E+03 0.  0.
        3    1    3    3  502    0 -0.32053643481E+03 -0.97498609040E+01 -0.54148561086E+02  0.32522414225E+03  0.10100000352E+00 0.  1.
       -3    1    3    3    0  502  0.32053643481E+03  0.97498609040E+01  0.25772131435E+03  0.41141092827E+03  0.10100000352E+00 0. -1.
</event>
<event>
 5   0  0.1223742E-02  0.6941355E+03  0.7818609E-02  0.9727314E-01
        1   -1    0    0  501    0  0.00000000000E+00  0.00000000000E+00  0.10918530138E+04  0.10918530138E+04  0.50400001928E-02 0. -1.
       -1   -1    0    0    0  501  0.00000000000E+00  0.00000000000E+00 -0.11032256623E+03  0.11032256634E+03  0.50400001928E-02 0.  1.
    10030    2    1    2    0    0  0.00000000000E+00  0.00000000000E+00  0.98153044761E+03  0.12021755802E+04  0.69413550984E+03 0.  0.
        2    1    3    3  502    0 -0.11999276408E+03  0.19436711896E+03  0.94331651430E+03  0.97057863490E+03  0.25500000920E-02 0. -1.
       -2    1    3    3    0  502  0.11999276408E+03 -0.19436711896E+03  0.38213933310E+02  0.23159694529E+03  0.25500000920E-02 0.  1.
</event>
<event>
 5   0  0.1223742E-02  0.6994032E+03  0.7818609E-02  0.9718253E-01
       -1   -1    0    0    0  501  0.00000000000E+00  0.00000000000E+00  0.89360403609E+02  0.89360403751E+02  0.50400001928E-02 0.  1.
        1   -1    0    0  501    0  0.00000000000E+00  0.00000000000E+00 -0.13685168191E+04  0.13685168191E+04  0.50400001928E-02 0. -1.
    10030    2    1    2    0    0  0.00000000000E+00  0.00000000000E+00 -0.12791564155E+04  0.14578772228E+04  0.69940321821E+03 0.  0.
        2    1    3    3  502    0 -0.75945235605E+02 -0.63359484276E+02  0.59598857035E+02  0.11547348971E+03  0.25500000920E-02 0.  1.
       -2    1    3    3    0  502  0.75945235605E+02  0.63359484276E+02 -0.13387552725E+04  0.13424037331E+04  0.25500000920E-02 0. -1.
</event>
<event>
 5   0  0.2006362E-02  0.6932817E+03  0.7818609E-02  0.9728791E-01
        2   -1    0    0  501    0  0.00000000000E+00  0.00000000000E+00  0.25135021997E+03  0.25135021999E+03  0.25500000920E-02 0.  1.
       -2   -1    0    0    0  501  0.00000000000E+00  0.00000000000E+00 -0.47805756069E+03  0.47805756070E+03  0.25500000920E-02 0. -1.
    10030    2    1    2    0    0  0.00000000000E+00  0.00000000000E+00 -0.22670734072E+03  0.72940778069E+03  0.69328168315E+03 0.  0.
        4    1    3    3  502    0 -0.54040468755E+02  0.17318930367E+03 -0.42411490609E+03  0.46129163620E+03  0.12699999809E+01 0. -1.
       -4    1    3    3    0  502  0.54040468755E+02 -0.17318930367E+03  0.19740756537E+03  0.26811614448E+03  0.12699999809E+01 0.  1.
</event>
<event>
 5   0  0.7947250E-03  0.7010915E+03  0.7818609E-02  0.9715367E-01
        3   -1    0    0  501    0  0.00000000000E+00  0.00000000000E+00  0.19818977578E+03  0.19818980151E+03  0.10100000352E+00 0.  1.
       -3   -1    0    0    0  501  0.00000000000E+00  0.00000000000E+00 -0.62002340011E+03  0.62002340834E+03  0.10100000352E+00 0. -1.
    10030    2    1    2    0    0  0.00000000000E+00  0.00000000000E+00 -0.42183362433E+03  0.81821320985E+03  0.70109147061E+03 0.  0.
        5    1    3    3  502    0  0.20759139334E+03  0.27979942869E+03 -0.16604481581E+03  0.38597263859E+03  0.46999998093E+01 0. -1.
       -5    1    3    3    0  502 -0.20759139334E+03 -0.27979942869E+03 -0.25578880852E+03  0.43224057127E+03  0.46999998093E+01 0.  1.
</event>
<event>
 5   0  0.1237686E-02  0.6960353E+03  0.7818609E-02  0.9724037E-01
       -1   -1    0    0    0  501  0.00000000000E+00  0.00000000000E+00  0.35431276242E+03  0.35431276246E+03  0.50400001928E-02 0. -1.
        1   -1    0    0  501    0  0.00000000000E+00  0.00000000000E+00 -0.34183436636E+03  0.34183436639E+03  0.50400001928E-02 0.  1.
    10030    2    1    2    0    0  0.00000000000E+00  0.00000000000E+00  0.12478396065E+02  0.69614712885E+03  0.69603528261E+03 0.  0.
        5    1    3    3  502    0  0.15685969908E+03 -0.10268020084E+03  0.29945178891E+03  0.35332938276E+03  0.46999998093E+01 0. -1.
       -5    1    3    3    0  502 -0.15685969908E+03  0.10268020084E+03 -0.28697339284E+03  0.34281774610E+03  0.46999998093E+01 0.  1.
</event>
<event>
 5   0  0.1973067E-02  0.7204893E+03  0.7818609E-02  0.9682820E-01
        2   -1    0    0  501    0  0.00000000000E+00  0.00000000000E+00  0.16712189813E+04  0.16712189813E+04  0.25500000920E-02 0. -1.
       -2   -1    0    0    0  501  0.00000000000E+00  0.00000000000E+00 -0.77653623988E+02  0.77653624030E+02  0.25500000920E-02 0.  1.
    10030    2    1    2    0    0  0.00000000000E+00  0.00000000000E+00  0.15935653574E+04  0.17488726054E+04  0.72048930712E+03 0.  0.
        5    1    3    3  502    0  0.35669369316E+03 -0.13240506260E+02  0.91441276016E+03  0.98162033785E+03  0.46999998093E+01 0.  1.
       -5    1    3    3    0  502 -0.35669369316E+03  0.13240506260E+02  0.67915259719E+03  0.76725226752E+03  0.46999998093E+01 0. -1.
</event>
<event>
 5   0  0.1223742E-02  0.6895415E+03  0.7818609E-02  0.9735287E-01
        1   -1    0    0  501    0  0.00000000000E+00  0.00000000000E+00  0.42146404711E+03  0.42146404714E+03  0.50400001928E-02 0.  1.
       -1   -1    0    0    0  501  0.00000000000E+00  0.00000000000E+00 -0.28203324000E+03  0.28203324005E+03  0.50400001928E-02 0. -1.
    10030    2    1    2    0    0  0.00000000000E+00  0.00000000000E+00  0.13943080711E+03  0.70349728719E+03  0.68954150210E+03 0.  0.
        2    1    3    3  502    0  0.32241730978E+03 -0.18047271960E+02 -0.53510934355E+02  0.32732559597E+03  0.25500000920E-02 0. -1.
       -2    1    3    3    0  502 -0.32241730978E+03  0.18047271960E+02  0.19294174146E+03  0.37617169122E+03  0.25500000920E-02 0.  1.
</event>
<event>
 5   0  0.7947250E-03  0.7021806E+03  0.7818609E-02  0.9713510E-01
        3   -1    0    0  501    0  0.00000000000E+00  0.00000000000E+00  0.28486058819E+03  0.28486060610E+03  0.10100000352E+00 0. -1.
       -3   -1    0    0    0  501  0.00000000000E+00  0.00000000000E+00 -0.43271833672E+03  0.43271834850E+03  0.10100000352E+00 0.  1.
    10030    2    1    2    0    0  0.00000000000E+00  0.00000000000E+00 -0.14785774853E+03  0.71757895460E+03  0.70218063366E+03 0.  0.
        5    1    3    3  502    0  0.22553885458E+03 -0.15431125151E+03  0.15127286294E+03  0.31238646950E+03  0.46999998093E+01 0. -1.
       -5    1    3    3    0  502 -0.22553885458E+03  0.15431125151E+03 -0.29913061146E+03  0.40519248510E+03  0.46999998093E+01 0.  1.
</event>
<event>
 5   0  0.1909053E-02  0.7041314E+03  0.7818609E-02  0.9710193E-01
       -2   -1    0    0    0  501  0.00000000000E+00  0.00000000000E+00  0.98335471492E+02  0.98335471525E+02  0.25500000920E-02 0.  1.
        2   -1    0    0  501    0  0.00000000000E+00  0.00000000000E+00 -0.12604835316E+04  0.12604835316E+04  0.25500000920E-02 0. -1.
    10030    2    1    2    0    0  0.00000000000E+00  0.00000000000E+00 -0.11621480601E+04  0.13588190032E+04  0.70413135824E+03 0.  0.
        1    1    3    3  502    0 -0.12473490018E+03 -0.14975753312E+03 -0.15269320694E+02  0.19549748395E+03  0.50400001928E-02 0.  1.
       -1    1    3    3    0  502  0.12473490018E+03  0.14975753312E+03 -0.11468787394E+04  0.11633215192E+04  0.50400001928E-02 0. -1.
</event>
<event>
 5   0  0.1197259E-02  0.7038526E+03  0.7818609E-02  0.9710666E-01
        1   -1    0    0  501    0  0.00000000000E+00  0.00000000000E+00  0.11460495265E+04  0.11460495265E+04  0.50400001928E-02 0.  1.
       -1   -1    0    0    0  501  0.00000000000E+00  0.00000000000E+00 -0.10806873790E+03  0.10806873802E+03  0.50400001928E-02 0. -1.
    10030    2    1    2    0    0  0.00000000000E+00  0.00000000000E+00  0.10379807886E+04  0.12541182645E+04  0.70385261520E+03 0.  0.
        3    1    3    3  502    0  0.19344789213E+03  0.21766511985E+03  0.87110009022E+03  0.91848547552E+03  0.10100000352E+00 0.  1.
       -3    1    3    3    0  502 -0.19344789213E+03 -0.21766511985E+03  0.16688069840E+03  0.33563278903E+03  0.10100000352E+00 0. -1.
</event>
<event>
 5   0  0.7947250E-03  0.6989116E+03  0.7818609E-02  0.9719095E-01
       -4   -1    0    0    0  501  0.00000000000E+00  0.00000000000E+00  0.24462090598E+03  0.24462420269E+03  0.12699999809E+01 0.  1.
        4   -1    0    0  501    0  0.00000000000E+00  0.00000000000E+00 -0.49921138954E+03  0.49921300499E+03  0.12699999809E+01 0. -1.
    10030    2    1    2    0    0  0.00000000000E+00  0.00000000000E+00 -0.25459048357E+03  0.74383720768E+03  0.69891163762E+03 0.  0.
        4    1    3    3  502    0  0.15924488071E+03 -0.66786638463E+02  0.19603970043E+03  0.26125191704E+03  0.12699999809E+01 0.  1.
       -4    1    3    3    0  502 -0.15924488071E+03  0.66786638463E+02 -0.45063018400E+03  0.48258529064E+03  0.12699999809E+01 0. -1.
</event>
<event>
 5   0  0.2026361E-02  0.6984643E+03  0.7818609E-02  0.9719862E-01
        2   -1    0    0  501    0  0.00000000000E+00  0.00000000000E+00  0.25912429044E+03  0.25912429046E+03  0.25500000920E-02 0. -1.
       -2   -1    0    0    0  501  0.00000000000E+00  0.00000000000E+00 -0.47067410109E+03  0.47067410110E+03  0.25500000920E-02 0.  1.
    10030    2    1    2    0    0  0.00000000000E+00  0.00000000000E+00 -0.21154981065E+03  0.72979839156E+03  0.69846429396E+03 0.  0.
        2    1    3    3  502    0 -0.15923993478E+03  0.24037910405E+03  0.10010156659E+03  0.30522089400E+03  0.25500000920E-02 0.  1.
       -2    1    3    3    0  502  0.15923993478E+03 -0.24037910405E+03 -0.31165137724E+03  0.42457749756E+03  0.25500000920E-02 0. -1.
</event>
<event>
 5   0  0.2026361E-02  0.6976408E+03  0.7818609E-02  0.9721275E-01
        2   -1    0    0  501    0  0.00000000000E+00  0.00000000000E+00  0.64345006447E+03  0.64345006447E+03  0.25500000920E-02 0. -1.
       -2   -1    0    0    0  501  0.00000000000E+00  0.00000000000E+00 -0.18909887103E+03  0.18909887105E+03  0.25500000920E-02 0.  1.
    10030    2    1    2    0    0  0.00000000000E+00  0.00000000000E+00  0.45435119344E+03  0.83254893552E+03  0.69764082668E+03 0.  0.
        2    1    3    3  502    0  0.12819978532E+03 -0.32005392788E+03  0.16396060377E+03  0.38177582598E+03  0.25500000920E-02 0. -1.
       -2    1    3    3    0  502 -0.12819978532E+03  0.32005392788E+03  0.29039058966E+03  0.45077310953E+03  0.25500000920E-02 0.  1.
</event>
<event>
 5   0  0.2006362E-02  0.7023359E+03  0.7818609E-02  0.9713246E-01
       -2   -1    0    0    0  501  0.00000000000E+00  0.00000000000E+00  0.42283445862E+03  0.42283445863E+03  0.25500000920E-02 0. -1.
        2   -1    0    0  501    0  0.00000000000E+00  0.00000000000E+00 -0.29164827211E+03  0.29164827212E+03  0.25500000920E-02 0.  1.
    10030    2    1    2    0    0  0.00000000000E+00  0.00000000000E+00  0.13118618652E+03  0.71448273075E+03  0.70233592889E+03 0.  0.
        4    1    3    3  502    0 -0.34523614930E+03 -0.12777794734E+02  0.12965889207E+03  0.36900448780E+03  0.12699999809E+01 0.  1.
       -4    1    3    3    0  502  0.34523614930E+03  0.12777794734E+02  0.15272944428E+01  0.34547824295E+03  0.12699999809E+01 0. -1.
</event>
<event>
 5   0  0.2026361E-02  0.6981495E+03  0.7818609E-02  0.9720402E-01
        2   -1    0    0  501    0  0.00000000000E+00  0.00000000000E+00  0.15718506133E+04  0.15718506133E+04  0.25500000920E-02 0. -1.
       -2   -1    0    0    0  501  0.00000000000E+00  0.00000000000E+00 -0.77522109391E+02  0.77522109433E+02  0.25500000920E-02 0.  1.
    10030    2    1    2    0    0  0.00000000000E+00  0.00000000000E+00  0.14943285039E+04  0.16493727227E+04  0.69814948320E+03 0.  0.
        2    1    3    3  502    0 -0.29514841873E+03  0.26092783073E+02  0.31115959002E+03  0.42966697904E+03  0.25500000920E-02 0.  1.
       -2    1    3    3    0  502  0.29514841873E+03 -0.26092783073E+02  0.11831689139E+04  0.12197057437E+04  0.25500000920E-02 0. -1.
</event>
<event>
 5   0  0.2026361E-02  0.7024061E+03  0.7818609E-02  0.9713126E-01
        2   -1    0    0  501    0  0.00000000000E+00  0.00000000000E+00  0.13320657580E+03  0.13320657583E+03  0.25500000920E-02 0.  1.
       -2   -1    0    0    0  501  0.00000000000E+00  0.00000000000E+00 -0.92595721699E+03  0.92595721699E+03  0.25500000920E-02 0. -1.
    10030    2    1    2    0    0  0.00000000000E+00  0.00000000000E+00 -0.79275064119E+03  0.10591637928E+04  0.70240612249E+03 0.  0.
        2    1    3    3  502    0 -0.32865591763E+02 -0.58609623042E+01 -0.92355921121E+03  0.92416238542E+03  0.25500000920E-02 0. -1.
       -2    1    3    3    0  502  0.32865591763E+02  0.58609623042E+01  0.13080857003E+03  0.13500140740E+03  0.25500000920E-02 0.  1.
</event>
<event>
 5   0  0.1948138E-02  0.6984546E+03  0.7818609E-02  0.9719879E-01
       -2   -1    0    0    0  501  0.00000000000E+00  0.00000000000E+00  0.29816406851E+03  0.29816406853E+03  0.25500000920E-02 0.  1.
        2   -1    0    0  501    0  0.00000000000E+00  0.00000000000E+00 -0.40903559021E+03  0.40903559021E+03  0.25500000920E-02 0. -1.
    10030    2    1    2    0    0  0.00000000000E+00  0.00000000000E+00 -0.11087152169E+03  0.70719965874E+03  0.69845462487E+03 0.  0.
        3    1    3    3  502    0 -0.22746730373E+03  0.12460061016E+03 -0.29222927038E+03  0.39072323067E+03  0.10100000352E+00 0. -1.
       -3    1    3    3    0  502  0.22746730373E+03 -0.12460061016E+03  0.18135774869E+03  0.31647642807E+03  0.10100000352E+00 0.  1.
</event>
<event>
 5   0  0.1223742E-02  0.6902749E+03  0.7818609E-02  0.9734010E-01
       -1   -1    0    0    0  501  0.00000000000E+00  0.00000000000E+00  0.27241959085E+03  0.27241959090E+03  0.50400001928E-02 0.  1.
        1   -1    0    0  501    0  0.00000000000E+00  0.00000000000E+00 -0.43726608226E+03  0.43726608229E+03  0.50400001928E-02 0. -1.
    10030    2    1    2    0    0  0.00000000000E+00  0.00000000000E+00 -0.16484649140E+03  0.70968567319E+03  0.69027486482E+03 0.  0.
        2    1    3    3  502    0 -0.17983504544E+03 -0.28624869574E+03 -0.10890237386E+02  0.33822707854E+03  0.25500000920E-02 0.  1.
       -2    1    3    3    0  502  0.17983504544E+03  0.28624869574E+03 -0.15395625402E+03  0.37145859465E+03  0.25500000920E-02 0. -1.
</event>
<event>
 5   0  0.1257442E-02  0.6971380E+03  0.7818609E-02  0.9722139E-01
        1   -1    0    0  501    0  0.00000000000E+00  0.00000000000E+00  0.42988955624E+03  0.42988955627E+03  0.50400001928E-02 0. -1.
       -1   -1    0    0    0  501  0.00000000000E+00  0.00000000000E+00 -0.28263150912E+03  0.28263150916E+03  0.50400001928E-02 0.  1.
    10030    2    1    2    0    0  0.00000000000E+00  0.00000000000E+00  0.14725804712E+03  0.71252106543E+03  0.69713796069E+03 0.  0.
        1    1    3    3  502    0  0.15422276690E+03 -0.16080402827E+03 -0.20034900984E+03  0.29963698555E+03  0.50400001928E-02 0.  1.
       -1    1    3    3    0  502 -0.15422276690E+03  0.16080402827E+03  0.34760705696E+03  0.41288407988E+03  0.50400001928E-02 0. -1.
</event>
<event>
 5   0  0.1197259E-02  0.7060304E+03  0.7818609E-02  0.9706975E-01
       -1   -1    0    0    0  501  0.00000000000E+00  0.00000000000E+00  0.34897398646E+03  0.34897398649E+03  0.50400001928E-02 0. -1.
        1   -1    0    0  501    0  0.00000000000E+00  0.00000000000E+00 -0.35710325502E+03  0.35710325505E+03  0.50400001928E-02 0.  1.
    10030    2    1    2    0    0  0.00000000000E+00  0.00000000000E+00 -0.81292685620E+01  0.70607724155E+03  0.70603044270E+03 0.  0.
        3    1    3    3  502    0 -0.93326571197E+01 -0.28582035102E+03  0.20292581022E+03  0.35065548078E+03  0.10100000352E+00 0. -1.
       -3    1    3    3    0  502  0.93326571197E+01  0.28582035102E+03 -0.21105507878E+03  0.35542176077E+03  0.10100000352E+00 0.  1.
</event>
<event>
 5   0  0.7947250E-03  0.7007707E+03  0.7818609E-02  0.9715915E-01
        3   -1    0    0  501    0  0.00000000000E+00  0.00000000000E+00  0.43878342887E+03  0.43878344050E+03  0.10100000352E+00 0.  1.
       -3   -1    0    0    0  501  0.00000000000E+00  0.00000000000E+00 -0.27979609819E+03  0.27979611642E+03  0.10100000352E+00 0. -1.
    10030    2    1    2    0    0  0.00000000000E+00  0.00000000000E+00  0.15898733068E+03  0.71857955692E+03  0.70077072449E+03 0.  0.
        1    1    3    3  502    0 -0.12127367007E+03  0.23337369200E+03  0.31689247812E+03  0.41181479561E+03  0.50400001928E-02 0.  1.
       -1    1    3    3    0  502  0.12127367007E+03 -0.23337369200E+03 -0.15790514744E+03  0.30676476131E+03  0.50400001928E-02 0. -1.
</event>
<event>
 5   0  0.1223742E-02  0.7054583E+03  0.7818609E-02  0.9707943E-01
        1   -1    0    0  501    0  0.00000000000E+00  0.00000000000E+00  0.11981983529E+04  0.11981983529E+04  0.50400001928E-02 0. -1.
       -1   -1    0    0    0  501  0.00000000000E+00  0.00000000000E+00 -0.10383743657E+03  0.10383743669E+03  0.50400001928E-02 0.  1.
    10030    2    1    2    0    0  0.00000000000E+00  0.00000000000E+00  0.10943609163E+04  0.13020357896E+04  0.70545827815E+03 0.  0.
        2    1    3    3  502    0  0.22322462435E+03 -0.25853528339E+03  0.38471922195E+03  0.51446924633E+03  0.25500000920E-02 0.  1.
       -2    1    3    3    0  502 -0.22322462435E+03  0.25853528339E+03  0.70964169439E+03  0.78756654328E+03  0.25500000920E-02 0. -1.
</event>
<event>
 5   0  0.1257442E-02  0.7016953E+03  0.7818609E-02  0.9714337E-01
        1   -1    0    0  501    0  0.00000000000E+00  0.00000000000E+00  0.31577004117E+03  0.31577004121E+03  0.50400001928E-02 0. -1.
       -1   -1    0    0    0  501  0.00000000000E+00  0.00000000000E+00 -0.38982189767E+03  0.38982189771E+03  0.50400001928E-02 0.  1.
    10030    2    1    2    0    0  0.00000000000E+00  0.00000000000E+00 -0.74051856505E+02  0.70559193892E+03  0.70169530910E+03 0.  0.
        1    1    3    3  502    0  0.15417234791E+03  0.19133382733E+03 -0.28884890699E+03  0.37922478484E+03  0.50400001928E-02 0.  1.
       -1    1    3    3    0  502 -0.15417234791E+03 -0.19133382733E+03  0.21479705048E+03  0.32636715408E+03  0.50400001928E-02 0. -1.
</event>
<event>
 5   0  0.2006362E-02  0.6986722E+03  0.7818609E-02  0.9719506E-01
        2   -1    0    0  501    0  0.00000000000E+00  0.00000000000E+00  0.12502878221E+04  0.12502878221E+04  0.25500000920E-02 0.  1.
       -2   -1    0    0    0  501  0.00000000000E+00  0.00000000000E+00 -0.97606092374E+02  0.97606092408E+02  0.25500000920E-02 0. -1.
    10030    2    1    2    0    0  0.00000000000E+00  0.00000000000E+00  0.11526817297E+04  0.13478939145E+04  0.69867219405E+03 0.  0.
        4    1    3    3  502    0  0.17726027443E+03  0.24558856713E+03  0.91215382366E+03  0.96112494511E+03  0.12699999809E+01 0.  1.
       -4    1    3    3    0  502 -0.17726027443E+03 -0.24558856713E+03  0.24052790607E+03  0.38676896941E+03  0.12699999809E+01 0. -1.
</event>
<event>
 5   0  0.2006362E-02  0.7013891E+03  0.7818609E-02  0.9714860E-01
        2   -1    0    0  501    0  0.00000000000E+00  0.00000000000E+00  0.41663903594E+03  0.41663903595E+03  0.25500000920E-02 0.  1.
       -2   -1    0    0    0  501  0.00000000000E+00  0.00000000000E+00 -0.29518759582E+03  0.29518759583E+03  0.25500000920E-02 0. -1.
    10030    2    1    2    0    0  0.00000000000E+00  0.00000000000E+00  0.12145144012E+03  0.71182663178E+03  0.70138912267E+03 0.  0.
        4    1    3    3  502    0  0.59498506752E+02 -0.32864045127E+03  0.16927742386E+03  0.37443434357E+03  0.12699999809E+01 0.  1.
       -4    1    3    3    0  502 -0.59498506752E+02  0.32864045127E+03 -0.47825983737E+02  0.33739228820E+03  0.12699999809E+01 0. -1.
</event>
<event>
 5   0  0.2026361E-02  0.6825266E+03  0.7818609E-02  0.9747590E-01
       -2   -1    0    0    0  501  0.00000000000E+00  0.00000000000E+00  0.22410543947E+03  0.22410543949E+03  0.25500000920E-02 0. -1.
        2   -1    0    0  501    0  0.00000000000E+00  0.00000000000E+00 -0.51966901746E+03  0.51966901746E+03  0.25500000920E-02 0.  1.
    10030    2    1    2    0    0  0.00000000000E+00  0.00000000000E+00 -0.29556357799E+03  0.74377445695E+03  0.68252663990E+03 0.  0.
        2    1    3    3  502    0  0.62452654702E+02 -0.11805425255E+03 -0.49000691046E+03  0.50788179031E+03  0.25500000920E-02 0.  1.
       -2    1    3    3    0  502 -0.62452654702E+02  0.11805425255E+03  0.19444333247E+03  0.23589266664E+03  0.25500000920E-02 0. -1.
</event>
<event>
 5   0  0.1237686E-02  0.7039111E+03  0.7818609E-02  0.9710567E-01
        1   -1    0    0  501    0  0.00000000000E+00  0.00000000000E+00  0.44823760245E+03  0.44823760248E+03  0.50400001928E-02 0.  1.
       -1   -1    0    0    0  501  0.00000000000E+00  0.00000000000E+00 -0.27635503747E+03  0.27635503751E+03  0.50400001928E-02 0. -1.
    10030    2    1    2    0    0  0.00000000000E+00  0.00000000000E+00  0.17188256498E+03  0.72459263999E+03  0.70391112918E+03 0.  0.
        5    1    3    3  502    0  0.15507315523E+03  0.23171499280E+03  0.30698535129E+03  0.41473077685E+03  0.46999998093E+01 0.  1.
       -5    1    3    3    0  502 -0.15507315523E+03 -0.23171499280E+03 -0.13510278631E+03  0.30986186314E+03  0.46999998093E+01 0. -1.
</event>
<event>
 5   0  0.1226303E-02  0.6999919E+03  0.7818609E-02  0.9717246E-01
        1   -1    0    0  501    0  0.00000000000E+00  0.00000000000E+00  0.32598264282E+03  0.32598264286E+03  0.50400001928E-02 0. -1.
       -1   -1    0    0    0  501  0.00000000000E+00  0.00000000000E+00 -0.37577816491E+03  0.37577816494E+03  0.50400001928E-02 0.  1.
    10030    2    1    2    0    0  0.00000000000E+00  0.00000000000E+00 -0.49795522086E+02  0.70176080780E+03  0.69999188377E+03 0.  0.
        4    1    3    3  502    0 -0.16882966082E+03  0.54049652340E+02 -0.32743964537E+03  0.37234816174E+03  0.12699999809E+01 0.  1.
       -4    1    3    3    0  502  0.16882966082E+03 -0.54049652340E+02  0.27764412328E+03  0.32941264606E+03  0.12699999809E+01 0. -1.
</event>
<event>
 5   0  0.1197259E-02  0.6998799E+03  0.7818609E-02  0.9717438E-01
       -1   -1    0    0    0  501  0.00000000000E+00  0.00000000000E+00  0.15212180273E+03  0.15212180282E+03  0.50400001928E-02 0.  1.
        1   -1    0    0  501    0  0.00000000000E+00  0.00000000000E+00 -0.80499936842E+03  0.80499936844E+03  0.50400001928E-02 0. -1.
    10030    2    1    2    0    0  0.00000000000E+00  0.00000000000E+00 -0.65287756569E+03  0.95712117125E+03  0.69987986161E+03 0.  0.
        3    1    3    3  502    0  0.49545934752E+02  0.10850871047E+03  0.12346045617E+03  0.17167246237E+03  0.10100000352E+00 0.  1.
       -3    1    3    3    0  502 -0.49545934752E+02 -0.10850871047E+03 -0.77633802186E+03  0.78544870888E+03  0.10100000352E+00 0. -1.
</event>
<event>
 5   0  0.7947250E-03  0.6796910E+03  0.7818609E-02  0.9752608E-01
       -3   -1    0    0    0  501  0.00000000000E+00  0.00000000000E+00  0.41222640421E+03  0.41222641658E+03  0.10100000352E+00 0. -1.
        3   -1    0    0  501    0  0.00000000000E+00  0.00000000000E+00 -0.28017356188E+03  0.28017358009E+03  0.10100000352E+00 0.  1.
    10030    2    1    2    0    0  0.00000000000E+00  0.00000000000E+00  0.13205284233E+03  0.69239999667E+03  0.67969096082E+03 0.  0.
        1    1    3    3  502    0  0.15443241388E+03  0.31681183043E+02 -0.24067092752E+03  0.28770742638E+03  0.50400001928E-02 0.  1.
       -1    1    3    3    0  502 -0.15443241388E+03 -0.31681183043E+02  0.37272376984E+03  0.40469257029E+03  0.50400001928E-02 0. -1.
</event>
<event>
 5   0  0.1226303E-02  0.6345557E+03  0.7818609E-02  0.9836199E-01
       -1   -1    0    0    0  501  0.00000000000E+00  0.00000000000E+00  0.19421400922E+03  0.19421400929E+03  0.50400001928E-02 0. -1.
        1   -1    0    0  501    0  0.00000000000E+00  0.00000000000E+00 -0.51832123742E+03  0.51832123744E+03  0.50400001928E-02 0.  1.
    10030    2    1    2    0    0  0.00000000000E+00  0.00000000000E+00 -0.32410722819E+03  0.71253524673E+03  0.63455573629E+03 0.  0.
        4    1    3    3  502    0  0.27992596506E+03  0.10252363096E+03 -0.28399945431E+03  0.41173649798E+03  0.12699999809E+01 0. -1.
       -4    1    3    3    0  502 -0.27992596506E+03 -0.10252363096E+03 -0.40107773884E+02  0.30079874875E+03  0.12699999809E+01 0.  1.
</event>
<event>
 5   0  0.1223742E-02  0.6970532E+03  0.7818609E-02  0.9722285E-01
       -1   -1    0    0    0  501  0.00000000000E+00  0.00000000000E+00  0.27984062624E+03  0.27984062628E+03  0.50400001928E-02 0. -1.
        1   -1    0    0  501    0  0.00000000000E+00  0.00000000000E+00 -0.43407127415E+03  0.43407127418E+03  0.50400001928E-02 0.  1.
    10030    2    1    2    0    0  0.00000000000E+00  0.00000000000E+00 -0.15423064792E+03  0.71391190047E+03  0.69705316072E+03 0.  0.
        2    1    3    3  502    0  0.13895306103E+03  0.30851111598E+03  0.84744709269E+01  0.33846547611E+03  0.25500000920E-02 0. -1.
       -2    1    3    3    0  502 -0.13895306103E+03 -0.30851111598E+03 -0.16270511885E+03  0.37544642435E+03  0.25500000920E-02 0.  1.
</event>
<event>
 5   0  0.1909053E-02  0.6919280E+03  0.7818609E-02  0.9731137E-01
       -2   -1    0    0    0  501  0.00000000000E+00  0.00000000000E+00  0.22315407514E+03  0.22315407516E+03  0.25500000920E-02 0.  1.
        2   -1    0    0  501    0  0.00000000000E+00  0.00000000000E+00 -0.53636074702E+03  0.53636074703E+03  0.25500000920E-02 0. -1.
    10030    2    1    2    0    0  0.00000000000E+00  0.00000000000E+00 -0.31320667188E+03  0.75951482219E+03  0.69192799178E+03 0.  0.
        1    1    3    3  502    0  0.37873582792E+02 -0.27064572838E+03 -0.38947579325E+03  0.47578872634E+03  0.50400001928E-02 0. -1.
       -1    1    3    3    0  502 -0.37873582792E+02  0.27064572838E+03  0.76269121371E+02  0.28372609584E+03  0.50400001928E-02 0.  1.
</event>
<event>
 5   0  0.2026361E-02  0.7171810E+03  0.7818609E-02  0.9688293E-01
        2   -1    0    0  501    0  0.00000000000E+00  0.00000000000E+00  0.37897429505E+03  0.37897429506E+03  0.25500000920E-02 0.  1.
       -2   -1    0    0    0  501  0.00000000000E+00  0.00000000000E+00 -0.33930307450E+03  0.33930307451E+03  0.25500000920E-02 0. -1.
    10030    2    1    2    0    0  0.00000000000E+00  0.00000000000E+00  0.39671220548E+02  0.71827736956E+03  0.71718099103E+03 0.  0.
        2    1    3    3  502    0 -0.36650126607E+02 -0.45444066320E+02 -0.33451135378E+03  0.33956772632E+03  0.25500000920E-02 0. -1.
       -2    1    3    3    0  502  0.36650126607E+02  0.45444066320E+02  0.37418257433E+03  0.37870964324E+03  0.25500000920E-02 0.  1.
</event>
<event>
 5   0  0.1948138E-02  0.7308384E+03  0.7818609E-02  0.9665901E-01
       -2   -1    0    0    0  501  0.00000000000E+00  0.00000000000E+00  0.29101941274E+03  0.29101941275E+03  0.25500000920E-02 0. -1.
        2   -1    0    0  501    0  0.00000000000E+00  0.00000000000E+00 -0.45883952339E+03  0.45883952340E+03  0.25500000920E-02 0.  1.
    10030    2    1    2    0    0  0.00000000000E+00  0.00000000000E+00 -0.16782011065E+03  0.74985893615E+03  0.73083844629E+03 0.  0.
        3    1    3    3  502    0  0.18320040248E+03  0.81425268576E+02 -0.39737511897E+03  0.44508365192E+03  0.10100000352E+00 0.  1.
       -3    1    3    3    0  502 -0.18320040248E+03 -0.81425268576E+02  0.22955500832E+03  0.30477528423E+03  0.10100000352E+00 0. -1.
</event>
<event>
 5   0  0.1973067E-02  0.7009614E+03  0.7818609E-02  0.9715589E-01
        2   -1    0    0  501    0  0.00000000000E+00  0.00000000000E+00  0.91921719814E+03  0.91921719815E+03  0.25500000920E-02 0.  1.
       -2   -1    0    0    0  501  0.00000000000E+00  0.00000000000E+00 -0.13363188378E+03  0.13363188381E+03  0.25500000920E-02 0. -1.
    10030    2    1    2    0    0  0.00000000000E+00  0.00000000000E+00  0.78558531436E+03  0.10528490820E+04  0.70096141351E+03 0.  0.
        5    1    3    3  502    0 -0.55371313226E+02  0.11660124895E+03  0.88216310860E+03  0.89156921984E+03  0.46999998093E+01 0.  1.
       -5    1    3    3    0  502  0.55371313226E+02 -0.11660124895E+03 -0.96577794242E+02  0.16127986211E+03  0.46999998093E+01 0. -1.
</event>
<event>
 5   0  0.7947250E-03  0.6993075E+03  0.7818609E-02  0.9718417E-01
        3   -1    0    0  501    0  0.00000000000E+00  0.00000000000E+00  0.21367396270E+03  0.21367398657E+03  0.10100000352E+00 0.  1.
       -3   -1    0    0    0  501  0.00000000000E+00  0.00000000000E+00 -0.57216951662E+03  0.57216952553E+03  0.10100000352E+00 0. -1.
    10030    2    1    2    0    0  0.00000000000E+00  0.00000000000E+00 -0.35849555391E+03  0.78584351211E+03  0.69930748841E+03 0.  0.
        3    1    3    3  502    0 -0.32205531806E+03 -0.13611632350E+03 -0.18288031271E+03  0.39457888994E+03  0.10100000352E+00 0. -1.
       -3    1    3    3    0  502  0.32205531806E+03  0.13611632350E+03 -0.17561524121E+03  0.39126462216E+03  0.10100000352E+00 0.  1.
</event>
<event>
 5   0  0.1237686E-02  0.7033773E+03  0.7818609E-02  0.9711474E-01
        1   -1    0    0  501    0  0.00000000000E+00  0.00000000000E+00  0.12268439405E+04  0.12268439405E+04  0.50400001928E-02 0.  1.
       -1   -1    0    0    0  501  0.00000000000E+00  0.00000000000E+00 -0.10081552767E+03  0.10081552780E+03  0.50400001928E-02 0. -1.
    10030    2    1    2    0    0  0.00000000000E+00  0.00000000000E+00  0.11260284128E+04  0.13276594683E+04  0.70337733634E+03 0.  0.
        5    1    3    3  502    0  0.23634589823E+03  0.13747920215E+03  0.14560146798E+03  0.30980928345E+03  0.46999998093E+01 0. -1.
       -5    1    3    3    0  502 -0.23634589823E+03 -0.13747920215E+03  0.98042694481E+03  0.10178501848E+04  0.46999998093E+01 0.  1.
</event>
<event>
 5   0  0.1223742E-02  0.7003846E+03  0.7818609E-02  0.9716575E-01
        1   -1    0    0  501    0  0.00000000000E+00  0.00000000000E+00  0.61714164340E+03  0.61714164342E+03  0.50400001928E-02 0.  1.
       -1   -1    0    0    0  501  0.00000000000E+00  0.00000000000E+00 -0.19871392920E+03  0.19871392927E+03  0.50400001928E-02 0. -1.
    10030    2    1    2    0    0  0.00000000000E+00  0.00000000000E+00  0.41842771420E+03  0.81585557269E+03  0.70038458255E+03 0.  0.
        2    1    3    3  502    0  0.27558654193E+03 -0.14534395409E+01 -0.42474695992E+02  0.27884431926E+03  0.25500000920E-02 0. -1.
       -2    1    3    3    0  502 -0.27558654193E+03  0.14534395409E+01  0.46090241019E+03  0.53701125342E+03  0.25500000920E-02 0.  1.
</event>
<event>
 5   0  0.1197259E-02  0.7004243E+03  0.7818609E-02  0.9716507E-01
       -1   -1    0    0    0  501  0.00000000000E+00  0.00000000000E+00  0.17995283426E+03  0.17995283433E+03  0.50400001928E-02 0.  1.
        1   -1    0    0  501    0  0.00000000000E+00  0.00000000000E+00 -0.68155952069E+03  0.68155952071E+03  0.50400001928E-02 0. -1.
    10030    2    1    2    0    0  0.00000000000E+00  0.00000000000E+00 -0.50160668643E+03  0.86151235504E+03  0.70042434996E+03 0.  0.
        3    1    3    3  502    0 -0.72992575974E+02 -0.21179075917E+03  0.80301373886E+02  0.23797386972E+03  0.10100000352E+00 0.  1.
       -3    1    3    3    0  502  0.72992575974E+02  0.21179075917E+03 -0.58190806031E+03  0.62353848532E+03  0.10100000352E+00 0. -1.
</event>
<event>
 5   0  0.2026361E-02  0.6972753E+03  0.7818609E-02  0.9721903E-01
       -2   -1    0    0    0  501  0.00000000000E+00  0.00000000000E+00  0.11380404827E+03  0.11380404830E+03  0.25500000920E-02 0. -1.
        2   -1    0    0  501    0  0.00000000000E+00  0.00000000000E+00 -0.10680482029E+04  0.10680482029E+04  0.25500000920E-02 0.  1.
    10030    2    1    2    0    0  0.00000000000E+00  0.00000000000E+00 -0.95424415460E+03  0.11818522512E+04  0.69727529501E+03 0.  0.
        2    1    3    3  502    0 -0.26019871594E+03 -0.11809263630E+03 -0.81568526344E+03  0.86428681091E+03  0.25500000920E-02 0.  1.
       -2    1    3    3    0  502  0.26019871594E+03  0.11809263630E+03 -0.13855889116E+03  0.31756544026E+03  0.25500000920E-02 0. -1.
</event>
<event>
 5   0  0.1909053E-02  0.7010467E+03  0.7818609E-02  0.9715444E-01
        2   -1    0    0  501    0  0.00000000000E+00  0.00000000000E+00  0.16475720253E+04  0.16475720253E+04  0.25500000920E-02 0.  1.
       -2   -1    0    0    0  501  0.00000000000E+00  0.00000000000E+00 -0.74574348661E+02  0.74574348705E+02  0.25500000920E-02 0. -1.
    10030    2    1    2    0    0  0.00000000000E+00  0.00000000000E+00  0.15729976767E+04  0.17221463740E+04  0.70104667662E+03 0.  0.
        1    1    3    3  502    0 -0.28406918380E+01  0.22202428783E+03  0.12022144710E+03  0.25249960452E+03  0.50400001928E-02 0. -1.
       -1    1    3    3    0  502  0.28406918380E+01 -0.22202428783E+03  0.14527762296E+04  0.14696467695E+04  0.50400001928E-02 0.  1.
</event>
<event>
 5   0  0.1909053E-02  0.7126259E+03  0.7818609E-02  0.9695881E-01
       -2   -1    0    0    0  501  0.00000000000E+00  0.00000000000E+00  0.15267974373E+03  0.15267974375E+03  0.25500000920E-02 0.  1.
        2   -1    0    0  501    0  0.00000000000E+00  0.00000000000E+00 -0.83153744891E+03  0.83153744891E+03  0.25500000920E-02 0. -1.
    10030    2    1    2    0    0  0.00000000000E+00  0.00000000000E+00 -0.67885770518E+03  0.98421719266E+03  0.71262591761E+03 0.  0.
        1    1    3    3  502    0 -0.14233826501E+03 -0.16769391889E+03  0.47720392525E+02  0.22507480535E+03  0.50400001928E-02 0.  1.
       -1    1    3    3    0  502  0.14233826501E+03  0.16769391889E+03 -0.72657809771E+03  0.75914238731E+03  0.50400001928E-02 0. -1.
</event>
<event>
 5   0  0.1948138E-02  0.7002931E+03  0.7818609E-02  0.9716731E-01
        2   -1    0    0  501    0  0.00000000000E+00  0.00000000000E+00  0.20410561925E+03  0.20410561927E+03  0.25500000920E-02 0. -1.
       -2   -1    0    0    0  501  0.00000000000E+00  0.00000000000E+00 -0.60068224172E+03  0.60068224172E+03  0.25500000920E-02 0.  1.
    10030    2    1    2    0    0  0.00000000000E+00  0.00000000000E+00 -0.39657662246E+03  0.80478786099E+03  0.70029314127E+03 0.  0.
        3    1    3    3  502    0  0.21863562883E+02  0.52720779915E+02 -0.59530052468E+03  0.59803028427E+03  0.10100000352E+00 0.  1.
       -3    1    3    3    0  502 -0.21863562883E+02 -0.52720779915E+02  0.19872390222E+03  0.20675757672E+03  0.10100000352E+00 0. -1.
</event>
<event>
 5   0  0.1223742E-02  0.6965503E+03  0.7818609E-02  0.9723150E-01
        1   -1    0    0  501    0  0.00000000000E+00  0.00000000000E+00  0.42625589477E+03  0.42625589480E+03  0.50400001928E-02 0.  1.
       -1   -1    0    0    0  501  0.00000000000E+00  0.00000000000E+00 -0.28456048804E+03  0.28456048808E+03  0.50400001928E-02 0. -1.
    10030    2    1    2    0    0  0.00000000000E+00  0.00000000000E+00  0.14169540674E+03  0.71081638289E+03  0.69655031540E+03 0.  0.
        2    1    3    3  502    0 -0.16129062699E+03  0.14017993187E+03 -0.20979479512E+03  0.29946441478E+03  0.25500000920E-02 0. -1.
       -2    1    3    3    0  502  0.16129062699E+03 -0.14017993187E+03  0.35149020186E+03  0.41135196810E+03  0.25500000920E-02 0.  1.
</event>
<event>
 5   0  0.1948138E-02  0.6966381E+03  0.7818609E-02  0.9722999E-01
        2   -1    0    0  501    0  0.00000000000E+00  0.00000000000E+00  0.68552851162E+03  0.68552851163E+03  0.25500000920E-02 0. -1.
       -2   -1    0    0    0  501  0.00000000000E+00  0.00000000000E+00 -0.17698193854E+03  0.17698193856E+03  0.25500000920E-02 0.  1.
    10030    2    1    2    0    0  0.00000000000E+00  0.00000000000E+00  0.50854657308E+03  0.86251045019E+03  0.69663811243E+03 0.  0.
        3    1    3    3  502    0 -0.36665467835E+02  0.12018766962E+03  0.65648890988E+03  0.66840641190E+03  0.10100000352E+00 0. -1.
       -3    1    3    3    0  502  0.36665467835E+02 -0.12018766962E+03 -0.14794233681E+03  0.19410403829E+03  0.10100000352E+00 0.  1.
</event>
<event>
 5   0  0.1223742E-02  0.7041280E+03  0.7818609E-02  0.9710199E-01
        1   -1    0    0  501    0  0.00000000000E+00  0.00000000000E+00  0.54175159655E+03  0.54175159658E+03  0.50400001928E-02 0. -1.
       -1   -1    0    0    0  501  0.00000000000E+00  0.00000000000E+00 -0.22879314402E+03  0.22879314408E+03  0.50400001928E-02 0.  1.
    10030    2    1    2    0    0  0.00000000000E+00  0.00000000000E+00  0.31295845253E+03  0.77054474065E+03  0.70412797440E+03 0.  0.
        2    1    3    3  502    0  0.26978937394E+03 -0.22379133964E+03  0.12051302698E+03  0.37066461885E+03  0.25500000920E-02 0. -1.
       -2    1    3    3    0  502 -0.26978937394E+03  0.22379133964E+03  0.19244542555E+03  0.39988012180E+03  0.25500000920E-02 0.  1.
</event>
<event>
 5   0  0.1973067E-02  0.7084972E+03  0.7818609E-02  0.9702810E-01
       -2   -1    0    0    0  501  0.00000000000E+00  0.00000000000E+00  0.25577123925E+03  0.25577123927E+03  0.25500000920E-02 0. -1.
        2   -1    0    0  501    0  0.00000000000E+00  0.00000000000E+00 -0.49064188976E+03  0.49064188976E+03  0.25500000920E-02 0.  1.
    10030    2    1    2    0    0  0.00000000000E+00  0.00000000000E+00 -0.23487065051E+03  0.74641312903E+03  0.70849723833E+03 0.  0.
        5    1    3    3  502    0 -0.10446396800E+03  0.49518880106E+01  0.23910278383E+03  0.26101623137E+03  0.46999998093E+01 0. -1.
       -5    1    3    3    0  502  0.10446396800E+03 -0.49518880106E+01 -0.47397343433E+03  0.48539689766E+03  0.46999998093E+01 0.  1.
</event>
<event>
 5   0  0.1948138E-02  0.7014366E+03  0.7818609E-02  0.9714779E-01
       -2   -1    0    0    0  501  0.00000000000E+00  0.00000000000E+00  0.21944002089E+03  0.21944002090E+03  0.25500000920E-02 0. -1.
        2   -1    0    0  501    0  0.00000000000E+00  0.00000000000E+00 -0.56053271392E+03  0.56053271392E+03  0.25500000920E-02 0.  1.
    10030    2    1    2    0    0  0.00000000000E+00  0.00000000000E+00 -0.34109269303E+03  0.77997273483E+03  0.70143655582E+03 0.  0.
        3    1    3    3  502    0  0.23322834008E+03  0.70403494509E+02  0.10999332764E+03  0.26730254952E+03  0.10100000352E+00 0. -1.
       -3    1    3    3    0  502 -0.23322834008E+03 -0.70403494509E+02 -0.45108602067E+03  0.51267018530E+03  0.10100000352E+00 0.  1.
</event>
<event>
 5   0  0.1223742E-02  0.6806643E+03  0.7818609E-02  0.9750882E-01
        1   -1    0    0  501    0  0.00000000000E+00  0.00000000000E+00  0.22044860318E+03  0.22044860324E+03  0.50400001928E-02 0.  1.
       -1   -1    0    0    0  501  0.00000000000E+00  0.00000000000E+00 -0.52541032324E+03  0.52541032327E+03  0.50400001928E-02 0. -1.
    10030    2    1    2    0    0  0.00000000000E+00  0.00000000000E+00 -0.30496172006E+03  0.74585892651E+03  0.68066429871E+03 0.  0.
        2    1    3    3  502    0  0.24181271932E+03  0.19623342833E+03 -0.20551579941E+01  0.31142442630E+03  0.25500000920E-02 0.  1.
       -2    1    3    3    0  502 -0.24181271932E+03 -0.19623342833E+03 -0.30290656207E+03  0.43443450020E+03  0.25500000920E-02 0. -1.
</event>
<event>
 5   0  0.1223742E-02  0.7016912E+03  0.7818609E-02  0.9714344E-01
       -1   -1    0    0    0  501  0.00000000000E+00  0.00000000000E+00  0.21071752841E+03  0.21071752847E+03  0.50400001928E-02 0. -1.
        1   -1    0    0  501    0  0.00000000000E+00  0.00000000000E+00 -0.58415948571E+03  0.58415948573E+03  0.50400001928E-02 0.  1.
    10030    2    1    2    0    0  0.00000000000E+00  0.00000000000E+00 -0.37344195730E+03  0.79487701419E+03  0.70169122285E+03 0.  0.
        2    1    3    3  502    0 -0.12399657828E+03 -0.92317609932E+02 -0.54349947998E+03  0.56505696817E+03  0.25500000920E-02 0.  1.
       -2    1    3    3    0  502  0.12399657828E+03  0.92317609932E+02  0.17005752268E+03  0.22982004603E+03  0.25500000920E-02 0. -1.
</event>
<event>
 5   0  0.7947250E-03  0.7041361E+03  0.7818609E-02  0.9710185E-01
        3   -1    0    0  501    0  0.00000000000E+00  0.00000000000E+00  0.44419824964E+03  0.44419826112E+03  0.10100000352E+00 0.  1.
       -3   -1    0    0    0  501  0.00000000000E+00  0.00000000000E+00 -0.27904637983E+03  0.27904639811E+03  0.10100000352E+00 0. -1.
    10030    2    1    2    0    0  0.00000000000E+00  0.00000000000E+00  0.16515186981E+03  0.72324465922E+03  0.70413613527E+03 0.  0.
        3    1    3    3  502    0 -0.20091296023E+03 -0.53944540493E+02  0.37431894988E+03  0.42824142429E+03  0.10100000352E+00 0.  1.
       -3    1    3    3    0  502  0.20091296023E+03  0.53944540493E+02 -0.20916708007E+03  0.29500323494E+03  0.10100000352E+00 0. -1.
</event>
<event>
 5   0  0.1237686E-02  0.6995390E+03  0.7818609E-02  0.9718021E-01
       -1   -1    0    0    0  501  0.00000000000E+00  0.00000000000E+00  0.14956888531E+03  0.14956888539E+03  0.50400001928E-02 0.  1.
        1   -1    0    0  501    0  0.00000000000E+00  0.00000000000E+00 -0.81794211660E+03  0.81794211662E+03  0.50400001928E-02 0. -1.
    10030    2    1    2    0    0  0.00000000000E+00  0.00000000000E+00 -0.66837323129E+03  0.96751100201E+03  0.69953896439E+03 0.  0.
        5    1    3    3  502    0  0.15556434477E+02 -0.21881261969E+03 -0.71091919755E+03  0.74400884445E+03  0.46999998093E+01 0. -1.
       -5    1    3    3    0  502 -0.15556434477E+02  0.21881261969E+03  0.42545966253E+02  0.22350215755E+03  0.46999998093E+01 0.  1.
</event>
<event>
 5   0  0.2026361E-02  0.7064709E+03  0.7818609E-02  0.9706230E-01
        2   -1    0    0  501    0  0.00000000000E+00  0.00000000000E+00  0.74538525626E+03  0.74538525627E+03  0.25500000920E-02 0.  1.
       -2   -1    0    0    0  501  0.00000000000E+00  0.00000000000E+00 -0.16739702283E+03  0.16739702285E+03  0.25500000920E-02 0. -1.
    10030    2    1    2    0    0  0.00000000000E+00  0.00000000000E+00  0.57798823343E+03  0.91278227912E+03  0.70647087066E+03 0.  0.
        2    1    3    3  502    0 -0.12633514516E+03  0.32970268803E+02 -0.13507492044E+03  0.18786389133E+03  0.25500000920E-02 0. -1.
       -2    1    3    3    0  502  0.12633514516E+03 -0.32970268803E+02  0.71306315387E+03  0.72491838778E+03  0.25500000920E-02 0.  1.
</event>
<event>
 5   0  0.2026361E-02  0.7010304E+03  0.7818609E-02  0.9715472E-01
       -2   -1    0    0    0  501  0.00000000000E+00  0.00000000000E+00  0.54670086941E+02  0.54670087001E+02  0.25500000920E-02 0. -1.
        2   -1    0    0  501    0  0.00000000000E+00  0.00000000000E+00 -0.22473150723E+04  0.22473150723E+04  0.25500000920E-02 0.  1.
    10030    2    1    2    0    0  0.00000000000E+00  0.00000000000E+00 -0.21926449853E+04  0.23019851593E+04  0.70103041433E+03 0.  0.
        2    1    3    3  502    0 -0.15460573115E+03  0.17958991154E+03 -0.19444209871E+04  0.19588079139E+04  0.25500000920E-02 0.  1.
       -2    1    3    3    0  502  0.15460573115E+03 -0.17958991154E+03 -0.24822399817E+03  0.34317724532E+03  0.25500000920E-02 0. -1.
</event>
<event>
 5   0  0.1197259E-02  0.6950241E+03  0.7818609E-02  0.9725780E-01
        1   -1    0    0  501    0  0.00000000000E+00  0.00000000000E+00  0.17276919209E+04  0.17276919209E+04  0.50400001928E-02 0. -1.
       -1   -1    0    0    0  501  0.00000000000E+00  0.00000000000E+00 -0.69899394524E+02  0.69899394706E+02  0.50400001928E-02 0.  1.
    10030    2    1    2    0    0  0.00000000000E+00  0.00000000000E+00  0.16577925264E+04  0.17975913156E+04  0.69502408409E+03 0.  0.
        3    1    3    3  502    0 -0.22338918039E+03 -0.17491992362E+02  0.14189455547E+03  0.26522211594E+03  0.10100000352E+00 0.  1.
       -3    1    3    3    0  502  0.22338918039E+03  0.17491992362E+02  0.15158979709E+04  0.15323691997E+04  0.10100000352E+00 0. -1.
</event>
<event>
 5   0  0.2006362E-02  0.7030232E+03  0.7818609E-02  0.9712076E-01
        2   -1    0    0  501    0  0.00000000000E+00  0.00000000000E+00  0.71930820710E+03  0.71930820710E+03  0.25500000920E-02 0.  1.
       -2   -1    0    0    0  501  0.00000000000E+00  0.00000000000E+00 -0.17177669745E+03  0.17177669747E+03  0.25500000920E-02 0. -1.
    10030    2    1    2    0    0  0.00000000000E+00  0.00000000000E+00  0.54753150965E+03  0.89108490457E+03  0.70302315261E+03 0.  0.
        4    1    3    3  502    0 -0.10888117215E+03  0.28931705594E+02 -0.14827060316E+03  0.18622013291E+03  0.12699999809E+01 0. -1.
       -4    1    3    3    0  502  0.10888117215E+03 -0.28931705594E+02  0.69580211281E+03  0.70486477166E+03  0.12699999809E+01 0.  1.
</event>
<event>
 5   0  0.1257442E-02  0.7230731E+03  0.7818609E-02  0.9678568E-01
        1   -1    0    0  501    0  0.00000000000E+00  0.00000000000E+00  0.17825973707E+03  0.17825973714E+03  0.50400001928E-02 0. -1.
       -1   -1    0    0    0  501  0.00000000000E+00  0.00000000000E+00 -0.73324844889E+03  0.73324844890E+03  0.50400001928E-02 0.  1.
    10030    2    1    2    0    0  0.00000000000E+00  0.00000000000E+00 -0.55498871182E+03  0.91150818605E+03  0.72307309657E+03 0.  0.
        1    1    3    3  502    0  0.24055503610E+03 -0.17869691002E+03 -0.22523972052E+02  0.30051063273E+03  0.50400001928E-02 0. -1.
       -1    1    3    3    0  502 -0.24055503610E+03  0.17869691002E+03 -0.53246473976E+03  0.61099755332E+03  0.50400001928E-02 0.  1.
</event>
<event>
 5   0  0.2026361E-02  0.7040266E+03  0.7818609E-02  0.9710371E-01
        2   -1    0    0  501    0  0.00000000000E+00  0.00000000000E+00  0.76441495682E+03  0.76441495683E+03  0.25500000920E-02 0.  1.
       -2   -1    0    0    0  501  0.00000000000E+00  0.00000000000E+00 -0.16210222247E+03  0.16210222249E+03  0.25500000920E-02 0. -1.
    10030    2    1    2    0    0  0.00000000000E+00  0.00000000000E+00  0.60231273435E+03  0.92651717932E+03  0.70402660008E+03 0.  0.
        2    1    3    3  502    0 -0.28709340601E+03 -0.20042562072E+03  0.25333715751E+03  0.43217215158E+03  0.25500000920E-02 0. -1.
       -2    1    3    3    0  502  0.28709340601E+03  0.20042562072E+03  0.34897557684E+03  0.49434502774E+03  0.25500000920E-02 0.  1.
</event>
<event>
 5   0  0.1197259E-02  0.6958960E+03  0.7818609E-02  0.9724276E-01
        1   -1    0    0  501    0  0.00000000000E+00  0.00000000000E+00  0.10985858739E+04  0.10985858739E+04  0.50400001928E-02 0. -1.
       -1   -1    0    0    0  501  0.00000000000E+00  0.00000000000E+00 -0.11020331716E+03  0.11020331728E+03  0.50400001928E-02 0.  1.
    10030    2    1    2    0    0  0.00000000000E+00  0.00000000000E+00  0.98838255678E+03  0.12087891912E+04  0.69589599100E+03 0.  0.
        3    1    3    3  502    0  0.27427773058E+03  0.16939231548E+01  0.12230282919E+03  0.30031505972E+03  0.10100000352E+00 0.  1.
       -3    1    3    3    0  502 -0.27427773058E+03 -0.16939231548E+01  0.86607972759E+03  0.90847413150E+03  0.10100000352E+00 0. -1.
</event>
<event>
 5   0  0.7947250E-03  0.6830449E+03  0.7818609E-02  0.9746675E-01
        3   -1    0    0  501    0  0.00000000000E+00  0.00000000000E+00  0.40477105257E+03  0.40477106517E+03  0.10100000352E+00 0. -1.
       -3   -1    0    0    0  501  0.00000000000E+00  0.00000000000E+00 -0.28815689177E+03  0.28815690947E+03  0.10100000352E+00 0.  1.
    10030    2    1    2    0    0  0.00000000000E+00  0.00000000000E+00  0.11661416080E+03  0.69292797464E+03  0.68304488545E+03 0.  0.
        3    1    3    3  502    0  0.16665948157E+03  0.18288837786E+03 -0.18050082952E+03  0.30627455202E+03  0.10100000352E+00 0.  1.
       -3    1    3    3    0  502 -0.16665948157E+03 -0.18288837786E+03  0.29711499031E+03  0.38665342262E+03  0.10100000352E+00 0. -1.
</event>
<event>
 5   0  0.1909053E-02  0.6992468E+03  0.7818609E-02  0.9718521E-01
       -2   -1    0    0    0  501  0.00000000000E+00  0.00000000000E+00  0.11459005522E+04  0.11459005522E+04  0.25500000920E-02 0. -1.
        2   -1    0    0  501    0  0.00000000000E+00  0.00000000000E+00 -0.10667289455E+03  0.10667289458E+03  0.25500000920E-02 0.  1.
    10030    2    1    2    0    0  0.00000000000E+00  0.00000000000E+00  0.10392276577E+04  0.12525734468E+04  0.69924681993E+03 0.  0.
        1    1    3    3  502    0  0.28611198744E+03 -0.48577827102E+02  0.17034514569E+03  0.33650756801E+03  0.50400001928E-02 0.  1.
       -1    1    3    3    0  502 -0.28611198744E+03  0.48577827102E+02  0.86888251196E+03  0.91606587878E+03  0.50400001928E-02 0. -1.
</event>
<event>
 5   0  0.1973067E-02  0.7042280E+03  0.7818609E-02  0.9710029E-01
        2   -1    0    0  501    0  0.00000000000E+00  0.00000000000E+00  0.29330084797E+03  0.29330084798E+03  0.25500000920E-02 0.  1.
       -2   -1    0    0    0  501  0.00000000000E+00  0.00000000000E+00 -0.42272049097E+03  0.42272049098E+03  0.25500000920E-02 0. -1.
    10030    2    1    2    0    0  0.00000000000E+00  0.00000000000E+00 -0.12941964300E+03  0.71602133896E+03  0.70422802689E+03 0.  0.
        5    1    3    3  502    0 -0.26449459297E+02  0.34820043622E+01 -0.42165949406E+03  0.42252871759E+03  0.46999998093E+01 0. -1.
       -5    1    3    3    0  502  0.26449459297E+02 -0.34820043622E+01  0.29223985107E+03  0.29349262137E+03  0.46999998093E+01 0.  1.
</event>
<event>
 5   0  0.1257442E-02  0.6974417E+03  0.7818609E-02  0.9721617E-01
       -1   -1    0    0    0  501  0.00000000000E+00  0.00000000000E+00  0.72090514208E+03  0.72090514210E+03  0.50400001928E-02 0. -1.
        1   -1    0    0  501    0  0.00000000000E+00  0.00000000000E+00 -0.16868550486E+03  0.16868550494E+03  0.50400001928E-02 0.  1.
    10030    2    1    2    0    0  0.00000000000E+00  0.00000000000E+00  0.55221963722E+03  0.88959064704E+03  0.69744174780E+03 0.  0.
        1    1    3    3  502    0 -0.92784215629E+02  0.32622744678E+03  0.37952010938E+03  0.50898798724E+03  0.50400001928E-02 0. -1.
       -1    1    3    3    0  502  0.92784215629E+02 -0.32622744678E+03  0.17269952784E+03  0.38060265980E+03  0.50400001928E-02 0.  1.
</event>
<event>
 5   0  0.1223742E-02  0.6970785E+03  0.7818609E-02  0.9722241E-01
        1   -1    0    0  501    0  0.00000000000E+00  0.00000000000E+00  0.17670495589E+03  0.17670495596E+03  0.50400001928E-02 0.  1.
       -1   -1    0    0    0  501  0.00000000000E+00  0.00000000000E+00 -0.68747146874E+03  0.68747146876E+03  0.50400001928E-02 0. -1.
    10030    2    1    2    0    0  0.00000000000E+00  0.00000000000E+00 -0.51076651285E+03  0.86417642472E+03  0.69707851953E+03 0.  0.
        2    1    3    3  502    0 -0.92541149333E+02 -0.15761675471E+03 -0.62329308824E+03  0.64953920554E+03  0.25500000920E-02 0. -1.
       -2    1    3    3    0  502  0.92541149333E+02  0.15761675471E+03  0.11252657538E+03  0.21463721918E+03  0.25500000920E-02 0.  1.
</event>
<event>
 5   0  0.1226303E-02  0.6951752E+03  0.7818609E-02  0.9725519E-01
        1   -1    0    0  501    0  0.00000000000E+00  0.00000000000E+00  0.15035090915E+04  0.15035090915E+04  0.50400001928E-02 0.  1.
       -1   -1    0    0    0  501  0.00000000000E+00  0.00000000000E+00 -0.80356782165E+02  0.80356782323E+02  0.50400001928E-02 0. -1.
    10030    2    1    2    0    0  0.00000000000E+00  0.00000000000E+00  0.14231523093E+04  0.15838658738E+04  0.69517523742E+03 0.  0.
        4    1    3    3  502    0 -0.82807992113E+02 -0.29004876025E+03  0.31807010759E+03  0.43835562404E+03  0.12699999809E+01 0.  1.
       -4    1    3    3    0  502  0.82807992113E+02  0.29004876025E+03  0.11050822017E+04  0.11455102498E+04  0.12699999809E+01 0. -1.
</event>
<event>
 5   0  0.2026361E-02  0.6988075E+03  0.7818609E-02  0.9719274E-01
       -2   -1    0    0    0  501  0.00000000000E+00  0.00000000000E+00  0.20885718185E+03  0.20885718187E+03  0.25500000920E-02 0. -1.
        2   -1    0    0  501    0  0.00000000000E+00  0.00000000000E+00 -0.58452856409E+03  0.58452856409E+03  0.25500000920E-02 0.  1.
    10030    2    1    2    0    0  0.00000000000E+00  0.00000000000E+00 -0.37567138223E+03  0.79338574596E+03  0.69880752319E+03 0.  0.
        2    1    3    3  502    0 -0.52065094520E+02  0.62290406588E+02 -0.57367191460E+03  0.57938789634E+03  0.25500000920E-02 0.  1.
       -2    1    3    3    0  502  0.52065094520E+02 -0.62290406588E+02  0.19800053236E+03  0.21399784962E+03  0.25500000920E-02 0. -1.
</event>
<event>
 5   0  0.2026361E-02  0.7032807E+03  0.7818609E-02  0.9711638E-01
        2   -1    0    0  501    0  0.00000000000E+00  0.00000000000E+00  0.23024386202E+04  0.23024386202E+04  0.25500000920E-02 0. -1.
       -2   -1    0    0    0  501  0.00000000000E+00  0.00000000000E+00 -0.53704334908E+02  0.53704334968E+02  0.25500000920E-02 0.  1.
    10030    2    1    2    0    0  0.00000000000E+00  0.00000000000E+00  0.22487342853E+04  0.23561429551E+04  0.70328069740E+03 0.  0.
        2    1    3    3  502    0  0.94102251283E+02  0.26767766290E+03  0.42848610119E+03  0.51391332327E+03  0.25500000920E-02 0.  1.
       -2    1    3    3    0  502 -0.94102251283E+02 -0.26767766290E+03  0.18202481841E+04  0.18422296319E+04  0.25500000920E-02 0. -1.
</event>
<event>
 5   0  0.2006362E-02  0.7034753E+03  0.7818609E-02  0.9711307E-01
       -2   -1    0    0    0  501  0.00000000000E+00  0.00000000000E+00  0.12423606023E+03  0.12423606026E+03  0.25500000920E-02 0. -1.
        2   -1    0    0  501    0  0.00000000000E+00  0.00000000000E+00 -0.99584108894E+03  0.99584108894E+03  0.25500000920E-02 0.  1.
    10030    2    1    2    0    0  0.00000000000E+00  0.00000000000E+00 -0.87160502871E+03  0.11200771492E+04  0.70347529742E+03 0.  0.
        4    1    3    3  502    0  0.67954594286E+02 -0.30235083882E+03 -0.17088373045E+03  0.35388800326E+03  0.12699999809E+01 0. -1.
       -4    1    3    3    0  502 -0.67954594286E+02  0.30235083882E+03 -0.70072129826E+03  0.76618914594E+03  0.12699999809E+01 0.  1.
</event>
<event>
 5   0  0.1973067E-02  0.6969567E+03  0.7818609E-02  0.9722451E-01
       -2   -1    0    0    0  501  0.00000000000E+00  0.00000000000E+00  0.23256233908E+03  0.23256233910E+03  0.25500000920E-02 0.  1.
        2   -1    0    0  501    0  0.00000000000E+00  0.00000000000E+00 -0.52217041289E+03  0.52217041289E+03  0.25500000920E-02 0. -1.
    10030    2    1    2    0    0  0.00000000000E+00  0.00000000000E+00 -0.28960807380E+03  0.75473275199E+03  0.69695673504E+03 0.  0.
        5    1    3    3  502    0 -0.21761054894E+03 -0.25509435125E+03 -0.24746594502E+03  0.41676007845E+03  0.46999998093E+01 0. -1.
       -5    1    3    3    0  502  0.21761054894E+03  0.25509435125E+03 -0.42142128785E+02  0.33797267354E+03  0.46999998093E+01 0.  1.
</event>
<event>
 5   0  0.2026361E-02  0.6759717E+03  0.7818609E-02  0.9759230E-01
       -2   -1    0    0    0  501  0.00000000000E+00  0.00000000000E+00  0.16251406551E+03  0.16251406553E+03  0.25500000920E-02 0.  1.
        2   -1    0    0  501    0  0.00000000000E+00  0.00000000000E+00 -0.70292025578E+03  0.70292025578E+03  0.25500000920E-02 0. -1.
    10030    2    1    2    0    0  0.00000000000E+00  0.00000000000E+00 -0.54040619027E+03  0.86543432131E+03  0.67597168138E+03 0.  0.
        2    1    3    3  502    0  0.19684394675E+03  0.27151516525E+03 -0.21639462401E+03  0.39911734820E+03  0.25500000920E-02 0.  1.
       -2    1    3    3    0  502 -0.19684394675E+03 -0.27151516525E+03 -0.32401156626E+03  0.46631697311E+03  0.25500000920E-02 0. -1.
</event>
<event>
 5   0  0.1909053E-02  0.7023420E+03  0.7818609E-02  0.9713235E-01
       -2   -1    0    0    0  501  0.00000000000E+00  0.00000000000E+00  0.12131410856E+03  0.12131410858E+03  0.25500000920E-02 0. -1.
        2   -1    0    0  501    0  0.00000000000E+00  0.00000000000E+00 -0.10165436322E+04  0.10165436322E+04  0.25500000920E-02 0.  1.
    10030    2    1    2    0    0  0.00000000000E+00  0.00000000000E+00 -0.89522952366E+03  0.11378577408E+04  0.70234203795E+03 0.  0.
        1    1    3    3  502    0  0.17150683937E+03 -0.42796285156E+02 -0.93921274200E+03  0.95570219877E+03  0.50400001928E-02 0.  1.
       -1    1    3    3    0  502 -0.17150683937E+03  0.42796285156E+02  0.43983218337E+02  0.18215554204E+03  0.50400001928E-02 0. -1.
</event>
<event>
 5   0  0.2006362E-02  0.7008551E+03  0.7818609E-02  0.9715771E-01
       -2   -1    0    0    0  501  0.00000000000E+00  0.00000000000E+00  0.50870175114E+02  0.50870175178E+02  0.25500000920E-02 0. -1.
        2   -1    0    0  501    0  0.00000000000E+00  0.00000000000E+00 -0.24139774139E+04  0.24139774139E+04  0.25500000920E-02 0.  1.
    10030    2    1    2    0    0  0.00000000000E+00  0.00000000000E+00 -0.23631072388E+04  0.24648475891E+04  0.70085506018E+03 0.  0.
        4    1    3    3  502    0 -0.30408253476E+03  0.53808158192E+01 -0.56934065945E+03  0.64548085993E+03  0.12699999809E+01 0.  1.
       -4    1    3    3    0  502  0.30408253476E+03 -0.53808158192E+01 -0.17937665793E+04  0.18193667291E+04  0.12699999809E+01 0. -1.
</event>
<event>
 5   0  0.2006362E-02  0.6965483E+03  0.7818609E-02  0.9723153E-01
       -2   -1    0    0    0  501  0.00000000000E+00  0.00000000000E+00  0.19588526577E+03  0.19588526578E+03  0.25500000920E-02 0. -1.
        2   -1    0    0  501    0  0.00000000000E+00  0.00000000000E+00 -0.61921389761E+03  0.61921389762E+03  0.25500000920E-02 0.  1.
    10030    2    1    2    0    0  0.00000000000E+00  0.00000000000E+00 -0.42332863185E+03  0.81509916340E+03  0.69654828665E+03 0.  0.
        4    1    3    3  502    0  0.27254057364E+03 -0.56679490728E+02 -0.45657507280E+03  0.53474605090E+03  0.12699999809E+01 0.  1.
       -4    1    3    3    0  502 -0.27254057364E+03  0.56679490728E+02  0.33246440958E+02  0.28035311250E+03  0.12699999809E+01 0. -1.
</event>
<event>
 5   0  0.1973067E-02  0.7003677E+03  0.7818609E-02  0.9716604E-01
        2   -1    0    0  501    0  0.00000000000E+00  0.00000000000E+00  0.78750214935E+03  0.78750214935E+03  0.25500000920E-02 0. -1.
       -2   -1    0    0    0  501  0.00000000000E+00  0.00000000000E+00 -0.15571858515E+03  0.15571858517E+03  0.25500000920E-02 0.  1.
    10030    2    1    2    0    0  0.00000000000E+00  0.00000000000E+00  0.63178356420E+03  0.94322073452E+03  0.70036767632E+03 0.  0.
        5    1    3    3  502    0  0.94553397147E+02  0.15384639071E+03 -0.88128014374E+02  0.20099177536E+03  0.46999998093E+01 0.  1.
       -5    1    3    3    0  502 -0.94553397147E+02 -0.15384639071E+03  0.71991157858E+03  0.74222895916E+03  0.46999998093E+01 0. -1.
</event>
<event>
 5   0  0.1223742E-02  0.6966959E+03  0.7818609E-02  0.9722899E-01
        1   -1    0    0  501    0  0.00000000000E+00  0.00000000000E+00  0.35048264684E+03  0.35048264688E+03  0.50400001928E-02 0.  1.
       -1   -1    0    0    0  501  0.00000000000E+00  0.00000000000E+00 -0.34622629533E+03  0.34622629537E+03  0.50400001928E-02 0. -1.
    10030    2    1    2    0    0  0.00000000000E+00  0.00000000000E+00  0.42563515110E+01  0.69670894225E+03  0.69669594063E+03 0.  0.
        2    1    3    3  502    0 -0.28954368056E+03 -0.18136188490E+03  0.70089963218E+02  0.34876966496E+03  0.25500000920E-02 0.  1.
       -2    1    3    3    0  502  0.28954368056E+03  0.18136188490E+03 -0.65833611707E+02  0.34793927729E+03  0.25500000920E-02 0. -1.
</event>
<event>
 5   0  0.1973067E-02  0.6951438E+03  0.7818609E-02  0.9725573E-01
        2   -1    0    0  501    0  0.00000000000E+00  0.00000000000E+00  0.45389790408E+03  0.45389790408E+03  0.25500000920E-02 0.  1.
       -2   -1    0    0    0  501  0.00000000000E+00  0.00000000000E+00 -0.26615284948E+03  0.26615284950E+03  0.25500000920E-02 0. -1.
    10030    2    1    2    0    0  0.00000000000E+00  0.00000000000E+00  0.18774505459E+03  0.72005075358E+03  0.69514378528E+03 0.  0.
        5    1    3    3  502    0  0.28162368302E+02 -0.34557154234E+03  0.11863126170E+03  0.36648093554E+03  0.46999998093E+01 0.  1.
       -5    1    3    3    0  502 -0.28162368302E+02  0.34557154234E+03  0.69113792892E+02  0.35356981804E+03  0.46999998093E+01 0. -1.
</event>
<event>
 5   0  0.1948138E-02  0.7006246E+03  0.7818609E-02  0.9716165E-01
        2   -1    0    0  501    0  0.00000000000E+00  0.00000000000E+00  0.21995542471E+03  0.21995542473E+03  0.25500000920E-02 0.  1.
       -2   -1    0    0    0  501  0.00000000000E+00  0.00000000000E+00 -0.55792530934E+03  0.55792530935E+03  0.25500000920E-02 0. -1.
    10030    2    1    2    0    0  0.00000000000E+00  0.00000000000E+00 -0.33796988463E+03  0.77788073408E+03  0.70062457389E+03 0.  0.
        3    1    3    3  502    0 -0.17333148934E+03 -0.21219295222E+03  0.73371573251E+02  0.28364247237E+03  0.10100000352E+00 0.  1.
       -3    1    3    3    0  502  0.17333148934E+03  0.21219295222E+03 -0.41134145788E+03  0.49423826171E+03  0.10100000352E+00 0. -1.
</event>
<event>
 5   0  0.1973067E-02  0.6987901E+03  0.7818609E-02  0.9719304E-01
        2   -1    0    0  501    0  0.00000000000E+00  0.00000000000E+00  0.43867582930E+03  0.43867582930E+03  0.25500000920E-02 0.  1.
       -2   -1    0    0    0  501  0.00000000000E+00  0.00000000000E+00 -0.27828496645E+03  0.27828496647E+03  0.25500000920E-02 0. -1.
    10030    2    1    2    0    0  0.00000000000E+00  0.00000000000E+00  0.16039086284E+03  0.71696079577E+03  0.69879006417E+03 0.  0.
        5    1    3    3  502    0  0.17755357368E+03 -0.73434768858E+02 -0.21917403673E+03  0.29150863654E+03  0.46999998093E+01 0. -1.
       -5    1    3    3    0  502 -0.17755357368E+03  0.73434768858E+02  0.37956489957E+03  0.42545215923E+03  0.46999998093E+01 0.  1.
</event>
<event>
 5   0  0.1226303E-02  0.6974569E+03  0.7818609E-02  0.9721591E-01
       -1   -1    0    0    0  501  0.00000000000E+00  0.00000000000E+00  0.37122198993E+03  0.37122198997E+03  0.50400001928E-02 0.  1.
        1   -1    0    0  501    0  0.00000000000E+00  0.00000000000E+00 -0.32759784844E+03  0.32759784848E+03  0.50400001928E-02 0. -1.
    10030    2    1    2    0    0  0.00000000000E+00  0.00000000000E+00  0.43624141491E+02  0.69881983845E+03  0.69745688102E+03 0.  0.
        4    1    3    3  502    0 -0.15833679324E+03 -0.22569036875E+03  0.23577851162E+03  0.36276687015E+03  0.12699999809E+01 0.  1.
       -4    1    3    3    0  502  0.15833679324E+03  0.22569036875E+03 -0.19215437013E+03  0.33605296829E+03  0.12699999809E+01 0. -1.
</event>
<event>
 5   0  0.1237686E-02  0.7014370E+03  0.7818609E-02  0.9714778E-01
       -1   -1    0    0    0  501  0.00000000000E+00  0.00000000000E+00  0.11483805065E+03  0.11483805076E+03  0.50400001928E-02 0. -1.
        1   -1    0    0  501    0  0.00000000000E+00  0.00000000000E+00 -0.10711038072E+04  0.10711038073E+04  0.50400001928E-02 0.  1.
    10030    2    1    2    0    0  0.00000000000E+00  0.00000000000E+00 -0.95626575659E+03  0.11859418580E+04  0.70143702025E+03 0.  0.
        5    1    3    3  502    0  0.14794772441E+03 -0.31655374626E+03 -0.52847524847E+03  0.63356371556E+03  0.46999998093E+01 0.  1.
       -5    1    3    3    0  502 -0.14794772441E+03  0.31655374626E+03 -0.42779050812E+03  0.55237814246E+03  0.46999998093E+01 0. -1.
</event>
<event>
 5   0  0.1237686E-02  0.7005081E+03  0.7818609E-02  0.9716364E-01
        1   -1    0    0  501    0  0.00000000000E+00  0.00000000000E+00  0.94572197216E+03  0.94572197217E+03  0.50400001928E-02 0.  1.
       -1   -1    0    0    0  501  0.00000000000E+00  0.00000000000E+00 -0.12971877734E+03  0.12971877744E+03  0.50400001928E-02 0. -1.
    10030    2    1    2    0    0  0.00000000000E+00  0.00000000000E+00  0.81600319482E+03  0.10754407496E+04  0.70050809558E+03 0.  0.
        5    1    3    3  502    0  0.34666407147E+02 -0.95002088797E+02  0.92276993942E+03  0.92830685000E+03  0.46999998093E+01 0.  1.
       -5    1    3    3    0  502 -0.34666407147E+02  0.95002088797E+02 -0.10676674461E+03  0.14713389960E+03  0.46999998093E+01 0. -1.
</event>
<event>
 5   0  0.7947250E-03  0.6918587E+03  0.7818609E-02  0.9731257E-01
       -3   -1    0    0    0  501  0.00000000000E+00  0.00000000000E+00  0.21268881539E+03  0.21268883938E+03  0.10100000352E+00 0. -1.
        3   -1    0    0  501    0  0.00000000000E+00  0.00000000000E+00 -0.56263930317E+03  0.56263931223E+03  0.10100000352E+00 0.  1.
    10030    2    1    2    0    0  0.00000000000E+00  0.00000000000E+00 -0.34995048777E+03  0.77532815161E+03  0.69185865521E+03 0.  0.
        1    1    3    3  502    0  0.48735049940E+02  0.20144136249E+03  0.13541189055E+03  0.24756839003E+03  0.50400001928E-02 0. -1.
       -1    1    3    3    0  502 -0.48735049940E+02 -0.20144136249E+03 -0.48536237833E+03  0.52775976157E+03  0.50400001928E-02 0.  1.
</event>
<event>
 5   0  0.1909053E-02  0.6992735E+03  0.7818609E-02  0.9718475E-01
       -2   -1    0    0    0  501  0.00000000000E+00  0.00000000000E+00  0.13822456352E+03  0.13822456355E+03  0.25500000920E-02 0. -1.
        2   -1    0    0  501    0  0.00000000000E+00  0.00000000000E+00 -0.88440044369E+03  0.88440044370E+03  0.25500000920E-02 0.  1.
    10030    2    1    2    0    0  0.00000000000E+00  0.00000000000E+00 -0.74617588017E+03  0.10226250072E+04  0.69927352395E+03 0.  0.
        1    1    3    3  502    0 -0.87756323262E+02  0.14817214122E+03  0.71902503653E+02  0.18661759232E+03  0.50400001928E-02 0. -1.
       -1    1    3    3    0  502  0.87756323262E+02 -0.14817214122E+03 -0.81807838382E+03  0.83600741492E+03  0.50400001928E-02 0.  1.
</event>
<event>
 5   0  0.1909053E-02  0.6999393E+03  0.7818609E-02  0.9717336E-01
        2   -1    0    0  501    0  0.00000000000E+00  0.00000000000E+00  0.28022321389E+04  0.28022321389E+04  0.25500000920E-02 0. -1.
       -2   -1    0    0    0  501  0.00000000000E+00  0.00000000000E+00 -0.43707566308E+02  0.43707566382E+02  0.25500000920E-02 0.  1.
    10030    2    1    2    0    0  0.00000000000E+00  0.00000000000E+00  0.27585245726E+04  0.28459397053E+04  0.69993927488E+03 0.  0.
        1    1    3    3  502    0  0.30202561712E+03 -0.51942465515E+02  0.69210846315E+03  0.75692246493E+03  0.50400001928E-02 0.  1.
       -1    1    3    3    0  502 -0.30202561712E+03  0.51942465515E+02  0.20664161094E+04  0.20890172404E+04  0.50400001928E-02 0. -1.
</event>
<event>
 5   0  0.1226303E-02  0.6968163E+03  0.7818609E-02  0.9722692E-01
        1   -1    0    0  501    0  0.00000000000E+00  0.00000000000E+00  0.12462144088E+04  0.12462144088E+04  0.50400001928E-02 0.  1.
       -1   -1    0    0    0  501  0.00000000000E+00  0.00000000000E+00 -0.97405593064E+02  0.97405593194E+02  0.50400001928E-02 0. -1.
    10030    2    1    2    0    0  0.00000000000E+00  0.00000000000E+00  0.11488088158E+04  0.13436200020E+04  0.69681634215E+03 0.  0.
        4    1    3    3  502    0  0.33727602474E+03  0.71405984471E+02  0.67144441168E+03  0.75478019473E+03  0.12699999809E+01 0. -1.
       -4    1    3    3    0  502 -0.33727602474E+03 -0.71405984471E+02  0.47736440409E+03  0.58883980731E+03  0.12699999809E+01 0.  1.
</event>
<event>
 5   0  0.2026361E-02  0.7010547E+03  0.7818609E-02  0.9715430E-01
       -2   -1    0    0    0  501  0.00000000000E+00  0.00000000000E+00  0.24748864502E+03  0.24748864503E+03  0.25500000920E-02 0.  1.
        2   -1    0    0  501    0  0.00000000000E+00  0.00000000000E+00 -0.49646490814E+03  0.49646490815E+03  0.25500000920E-02 0. -1.
    10030    2    1    2    0    0  0.00000000000E+00  0.00000000000E+00 -0.24897626312E+03  0.74395355318E+03  0.70105471234E+03 0.  0.
        2    1    3    3  502    0 -0.14007386405E+03  0.13789973528E+03  0.18349966221E+03  0.26890360804E+03  0.25500000920E-02 0.  1.
       -2    1    3    3    0  502  0.14007386405E+03 -0.13789973528E+03 -0.43247592534E+03  0.47504994514E+03  0.25500000920E-02 0. -1.
</event>
<event>
 5   0  0.1237686E-02  0.7063854E+03  0.7818609E-02  0.9706374E-01
       -1   -1    0    0    0  501  0.00000000000E+00  0.00000000000E+00  0.39821421762E+03  0.39821421765E+03  0.50400001928E-02 0. -1.
        1   -1    0    0  501    0  0.00000000000E+00  0.00000000000E+00 -0.31326125070E+03  0.31326125074E+03  0.50400001928E-02 0.  1.
    10030    2    1    2    0    0  0.00000000000E+00  0.00000000000E+00  0.84952966925E+02  0.71147546839E+03  0.70638540156E+03 0.  0.
        5    1    3    3  502    0  0.32955045306E+03  0.69564968623E+02  0.14945012182E+03  0.36851080701E+03  0.46999998093E+01 0. -1.
       -5    1    3    3    0  502 -0.32955045306E+03 -0.69564968623E+02 -0.64497154900E+02  0.34296466138E+03  0.46999998093E+01 0.  1.
</event>
<event>
 5   0  0.1973067E-02  0.6987895E+03  0.7818609E-02  0.9719304E-01
        2   -1    0    0  501    0  0.00000000000E+00  0.00000000000E+00  0.93416731038E+03  0.93416731038E+03  0.25500000920E-02 0. -1.
       -2   -1    0    0    0  501  0.00000000000E+00  0.00000000000E+00 -0.13067970017E+03  0.13067970019E+03  0.25500000920E-02 0.  1.
    10030    2    1    2    0    0  0.00000000000E+00  0.00000000000E+00  0.80348761021E+03  0.10648470106E+04  0.69878953639E+03 0.  0.
        5    1    3    3  502    0  0.23597865587E+03 -0.24432776776E+03  0.52622087074E+03  0.62634852832E+03  0.46999998093E+01 0. -1.
       -5    1    3    3    0  502 -0.23597865587E+03  0.24432776776E+03  0.27726673947E+03  0.43849848226E+03  0.46999998093E+01 0.  1.
</event>
<event>
 5   0  0.1973067E-02  0.7028432E+03  0.7818609E-02  0.9712382E-01
        2   -1    0    0  501    0  0.00000000000E+00  0.00000000000E+00  0.12426400478E+04  0.12426400478E+04  0.25500000920E-02 0.  1.
       -2   -1    0    0    0  501  0.00000000000E+00  0.00000000000E+00 -0.99382878113E+02  0.99382878146E+02  0.25500000920E-02 0. -1.
    10030    2    1    2    0    0  0.00000000000E+00  0.00000000000E+00  0.11432571697E+04  0.13420229260E+04  0.70284320992E+03 0.  0.
        5    1    3    3  502    0  0.45884672338E+02  0.90320692609E+02  0.12140904805E+04  0.12183189301E+04  0.46999998093E+01 0.  1.
       -5    1    3    3    0  502 -0.45884672338E+02 -0.90320692609E+02 -0.70833310798E+02  0.12370399584E+03  0.46999998093E+01 0. -1.
</event>
<event>
 5   0  0.1257442E-02  0.6992449E+03  0.7818609E-02  0.9718524E-01
        1   -1    0    0  501    0  0.00000000000E+00  0.00000000000E+00  0.16075666453E+04  0.16075666453E+04  0.50400001928E-02 0. -1.
       -1   -1    0    0    0  501  0.00000000000E+00  0.00000000000E+00 -0.76037813022E+02  0.76037813189E+02  0.50400001928E-02 0.  1.
    10030    2    1    2    0    0  0.00000000000E+00  0.00000000000E+00  0.15315288323E+04  0.16836044585E+04  0.69924488456E+03 0.  0.
        1    1    3    3  502    0 -0.19786392228E+03 -0.23198824153E+03  0.35385551197E+03  0.46709998858E+03  0.50400001928E-02 0.  1.
       -1    1    3    3    0  502  0.19786392228E+03  0.23198824153E+03  0.11776733203E+04  0.12165044699E+04  0.50400001928E-02 0. -1.
</event>
<event>
 5   0  0.1226303E-02  0.6971401E+03  0.7818609E-02  0.9722135E-01
       -1   -1    0    0    0  501  0.00000000000E+00  0.00000000000E+00  0.80300307703E+02  0.80300307861E+02  0.50400001928E-02 0.  1.
        1   -1    0    0  501    0  0.00000000000E+00  0.00000000000E+00 -0.15130837321E+04  0.15130837321E+04  0.50400001928E-02 0. -1.
    10030    2    1    2    0    0  0.00000000000E+00  0.00000000000E+00 -0.14327834244E+04  0.15933840400E+04  0.69714012767E+03 0.  0.
        4    1    3    3  502    0  0.32437398367E+03 -0.24095078845E+02 -0.43000289922E+03  0.53916895343E+03  0.12699999809E+01 0.  1.
       -4    1    3    3    0  502 -0.32437398367E+03  0.24095078845E+02 -0.10027805252E+04  0.10542150866E+04  0.12699999809E+01 0. -1.
</event>
<event>
 5   0  0.1948138E-02  0.6880208E+03  0.7818609E-02  0.9737940E-01
       -2   -1    0    0    0  501  0.00000000000E+00  0.00000000000E+00  0.37880648786E+03  0.37880648787E+03  0.25500000920E-02 0. -1.
        2   -1    0    0  501    0  0.00000000000E+00  0.00000000000E+00 -0.31241057095E+03  0.31241057096E+03  0.25500000920E-02 0.  1.
    10030    2    1    2    0    0  0.00000000000E+00  0.00000000000E+00  0.66395916907E+02  0.69121705883E+03  0.68802078794E+03 0.  0.
        3    1    3    3  502    0  0.27235482588E+03  0.16995004905E+03  0.15739658020E+03  0.35753861891E+03  0.10100000352E+00 0. -1.
       -3    1    3    3    0  502 -0.27235482588E+03 -0.16995004905E+03 -0.91000663293E+02  0.33367843992E+03  0.10100000352E+00 0.  1.
</event>
<event>
 5   0  0.1909053E-02  0.7077103E+03  0.7818609E-02  0.9704137E-01
       -2   -1    0    0    0  501  0.00000000000E+00  0.00000000000E+00  0.80750768245E+02  0.80750768285E+02  0.25500000920E-02 0. -1.
        2   -1    0    0  501    0  0.00000000000E+00  0.00000000000E+00 -0.15506165653E+04  0.15506165653E+04  0.25500000920E-02 0.  1.
    10030    2    1    2    0    0  0.00000000000E+00  0.00000000000E+00 -0.14698657971E+04  0.16313673336E+04  0.70771033322E+03 0.  0.
        1    1    3    3  502    0  0.23526607959E+03 -0.14050343199E+03 -0.12510057482E+04  0.12806665158E+04  0.50400001928E-02 0.  1.
       -1    1    3    3    0  502 -0.23526607959E+03  0.14050343199E+03 -0.21886004890E+03  0.35070081784E+03  0.50400001928E-02 0. -1.
</event>
<event>
 5   0  0.1973067E-02  0.7088969E+03  0.7818609E-02  0.9702137E-01
        2   -1    0    0  501    0  0.00000000000E+00  0.00000000000E+00  0.84722029902E+03  0.84722029902E+03  0.25500000920E-02 0.  1.
       -2   -1    0    0    0  501  0.00000000000E+00  0.00000000000E+00 -0.14828928431E+03  0.14828928434E+03  0.25500000920E-02 0. -1.
    10030    2    1    2    0    0  0.00000000000E+00  0.00000000000E+00  0.69893101470E+03  0.99550958336E+03  0.70889686644E+03 0.  0.
        5    1    3    3  502    0  0.84760117015E+02  0.26650452525E+02  0.83128251356E+03  0.83603064023E+03  0.46999998093E+01 0.  1.
       -5    1    3    3    0  502 -0.84760117015E+02 -0.26650452525E+02 -0.13235149885E+03  0.15947894313E+03  0.46999998093E+01 0. -1.
</event>
<event>
 5   0  0.1973067E-02  0.6961601E+03  0.7818609E-02  0.9723822E-01
       -2   -1    0    0    0  501  0.00000000000E+00  0.00000000000E+00  0.16946065939E+03  0.16946065941E+03  0.25500000920E-02 0. -1.
        2   -1    0    0  501    0  0.00000000000E+00  0.00000000000E+00 -0.71497255373E+03  0.71497255374E+03  0.25500000920E-02 0.  1.
    10030    2    1    2    0    0  0.00000000000E+00  0.00000000000E+00 -0.54551189434E+03  0.88443321314E+03  0.69616009771E+03 0.  0.
        5    1    3    3  502    0 -0.14339364638E+03 -0.12211895256E+02  0.12985042743E+03  0.19389195886E+03  0.46999998093E+01 0. -1.
       -5    1    3    3    0  502  0.14339364638E+03  0.12211895256E+02 -0.67536232177E+03  0.69054125429E+03  0.46999998093E+01 0.  1.
</event>
<event>
 5   0  0.1948138E-02  0.7036262E+03  0.7818609E-02  0.9711051E-01
        2   -1    0    0  501    0  0.00000000000E+00  0.00000000000E+00  0.12719155746E+04  0.12719155746E+04  0.25500000920E-02 0. -1.
       -2   -1    0    0    0  501  0.00000000000E+00  0.00000000000E+00 -0.97311854974E+02  0.97311855007E+02  0.25500000920E-02 0.  1.
    10030    2    1    2    0    0  0.00000000000E+00  0.00000000000E+00  0.11746037197E+04  0.13692274296E+04  0.70362621885E+03 0.  0.
        3    1    3    3  502    0 -0.14896115860E+03 -0.84795707692E+02  0.11851664272E+04  0.11974970602E+04  0.10100000352E+00 0. -1.
       -3    1    3    3    0  502  0.14896115860E+03  0.84795707692E+02 -0.10562707497E+02  0.17173036949E+03  0.10100000352E+00 0.  1.
</event>
<event>
 5   0  0.2006362E-02  0.6993414E+03  0.7818609E-02  0.9718359E-01
        2   -1    0    0  501    0  0.00000000000E+00  0.00000000000E+00  0.13224590721E+04  0.13224590721E+04  0.25500000920E-02 0. -1.
       -2   -1    0    0    0  501  0.00000000000E+00  0.00000000000E+00 -0.92456254055E+02  0.92456254090E+02  0.25500000920E-02 0.  1.
    10030    2    1    2    0    0  0.00000000000E+00  0.00000000000E+00  0.12300028180E+04  0.14149153261E+04  0.69934143870E+03 0.  0.
        4    1    3    3  502    0  0.28264024413E+03  0.13322123092E+03  0.93255271442E+03  0.98350881137E+03  0.12699999809E+01 0. -1.
       -4    1    3    3    0  502 -0.28264024413E+03 -0.13322123092E+03  0.29745010358E+03  0.43140651478E+03  0.12699999809E+01 0.  1.
</event>
<event>
 5   0  0.1237686E-02  0.7059279E+03  0.7818609E-02  0.9707148E-01
        1   -1    0    0  501    0  0.00000000000E+00  0.00000000000E+00  0.14951059678E+04  0.14951059678E+04  0.50400001928E-02 0. -1.
       -1   -1    0    0    0  501  0.00000000000E+00  0.00000000000E+00 -0.83327567196E+02  0.83327567348E+02  0.50400001928E-02 0.  1.
    10030    2    1    2    0    0  0.00000000000E+00  0.00000000000E+00  0.14117784006E+04  0.15784335352E+04  0.70592788053E+03 0.  0.
        5    1    3    3  502    0  0.41725166424E+02  0.54883939372E+02 -0.68054316926E+02  0.96988227969E+02  0.46999998093E+01 0.  1.
       -5    1    3    3    0  502 -0.41725166424E+02 -0.54883939372E+02  0.14798327176E+04  0.14814453072E+04  0.46999998093E+01 0. -1.
</event>
<event>
 5   0  0.1948138E-02  0.6967095E+03  0.7818609E-02  0.9722876E-01
       -2   -1    0    0    0  501  0.00000000000E+00  0.00000000000E+00  0.11399762975E+03  0.11399762978E+03  0.25500000920E-02 0. -1.
        2   -1    0    0  501    0  0.00000000000E+00  0.00000000000E+00 -0.10645049227E+04  0.10645049227E+04  0.25500000920E-02 0.  1.
    10030    2    1    2    0    0  0.00000000000E+00  0.00000000000E+00 -0.95050729291E+03  0.11785025524E+04  0.69670951783E+03 0.  0.
        3    1    3    3  502    0 -0.45524336750E+02  0.15967863799E+03 -0.99326215957E+03  0.10070449148E+04  0.10100000352E+00 0.  1.
       -3    1    3    3    0  502  0.45524336750E+02 -0.15967863799E+03  0.42754866662E+02  0.17145763760E+03  0.10100000352E+00 0. -1.
</event>
<event>
 5   0  0.2006362E-02  0.6883693E+03  0.7818609E-02  0.9737332E-01
       -2   -1    0    0    0  501  0.00000000000E+00  0.00000000000E+00  0.17344275941E+03  0.17344275943E+03  0.25500000920E-02 0. -1.
        2   -1    0    0  501    0  0.00000000000E+00  0.00000000000E+00 -0.68300954472E+03  0.68300954472E+03  0.25500000920E-02 0.  1.
    10030    2    1    2    0    0  0.00000000000E+00  0.00000000000E+00 -0.50956678531E+03  0.85645230415E+03  0.68836926180E+03 0.  0.
        4    1    3    3  502    0 -0.25216727296E+03  0.63331547465E+02 -0.53537805570E+03  0.59517265888E+03  0.12699999809E+01 0.  1.
       -4    1    3    3    0  502  0.25216727296E+03 -0.63331547465E+02  0.25811270389E+02  0.26127964527E+03  0.12699999809E+01 0. -1.
</event>
<event>
 5   0  0.1909053E-02  0.7001930E+03  0.7818609E-02  0.9716902E-01
       -2   -1    0    0    0  501  0.00000000000E+00  0.00000000000E+00  0.13136750677E+03  0.13136750680E+03  0.25500000920E-02 0.  1.
        2   -1    0    0  501    0  0.00000000000E+00  0.00000000000E+00 -0.93301262733E+03  0.93301262733E+03  0.25500000920E-02 0. -1.
    10030    2    1    2    0    0  0.00000000000E+00  0.00000000000E+00 -0.80164512055E+03  0.10643801341E+04  0.70019295242E+03 0.  0.
        1    1    3    3  502    0  0.15117106756E+02 -0.16007887775E+03 -0.87356346095E+03  0.88823808427E+03  0.50400001928E-02 0. -1.
       -1    1    3    3    0  502 -0.15117106756E+02  0.16007887775E+03  0.71918340396E+02  0.17614204986E+03  0.50400001928E-02 0.  1.
</event>
<event>
 5   0  0.1226303E-02  0.7061164E+03  0.7818609E-02  0.9706829E-01
        1   -1    0    0  501    0  0.00000000000E+00  0.00000000000E+00  0.42994262074E+03  0.42994262077E+03  0.50400001928E-02 0. -1.
       -1   -1    0    0    0  501  0.00000000000E+00  0.00000000000E+00 -0.28992262194E+03  0.28992262199E+03  0.50400001928E-02 0.  1.
    10030    2    1    2    0    0  0.00000000000E+00  0.00000000000E+00  0.14001999880E+03  0.71986524276E+03  0.70611639810E+03 0.  0.
        4    1    3    3  502    0 -0.34616883227E+03  0.61445915661E+02  0.37132760150E+02  0.35353771477E+03  0.12699999809E+01 0. -1.
       -4    1    3    3    0  502  0.34616883227E+03 -0.61445915661E+02  0.10288723865E+03  0.36632752799E+03  0.12699999809E+01 0.  1.
</event>
<event>
 5   0  0.1948138E-02  0.7014155E+03  0.7818609E-02  0.9714815E-01
        2   -1    0    0  501    0  0.00000000000E+00  0.00000000000E+00  0.61911093265E+03  0.61911093265E+03  0.25500000920E-02 0. -1.
       -2   -1    0    0    0  501  0.00000000000E+00  0.00000000000E+00 -0.19866542042E+03  0.19866542044E+03  0.25500000920E-02 0.  1.
    10030    2    1    2    0    0  0.00000000000E+00  0.00000000000E+00  0.42044551223E+03  0.81777635309E+03  0.70141552230E+03 0.  0.
        3    1    3    3  502    0 -0.57205004943E+02 -0.15525124469E+02 -0.19278304020E+03  0.20168974409E+03  0.10100000352E+00 0.  1.
       -3    1    3    3    0  502  0.57205004943E+02  0.15525124469E+02  0.61322855243E+03  0.61608660900E+03  0.10100000352E+00 0. -1.
</event>
<event>
 5   0  0.1973067E-02  0.7017282E+03  0.7818609E-02  0.9714281E-01
       -2   -1    0    0    0  501  0.00000000000E+00  0.00000000000E+00  0.72426350633E+02  0.72426350678E+02  0.25500000920E-02 0.  1.
        2   -1    0    0  501    0  0.00000000000E+00  0.00000000000E+00 -0.16997350127E+04  0.16997350127E+04  0.25500000920E-02 0. -1.
    10030    2    1    2    0    0  0.00000000000E+00  0.00000000000E+00 -0.16273086620E+04  0.17721613633E+04  0.70172816404E+03 0.  0.
        5    1    3    3  502    0 -0.27006960231E+03  0.46554354299E+02 -0.13668238160E+04  0.13940352693E+04  0.46999998093E+01 0. -1.
       -5    1    3    3    0  502  0.27006960231E+03 -0.46554354299E+02 -0.26048484598E+03  0.37812609402E+03  0.46999998093E+01 0.  1.
</event>
<event>
 5   0  0.1197259E-02  0.6982966E+03  0.7818609E-02  0.9720150E-01
       -1   -1    0    0    0  501  0.00000000000E+00  0.00000000000E+00  0.85367797333E+02  0.85367797482E+02  0.50400001928E-02 0. -1.
        1   -1    0    0  501    0  0.00000000000E+00  0.00000000000E+00 -0.14279919777E+04  0.14279919777E+04  0.50400001928E-02 0.  1.
    10030    2    1    2    0    0  0.00000000000E+00  0.00000000000E+00 -0.13426241803E+04  0.15133597752E+04  0.69829658416E+03 0.  0.
        3    1    3    3  502    0  0.24186321019E+03  0.11805333015E+03 -0.11533417302E+04  0.11843274708E+04  0.10100000352E+00 0.  1.
       -3    1    3    3    0  502 -0.24186321019E+03 -0.11805333015E+03 -0.18928245015E+03  0.32903230441E+03  0.10100000352E+00 0. -1.
</event>
<event>
 5   0  0.7947250E-03  0.6976048E+03  0.7818609E-02  0.9721337E-01
        3   -1    0    0  501    0  0.00000000000E+00  0.00000000000E+00  0.21978729099E+03  0.21978731420E+03  0.10100000352E+00 0.  1.
       -3   -1    0    0    0  501  0.00000000000E+00  0.00000000000E+00 -0.55354935597E+03  0.55354936519E+03  0.10100000352E+00 0. -1.
    10030    2    1    2    0    0  0.00000000000E+00  0.00000000000E+00 -0.33376206498E+03  0.77333667939E+03  0.69760483346E+03 0.  0.
        4    1    3    3  502    0 -0.97967932812E+02  0.23922397542E+03  0.92710649051E+02  0.27463194210E+03  0.12699999809E+01 0.  1.
       -4    1    3    3    0  502  0.97967932812E+02 -0.23922397542E+03 -0.42647271403E+03  0.49870473728E+03  0.12699999809E+01 0. -1.
</event>
<event>
 5   0  0.1226303E-02  0.6966706E+03  0.7818609E-02  0.9722943E-01
       -1   -1    0    0    0  501  0.00000000000E+00  0.00000000000E+00  0.97607251190E+02  0.97607251320E+02  0.50400001928E-02 0.  1.
        1   -1    0    0  501    0  0.00000000000E+00  0.00000000000E+00 -0.12431196676E+04  0.12431196676E+04  0.50400001928E-02 0. -1.
    10030    2    1    2    0    0  0.00000000000E+00  0.00000000000E+00 -0.11455124164E+04  0.13407269189E+04  0.69667063594E+03 0.  0.
        4    1    3    3  502    0  0.12664565144E+03  0.29634356741E+03 -0.82717510850E+03  0.88773808299E+03  0.12699999809E+01 0. -1.
       -4    1    3    3    0  502 -0.12664565144E+03 -0.29634356741E+03 -0.31833730789E+03  0.45298883592E+03  0.12699999809E+01 0.  1.
</event>
<event>
 5   0  0.2006362E-02  0.7022674E+03  0.7818609E-02  0.9713363E-01
       -2   -1    0    0    0  501  0.00000000000E+00  0.00000000000E+00  0.15946997196E+03  0.15946997198E+03  0.25500000920E-02 0.  1.
        2   -1    0    0  501    0  0.00000000000E+00  0.00000000000E+00 -0.77315407256E+03  0.77315407257E+03  0.25500000920E-02 0. -1.
    10030    2    1    2    0    0  0.00000000000E+00  0.00000000000E+00 -0.61368410061E+03  0.93262404454E+03  0.70226735160E+03 0.  0.
        4    1    3    3  502    0  0.17005156092E+03 -0.29198142870E+03 -0.43368385998E+03  0.54977631031E+03  0.12699999809E+01 0. -1.
       -4    1    3    3    0  502 -0.17005156092E+03  0.29198142870E+03 -0.18000024063E+03  0.38284773423E+03  0.12699999809E+01 0.  1.
</event>
<event>
 5   0  0.1197259E-02  0.7085382E+03  0.7818609E-02  0.9702741E-01
        1   -1    0    0  501    0  0.00000000000E+00  0.00000000000E+00  0.10742758079E+03  0.10742758091E+03  0.50400001928E-02 0.  1.
       -1   -1    0    0    0  501  0.00000000000E+00  0.00000000000E+00 -0.11682903046E+04  0.11682903046E+04  0.50400001928E-02 0. -1.
    10030    2    1    2    0    0  0.00000000000E+00  0.00000000000E+00 -0.10608627238E+04  0.12757178855E+04  0.70853821681E+03 0.  0.
        3    1    3    3  502    0  0.11292040313E+03  0.17884404097E+03 -0.10421337387E+04  0.10633809045E+04  0.10100000352E+00 0. -1.
       -3    1    3    3    0  502 -0.11292040313E+03 -0.17884404097E+03 -0.18728985088E+02  0.21233698104E+03  0.10100000352E+00 0.  1.
</event>
<event>
 5   0  0.1973067E-02  0.6940299E+03  0.7818609E-02  0.9727497E-01
        2   -1    0    0  501    0  0.00000000000E+00  0.00000000000E+00  0.38438392945E+03  0.38438392946E+03  0.25500000920E-02 0.  1.
       -2   -1    0    0    0  501  0.00000000000E+00  0.00000000000E+00 -0.31327890190E+03  0.31327890191E+03  0.25500000920E-02 0. -1.
    10030    2    1    2    0    0  0.00000000000E+00  0.00000000000E+00  0.71105027546E+02  0.69766283137E+03  0.69402989945E+03 0.  0.
        5    1    3    3  502    0 -0.14873742399E+03  0.28804721035E+03  0.15990644139E+03  0.36150543106E+03  0.46999998093E+01 0.  1.
       -5    1    3    3    0  502  0.14873742399E+03 -0.28804721035E+03 -0.88801413840E+02  0.33615740031E+03  0.46999998093E+01 0. -1.
</event>
<event>
 5   0  0.2026361E-02  0.6420938E+03  0.7818609E-02  0.9821729E-01
       -2   -1    0    0    0  501  0.00000000000E+00  0.00000000000E+00  0.38668742471E+03  0.38668742472E+03  0.25500000920E-02 0.  1.
        2   -1    0    0  501    0  0.00000000000E+00  0.00000000000E+00 -0.26654889752E+03  0.26654889753E+03  0.25500000920E-02 0. -1.
    10030    2    1    2    0    0  0.00000000000E+00  0.00000000000E+00  0.12013852719E+03  0.65323632225E+03  0.64209378364E+03 0.  0.
        2    1    3    3  502    0  0.17286012015E+03 -0.16161450396E+03 -0.16065479270E+03  0.28602417984E+03  0.25500000920E-02 0. -1.
       -2    1    3    3    0  502 -0.17286012015E+03  0.16161450396E+03  0.28079331989E+03  0.36721214241E+03  0.25500000920E-02 0.  1.
</event>
<event>
 5   0  0.1973067E-02  0.6992308E+03  0.7818609E-02  0.9718549E-01
        2   -1    0    0  501    0  0.00000000000E+00  0.00000000000E+00  0.10641983465E+04  0.10641983465E+04  0.25500000920E-02 0.  1.
       -2   -1    0    0    0  501  0.00000000000E+00  0.00000000000E+00 -0.11485726576E+03  0.11485726579E+03  0.25500000920E-02 0. -1.
    10030    2    1    2    0    0  0.00000000000E+00  0.00000000000E+00  0.94934108078E+03  0.11790556123E+04  0.69923075541E+03 0.  0.
        5    1    3    3  502    0 -0.90863623799E+01 -0.31699790083E+03  0.22662680736E+03  0.38981024990E+03  0.46999998093E+01 0. -1.
       -5    1    3    3    0  502  0.90863623799E+01  0.31699790083E+03  0.72271427341E+03  0.78924536243E+03  0.46999998093E+01 0.  1.
</event>
<event>
 5   0  0.1197259E-02  0.7023736E+03  0.7818609E-02  0.9713182E-01
       -1   -1    0    0    0  501  0.00000000000E+00  0.00000000000E+00  0.66214916284E+03  0.66214916286E+03  0.50400001928E-02 0.  1.
        1   -1    0    0  501    0  0.00000000000E+00  0.00000000000E+00 -0.18626041533E+03  0.18626041540E+03  0.50400001928E-02 0. -1.
    10030    2    1    2    0    0  0.00000000000E+00  0.00000000000E+00  0.47588874751E+03  0.84840957826E+03  0.70237362741E+03 0.  0.
        3    1    3    3  502    0 -0.86328306241E+02 -0.33657406769E+03  0.29950658013E+03  0.45873617826E+03  0.10100000352E+00 0. -1.
       -3    1    3    3    0  502  0.86328306241E+02  0.33657406769E+03  0.17638216738E+03  0.38967340001E+03  0.10100000352E+00 0.  1.
</event>
<event>
 5   0  0.1223742E-02  0.6840334E+03  0.7818609E-02  0.9744934E-01
       -1   -1    0    0    0  501  0.00000000000E+00  0.00000000000E+00  0.10045015994E+03  0.10045016007E+03  0.50400001928E-02 0. -1.
        1   -1    0    0  501    0  0.00000000000E+00  0.00000000000E+00 -0.11645120750E+04  0.11645120750E+04  0.50400001928E-02 0.  1.
    10030    2    1    2    0    0  0.00000000000E+00  0.00000000000E+00 -0.10640619151E+04  0.12649622351E+04  0.68403340350E+03 0.  0.
        2    1    3    3  502    0  0.23249502195E+03 -0.54336622771E+02 -0.98489071266E+03  0.10134180380E+04  0.25500000920E-02 0.  1.
       -2    1    3    3    0  502 -0.23249502195E+03  0.54336622771E+02 -0.79171202405E+02  0.25154419711E+03  0.25500000920E-02 0. -1.
</event>
<event>
 5   0  0.1948138E-02  0.7002417E+03  0.7818609E-02  0.9716819E-01
       -2   -1    0    0    0  501  0.00000000000E+00  0.00000000000E+00  0.58267817864E+02  0.58267817919E+02  0.25500000920E-02 0. -1.
        2   -1    0    0  501    0  0.00000000000E+00  0.00000000000E+00 -0.21038132826E+04  0.21038132826E+04  0.25500000920E-02 0.  1.
    10030    2    1    2    0    0  0.00000000000E+00  0.00000000000E+00 -0.20455454647E+04  0.21620811005E+04  0.70024169893E+03 0.  0.
        3    1    3    3  502    0  0.11346346558E+03 -0.85331362522E+02 -0.20109523705E+04  0.20159575506E+04  0.10100000352E+00 0.  1.
       -3    1    3    3    0  502 -0.11346346558E+03  0.85331362522E+02 -0.34593094231E+02  0.14612354985E+03  0.10100000352E+00 0. -1.
</event>
<event>
 5   0  0.1223742E-02  0.6899224E+03  0.7818609E-02  0.9734623E-01
       -1   -1    0    0    0  501  0.00000000000E+00  0.00000000000E+00  0.17975037014E+03  0.17975037021E+03  0.50400001928E-02 0.  1.
        1   -1    0    0  501    0  0.00000000000E+00  0.00000000000E+00 -0.66201929989E+03  0.66201929991E+03  0.50400001928E-02 0. -1.
    10030    2    1    2    0    0  0.00000000000E+00  0.00000000000E+00 -0.48226892975E+03  0.84176967012E+03  0.68992235572E+03 0.  0.
        2    1    3    3  502    0  0.76658914051E+02 -0.14842934548E+03 -0.60937301509E+03  0.63185704968E+03  0.25500000920E-02 0. -1.
       -2    1    3    3    0  502 -0.76658914051E+02  0.14842934548E+03  0.12710408534E+03  0.20991262044E+03  0.25500000920E-02 0.  1.
</event>
<event>
 5   0  0.2006362E-02  0.7020402E+03  0.7818609E-02  0.9713750E-01
       -2   -1    0    0    0  501  0.00000000000E+00  0.00000000000E+00  0.69796049476E+03  0.69796049476E+03  0.25500000920E-02 0. -1.
        2   -1    0    0  501    0  0.00000000000E+00  0.00000000000E+00 -0.17653592960E+03  0.17653592962E+03  0.25500000920E-02 0.  1.
    10030    2    1    2    0    0  0.00000000000E+00  0.00000000000E+00  0.52142456515E+03  0.87449642438E+03  0.70204018340E+03 0.  0.
        4    1    3    3  502    0  0.29761388917E+03  0.69837379404E+02  0.45816139427E+02  0.30911489470E+03  0.12699999809E+01 0.  1.
       -4    1    3    3    0  502 -0.29761388917E+03 -0.69837379404E+02  0.47560842573E+03  0.56538152969E+03  0.12699999809E+01 0. -1.
</event>
<event>
 5   0  0.1226303E-02  0.7047206E+03  0.7818609E-02  0.9709193E-01
        1   -1    0    0  501    0  0.00000000000E+00  0.00000000000E+00  0.22368210487E+03  0.22368210493E+03  0.50400001928E-02 0.  1.
       -1   -1    0    0    0  501  0.00000000000E+00  0.00000000000E+00 -0.55506349114E+03  0.55506349116E+03  0.50400001928E-02 0. -1.
    10030    2    1    2    0    0  0.00000000000E+00  0.00000000000E+00 -0.33138138627E+03  0.77874559609E+03  0.70472056892E+03 0.  0.
        4    1    3    3  502    0  0.18436727653E+03  0.22965864063E+03  0.48076393193E+02  0.29840800317E+03  0.12699999809E+01 0.  1.
       -4    1    3    3    0  502 -0.18436727653E+03 -0.22965864063E+03 -0.37945777947E+03  0.48033759292E+03  0.12699999809E+01 0. -1.
</event>
<event>
 5   0  0.1257442E-02  0.7004793E+03  0.7818609E-02  0.9716413E-01
        1   -1    0    0  501    0  0.00000000000E+00  0.00000000000E+00  0.86093715678E+03  0.86093715680E+03  0.50400001928E-02 0.  1.
       -1   -1    0    0    0  501  0.00000000000E+00  0.00000000000E+00 -0.14248170869E+03  0.14248170878E+03  0.50400001928E-02 0. -1.
    10030    2    1    2    0    0  0.00000000000E+00  0.00000000000E+00  0.71845544809E+03  0.10034188656E+04  0.70047925659E+03 0.  0.
        1    1    3    3  502    0  0.28755390675E+03  0.19943043300E+03  0.33856578068E+03  0.48691532607E+03  0.50400001928E-02 0. -1.
       -1    1    3    3    0  502 -0.28755390675E+03 -0.19943043300E+03  0.37988966741E+03  0.51650353951E+03  0.50400001928E-02 0.  1.
</event>
<event>
 5   0  0.1237686E-02  0.7001642E+03  0.7818609E-02  0.9716951E-01
       -1   -1    0    0    0  501  0.00000000000E+00  0.00000000000E+00  0.58357982614E+03  0.58357982616E+03  0.50400001928E-02 0. -1.
        1   -1    0    0  501    0  0.00000000000E+00  0.00000000000E+00 -0.21000980603E+03  0.21000980610E+03  0.50400001928E-02 0.  1.
    10030    2    1    2    0    0  0.00000000000E+00  0.00000000000E+00  0.37357002010E+03  0.79358963225E+03  0.70016422681E+03 0.  0.
        5    1    3    3  502    0 -0.14561970716E+03 -0.13320650703E+03  0.51447538051E+03  0.55104997938E+03  0.46999998093E+01 0. -1.
       -5    1    3    3    0  502  0.14561970716E+03  0.13320650703E+03 -0.14090536041E+03  0.24253965287E+03  0.46999998093E+01 0.  1.
</event>
<event>
 5   0  0.1197259E-02  0.7038147E+03  0.7818609E-02  0.9710731E-01
        1   -1    0    0  501    0  0.00000000000E+00  0.00000000000E+00  0.34966648896E+03  0.34966648900E+03  0.50400001928E-02 0. -1.
       -1   -1    0    0    0  501  0.00000000000E+00  0.00000000000E+00 -0.35416253955E+03  0.35416253958E+03  0.50400001928E-02 0.  1.
    10030    2    1    2    0    0  0.00000000000E+00  0.00000000000E+00 -0.44960505817E+01  0.70382902858E+03  0.70381466808E+03 0.  0.
        3    1    3    3  502    0  0.16816219474E+03 -0.30675697261E+03  0.35967902815E+02  0.35167039144E+03  0.10100000352E+00 0. -1.
       -3    1    3    3    0  502 -0.16816219474E+03  0.30675697261E+03 -0.40463953397E+02  0.35215863714E+03  0.10100000352E+00 0.  1.
</event>
<event>
 5   0  0.2026361E-02  0.6986790E+03  0.7818609E-02  0.9719494E-01
        2   -1    0    0  501    0  0.00000000000E+00  0.00000000000E+00  0.97832632706E+03  0.97832632707E+03  0.25500000920E-02 0. -1.
       -2   -1    0    0    0  501  0.00000000000E+00  0.00000000000E+00 -0.12474168808E+03  0.12474168810E+03  0.25500000920E-02 0.  1.
    10030    2    1    2    0    0  0.00000000000E+00  0.00000000000E+00  0.85358463899E+03  0.11030680152E+04  0.69867897505E+03 0.  0.
        2    1    3    3  502    0 -0.93174979689E+02 -0.93462221553E+01  0.95814201480E+03  0.96270714615E+03  0.25500000920E-02 0. -1.
       -2    1    3    3    0  502  0.93174979689E+02  0.93462221553E+01 -0.10455737581E+03  0.14036086902E+03  0.25500000920E-02 0.  1.
</event>
<event>
 5   0  0.1226303E-02  0.7038902E+03  0.7818609E-02  0.9710602E-01
       -1   -1    0    0    0  501  0.00000000000E+00  0.00000000000E+00  0.59806823350E+02  0.59806823563E+02  0.50400001928E-02 0. -1.
        1   -1    0    0  501    0  0.00000000000E+00  0.00000000000E+00 -0.20710908349E+04  0.20710908349E+04  0.50400001928E-02 0.  1.
    10030    2    1    2    0    0  0.00000000000E+00  0.00000000000E+00 -0.20112840115E+04  0.21308976585E+04  0.70389022990E+03 0.  0.
        4    1    3    3  502    0 -0.28024014067E+03  0.19944371575E+03 -0.12312007420E+04  0.12783462802E+04  0.12699999809E+01 0. -1.
       -4    1    3    3    0  502  0.28024014067E+03 -0.19944371575E+03 -0.78008326957E+03  0.85255137826E+03  0.12699999809E+01 0.  1.
</event>
<event>
 5   0  0.1948138E-02  0.6997196E+03  0.7818609E-02  0.9717712E-01
        2   -1    0    0  501    0  0.00000000000E+00  0.00000000000E+00  0.17872098898E+04  0.17872098898E+04  0.25500000920E-02 0. -1.
       -2   -1    0    0    0  501  0.00000000000E+00  0.00000000000E+00 -0.68487694277E+02  0.68487694324E+02  0.25500000920E-02 0.  1.
    10030    2    1    2    0    0  0.00000000000E+00  0.00000000000E+00  0.17187221955E+04  0.18556975841E+04  0.69971961409E+03 0.  0.
        3    1    3    3  502    0 -0.29578230638E+03  0.15243391305E+03  0.11459627015E+04  0.11932953508E+04  0.10100000352E+00 0. -1.
       -3    1    3    3    0  502  0.29578230638E+03 -0.15243391305E+03  0.57275949397E+03  0.66240223335E+03  0.10100000352E+00 0.  1.
</event>
<event>
 5   0  0.7947250E-03  0.6989467E+03  0.7818609E-02  0.9719035E-01
        3   -1    0    0  501    0  0.00000000000E+00  0.00000000000E+00  0.24800101704E+03  0.24800103761E+03  0.10100000352E+00 0. -1.
       -3   -1    0    0    0  501  0.00000000000E+00  0.00000000000E+00 -0.49246422166E+03  0.49246423202E+03  0.10100000352E+00 0.  1.
    10030    2    1    2    0    0  0.00000000000E+00  0.00000000000E+00 -0.24446320462E+03  0.74046526963E+03  0.69894674841E+03 0.  0.
        4    1    3    3  502    0  0.11778167898E+03 -0.28301151829E+03 -0.30001541698E+03  0.42892762410E+03  0.12699999809E+01 0.  1.
       -4    1    3    3    0  502 -0.11778167898E+03  0.28301151829E+03  0.55552212362E+02  0.31153764553E+03  0.12699999809E+01 0. -1.
</event>
<event>
 5   0  0.2006362E-02  0.6982316E+03  0.7818609E-02  0.9720261E-01
       -2   -1    0    0    0  501  0.00000000000E+00  0.00000000000E+00  0.36429149247E+03  0.36429149248E+03  0.25500000920E-02 0. -1.
        2   -1    0    0  501    0  0.00000000000E+00  0.00000000000E+00 -0.33457227834E+03  0.33457227835E+03  0.25500000920E-02 0.  1.
    10030    2    1    2    0    0  0.00000000000E+00  0.00000000000E+00  0.29719214136E+02  0.69886377083E+03  0.69823157941E+03 0.  0.
        4    1    3    3  502    0  0.17179716197E+03 -0.23287372561E+03  0.21032027752E+03  0.35774385945E+03  0.12699999809E+01 0. -1.
       -4    1    3    3    0  502 -0.17179716197E+03  0.23287372561E+03 -0.18060106338E+03  0.34111991138E+03  0.12699999809E+01 0.  1.
</event>
<event>
 5   0  0.1257442E-02  0.6985724E+03  0.7818609E-02  0.9719677E-01
        1   -1    0    0  501    0  0.00000000000E+00  0.00000000000E+00  0.33885652373E+03  0.33885652377E+03  0.50400001928E-02 0.  1.
       -1   -1    0    0    0  501  0.00000000000E+00  0.00000000000E+00 -0.36003687746E+03  0.36003687750E+03  0.50400001928E-02 0. -1.
    10030    2    1    2    0    0  0.00000000000E+00  0.00000000000E+00 -0.21180353728E+02  0.69889340127E+03  0.69857238634E+03 0.  0.
        1    1    3    3  502    0 -0.26569318167E+03 -0.15588959306E+02 -0.23689085460E+03  0.35630486870E+03  0.50400001928E-02 0. -1.
       -1    1    3    3    0  502  0.26569318167E+03  0.15588959306E+02  0.21571050087E+03  0.34258853257E+03  0.50400001928E-02 0.  1.
</event>
<event>
 5   0  0.1973067E-02  0.6961680E+03  0.7818609E-02  0.9723808E-01
        2   -1    0    0  501    0  0.00000000000E+00  0.00000000000E+00  0.41843240960E+03  0.41843240961E+03  0.25500000920E-02 0. -1.
       -2   -1    0    0    0  501  0.00000000000E+00  0.00000000000E+00 -0.28956281174E+03  0.28956281175E+03  0.25500000920E-02 0.  1.
    10030    2    1    2    0    0  0.00000000000E+00  0.00000000000E+00  0.12886959787E+03  0.70799522136E+03  0.69616798275E+03 0.  0.
        5    1    3    3  502    0 -0.15363652841E+03 -0.22299237596E+03 -0.15793630046E+03  0.31352152653E+03  0.46999998093E+01 0. -1.
       -5    1    3    3    0  502  0.15363652841E+03  0.22299237596E+03  0.28680589833E+03  0.39447369483E+03  0.46999998093E+01 0.  1.
</event>
<event>
 5   0  0.7947250E-03  0.7027249E+03  0.7818609E-02  0.9712584E-01
       -3   -1    0    0    0  501  0.00000000000E+00  0.00000000000E+00  0.20251360888E+03  0.20251363406E+03  0.10100000352E+00 0.  1.
        3   -1    0    0  501    0  0.00000000000E+00  0.00000000000E+00 -0.60961614407E+03  0.60961615243E+03  0.10100000352E+00 0. -1.
    10030    2    1    2    0    0  0.00000000000E+00  0.00000000000E+00 -0.40710253519E+03  0.81212978650E+03  0.70272492197E+03 0.  0.
        4    1    3    3  502    0  0.26532752677E+03 -0.13564351258E+03 -0.41869563085E+03  0.51391196052E+03  0.12699999809E+01 0. -1.
       -4    1    3    3    0  502 -0.26532752677E+03  0.13564351258E+03  0.11593095665E+02  0.29821782598E+03  0.12699999809E+01 0.  1.
</event>
<event>
 5   0  0.1909053E-02  0.7006796E+03  0.7818609E-02  0.9716071E-01
        2   -1    0    0  501    0  0.00000000000E+00  0.00000000000E+00  0.59339543951E+03  0.59339543951E+03  0.25500000920E-02 0.  1.
       -2   -1    0    0    0  501  0.00000000000E+00  0.00000000000E+00 -0.20684011898E+03  0.20684011900E+03  0.25500000920E-02 0. -1.
    10030    2    1    2    0    0  0.00000000000E+00  0.00000000000E+00  0.38655532053E+03  0.80023555851E+03  0.70067962242E+03 0.  0.
        1    1    3    3  502    0  0.61930247860E+01  0.26045368180E+03  0.46078773958E+03  0.52933903587E+03  0.50400001928E-02 0.  1.
       -1    1    3    3    0  502 -0.61930247860E+01 -0.26045368180E+03 -0.74232419054E+02  0.27089652265E+03  0.50400001928E-02 0. -1.
</event>
<event>
 5   0  0.1948138E-02  0.6983560E+03  0.7818609E-02  0.9720048E-01
       -2   -1    0    0    0  501  0.00000000000E+00  0.00000000000E+00  0.13252181697E+03  0.13252181700E+03  0.25500000920E-02 0. -1.
        2   -1    0    0  501    0  0.00000000000E+00  0.00000000000E+00 -0.92003919508E+03  0.92003919509E+03  0.25500000920E-02 0.  1.
    10030    2    1    2    0    0  0.00000000000E+00  0.00000000000E+00 -0.78751737811E+03  0.10525610121E+04  0.69835597179E+03 0.  0.
        3    1    3    3  502    0 -0.94542329064E+02 -0.78524149856E+02  0.98846145137E+02  0.15771767404E+03  0.10100000352E+00 0. -1.
       -3    1    3    3    0  502  0.94542329064E+02  0.78524149856E+02 -0.88636352325E+03  0.89484333804E+03  0.10100000352E+00 0.  1.
</event>
<event>
 5   0  0.1226303E-02  0.6827986E+03  0.7818609E-02  0.9747110E-01
       -1   -1    0    0    0  501  0.00000000000E+00  0.00000000000E+00  0.68671835731E+02  0.68671835916E+02  0.50400001928E-02 0.  1.
        1   -1    0    0  501    0  0.00000000000E+00  0.00000000000E+00 -0.16972528561E+04  0.16972528561E+04  0.50400001928E-02 0. -1.
    10030    2    1    2    0    0  0.00000000000E+00  0.00000000000E+00 -0.16285810203E+04  0.17659246920E+04  0.68279856325E+03 0.  0.
        4    1    3    3  502    0 -0.18999738048E+03 -0.70230457109E+01 -0.15476503703E+04  0.15592856086E+04  0.12699999809E+01 0. -1.
       -4    1    3    3    0  502  0.18999738048E+03  0.70230457109E+01 -0.80930650081E+02  0.20663908338E+03  0.12699999809E+01 0.  1.
</event>
<event>
 5   0  0.7947250E-03  0.6978230E+03  0.7818609E-02  0.9720962E-01
       -4   -1    0    0    0  501  0.00000000000E+00  0.00000000000E+00  0.39750902921E+03  0.39751105796E+03  0.12699999809E+01 0.  1.
        4   -1    0    0  501    0  0.00000000000E+00  0.00000000000E+00 -0.30625110146E+03  0.30625373475E+03  0.12699999809E+01 0. -1.
    10030    2    1    2    0    0  0.00000000000E+00  0.00000000000E+00  0.91257927749E+02  0.70376479271E+03  0.69782295325E+03 0.  0.
        4    1    3    3  502    0 -0.15209633128E+03 -0.30846997764E+03  0.10487081511E+03  0.35956435009E+03  0.12699999809E+01 0.  1.
       -4    1    3    3    0  502  0.15209633128E+03  0.30846997764E+03 -0.13612887360E+02  0.34420044262E+03  0.12699999809E+01 0. -1.
</event>
<event>
 5   0  0.1909053E-02  0.6989101E+03  0.7818609E-02  0.9719098E-01
        2   -1    0    0  501    0  0.00000000000E+00  0.00000000000E+00  0.10486542932E+04  0.10486542932E+04  0.25500000920E-02 0.  1.
       -2   -1    0    0    0  501  0.00000000000E+00  0.00000000000E+00 -0.11645289004E+03  0.11645289006E+03  0.25500000920E-02 0. -1.
    10030    2    1    2    0    0  0.00000000000E+00  0.00000000000E+00  0.93220140314E+03  0.11651071832E+04  0.69891007464E+03 0.  0.
        1    1    3    3  502    0  0.26696531225E+03 -0.20028792000E+03  0.63880655230E+03  0.72073541618E+03  0.50400001928E-02 0.  1.
       -1    1    3    3    0  502 -0.26696531225E+03  0.20028792000E+03  0.29339485084E+03  0.44437176707E+03  0.50400001928E-02 0. -1.
</event>
<event>
 5   0  0.1948138E-02  0.7012315E+03  0.7818609E-02  0.9715128E-01
        2   -1    0    0  501    0  0.00000000000E+00  0.00000000000E+00  0.63710573259E+03  0.63710573259E+03  0.25500000920E-02 0. -1.
       -2   -1    0    0    0  501  0.00000000000E+00  0.00000000000E+00 -0.19295292303E+03  0.19295292305E+03  0.25500000920E-02 0.  1.
    10030    2    1    2    0    0  0.00000000000E+00  0.00000000000E+00  0.44415280956E+03  0.83005865564E+03  0.70123152637E+03 0.  0.
        3    1    3    3  502    0  0.27243175363E+02  0.34944037761E+03  0.23270581979E+03  0.42071697954E+03  0.10100000352E+00 0.  1.
       -3    1    3    3    0  502 -0.27243175363E+02 -0.34944037761E+03  0.21144698976E+03  0.40934167610E+03  0.10100000352E+00 0. -1.
</event>
<event>
 5   0  0.1237686E-02  0.7172824E+03  0.7818609E-02  0.9688125E-01
       -1   -1    0    0    0  501  0.00000000000E+00  0.00000000000E+00  0.42988930701E+03  0.42988930704E+03  0.50400001928E-02 0.  1.
        1   -1    0    0  501    0  0.00000000000E+00  0.00000000000E+00 -0.29920143150E+03  0.29920143154E+03  0.50400001928E-02 0. -1.
    10030    2    1    2    0    0  0.00000000000E+00  0.00000000000E+00  0.13068787552E+03  0.72909073858E+03  0.71728236022E+03 0.  0.
        5    1    3    3  502    0 -0.23005680894E+03 -0.22650328526E+03 -0.93339956664E+02  0.33610163802E+03  0.46999998093E+01 0.  1.
       -5    1    3    3    0  502  0.23005680894E+03  0.22650328526E+03  0.22402783218E+03  0.39298910056E+03  0.46999998093E+01 0. -1.
</event>
<event>
 5   0  0.1948138E-02  0.7008874E+03  0.7818609E-02  0.9715716E-01
       -2   -1    0    0    0  501  0.00000000000E+00  0.00000000000E+00  0.14873064719E+03  0.14873064721E+03  0.25500000920E-02 0.  1.
        2   -1    0    0  501    0  0.00000000000E+00  0.00000000000E+00 -0.82572608331E+03  0.82572608332E+03  0.25500000920E-02 0. -1.
    10030    2    1    2    0    0  0.00000000000E+00  0.00000000000E+00 -0.67699543612E+03  0.97445673053E+03  0.70088736552E+03 0.  0.
        3    1    3    3  502    0  0.26714965015E+03 -0.25238529646E+02 -0.65187455764E+03  0.70494423046E+03  0.10100000352E+00 0. -1.
       -3    1    3    3    0  502 -0.26714965015E+03  0.25238529646E+02 -0.25120878481E+02  0.26951250007E+03  0.10100000352E+00 0.  1.
</event>
<event>
 5   0  0.1223742E-02  0.6831344E+03  0.7818609E-02  0.9746517E-01
        1   -1    0    0  501    0  0.00000000000E+00  0.00000000000E+00  0.24880651847E+03  0.24880651852E+03  0.50400001928E-02 0. -1.
       -1   -1    0    0    0  501  0.00000000000E+00  0.00000000000E+00 -0.46891115944E+03  0.46891115947E+03  0.50400001928E-02 0.  1.
    10030    2    1    2    0    0  0.00000000000E+00  0.00000000000E+00 -0.22010464097E+03  0.71771767799E+03  0.68313440282E+03 0.  0.
        2    1    3    3  502    0 -0.50136874918E+02 -0.23671508445E+03  0.14323406243E+03  0.28118274144E+03  0.25500000920E-02 0. -1.
       -2    1    3    3    0  502  0.50136874918E+02  0.23671508445E+03 -0.36333870340E+03  0.43653493655E+03  0.25500000920E-02 0.  1.
</event>
<event>
 5   0  0.1226303E-02  0.7015985E+03  0.7818609E-02  0.9714502E-01
        1   -1    0    0  501    0  0.00000000000E+00  0.00000000000E+00  0.12652269355E+04  0.12652269355E+04  0.50400001928E-02 0. -1.
       -1   -1    0    0    0  501  0.00000000000E+00  0.00000000000E+00 -0.97263269756E+02  0.97263269886E+02  0.50400001928E-02 0.  1.
    10030    2    1    2    0    0  0.00000000000E+00  0.00000000000E+00  0.11679636657E+04  0.13624902054E+04  0.70159848581E+03 0.  0.
        4    1    3    3  502    0  0.20074687183E+03  0.19691672335E+03  0.17670740928E+03  0.33211838835E+03  0.12699999809E+01 0.  1.
       -4    1    3    3    0  502 -0.20074687183E+03 -0.19691672335E+03  0.99125625643E+03  0.10303718170E+04  0.12699999809E+01 0. -1.
</event>
<event>
 5   0  0.1948138E-02  0.7083410E+03  0.7818609E-02  0.9703073E-01
       -2   -1    0    0    0  501  0.00000000000E+00  0.00000000000E+00  0.14695057017E+03  0.14695057020E+03  0.25500000920E-02 0. -1.
        2   -1    0    0  501    0  0.00000000000E+00  0.00000000000E+00 -0.85359813023E+03  0.85359813023E+03  0.25500000920E-02 0.  1.
    10030    2    1    2    0    0  0.00000000000E+00  0.00000000000E+00 -0.70664756005E+03  0.10005487004E+04  0.70834096860E+03 0.  0.
        3    1    3    3  502    0  0.22401325696E+03  0.17845160883E+03 -0.64762346182E+03  0.70812645374E+03  0.10100000352E+00 0. -1.
       -3    1    3    3    0  502 -0.22401325696E+03 -0.17845160883E+03 -0.59024098235E+02  0.29242224669E+03  0.10100000352E+00 0.  1.
</event>
<event>
 5   0  0.1197259E-02  0.7049807E+03  0.7818609E-02  0.9708752E-01
        1   -1    0    0  501    0  0.00000000000E+00  0.00000000000E+00  0.10627039382E+04  0.10627039382E+04  0.50400001928E-02 0.  1.
       -1   -1    0    0    0  501  0.00000000000E+00  0.00000000000E+00 -0.11691819999E+03  0.11691820010E+03  0.50400001928E-02 0. -1.
    10030    2    1    2    0    0  0.00000000000E+00  0.00000000000E+00  0.94578573824E+03  0.11796221383E+04  0.70498065689E+03 0.  0.
        3    1    3    3  502    0 -0.31868842941E+03 -0.57174294224E+02  0.23972415862E+03  0.40286337310E+03  0.10100000352E+00 0. -1.
       -3    1    3    3    0  502  0.31868842941E+03  0.57174294224E+02  0.70606157962E+03  0.77675876524E+03  0.10100000352E+00 0.  1.
</event>
<event>
 5   0  0.1257442E-02  0.6930641E+03  0.7818609E-02  0.9729168E-01
       -1   -1    0    0    0  501  0.00000000000E+00  0.00000000000E+00  0.25381009573E+03  0.25381009578E+03  0.50400001928E-02 0. -1.
        1   -1    0    0  501    0  0.00000000000E+00  0.00000000000E+00 -0.47312721380E+03  0.47312721383E+03  0.50400001928E-02 0.  1.
    10030    2    1    2    0    0  0.00000000000E+00  0.00000000000E+00 -0.21931711807E+03  0.72693730961E+03  0.69306410513E+03 0.  0.
        1    1    3    3  502    0  0.17220080503E+03  0.22435189086E+02 -0.42419505227E+03  0.45836437182E+03  0.50400001928E-02 0.  1.
       -1    1    3    3    0  502 -0.17220080503E+03 -0.22435189086E+02  0.20487793420E+03  0.26857293778E+03  0.50400001928E-02 0. -1.
</event>
<event>
 5   0  0.1226303E-02  0.7023755E+03  0.7818609E-02  0.9713178E-01
       -1   -1    0    0    0  501  0.00000000000E+00  0.00000000000E+00  0.18642001833E+03  0.18642001840E+03  0.50400001928E-02 0. -1.
        1   -1    0    0  501    0  0.00000000000E+00  0.00000000000E+00 -0.66158578492E+03  0.66158578494E+03  0.50400001928E-02 0.  1.
    10030    2    1    2    0    0  0.00000000000E+00  0.00000000000E+00 -0.47516576659E+03  0.84800580334E+03  0.70237549556E+03 0.  0.
        4    1    3    3  502    0 -0.12334205921E+03  0.32881289001E+03 -0.23733816419E+03  0.42386577744E+03  0.12699999809E+01 0. -1.
       -4    1    3    3    0  502  0.12334205921E+03 -0.32881289001E+03 -0.23782760241E+03  0.42414002590E+03  0.12699999809E+01 0.  1.
</event>
<event>
 5   0  0.2026361E-02  0.6997005E+03  0.7818609E-02  0.9717744E-01
        2   -1    0    0  501    0  0.00000000000E+00  0.00000000000E+00  0.19732680671E+04  0.19732680671E+04  0.25500000920E-02 0.  1.
       -2   -1    0    0    0  501  0.00000000000E+00  0.00000000000E+00 -0.62026649098E+02  0.62026649150E+02  0.25500000920E-02 0. -1.
    10030    2    1    2    0    0  0.00000000000E+00  0.00000000000E+00  0.19112414180E+04  0.20352947163E+04  0.69970052460E+03 0.  0.
        2    1    3    3  502    0 -0.14691860623E+03 -0.24913120163E+03  0.38306722143E+03  0.47999159224E+03  0.25500000920E-02 0. -1.
       -2    1    3    3    0  502  0.14691860623E+03  0.24913120163E+03  0.15281741966E+04  0.15553031241E+04  0.25500000920E-02 0.  1.
</event>
<event>
 5   0  0.2026361E-02  0.7038131E+03  0.7818609E-02  0.9710733E-01
       -2   -1    0    0    0  501  0.00000000000E+00  0.00000000000E+00  0.22756257180E+03  0.22756257181E+03  0.25500000920E-02 0. -1.
        2   -1    0    0  501    0  0.00000000000E+00  0.00000000000E+00 -0.54419413505E+03  0.54419413506E+03  0.25500000920E-02 0.  1.
    10030    2    1    2    0    0  0.00000000000E+00  0.00000000000E+00 -0.31663156325E+03  0.77175670687E+03  0.70381309149E+03 0.  0.
        2    1    3    3  502    0  0.20775177052E+03  0.68640874043E+01 -0.46968252023E+03  0.51362397108E+03  0.25500000920E-02 0.  1.
       -2    1    3    3    0  502 -0.20775177052E+03 -0.68640874043E+01  0.15305095698E+03  0.25813273579E+03  0.25500000920E-02 0. -1.
</event>
<event>
 5   0  0.2026361E-02  0.6938546E+03  0.7818609E-02  0.9727800E-01
        2   -1    0    0  501    0  0.00000000000E+00  0.00000000000E+00  0.27266214990E+03  0.27266214991E+03  0.25500000920E-02 0.  1.
       -2   -1    0    0    0  501  0.00000000000E+00  0.00000000000E+00 -0.44142009165E+03  0.44142009165E+03  0.25500000920E-02 0. -1.
    10030    2    1    2    0    0  0.00000000000E+00  0.00000000000E+00 -0.16875794175E+03  0.71408224156E+03  0.69385459919E+03 0.  0.
        2    1    3    3  502    0 -0.20167216830E+03 -0.16349556817E+02 -0.37440939234E+03  0.42558355766E+03  0.25500000920E-02 0. -1.
       -2    1    3    3    0  502  0.20167216830E+03  0.16349556817E+02  0.20565145059E+03  0.28849868390E+03  0.25500000920E-02 0.  1.
</event>
<event>
 5   0  0.7947250E-03  0.7041508E+03  0.7818609E-02  0.9710160E-01
        4   -1    0    0  501    0  0.00000000000E+00  0.00000000000E+00  0.91100942520E+03  0.91101031042E+03  0.12699999809E+01 0. -1.
       -4   -1    0    0    0  501  0.00000000000E+00  0.00000000000E+00 -0.13606172222E+03  0.13606764918E+03  0.12699999809E+01 0.  1.
    10030    2    1    2    0    0  0.00000000000E+00  0.00000000000E+00  0.77494770298E+03  0.10470779596E+04  0.70415077301E+03 0.  0.
        1    1    3    3  502    0 -0.37165867487E+02  0.15633390884E+02 -0.13262067464E+03  0.13861438592E+03  0.50400001928E-02 0.  1.
       -1    1    3    3    0  502  0.37165867487E+02 -0.15633390884E+02  0.90756837762E+03  0.90846357368E+03  0.50400001928E-02 0. -1.
</event>
<event>
 5   0  0.1226303E-02  0.6942408E+03  0.7818609E-02  0.9727132E-01
       -1   -1    0    0    0  501  0.00000000000E+00  0.00000000000E+00  0.20621339699E+03  0.20621339705E+03  0.50400001928E-02 0.  1.
        1   -1    0    0  501    0  0.00000000000E+00  0.00000000000E+00 -0.58431008245E+03  0.58431008247E+03  0.50400001928E-02 0. -1.
    10030    2    1    2    0    0  0.00000000000E+00  0.00000000000E+00 -0.37809668546E+03  0.79052347952E+03  0.69424078540E+03 0.  0.
        4    1    3    3  502    0 -0.17736227070E+03  0.16622505422E+03 -0.47121050455E+03  0.53021608446E+03  0.12699999809E+01 0. -1.
       -4    1    3    3    0  502  0.17736227070E+03 -0.16622505422E+03  0.93113819091E+02  0.26030739506E+03  0.12699999809E+01 0.  1.
</event>
<event>
 5   0  0.1197259E-02  0.6962505E+03  0.7818609E-02  0.9723666E-01
        1   -1    0    0  501    0  0.00000000000E+00  0.00000000000E+00  0.87777822598E+03  0.87777822600E+03  0.50400001928E-02 0. -1.
       -1   -1    0    0    0  501  0.00000000000E+00  0.00000000000E+00 -0.13806583104E+03  0.13806583113E+03  0.50400001928E-02 0.  1.
    10030    2    1    2    0    0  0.00000000000E+00  0.00000000000E+00  0.73971239495E+03  0.10158440571E+04  0.69625047301E+03 0.  0.
        3    1    3    3  502    0 -0.10513505988E+03  0.30982746240E+03  0.19633245124E+03  0.38156634926E+03  0.10100000352E+00 0.  1.
       -3    1    3    3    0  502  0.10513505988E+03 -0.30982746240E+03  0.54337994371E+03  0.63427770787E+03  0.10100000352E+00 0. -1.
</event>
<event>
 5   0  0.1973067E-02  0.7078435E+03  0.7818609E-02  0.9703912E-01
        2   -1    0    0  501    0  0.00000000000E+00  0.00000000000E+00  0.37140961088E+03  0.37140961089E+03  0.25500000920E-02 0.  1.
       -2   -1    0    0    0  501  0.00000000000E+00  0.00000000000E+00 -0.33725732536E+03  0.33725732537E+03  0.25500000920E-02 0. -1.
    10030    2    1    2    0    0  0.00000000000E+00  0.00000000000E+00  0.34152285526E+02  0.70866693626E+03  0.70784351939E+03 0.  0.
        5    1    3    3  502    0 -0.23799851746E+03  0.24491694320E+03 -0.75826838875E+02  0.34985626030E+03  0.46999998093E+01 0. -1.
       -5    1    3    3    0  502  0.23799851746E+03 -0.24491694320E+03  0.10997912440E+03  0.35881067596E+03  0.46999998093E+01 0.  1.
</event>
<event>
 5   0  0.1223742E-02  0.6265284E+03  0.7818609E-02  0.9851847E-01
       -1   -1    0    0    0  501  0.00000000000E+00  0.00000000000E+00  0.28011893363E+03  0.28011893367E+03  0.50400001928E-02 0. -1.
        1   -1    0    0  501    0  0.00000000000E+00  0.00000000000E+00 -0.35033140177E+03  0.35033140181E+03  0.50400001928E-02 0.  1.
    10030    2    1    2    0    0  0.00000000000E+00  0.00000000000E+00 -0.70212468142E+02  0.63045033548E+03  0.62652839906E+03 0.  0.
        2    1    3    3  502    0 -0.11762596336E+03 -0.46198731601E+02 -0.32354366305E+03  0.34734808473E+03  0.25500000920E-02 0.  1.
       -2    1    3    3    0  502  0.11762596336E+03  0.46198731601E+02  0.25333119491E+03  0.28310225075E+03  0.25500000920E-02 0. -1.
</event>
<event>
 5   0  0.1973067E-02  0.7006427E+03  0.7818609E-02  0.9716134E-01
       -2   -1    0    0    0  501  0.00000000000E+00  0.00000000000E+00  0.10208016805E+03  0.10208016808E+03  0.25500000920E-02 0.  1.
        2   -1    0    0  501    0  0.00000000000E+00  0.00000000000E+00 -0.12022418895E+04  0.12022418895E+04  0.25500000920E-02 0. -1.
    10030    2    1    2    0    0  0.00000000000E+00  0.00000000000E+00 -0.11001617215E+04  0.13043220576E+04  0.70064271677E+03 0.  0.
        5    1    3    3  502    0 -0.24721103291E+03 -0.13932967927E+03 -0.16776210379E+03  0.32968510398E+03  0.46999998093E+01 0.  1.
       -5    1    3    3    0  502  0.24721103291E+03  0.13932967927E+03 -0.93239961768E+03  0.97463695362E+03  0.46999998093E+01 0. -1.
</event>
<event>
 5   0  0.1226303E-02  0.6627164E+03  0.7818609E-02  0.9783206E-01
       -1   -1    0    0    0  501  0.00000000000E+00  0.00000000000E+00  0.77964598745E+02  0.77964598908E+02  0.50400001928E-02 0.  1.
        1   -1    0    0  501    0  0.00000000000E+00  0.00000000000E+00 -0.14083089815E+04  0.14083089815E+04  0.50400001928E-02 0. -1.
    10030    2    1    2    0    0  0.00000000000E+00  0.00000000000E+00 -0.13303443828E+04  0.14862735804E+04  0.66271636401E+03 0.  0.
        4    1    3    3  502    0 -0.11356226421E+03 -0.13831473948E+03 -0.39747397835E+02  0.18332709441E+03  0.12699999809E+01 0.  1.
       -4    1    3    3    0  502  0.11356226421E+03  0.13831473948E+03 -0.12905969849E+04  0.13029464860E+04  0.12699999809E+01 0. -1.
</event>
<event>
 5   0  0.1237686E-02  0.6988106E+03  0.7818609E-02  0.9719268E-01
       -1   -1    0    0    0  501  0.00000000000E+00  0.00000000000E+00  0.14820373401E+03  0.14820373409E+03  0.50400001928E-02 0. -1.
        1   -1    0    0  501    0  0.00000000000E+00  0.00000000000E+00 -0.82375830126E+03  0.82375830128E+03  0.50400001928E-02 0.  1.
    10030    2    1    2    0    0  0.00000000000E+00  0.00000000000E+00 -0.67555456725E+03  0.97196203537E+03  0.69881057867E+03 0.  0.
        5    1    3    3  502    0 -0.25121455594E+03  0.17043965172E+03 -0.57829724191E+03  0.65315252277E+03  0.46999998093E+01 0.  1.
       -5    1    3    3    0  502  0.25121455594E+03 -0.17043965172E+03 -0.97257325341E+02  0.31880951260E+03  0.46999998093E+01 0. -1.
</event>
<event>
 5   0  0.1197259E-02  0.6943403E+03  0.7818609E-02  0.9726960E-01
       -1   -1    0    0    0  501  0.00000000000E+00  0.00000000000E+00  0.26408522011E+03  0.26408522016E+03  0.50400001928E-02 0. -1.
        1   -1    0    0  501    0  0.00000000000E+00  0.00000000000E+00 -0.45639473800E+03  0.45639473802E+03  0.50400001928E-02 0.  1.
    10030    2    1    2    0    0  0.00000000000E+00  0.00000000000E+00 -0.19230951788E+03  0.72047995819E+03  0.69434027644E+03 0.  0.
        3    1    3    3  502    0  0.16227168718E+03 -0.28706310639E+03  0.16513649748E+02  0.33016668266E+03  0.10100000352E+00 0. -1.
       -3    1    3    3    0  502 -0.16227168718E+03  0.28706310639E+03 -0.20882316763E+03  0.39031327553E+03  0.10100000352E+00 0.  1.
</event>
<event>
 5   0  0.1257442E-02  0.7017019E+03  0.7818609E-02  0.9714326E-01
       -1   -1    0    0    0  501  0.00000000000E+00  0.00000000000E+00  0.90069019970E+02  0.90069020111E+02  0.50400001928E-02 0.  1.
        1   -1    0    0  501    0  0.00000000000E+00  0.00000000000E+00 -0.13666893888E+04  0.13666893888E+04  0.50400001928E-02 0. -1.
    10030    2    1    2    0    0  0.00000000000E+00  0.00000000000E+00 -0.12766203689E+04  0.14567584089E+04  0.70170185681E+03 0.  0.
        1    1    3    3  502    0  0.59397958957E+02  0.10935101520E+03  0.42713880151E+02  0.13156837628E+03  0.50400001928E-02 0.  1.
       -1    1    3    3    0  502 -0.59397958957E+02 -0.10935101520E+03 -0.13193342490E+04  0.13251900327E+04  0.50400001928E-02 0. -1.
</event>
<event>
 5   0  0.2006362E-02  0.6952800E+03  0.7818609E-02  0.9725338E-01
       -2   -1    0    0    0  501  0.00000000000E+00  0.00000000000E+00  0.24945390351E+03  0.24945390353E+03  0.25500000920E-02 0.  1.
        2   -1    0    0  501    0  0.00000000000E+00  0.00000000000E+00 -0.48447262133E+03  0.48447262134E+03  0.25500000920E-02 0. -1.
    10030    2    1    2    0    0  0.00000000000E+00  0.00000000000E+00 -0.23501871782E+03  0.73392652487E+03  0.69528004874E+03 0.  0.
        4    1    3    3  502    0  0.32350602243E+03 -0.42920053410E+01 -0.25176954849E+03  0.40995620047E+03  0.12699999809E+01 0. -1.
       -4    1    3    3    0  502 -0.32350602243E+03  0.42920053410E+01  0.16750830668E+02  0.32397032439E+03  0.12699999809E+01 0.  1.
</event>
<event>
 5   0  0.2026361E-02  0.6455481E+03  0.7818609E-02  0.9815169E-01
        2   -1    0    0  501    0  0.00000000000E+00  0.00000000000E+00  0.77695079656E+03  0.77695079657E+03  0.25500000920E-02 0. -1.
       -2   -1    0    0    0  501  0.00000000000E+00  0.00000000000E+00 -0.13409227740E+03  0.13409227742E+03  0.25500000920E-02 0.  1.
    10030    2    1    2    0    0  0.00000000000E+00  0.00000000000E+00  0.64285851916E+03  0.91104307399E+03  0.64554814461E+03 0.  0.
        2    1    3    3  502    0 -0.19036474557E+03 -0.19677877765E+03  0.56268007737E+03  0.62575513834E+03  0.25500000920E-02 0. -1.
       -2    1    3    3    0  502  0.19036474557E+03  0.19677877765E+03  0.80178441793E+02  0.28528793565E+03  0.25500000920E-02 0.  1.
</event>
<event>
 5   0  0.1197259E-02  0.7082005E+03  0.7818609E-02  0.9703310E-01
       -1   -1    0    0    0  501  0.00000000000E+00  0.00000000000E+00  0.40342225144E+03  0.40342225147E+03  0.50400001928E-02 0.  1.
        1   -1    0    0  501    0  0.00000000000E+00  0.00000000000E+00 -0.31080829828E+03  0.31080829833E+03  0.50400001928E-02 0. -1.
    10030    2    1    2    0    0  0.00000000000E+00  0.00000000000E+00  0.92613953151E+02  0.71423054979E+03  0.70820048993E+03 0.  0.
        3    1    3    3  502    0 -0.89738598972E+02 -0.28062469338E+03  0.24440692059E+03  0.38280280526E+03  0.10100000352E+00 0.  1.
       -3    1    3    3    0  502  0.89738598972E+02  0.28062469338E+03 -0.15179296744E+03  0.33142774453E+03  0.10100000352E+00 0. -1.
</event>
<event>
 5   0  0.1948138E-02  0.6997845E+03  0.7818609E-02  0.9717601E-01
       -2   -1    0    0    0  501  0.00000000000E+00  0.00000000000E+00  0.56090165433E+02  0.56090165491E+02  0.25500000920E-02 0.  1.
        2   -1    0    0  501    0  0.00000000000E+00  0.00000000000E+00 -0.21826390479E+04  0.21826390479E+04  0.25500000920E-02 0. -1.
    10030    2    1    2    0    0  0.00000000000E+00  0.00000000000E+00 -0.21265488824E+04  0.22387292133E+04  0.69978449637E+03 0.  0.
        3    1    3    3  502    0 -0.31111232320E+02 -0.28862474343E+02 -0.21743751789E+04  0.21747892725E+04  0.10100000352E+00 0. -1.
       -3    1    3    3    0  502  0.31111232320E+02  0.28862474343E+02  0.47826296439E+02  0.63939940833E+02  0.10100000352E+00 0.  1.
</event>
<event>
 5   0  0.1257442E-02  0.7015757E+03  0.7818609E-02  0.9714541E-01
       -1   -1    0    0    0  501  0.00000000000E+00  0.00000000000E+00  0.13061989800E+03  0.13061989809E+03  0.50400001928E-02 0.  1.
        1   -1    0    0  501    0  0.00000000000E+00  0.00000000000E+00 -0.94206254602E+03  0.94206254603E+03  0.50400001928E-02 0. -1.
    10030    2    1    2    0    0  0.00000000000E+00  0.00000000000E+00 -0.81144264802E+03  0.10726824441E+04  0.70157569436E+03 0.  0.
        1    1    3    3  502    0  0.27686216339E+02 -0.30533143468E+03 -0.66635573586E+03  0.73350104180E+03  0.50400001928E-02 0. -1.
       -1    1    3    3    0  502 -0.27686216339E+02  0.30533143468E+03 -0.14508691216E+03  0.33918140233E+03  0.50400001928E-02 0.  1.
</event>
<event>
 5   0  0.1226303E-02  0.7012824E+03  0.7818609E-02  0.9715042E-01
       -1   -1    0    0    0  501  0.00000000000E+00  0.00000000000E+00  0.25779986062E+03  0.25779986067E+03  0.50400001928E-02 0.  1.
        1   -1    0    0  501    0  0.00000000000E+00  0.00000000000E+00 -0.47691749960E+03  0.47691749963E+03  0.50400001928E-02 0. -1.
    10030    2    1    2    0    0  0.00000000000E+00  0.00000000000E+00 -0.21911763898E+03  0.73471736030E+03  0.70128243940E+03 0.  0.
        4    1    3    3  502    0 -0.24277634249E+03  0.24996820990E+03 -0.15044766922E+03  0.37955312212E+03  0.12699999809E+01 0. -1.
       -4    1    3    3    0  502  0.24277634249E+03 -0.24996820990E+03 -0.68669969762E+02  0.35516423818E+03  0.12699999809E+01 0.  1.
</event>
<event>
 5   0  0.1237686E-02  0.7088836E+03  0.7818609E-02  0.9702159E-01
        1   -1    0    0  501    0  0.00000000000E+00  0.00000000000E+00  0.10206548857E+03  0.10206548870E+03  0.50400001928E-02 0.  1.
       -1   -1    0    0    0  501  0.00000000000E+00  0.00000000000E+00 -0.12308665997E+04  0.12308665997E+04  0.50400001928E-02 0. -1.
    10030    2    1    2    0    0  0.00000000000E+00  0.00000000000E+00 -0.11288011111E+04  0.13329320884E+04  0.70888363207E+03 0.  0.
        5    1    3    3  502    0  0.22490788524E+03 -0.26051305001E+03 -0.40533450733E+03  0.53176005764E+03  0.46999998093E+01 0.  1.
       -5    1    3    3    0  502 -0.22490788524E+03  0.26051305001E+03 -0.72346660380E+03  0.80117203076E+03  0.46999998093E+01 0. -1.
</event>
<event>
 5   0  0.1948138E-02  0.6980121E+03  0.7818609E-02  0.9720638E-01
        2   -1    0    0  501    0  0.00000000000E+00  0.00000000000E+00  0.70436075635E+03  0.70436075635E+03  0.25500000920E-02 0. -1.
       -2   -1    0    0    0  501  0.00000000000E+00  0.00000000000E+00 -0.17293016835E+03  0.17293016837E+03  0.25500000920E-02 0.  1.
    10030    2    1    2    0    0  0.00000000000E+00  0.00000000000E+00  0.53143058799E+03  0.87729092472E+03  0.69801210358E+03 0.  0.
        3    1    3    3  502    0 -0.23737705785E+03  0.18508713553E+03  0.43712384104E+02  0.30416426164E+03  0.10100000352E+00 0.  1.
       -3    1    3    3    0  502  0.23737705785E+03 -0.18508713553E+03  0.48771820389E+03  0.57312666309E+03  0.10100000352E+00 0. -1.
</event>
<event>
 5   0  0.1226303E-02  0.6967227E+03  0.7818609E-02  0.9722853E-01
       -1   -1    0    0    0  501  0.00000000000E+00  0.00000000000E+00  0.22939283837E+03  0.22939283843E+03  0.50400001928E-02 0. -1.
        1   -1    0    0  501    0  0.00000000000E+00  0.00000000000E+00 -0.52902964985E+03  0.52902964987E+03  0.50400001928E-02 0.  1.
    10030    2    1    2    0    0  0.00000000000E+00  0.00000000000E+00 -0.29963681148E+03  0.75842248830E+03  0.69672265068E+03 0.  0.
        4    1    3    3  502    0 -0.54468719970E+02 -0.31053867521E+03 -0.31110457282E+03  0.44293202457E+03  0.12699999809E+01 0.  1.
       -4    1    3    3    0  502  0.54468719970E+02  0.31053867521E+03  0.11467761347E+02  0.31549046373E+03  0.12699999809E+01 0. -1.
</event>
<event>
 5   0  0.1909053E-02  0.6982916E+03  0.7818609E-02  0.9720158E-01
        2   -1    0    0  501    0  0.00000000000E+00  0.00000000000E+00  0.28240337034E+03  0.28240337035E+03  0.25500000920E-02 0. -1.
       -2   -1    0    0    0  501  0.00000000000E+00  0.00000000000E+00 -0.43166200049E+03  0.43166200050E+03  0.25500000920E-02 0.  1.
    10030    2    1    2    0    0  0.00000000000E+00  0.00000000000E+00 -0.14925863015E+03  0.71406537085E+03  0.69829164049E+03 0.  0.
        1    1    3    3  502    0 -0.24689075299E+03 -0.16094587700E+03  0.11680029223E+03  0.31701881257E+03  0.50400001928E-02 0. -1.
       -1    1    3    3    0  502  0.24689075299E+03  0.16094587700E+03 -0.26605892238E+03  0.39704655828E+03  0.50400001928E-02 0.  1.
</event>
<event>
 5   0  0.1226303E-02  0.6981743E+03  0.7818609E-02  0.9720359E-01
       -1   -1    0    0    0  501  0.00000000000E+00  0.00000000000E+00  0.70559366383E+03  0.70559366384E+03  0.50400001928E-02 0. -1.
        1   -1    0    0  501    0  0.00000000000E+00  0.00000000000E+00 -0.17270826097E+03  0.17270826105E+03  0.50400001928E-02 0.  1.
    10030    2    1    2    0    0  0.00000000000E+00  0.00000000000E+00  0.53288540285E+03  0.87830192489E+03  0.69817434691E+03 0.  0.
        4    1    3    3  502    0 -0.33042437713E+03  0.54901798021E+02  0.39012230109E+03  0.51419013909E+03  0.12699999809E+01 0. -1.
       -4    1    3    3    0  502  0.33042437713E+03 -0.54901798021E+02  0.14276310176E+03  0.36411178579E+03  0.12699999809E+01 0.  1.
</event>
<event>
 5   0  0.1237686E-02  0.6943743E+03  0.7818609E-02  0.9726902E-01
        1   -1    0    0  501    0  0.00000000000E+00  0.00000000000E+00  0.99169600088E+03  0.99169600089E+03  0.50400001928E-02 0.  1.
       -1   -1    0    0    0  501  0.00000000000E+00  0.00000000000E+00 -0.12154825333E+03  0.12154825343E+03  0.50400001928E-02 0. -1.
    10030    2    1    2    0    0  0.00000000000E+00  0.00000000000E+00  0.87014774755E+03  0.11132442543E+04  0.69437429908E+03 0.  0.
        5    1    3    3  502    0 -0.18738310581E+03 -0.18027861501E+02  0.90271103995E+03  0.92214247478E+03  0.46999998093E+01 0.  1.
       -5    1    3    3    0  502  0.18738310581E+03  0.18027861501E+02 -0.32563292407E+02  0.19110177955E+03  0.46999998093E+01 0. -1.
</event>
<event>
 5   0  0.7947250E-03  0.7066982E+03  0.7818609E-02  0.9705845E-01
       -3   -1    0    0    0  501  0.00000000000E+00  0.00000000000E+00  0.16784836788E+04  0.16784836818E+04  0.10100000352E+00 0.  1.
        3   -1    0    0  501    0  0.00000000000E+00  0.00000000000E+00 -0.74385903598E+02  0.74385972166E+02  0.10100000352E+00 0. -1.
    10030    2    1    2    0    0  0.00000000000E+00  0.00000000000E+00  0.16040977752E+04  0.17528696540E+04  0.70669820399E+03 0.  0.
        3    1    3    3  502    0 -0.28068361096E+03 -0.21334155453E+03  0.86062277033E+03  0.93003734945E+03  0.10100000352E+00 0. -1.
       -3    1    3    3    0  502  0.28068361096E+03  0.21334155453E+03  0.74347500487E+03  0.82283230456E+03  0.10100000352E+00 0.  1.
</event>
<event>
 5   0  0.7947250E-03  0.6928243E+03  0.7818609E-02  0.9729583E-01
       -4   -1    0    0    0  501  0.00000000000E+00  0.00000000000E+00  0.28329567005E+03  0.28329851671E+03  0.12699999809E+01 0. -1.
        4   -1    0    0  501    0  0.00000000000E+00  0.00000000000E+00 -0.42358466058E+03  0.42358656444E+03  0.12699999809E+01 0.  1.
    10030    2    1    2    0    0  0.00000000000E+00  0.00000000000E+00 -0.14028899052E+03  0.70688508115E+03  0.69282430464E+03 0.  0.
        5    1    3    3  502    0  0.20214555515E+03  0.25298048372E+03 -0.19559238862E+03  0.37833903195E+03  0.46999998093E+01 0.  1.
       -5    1    3    3    0  502 -0.20214555515E+03 -0.25298048372E+03  0.55303398100E+02  0.32854604921E+03  0.46999998093E+01 0. -1.
</event>
<event>
 5   0  0.7947250E-03  0.6943200E+03  0.7818609E-02  0.9726995E-01
       -3   -1    0    0    0  501  0.00000000000E+00  0.00000000000E+00  0.44695730009E+03  0.44695731150E+03  0.10100000352E+00 0. -1.
        3   -1    0    0  501    0  0.00000000000E+00  0.00000000000E+00 -0.26964560228E+03  0.26964562119E+03  0.10100000352E+00 0.  1.
    10030    2    1    2    0    0  0.00000000000E+00  0.00000000000E+00  0.17731169781E+03  0.71660293269E+03  0.69432004505E+03 0.  0.
        5    1    3    3  502    0 -0.20580067305E+03  0.29220941252E+01 -0.19984239525E+03  0.28691728530E+03  0.46999998093E+01 0.  1.
       -5    1    3    3    0  502  0.20580067305E+03 -0.29220941252E+01  0.37715409307E+03  0.42968564740E+03  0.46999998093E+01 0. -1.
</event>
<event>
 5   0  0.1223742E-02  0.6967289E+03  0.7818609E-02  0.9722843E-01
        1   -1    0    0  501    0  0.00000000000E+00  0.00000000000E+00  0.90572114579E+03  0.90572114581E+03  0.50400001928E-02 0. -1.
       -1   -1    0    0    0  501  0.00000000000E+00  0.00000000000E+00 -0.13399022200E+03  0.13399022210E+03  0.50400001928E-02 0.  1.
    10030    2    1    2    0    0  0.00000000000E+00  0.00000000000E+00  0.77173092379E+03  0.10397113679E+04  0.69672886391E+03 0.  0.
        2    1    3    3  502    0  0.20008905420E+03  0.38722328638E+01  0.81137898675E+03  0.83569520996E+03  0.25500000920E-02 0. -1.
       -2    1    3    3    0  502 -0.20008905420E+03 -0.38722328638E+01 -0.39648062958E+02  0.20401615794E+03  0.25500000920E-02 0.  1.
</event>
<event>
 5   0  0.7947250E-03  0.7028885E+03  0.7818609E-02  0.9712305E-01
       -3   -1    0    0    0  501  0.00000000000E+00  0.00000000000E+00  0.25154655371E+03  0.25154657398E+03  0.10100000352E+00 0.  1.
        3   -1    0    0  501    0  0.00000000000E+00  0.00000000000E+00 -0.49101463770E+03  0.49101464809E+03  0.10100000352E+00 0. -1.
    10030    2    1    2    0    0  0.00000000000E+00  0.00000000000E+00 -0.23946808400E+03  0.74256122207E+03  0.70288847285E+03 0.  0.
        3    1    3    3  502    0 -0.28978491843E+03  0.15731480730E+03 -0.24821148984E+03  0.41271321936E+03  0.10100000352E+00 0. -1.
       -3    1    3    3    0  502  0.28978491843E+03 -0.15731480730E+03  0.87434058427E+01  0.32984800271E+03  0.10100000352E+00 0.  1.
</event>
<event>
 5   0  0.1237686E-02  0.6985397E+03  0.7818609E-02  0.9719733E-01
       -1   -1    0    0    0  501  0.00000000000E+00  0.00000000000E+00  0.18283014616E+03  0.18283014623E+03  0.50400001928E-02 0.  1.
        1   -1    0    0  501    0  0.00000000000E+00  0.00000000000E+00 -0.66722819391E+03  0.66722819393E+03  0.50400001928E-02 0. -1.
    10030    2    1    2    0    0  0.00000000000E+00  0.00000000000E+00 -0.48439804775E+03  0.85005834016E+03  0.69853970038E+03 0.  0.
        5    1    3    3  502    0  0.69488996885E+02 -0.20888239746E+03  0.87730578851E+02  0.23702177352E+03  0.46999998093E+01 0.  1.
       -5    1    3    3    0  502 -0.69488996885E+02  0.20888239746E+03 -0.57212862660E+03  0.61303656664E+03  0.46999998093E+01 0. -1.
</event>
<event>
 5   0  0.2026361E-02  0.6922470E+03  0.7818609E-02  0.9730584E-01
       -2   -1    0    0    0  501  0.00000000000E+00  0.00000000000E+00  0.90133638678E+02  0.90133638714E+02  0.25500000920E-02 0.  1.
        2   -1    0    0  501    0  0.00000000000E+00  0.00000000000E+00 -0.13291537531E+04  0.13291537531E+04  0.25500000920E-02 0. -1.
    10030    2    1    2    0    0  0.00000000000E+00  0.00000000000E+00 -0.12390201144E+04  0.14192873918E+04  0.69224696215E+03 0.  0.
        2    1    3    3  502    0 -0.19687389356E+03  0.29424299696E+02 -0.12000504101E+04  0.12164481519E+04  0.25500000920E-02 0. -1.
       -2    1    3    3    0  502  0.19687389356E+03 -0.29424299696E+02 -0.38969704237E+02  0.20283923987E+03  0.25500000920E-02 0.  1.
</event>
<event>
 5   0  0.1226303E-02  0.7028439E+03  0.7818609E-02  0.9712381E-01
        1   -1    0    0  501    0  0.00000000000E+00  0.00000000000E+00  0.86237495364E+02  0.86237495511E+02  0.50400001928E-02 0. -1.
       -1   -1    0    0    0  501  0.00000000000E+00  0.00000000000E+00 -0.14320614529E+04  0.14320614529E+04  0.50400001928E-02 0.  1.
    10030    2    1    2    0    0  0.00000000000E+00  0.00000000000E+00 -0.13458239575E+04  0.15182989484E+04  0.70284391730E+03 0.  0.
        4    1    3    3  502    0 -0.22455808391E+03 -0.87430662601E+02 -0.12254616811E+04  0.12489309022E+04  0.12699999809E+01 0.  1.
       -4    1    3    3    0  502  0.22455808391E+03  0.87430662601E+02 -0.12036227641E+03  0.26936804616E+03  0.12699999809E+01 0. -1.
</event>
<event>
 5   0  0.1257442E-02  0.7010926E+03  0.7818609E-02  0.9715366E-01
       -1   -1    0    0    0  501  0.00000000000E+00  0.00000000000E+00  0.13689268657E+03  0.13689268666E+03  0.50400001928E-02 0. -1.
        1   -1    0    0  501    0  0.00000000000E+00  0.00000000000E+00 -0.89765709750E+03  0.89765709751E+03  0.50400001928E-02 0.  1.
    10030    2    1    2    0    0  0.00000000000E+00  0.00000000000E+00 -0.76076441093E+03  0.10345497842E+04  0.70109255238E+03 0.  0.
        1    1    3    3  502    0 -0.34636341384E+03 -0.26082366023E+02 -0.31062418414E+03  0.46597777636E+03  0.50400001928E-02 0.  1.
       -1    1    3    3    0  502  0.34636341384E+03  0.26082366023E+02 -0.45014022679E+03  0.56857200781E+03  0.50400001928E-02 0. -1.
</event>
<event>
 5   0  0.1257442E-02  0.7004533E+03  0.7818609E-02  0.9716457E-01
       -1   -1    0    0    0  501  0.00000000000E+00  0.00000000000E+00  0.54688491033E+03  0.54688491035E+03  0.50400001928E-02 0. -1.
        1   -1    0    0  501    0  0.00000000000E+00  0.00000000000E+00 -0.22428614026E+03  0.22428614032E+03  0.50400001928E-02 0.  1.
    10030    2    1    2    0    0  0.00000000000E+00  0.00000000000E+00  0.32259877007E+03  0.77117105067E+03  0.70045329819E+03 0.  0.
        1    1    3    3  502    0 -0.52360619192E+02 -0.24549641543E+03 -0.10758872140E+03  0.27310338231E+03  0.50400001928E-02 0.  1.
       -1    1    3    3    0  502  0.52360619192E+02  0.24549641543E+03  0.43018749147E+03  0.49806766836E+03  0.50400001928E-02 0. -1.
</event>
<event>
 5   0  0.7947250E-03  0.7031351E+03  0.7818609E-02  0.9711886E-01
       -3   -1    0    0    0  501  0.00000000000E+00  0.00000000000E+00  0.15823323981E+03  0.15823327205E+03  0.10100000352E+00 0.  1.
        3   -1    0    0  501    0  0.00000000000E+00  0.00000000000E+00 -0.78112374823E+03  0.78112375476E+03  0.10100000352E+00 0. -1.
    10030    2    1    2    0    0  0.00000000000E+00  0.00000000000E+00 -0.62289050842E+03  0.93935702681E+03  0.70313514941E+03 0.  0.
        1    1    3    3  502    0 -0.27431666174E+03 -0.14154461346E+03 -0.86642261739E+02  0.32061096371E+03  0.50400001928E-02 0.  1.
       -1    1    3    3    0  502  0.27431666174E+03  0.14154461346E+03 -0.53624824668E+03  0.61874606310E+03  0.50400001928E-02 0. -1.
</event>
<event>
 5   0  0.2006362E-02  0.7111364E+03  0.7818609E-02  0.9698375E-01
       -2   -1    0    0    0  501  0.00000000000E+00  0.00000000000E+00  0.32226562002E+03  0.32226562003E+03  0.25500000920E-02 0. -1.
        2   -1    0    0  501    0  0.00000000000E+00  0.00000000000E+00 -0.39231221219E+03  0.39231221219E+03  0.25500000920E-02 0.  1.
    10030    2    1    2    0    0  0.00000000000E+00  0.00000000000E+00 -0.70046592166E+02  0.71457783222E+03  0.71113638160E+03 0.  0.
        4    1    3    3  502    0 -0.18847991613E+03  0.10937698362E+03  0.24729744653E+03  0.32961438574E+03  0.12699999809E+01 0. -1.
       -4    1    3    3    0  502  0.18847991613E+03 -0.10937698362E+03 -0.31734403869E+03  0.38496344648E+03  0.12699999809E+01 0.  1.
</event>
<event>
 5   0  0.1257442E-02  0.6970912E+03  0.7818609E-02  0.9722220E-01
        1   -1    0    0  501    0  0.00000000000E+00  0.00000000000E+00  0.56011237501E+03  0.56011237503E+03  0.50400001928E-02 0. -1.
       -1   -1    0    0    0  501  0.00000000000E+00  0.00000000000E+00 -0.21689228193E+03  0.21689228198E+03  0.50400001928E-02 0.  1.
    10030    2    1    2    0    0  0.00000000000E+00  0.00000000000E+00  0.34322009309E+03  0.77700465702E+03  0.69709124563E+03 0.  0.
        1    1    3    3  502    0 -0.17594273936E+03 -0.30035472626E+03  0.15181957894E+03  0.37976044251E+03  0.50400001928E-02 0.  1.
       -1    1    3    3    0  502  0.17594273936E+03  0.30035472626E+03  0.19140051415E+03  0.39724421451E+03  0.50400001928E-02 0. -1.
</event>
<event>
 5   0  0.2006362E-02  0.6945355E+03  0.7818609E-02  0.9726623E-01
        2   -1    0    0  501    0  0.00000000000E+00  0.00000000000E+00  0.71739143269E+03  0.71739143270E+03  0.25500000920E-02 0. -1.
       -2   -1    0    0    0  501  0.00000000000E+00  0.00000000000E+00 -0.16810192093E+03  0.16810192095E+03  0.25500000920E-02 0.  1.
    10030    2    1    2    0    0  0.00000000000E+00  0.00000000000E+00  0.54928951176E+03  0.88549335365E+03  0.69453546462E+03 0.  0.
        4    1    3    3  502    0  0.48944630406E+02 -0.24820267589E+03 -0.28655444446E+02  0.25460340249E+03  0.12699999809E+01 0.  1.
       -4    1    3    3    0  502 -0.48944630406E+02  0.24820267589E+03  0.57794495621E+03  0.63088995116E+03  0.12699999809E+01 0. -1.
</event>
<event>
 5   0  0.1948138E-02  0.6967352E+03  0.7818609E-02  0.9722832E-01
        2   -1    0    0  501    0  0.00000000000E+00  0.00000000000E+00  0.98257339043E+03  0.98257339043E+03  0.25500000920E-02 0.  1.
       -2   -1    0    0    0  501  0.00000000000E+00  0.00000000000E+00 -0.12351237992E+03  0.12351237994E+03  0.25500000920E-02 0. -1.
    10030    2    1    2    0    0  0.00000000000E+00  0.00000000000E+00  0.85906101051E+03  0.11060857704E+04  0.69673518042E+03 0.  0.
        3    1    3    3  502    0  0.12564561156E+03  0.29403428426E+03  0.64902862044E+03  0.72351996544E+03  0.10100000352E+00 0.  1.
       -3    1    3    3    0  502 -0.12564561156E+03 -0.29403428426E+03  0.21003239007E+03  0.38256580494E+03  0.10100000352E+00 0. -1.
</event>
<event>
 5   0  0.1909053E-02  0.7002855E+03  0.7818609E-02  0.9716744E-01
       -2   -1    0    0    0  501  0.00000000000E+00  0.00000000000E+00  0.22157647422E+03  0.22157647423E+03  0.25500000920E-02 0.  1.
        2   -1    0    0  501    0  0.00000000000E+00  0.00000000000E+00 -0.55330753932E+03  0.55330753933E+03  0.25500000920E-02 0. -1.
    10030    2    1    2    0    0  0.00000000000E+00  0.00000000000E+00 -0.33173106510E+03  0.77488401356E+03  0.70028546673E+03 0.  0.
        1    1    3    3  502    0 -0.15063612201E+03  0.26913940486E+03 -0.34927090271E+03  0.46595860762E+03  0.50400001928E-02 0. -1.
       -1    1    3    3    0  502  0.15063612201E+03 -0.26913940486E+03  0.17539837610E+02  0.30892540594E+03  0.50400001928E-02 0.  1.
</event>
<event>
 5   0  0.2006362E-02  0.7041819E+03  0.7818609E-02  0.9710107E-01
        2   -1    0    0  501    0  0.00000000000E+00  0.00000000000E+00  0.43094005154E+03  0.43094005155E+03  0.25500000920E-02 0.  1.
       -2   -1    0    0    0  501  0.00000000000E+00  0.00000000000E+00 -0.28766890052E+03  0.28766890053E+03  0.25500000920E-02 0. -1.
    10030    2    1    2    0    0  0.00000000000E+00  0.00000000000E+00  0.14327115102E+03  0.71860895208E+03  0.70418193905E+03 0.  0.
        4    1    3    3  502    0 -0.79185247825E+02  0.26804213904E+02 -0.27739158314E+03  0.28971791911E+03  0.12699999809E+01 0. -1.
       -4    1    3    3    0  502  0.79185247825E+02 -0.26804213904E+02  0.42066273415E+03  0.42889103297E+03  0.12699999809E+01 0.  1.
</event>
<event>
 5   0  0.1257442E-02  0.7306185E+03  0.7818609E-02  0.9666257E-01
        1   -1    0    0  501    0  0.00000000000E+00  0.00000000000E+00  0.12089475274E+04  0.12089475274E+04  0.50400001928E-02 0.  1.
       -1   -1    0    0    0  501  0.00000000000E+00  0.00000000000E+00 -0.11038595948E+03  0.11038595960E+03  0.50400001928E-02 0. -1.
    10030    2    1    2    0    0  0.00000000000E+00  0.00000000000E+00  0.10985615679E+04  0.13193334870E+04  0.73061845818E+03 0.  0.
        1    1    3    3  502    0  0.23985220393E+03 -0.25304546990E+03  0.74618280976E+03  0.82361998226E+03  0.50400001928E-02 0.  1.
       -1    1    3    3    0  502 -0.23985220393E+03  0.25304546990E+03  0.35237875816E+03  0.49571350475E+03  0.50400001928E-02 0. -1.
</event>
<event>
 5   0  0.1948138E-02  0.6988946E+03  0.7818609E-02  0.9719124E-01
       -2   -1    0    0    0  501  0.00000000000E+00  0.00000000000E+00  0.80730306785E+02  0.80730306826E+02  0.25500000920E-02 0. -1.
        2   -1    0    0  501    0  0.00000000000E+00  0.00000000000E+00 -0.15126093118E+04  0.15126093118E+04  0.25500000920E-02 0.  1.
    10030    2    1    2    0    0  0.00000000000E+00  0.00000000000E+00 -0.14318790050E+04  0.15933396186E+04  0.69889459525E+03 0.  0.
        3    1    3    3  502    0  0.23307253304E+03  0.17100435133E+03 -0.26833111422E+03  0.39441968877E+03  0.10100000352E+00 0. -1.
       -3    1    3    3    0  502 -0.23307253304E+03 -0.17100435133E+03 -0.11635478908E+04  0.11989199298E+04  0.10100000352E+00 0.  1.
</event>
<event>
 5   0  0.1257442E-02  0.6863904E+03  0.7818609E-02  0.9740794E-01
       -1   -1    0    0    0  501  0.00000000000E+00  0.00000000000E+00  0.88124010835E+02  0.88124010979E+02  0.50400001928E-02 0. -1.
        1   -1    0    0  501    0  0.00000000000E+00  0.00000000000E+00 -0.13365589104E+04  0.13365589105E+04  0.50400001928E-02 0.  1.
    10030    2    1    2    0    0  0.00000000000E+00  0.00000000000E+00 -0.12484348996E+04  0.14246829214E+04  0.68639036128E+03 0.  0.
        1    1    3    3  502    0  0.24383524678E+03 -0.88147935958E+02 -0.10909184648E+04  0.11213067301E+04  0.50400001928E-02 0.  1.
       -1    1    3    3    0  502 -0.24383524678E+03  0.88147935958E+02 -0.15751643482E+03  0.30337619131E+03  0.50400001928E-02 0. -1.
</event>
<event>
 5   0  0.2006362E-02  0.7046680E+03  0.7818609E-02  0.9709282E-01
        2   -1    0    0  501    0  0.00000000000E+00  0.00000000000E+00  0.96540131729E+03  0.96540131729E+03  0.25500000920E-02 0.  1.
       -2   -1    0    0    0  501  0.00000000000E+00  0.00000000000E+00 -0.12858821897E+03  0.12858821899E+03  0.25500000920E-02 0. -1.
    10030    2    1    2    0    0  0.00000000000E+00  0.00000000000E+00  0.83681309832E+03  0.10939895363E+04  0.70466796719E+03 0.  0.
        4    1    3    3  502    0  0.22375335340E+03  0.21705874618E+03  0.16350707841E+03  0.35201738599E+03  0.12699999809E+01 0. -1.
       -4    1    3    3    0  502 -0.22375335340E+03 -0.21705874618E+03  0.67330601991E+03  0.74197215029E+03  0.12699999809E+01 0.  1.
</event>
<event>
 5   0  0.2026361E-02  0.6938919E+03  0.7818609E-02  0.9727735E-01
        2   -1    0    0  501    0  0.00000000000E+00  0.00000000000E+00  0.16044516633E+03  0.16044516635E+03  0.25500000920E-02 0.  1.
       -2   -1    0    0    0  501  0.00000000000E+00  0.00000000000E+00 -0.75023449970E+03  0.75023449971E+03  0.25500000920E-02 0. -1.
    10030    2    1    2    0    0  0.00000000000E+00  0.00000000000E+00 -0.58978933337E+03  0.91067966605E+03  0.69389191983E+03 0.  0.
        2    1    3    3  502    0  0.12800093707E+03 -0.31282246678E+03 -0.39764458789E+03  0.52188442580E+03  0.25500000920E-02 0. -1.
       -2    1    3    3    0  502 -0.12800093707E+03  0.31282246678E+03 -0.19214474549E+03  0.38879524025E+03  0.25500000920E-02 0.  1.
</event>
<event>
 5   0  0.1909053E-02  0.7015448E+03  0.7818609E-02  0.9714594E-01
        2   -1    0    0  501    0  0.00000000000E+00  0.00000000000E+00  0.88585449559E+03  0.88585449559E+03  0.25500000920E-02 0. -1.
       -2   -1    0    0    0  501  0.00000000000E+00  0.00000000000E+00 -0.13889559976E+03  0.13889559978E+03  0.25500000920E-02 0.  1.
    10030    2    1    2    0    0  0.00000000000E+00  0.00000000000E+00  0.74695889583E+03  0.10247500954E+04  0.70154484240E+03 0.  0.
        1    1    3    3  502    0  0.28778040979E+03 -0.11124850587E+02  0.80973617296E+02  0.29916225244E+03  0.50400001928E-02 0.  1.
       -1    1    3    3    0  502 -0.28778040979E+03  0.11124850587E+02  0.66598527854E+03  0.72558784293E+03  0.50400001928E-02 0. -1.
</event>
<event>
 5   0  0.1948138E-02  0.6936616E+03  0.7818609E-02  0.9728134E-01
        2   -1    0    0  501    0  0.00000000000E+00  0.00000000000E+00  0.73333451897E+03  0.73333451898E+03  0.25500000920E-02 0. -1.
       -2   -1    0    0    0  501  0.00000000000E+00  0.00000000000E+00 -0.16403374079E+03  0.16403374081E+03  0.25500000920E-02 0.  1.
    10030    2    1    2    0    0  0.00000000000E+00  0.00000000000E+00  0.56930077818E+03  0.89736825978E+03  0.69366160167E+03 0.  0.
        3    1    3    3  502    0  0.18915014855E+03 -0.14360134166E+03 -0.42349713906E+02  0.24123149150E+03  0.10100000352E+00 0.  1.
       -3    1    3    3    0  502 -0.18915014855E+03  0.14360134166E+03  0.61165049209E+03  0.65613676829E+03  0.10100000352E+00 0. -1.
</event>
<event>
 5   0  0.7947250E-03  0.7213881E+03  0.7818609E-02  0.9681339E-01
        3   -1    0    0  501    0  0.00000000000E+00  0.00000000000E+00  0.49578332906E+03  0.49578333935E+03  0.10100000352E+00 0.  1.
       -3   -1    0    0    0  501  0.00000000000E+00  0.00000000000E+00 -0.26241338277E+03  0.26241340221E+03  0.10100000352E+00 0. -1.
    10030    2    1    2    0    0  0.00000000000E+00  0.00000000000E+00  0.23336994628E+03  0.75819674156E+03  0.72138808354E+03 0.  0.
        1    1    3    3  502    0 -0.13613489068E+02 -0.22326828567E+03  0.41408252425E+03  0.47063615606E+03  0.50400001928E-02 0.  1.
       -1    1    3    3    0  502  0.13613489068E+02  0.22326828567E+03 -0.18071257797E+03  0.28756058550E+03  0.50400001928E-02 0. -1.
</event>
<event>
 5   0  0.2026361E-02  0.7014650E+03  0.7818609E-02  0.9714730E-01
        2   -1    0    0  501    0  0.00000000000E+00  0.00000000000E+00  0.70008521316E+03  0.70008521317E+03  0.25500000920E-02 0.  1.
       -2   -1    0    0    0  501  0.00000000000E+00  0.00000000000E+00 -0.17571189555E+03  0.17571189557E+03  0.25500000920E-02 0. -1.
    10030    2    1    2    0    0  0.00000000000E+00  0.00000000000E+00  0.52437331761E+03  0.87579710874E+03  0.70146503794E+03 0.  0.
        2    1    3    3  502    0  0.30659293128E+03  0.11700885670E+03  0.10763651861E+03  0.34536345812E+03  0.25500000920E-02 0. -1.
       -2    1    3    3    0  502 -0.30659293128E+03 -0.11700885670E+03  0.41673679900E+03  0.53043365062E+03  0.25500000920E-02 0.  1.
</event>
<event>
 5   0  0.1223742E-02  0.6975971E+03  0.7818609E-02  0.9721350E-01
        1   -1    0    0  501    0  0.00000000000E+00  0.00000000000E+00  0.13861578939E+04  0.13861578939E+04  0.50400001928E-02 0.  1.
       -1   -1    0    0    0  501  0.00000000000E+00  0.00000000000E+00 -0.87768099291E+02  0.87768099435E+02  0.50400001928E-02 0. -1.
    10030    2    1    2    0    0  0.00000000000E+00  0.00000000000E+00  0.12983897946E+04  0.14739259933E+04  0.69759714385E+03 0.  0.
        2    1    3    3  502    0  0.11957082992E+02 -0.33744791875E+03  0.46443881088E+03  0.57421030883E+03  0.25500000920E-02 0. -1.
       -2    1    3    3    0  502 -0.11957082992E+02  0.33744791875E+03  0.83395098372E+03  0.89971568451E+03  0.25500000920E-02 0.  1.
</event>
<event>
 5   0  0.1223742E-02  0.6679457E+03  0.7818609E-02  0.9773676E-01
       -1   -1    0    0    0  501  0.00000000000E+00  0.00000000000E+00  0.93862056277E+02  0.93862056413E+02  0.50400001928E-02 0.  1.
        1   -1    0    0  501    0  0.00000000000E+00  0.00000000000E+00 -0.11883167739E+04  0.11883167739E+04  0.50400001928E-02 0. -1.
    10030    2    1    2    0    0  0.00000000000E+00  0.00000000000E+00 -0.10944547176E+04  0.12821788303E+04  0.66794567444E+03 0.  0.
        2    1    3    3  502    0 -0.31153406487E+03 -0.11372741313E+03 -0.62281267825E+03  0.70560826969E+03  0.25500000920E-02 0. -1.
       -2    1    3    3    0  502  0.31153406487E+03  0.11372741313E+03 -0.47164203937E+03  0.57657056062E+03  0.25500000920E-02 0.  1.
</event>
<event>
 5   0  0.1226303E-02  0.7130749E+03  0.7818609E-02  0.9695130E-01
       -1   -1    0    0    0  501  0.00000000000E+00  0.00000000000E+00  0.78436600602E+03  0.78436600604E+03  0.50400001928E-02 0. -1.
        1   -1    0    0  501    0  0.00000000000E+00  0.00000000000E+00 -0.16206586513E+03  0.16206586520E+03  0.50400001928E-02 0.  1.
    10030    2    1    2    0    0  0.00000000000E+00  0.00000000000E+00  0.62230014090E+03  0.94643187124E+03  0.71307490598E+03 0.  0.
        4    1    3    3  502    0  0.11274563481E+03  0.25678474356E+03  0.60334917774E+03  0.66534338944E+03  0.12699999809E+01 0. -1.
       -4    1    3    3    0  502 -0.11274563481E+03 -0.25678474356E+03  0.18950963156E+02  0.28108848180E+03  0.12699999809E+01 0.  1.
</event>
<event>
 5   0  0.1237686E-02  0.7043618E+03  0.7818609E-02  0.9709802E-01
        1   -1    0    0  501    0  0.00000000000E+00  0.00000000000E+00  0.21953687124E+03  0.21953687130E+03  0.50400001928E-02 0.  1.
       -1   -1    0    0    0  501  0.00000000000E+00  0.00000000000E+00 -0.56496830816E+03  0.56496830818E+03  0.50400001928E-02 0. -1.
    10030    2    1    2    0    0  0.00000000000E+00  0.00000000000E+00 -0.34543143692E+03  0.78450517948E+03  0.70436176715E+03 0.  0.
        5    1    3    3  502    0 -0.31012591126E+03  0.73955842084E+02 -0.61625833996E+01  0.31891631323E+03  0.46999998093E+01 0.  1.
       -5    1    3    3    0  502  0.31012591126E+03 -0.73955842084E+02 -0.33926885352E+03  0.46558886625E+03  0.46999998093E+01 0. -1.
</event>
<event>
 5   0  0.1237686E-02  0.6953459E+03  0.7818609E-02  0.9725225E-01
       -1   -1    0    0    0  501  0.00000000000E+00  0.00000000000E+00  0.23367505040E+03  0.23367505046E+03  0.50400001928E-02 0.  1.
        1   -1    0    0  501    0  0.00000000000E+00  0.00000000000E+00 -0.51728450473E+03  0.51728450476E+03  0.50400001928E-02 0. -1.
    10030    2    1    2    0    0  0.00000000000E+00  0.00000000000E+00 -0.28360945433E+03  0.75095955522E+03  0.69534590743E+03 0.  0.
        5    1    3    3  502    0 -0.12247795217E+03  0.31816593558E+03 -0.68366246261E+02  0.34774479860E+03  0.46999998093E+01 0.  1.
       -5    1    3    3    0  502  0.12247795217E+03 -0.31816593558E+03 -0.21524320807E+03  0.40321475661E+03  0.46999998093E+01 0. -1.
</event>
<event>
 5   0  0.1948138E-02  0.6998689E+03  0.7818609E-02  0.9717456E-01
       -2   -1    0    0    0  501  0.00000000000E+00  0.00000000000E+00  0.21929466456E+03  0.21929466457E+03  0.25500000920E-02 0. -1.
        2   -1    0    0  501    0  0.00000000000E+00  0.00000000000E+00 -0.55839983293E+03  0.55839983293E+03  0.25500000920E-02 0.  1.
    10030    2    1    2    0    0  0.00000000000E+00  0.00000000000E+00 -0.33910516837E+03  0.77769449751E+03  0.69986885646E+03 0.  0.
        3    1    3    3  502    0  0.10490790969E+03 -0.94236657973E+02  0.18632287486E+03  0.23367165237E+03  0.10100000352E+00 0. -1.
       -3    1    3    3    0  502 -0.10490790969E+03  0.94236657973E+02 -0.52542804323E+03  0.54402284514E+03  0.10100000352E+00 0.  1.
</event>
<event>
 5   0  0.1948138E-02  0.7006746E+03  0.7818609E-02  0.9716079E-01
       -2   -1    0    0    0  501  0.00000000000E+00  0.00000000000E+00  0.22613229121E+03  0.22613229122E+03  0.25500000920E-02 0.  1.
        2   -1    0    0  501    0  0.00000000000E+00  0.00000000000E+00 -0.54276288587E+03  0.54276288587E+03  0.25500000920E-02 0. -1.
    10030    2    1    2    0    0  0.00000000000E+00  0.00000000000E+00 -0.31663059466E+03  0.76889517710E+03  0.70067457488E+03 0.  0.
        3    1    3    3  502    0 -0.13835522274E+03 -0.20157690658E+03 -0.43366578818E+03  0.49783676337E+03  0.10100000352E+00 0. -1.
       -3    1    3    3    0  502  0.13835522274E+03  0.20157690658E+03  0.11703519352E+03  0.27105841372E+03  0.10100000352E+00 0.  1.
</event>
<event>
 5   0  0.1237686E-02  0.7426340E+03  0.7818609E-02  0.9646978E-01
        1   -1    0    0  501    0  0.00000000000E+00  0.00000000000E+00  0.58740153709E+03  0.58740153712E+03  0.50400001928E-02 0. -1.
       -1   -1    0    0    0  501  0.00000000000E+00  0.00000000000E+00 -0.23472243581E+03  0.23472243586E+03  0.50400001928E-02 0.  1.
    10030    2    1    2    0    0  0.00000000000E+00  0.00000000000E+00  0.35267910129E+03  0.82212397298E+03  0.74263401381E+03 0.  0.
        5    1    3    3  502    0  0.14260285712E+03  0.31560061585E+03  0.28166322412E+02  0.34749784935E+03  0.46999998093E+01 0.  1.
       -5    1    3    3    0  502 -0.14260285712E+03 -0.31560061585E+03  0.32451277887E+03  0.47462612363E+03  0.46999998093E+01 0. -1.
</event>
<event>
 5   0  0.1909053E-02  0.7014351E+03  0.7818609E-02  0.9714781E-01
        2   -1    0    0  501    0  0.00000000000E+00  0.00000000000E+00  0.76370044591E+03  0.76370044592E+03  0.25500000920E-02 0.  1.
       -2   -1    0    0    0  501  0.00000000000E+00  0.00000000000E+00 -0.16106159682E+03  0.16106159684E+03  0.25500000920E-02 0. -1.
    10030    2    1    2    0    0  0.00000000000E+00  0.00000000000E+00  0.60263884909E+03  0.92476204276E+03  0.70143513834E+03 0.  0.
        1    1    3    3  502    0  0.33330122012E+03 -0.96892333162E+01  0.15798944261E+03  0.36897730090E+03  0.50400001928E-02 0.  1.
       -1    1    3    3    0  502 -0.33330122012E+03  0.96892333162E+01  0.44464940648E+03  0.55578474186E+03  0.50400001928E-02 0. -1.
</event>
<event>
 5   0  0.1223742E-02  0.6947741E+03  0.7818609E-02  0.9726211E-01
       -1   -1    0    0    0  501  0.00000000000E+00  0.00000000000E+00  0.28856208855E+03  0.28856208859E+03  0.50400001928E-02 0. -1.
        1   -1    0    0  501    0  0.00000000000E+00  0.00000000000E+00 -0.41820385465E+03  0.41820385468E+03  0.50400001928E-02 0.  1.
    10030    2    1    2    0    0  0.00000000000E+00  0.00000000000E+00 -0.12964176610E+03  0.70676594327E+03  0.69477414391E+03 0.  0.
        2    1    3    3  502    0  0.61260551721E+02 -0.31721786850E+03  0.65045200972E+02  0.32956169297E+03  0.25500000920E-02 0. -1.
       -2    1    3    3    0  502 -0.61260551721E+02  0.31721786850E+03 -0.19468696707E+03  0.37720425031E+03  0.25500000920E-02 0.  1.
</event>
<event>
 5   0  0.1948138E-02  0.7004393E+03  0.7818609E-02  0.9716481E-01
       -2   -1    0    0    0  501  0.00000000000E+00  0.00000000000E+00  0.36267499731E+03  0.36267499732E+03  0.25500000920E-02 0. -1.
        2   -1    0    0  501    0  0.00000000000E+00  0.00000000000E+00 -0.33819208276E+03  0.33819208277E+03  0.25500000920E-02 0.  1.
    10030    2    1    2    0    0  0.00000000000E+00  0.00000000000E+00  0.24482914546E+02  0.70086708009E+03  0.70043932703E+03 0.  0.
        3    1    3    3  502    0 -0.75041712607E+02 -0.31241013787E+03  0.15169101507E+03  0.35530483690E+03  0.10100000352E+00 0. -1.
       -3    1    3    3    0  502  0.75041712607E+02  0.31241013787E+03 -0.12720810052E+03  0.34556224318E+03  0.10100000352E+00 0.  1.
</event>
<event>
 5   0  0.2006362E-02  0.7125698E+03  0.7818609E-02  0.9695974E-01
       -2   -1    0    0    0  501  0.00000000000E+00  0.00000000000E+00  0.27419389560E+03  0.27419389562E+03  0.25500000920E-02 0. -1.
        2   -1    0    0  501    0  0.00000000000E+00  0.00000000000E+00 -0.46295316358E+03  0.46295316359E+03  0.25500000920E-02 0.  1.
    10030    2    1    2    0    0  0.00000000000E+00  0.00000000000E+00 -0.18875926798E+03  0.73714705920E+03  0.71256980405E+03 0.  0.
        4    1    3    3  502    0 -0.62430677508E+02  0.33303877671E+03 -0.20829068139E+03  0.39774242562E+03  0.12699999809E+01 0.  1.
       -4    1    3    3    0  502  0.62430677508E+02 -0.33303877671E+03  0.19531413413E+02  0.33940463358E+03  0.12699999809E+01 0. -1.
</event>
<event>
 5   0  0.1973067E-02  0.6961173E+03  0.7818609E-02  0.9723895E-01
       -2   -1    0    0    0  501  0.00000000000E+00  0.00000000000E+00  0.76355892407E+03  0.76355892408E+03  0.25500000920E-02 0.  1.
        2   -1    0    0  501    0  0.00000000000E+00  0.00000000000E+00 -0.15865811583E+03  0.15865811586E+03  0.25500000920E-02 0. -1.
    10030    2    1    2    0    0  0.00000000000E+00  0.00000000000E+00  0.60490080824E+03  0.92221703993E+03  0.69611728964E+03 0.  0.
        5    1    3    3  502    0 -0.30009357410E+03 -0.10652659946E+03  0.48848316362E+03  0.58313116942E+03  0.46999998093E+01 0.  1.
       -5    1    3    3    0  502  0.30009357410E+03  0.10652659946E+03  0.11641764462E+03  0.33908587052E+03  0.46999998093E+01 0. -1.
</event>
<event>
 5   0  0.1257442E-02  0.6754828E+03  0.7818609E-02  0.9760104E-01
       -1   -1    0    0    0  501  0.00000000000E+00  0.00000000000E+00  0.20867078482E+03  0.20867078489E+03  0.50400001928E-02 0.  1.
        1   -1    0    0  501    0  0.00000000000E+00  0.00000000000E+00 -0.54664697472E+03  0.54664697474E+03  0.50400001928E-02 0. -1.
    10030    2    1    2    0    0  0.00000000000E+00  0.00000000000E+00 -0.33797618990E+03  0.75531775963E+03  0.67548279998E+03 0.  0.
        1    1    3    3  502    0 -0.10755791118E+03 -0.49396747240E+02 -0.52269762251E+03  0.53593054353E+03  0.50400001928E-02 0. -1.
       -1    1    3    3    0  502  0.10755791118E+03  0.49396747240E+02  0.18472143261E+03  0.21938721609E+03  0.50400001928E-02 0.  1.
</event>
<event>
 5   0  0.7947250E-03  0.7169056E+03  0.7818609E-02  0.9688750E-01
       -3   -1    0    0    0  501  0.00000000000E+00  0.00000000000E+00  0.15173704497E+03  0.15173707859E+03  0.10100000352E+00 0. -1.
        3   -1    0    0  501    0  0.00000000000E+00  0.00000000000E+00 -0.84678319038E+03  0.84678319640E+03  0.10100000352E+00 0.  1.
    10030    2    1    2    0    0  0.00000000000E+00  0.00000000000E+00 -0.69504614540E+03  0.99852027499E+03  0.71690556932E+03 0.  0.
        5    1    3    3  502    0  0.31099321041E+03 -0.11752468672E+03 -0.16098149418E+03  0.36941299432E+03  0.46999998093E+01 0. -1.
       -5    1    3    3    0  502 -0.31099321041E+03  0.11752468672E+03 -0.53406465123E+03  0.62910728067E+03  0.46999998093E+01 0.  1.
</event>
<event>
 5   0  0.1257442E-02  0.6981638E+03  0.7818609E-02  0.9720378E-01
        1   -1    0    0  501    0  0.00000000000E+00  0.00000000000E+00  0.53839028792E+03  0.53839028795E+03  0.50400001928E-02 0.  1.
       -1   -1    0    0    0  501  0.00000000000E+00  0.00000000000E+00 -0.22633797587E+03  0.22633797593E+03  0.50400001928E-02 0. -1.
    10030    2    1    2    0    0  0.00000000000E+00  0.00000000000E+00  0.31205231205E+03  0.76472826388E+03  0.69816378602E+03 0.  0.
        1    1    3    3  502    0  0.16747629734E+03 -0.41382775154E+02  0.48843558080E+03  0.51800594675E+03  0.50400001928E-02 0.  1.
       -1    1    3    3    0  502 -0.16747629734E+03  0.41382775154E+02 -0.17638326875E+03  0.24672231713E+03  0.50400001928E-02 0. -1.
</event>
<event>
 5   0  0.1226303E-02  0.7168657E+03  0.7818609E-02  0.9688817E-01
        1   -1    0    0  501    0  0.00000000000E+00  0.00000000000E+00  0.18941770059E+04  0.18941770059E+04  0.50400001928E-02 0.  1.
       -1   -1    0    0    0  501  0.00000000000E+00  0.00000000000E+00 -0.67825814390E+02  0.67825814578E+02  0.50400001928E-02 0. -1.
    10030    2    1    2    0    0  0.00000000000E+00  0.00000000000E+00  0.18263511915E+04  0.19620028205E+04  0.71686567281E+03 0.  0.
        4    1    3    3  502    0  0.12127566666E+03 -0.26278089695E+03  0.14918956604E+04  0.15197091371E+04  0.12699999809E+01 0.  1.
       -4    1    3    3    0  502 -0.12127566666E+03  0.26278089695E+03  0.33445553112E+03  0.44229368334E+03  0.12699999809E+01 0. -1.
</event>
<event>
 5   0  0.1237686E-02  0.6825674E+03  0.7818609E-02  0.9747518E-01
        1   -1    0    0  501    0  0.00000000000E+00  0.00000000000E+00  0.10143211777E+04  0.10143211777E+04  0.50400001928E-02 0.  1.
       -1   -1    0    0    0  501  0.00000000000E+00  0.00000000000E+00 -0.11483007166E+03  0.11483007177E+03  0.50400001928E-02 0. -1.
    10030    2    1    2    0    0  0.00000000000E+00  0.00000000000E+00  0.89949110601E+03  0.11291512494E+04  0.68256742841E+03 0.  0.
        5    1    3    3  502    0  0.29791513423E+03  0.49628432720E+02  0.71254077467E+03  0.77392044430E+03  0.46999998093E+01 0.  1.
       -5    1    3    3    0  502 -0.29791513423E+03 -0.49628432720E+02  0.18695033134E+03  0.35523080514E+03  0.46999998093E+01 0. -1.
</event>
<event>
 5   0  0.1948138E-02  0.6948168E+03  0.7818609E-02  0.9726137E-01
       -2   -1    0    0    0  501  0.00000000000E+00  0.00000000000E+00  0.37342898720E+03  0.37342898721E+03  0.25500000920E-02 0. -1.
        2   -1    0    0  501    0  0.00000000000E+00  0.00000000000E+00 -0.32320094847E+03  0.32320094848E+03  0.25500000920E-02 0.  1.
    10030    2    1    2    0    0  0.00000000000E+00  0.00000000000E+00  0.50228038733E+02  0.69662993569E+03  0.69481681861E+03 0.  0.
        3    1    3    3  502    0 -0.38679212043E+02  0.13922207604E+03 -0.29164350640E+03  0.32547628628E+03  0.10100000352E+00 0.  1.
       -3    1    3    3    0  502  0.38679212043E+02 -0.13922207604E+03  0.34187154513E+03  0.37115364942E+03  0.10100000352E+00 0. -1.
</event>
<event>
 5   0  0.1223742E-02  0.6826067E+03  0.7818609E-02  0.9747448E-01
       -1   -1    0    0    0  501  0.00000000000E+00  0.00000000000E+00  0.13937647553E+03  0.13937647562E+03  0.50400001928E-02 0.  1.
        1   -1    0    0  501    0  0.00000000000E+00  0.00000000000E+00 -0.83577937840E+03  0.83577937841E+03  0.50400001928E-02 0. -1.
    10030    2    1    2    0    0  0.00000000000E+00  0.00000000000E+00 -0.69640290287E+03  0.97515585403E+03  0.68260672171E+03 0.  0.
        2    1    3    3  502    0  0.71336271809E+02  0.29430885430E+03 -0.12331331027E+03  0.32697513345E+03  0.25500000920E-02 0.  1.
       -2    1    3    3    0  502 -0.71336271809E+02 -0.29430885430E+03 -0.57308959259E+03  0.64818072059E+03  0.25500000920E-02 0. -1.
</event>
<event>
 5   0  0.1226303E-02  0.6875843E+03  0.7818609E-02  0.9738703E-01
       -1   -1    0    0    0  501  0.00000000000E+00  0.00000000000E+00  0.24383841553E+03  0.24383841558E+03  0.50400001928E-02 0. -1.
        1   -1    0    0  501    0  0.00000000000E+00  0.00000000000E+00 -0.48471875738E+03  0.48471875741E+03  0.50400001928E-02 0.  1.
    10030    2    1    2    0    0  0.00000000000E+00  0.00000000000E+00 -0.24088034186E+03  0.72855717299E+03  0.68758433317E+03 0.  0.
        4    1    3    3  502    0  0.72900412463E+02  0.18284064550E+03 -0.41909835446E+03  0.46302291023E+03  0.12699999809E+01 0.  1.
       -4    1    3    3    0  502 -0.72900412463E+02 -0.18284064550E+03  0.17821801260E+03  0.26553426276E+03  0.12699999809E+01 0. -1.
</event>
<event>
 5   0  0.1197259E-02  0.7057794E+03  0.7818609E-02  0.9707399E-01
       -1   -1    0    0    0  501  0.00000000000E+00  0.00000000000E+00  0.16591063630E+03  0.16591063637E+03  0.50400001928E-02 0. -1.
        1   -1    0    0  501    0  0.00000000000E+00  0.00000000000E+00 -0.75059166580E+03  0.75059166581E+03  0.50400001928E-02 0.  1.
    10030    2    1    2    0    0  0.00000000000E+00  0.00000000000E+00 -0.58468102950E+03  0.91650230218E+03  0.70577940155E+03 0.  0.
        3    1    3    3  502    0 -0.13153588044E+03 -0.11300866917E+03 -0.69144358211E+03  0.71285825000E+03  0.10100000352E+00 0.  1.
       -3    1    3    3    0  502  0.13153588044E+03  0.11300866917E+03  0.10676255261E+03  0.20364405219E+03  0.10100000352E+00 0. -1.
</event>
<event>
 5   0  0.1226303E-02  0.7000773E+03  0.7818609E-02  0.9717100E-01
       -1   -1    0    0    0  501  0.00000000000E+00  0.00000000000E+00  0.83548313519E+03  0.83548313520E+03  0.50400001928E-02 0.  1.
        1   -1    0    0  501    0  0.00000000000E+00  0.00000000000E+00 -0.14665414765E+03  0.14665414774E+03  0.50400001928E-02 0. -1.
    10030    2    1    2    0    0  0.00000000000E+00  0.00000000000E+00  0.68882898754E+03  0.98213728294E+03  0.70007733035E+03 0.  0.
        4    1    3    3  502    0 -0.12495727202E+03  0.23383518007E+03  0.23790868214E+02  0.26619697515E+03  0.12699999809E+01 0. -1.
       -4    1    3    3    0  502  0.12495727202E+03 -0.23383518007E+03  0.66503811932E+03  0.71594030779E+03  0.12699999809E+01 0.  1.
</event>
<event>
 5   0  0.2026361E-02  0.6986443E+03  0.7818609E-02  0.9719553E-01
       -2   -1    0    0    0  501  0.00000000000E+00  0.00000000000E+00  0.62052567977E+02  0.62052568029E+02  0.25500000920E-02 0.  1.
        2   -1    0    0  501    0  0.00000000000E+00  0.00000000000E+00 -0.19664935455E+04  0.19664935455E+04  0.25500000920E-02 0. -1.
    10030    2    1    2    0    0  0.00000000000E+00  0.00000000000E+00 -0.19044409775E+04  0.20285461135E+04  0.69864432857E+03 0.  0.
        2    1    3    3  502    0  0.51074652262E+02 -0.32345149433E+03 -0.13054101875E+04  0.13458548388E+04  0.25500000920E-02 0.  1.
       -2    1    3    3    0  502 -0.51074652262E+02  0.32345149433E+03 -0.59903078998E+03  0.68269127476E+03  0.25500000920E-02 0. -1.
</event>
<event>
 5   0  0.1973067E-02  0.6909800E+03  0.7818609E-02  0.9732783E-01
       -2   -1    0    0    0  501  0.00000000000E+00  0.00000000000E+00  0.68312485479E+02  0.68312485526E+02  0.25500000920E-02 0. -1.
        2   -1    0    0  501    0  0.00000000000E+00  0.00000000000E+00 -0.17473136100E+04  0.17473136100E+04  0.25500000920E-02 0.  1.
    10030    2    1    2    0    0  0.00000000000E+00  0.00000000000E+00 -0.16790011245E+04  0.18156260955E+04  0.69097998713E+03 0.  0.
        5    1    3    3  502    0 -0.10246775867E+03  0.27827632922E+03 -0.13051431152E+04  0.13384162276E+04  0.46999998093E+01 0.  1.
       -5    1    3    3    0  502  0.10246775867E+03 -0.27827632922E+03 -0.37385800926E+03  0.47720986793E+03  0.46999998093E+01 0. -1.
</event>
<event>
 5   0  0.1948138E-02  0.7027484E+03  0.7818609E-02  0.9712544E-01
        2   -1    0    0  501    0  0.00000000000E+00  0.00000000000E+00  0.41857411242E+03  0.41857411242E+03  0.25500000920E-02 0.  1.
       -2   -1    0    0    0  501  0.00000000000E+00  0.00000000000E+00 -0.29496288740E+03  0.29496288741E+03  0.25500000920E-02 0. -1.
    10030    2    1    2    0    0  0.00000000000E+00  0.00000000000E+00  0.12361122502E+03  0.71353699984E+03  0.70274840106E+03 0.  0.
        3    1    3    3  502    0 -0.33098137649E+03  0.34189954382E+02  0.17643788301E+03  0.37662708523E+03  0.10100000352E+00 0.  1.
       -3    1    3    3    0  502  0.33098137649E+03 -0.34189954382E+02 -0.52826657993E+02  0.33690991461E+03  0.10100000352E+00 0. -1.
</event>
<event>
 5   0  0.1973067E-02  0.6979639E+03  0.7818609E-02  0.9720721E-01
       -2   -1    0    0    0  501  0.00000000000E+00  0.00000000000E+00  0.64826002571E+02  0.64826002622E+02  0.25500000920E-02 0. -1.
        2   -1    0    0  501    0  0.00000000000E+00  0.00000000000E+00 -0.18786965151E+04  0.18786965151E+04  0.25500000920E-02 0.  1.
    10030    2    1    2    0    0  0.00000000000E+00  0.00000000000E+00 -0.18138705125E+04  0.19435225177E+04  0.69796385342E+03 0.  0.
        5    1    3    3  502    0  0.19205366569E+03 -0.23068047950E+03 -0.14024634186E+04  0.14342328349E+04  0.46999998093E+01 0. -1.
       -5    1    3    3    0  502 -0.19205366569E+03  0.23068047950E+03 -0.41140709396E+03  0.50928968287E+03  0.46999998093E+01 0.  1.
</event>
<event>
 5   0  0.1226303E-02  0.6934411E+03  0.7818609E-02  0.9728515E-01
        1   -1    0    0  501    0  0.00000000000E+00  0.00000000000E+00  0.54905171259E+03  0.54905171261E+03  0.50400001928E-02 0.  1.
       -1   -1    0    0    0  501  0.00000000000E+00  0.00000000000E+00 -0.21895047890E+03  0.21895047896E+03  0.50400001928E-02 0. -1.
    10030    2    1    2    0    0  0.00000000000E+00  0.00000000000E+00  0.33010123369E+03  0.76800219157E+03  0.69344108746E+03 0.  0.
        4    1    3    3  502    0 -0.24078287967E+03  0.10788707028E+03  0.41417569630E+03  0.49107956115E+03  0.12699999809E+01 0.  1.
       -4    1    3    3    0  502  0.24078287967E+03 -0.10788707028E+03 -0.84074462610E+02  0.27692263042E+03  0.12699999809E+01 0. -1.
</event>
<event>
 5   0  0.1197259E-02  0.7057121E+03  0.7818609E-02  0.9707513E-01
        1   -1    0    0  501    0  0.00000000000E+00  0.00000000000E+00  0.20773129666E+03  0.20773129672E+03  0.50400001928E-02 0.  1.
       -1   -1    0    0    0  501  0.00000000000E+00  0.00000000000E+00 -0.59936757551E+03  0.59936757553E+03  0.50400001928E-02 0. -1.
    10030    2    1    2    0    0  0.00000000000E+00  0.00000000000E+00 -0.39163627884E+03  0.80709887225E+03  0.70571213301E+03 0.  0.
        3    1    3    3  502    0 -0.20026867083E+03  0.43582168209E+02 -0.52431203893E+03  0.56294766210E+03  0.10100000352E+00 0. -1.
       -3    1    3    3    0  502  0.20026867083E+03 -0.43582168209E+02  0.13267576008E+03  0.24415121015E+03  0.10100000352E+00 0.  1.
</event>
<event>
 5   0  0.1197259E-02  0.6987425E+03  0.7818609E-02  0.9719385E-01
        1   -1    0    0  501    0  0.00000000000E+00  0.00000000000E+00  0.66803591697E+03  0.66803591699E+03  0.50400001928E-02 0.  1.
       -1   -1    0    0    0  501  0.00000000000E+00  0.00000000000E+00 -0.18271513149E+03  0.18271513156E+03  0.50400001928E-02 0. -1.
    10030    2    1    2    0    0  0.00000000000E+00  0.00000000000E+00  0.48532078547E+03  0.85075104855E+03  0.69874250035E+03 0.  0.
        3    1    3    3  502    0 -0.33784348109E+03  0.40731234982E+02  0.14630481665E+03  0.37040837031E+03  0.10100000352E+00 0. -1.
       -3    1    3    3    0  502  0.33784348109E+03 -0.40731234982E+02  0.33901596883E+03  0.48034267824E+03  0.10100000352E+00 0.  1.
</event>
<event>
 5   0  0.1237686E-02  0.6959742E+03  0.7818609E-02  0.9724142E-01
        1   -1    0    0  501    0  0.00000000000E+00  0.00000000000E+00  0.12521502436E+04  0.12521502436E+04  0.50400001928E-02 0.  1.
       -1   -1    0    0    0  501  0.00000000000E+00  0.00000000000E+00 -0.96709646839E+02  0.96709646970E+02  0.50400001928E-02 0. -1.
    10030    2    1    2    0    0  0.00000000000E+00  0.00000000000E+00  0.11554405968E+04  0.13488598906E+04  0.69597416029E+03 0.  0.
        5    1    3    3  502    0 -0.21107843393E+03 -0.27646145342E+03  0.59588852164E+03  0.68999294251E+03  0.46999998093E+01 0. -1.
       -5    1    3    3    0  502  0.21107843393E+03  0.27646145342E+03  0.55955207515E+03  0.65886694810E+03  0.46999998093E+01 0.  1.
</event>
<event>
 5   0  0.2026361E-02  0.6989191E+03  0.7818609E-02  0.9719082E-01
        2   -1    0    0  501    0  0.00000000000E+00  0.00000000000E+00  0.98132768880E+03  0.98132768880E+03  0.25500000920E-02 0. -1.
       -2   -1    0    0    0  501  0.00000000000E+00  0.00000000000E+00 -0.12444566873E+03  0.12444566876E+03  0.25500000920E-02 0.  1.
    10030    2    1    2    0    0  0.00000000000E+00  0.00000000000E+00  0.85688202007E+03  0.11057733576E+04  0.69891910974E+03 0.  0.
        2    1    3    3  502    0 -0.11470462741E+03  0.18402592445E+03  0.86200890590E+03  0.88886559517E+03  0.25500000920E-02 0. -1.
       -2    1    3    3    0  502  0.11470462741E+03 -0.18402592445E+03 -0.51268858349E+01  0.21690776238E+03  0.25500000920E-02 0.  1.
</event>
<event>
 5   0  0.1948138E-02  0.7094556E+03  0.7818609E-02  0.9701197E-01
        2   -1    0    0  501    0  0.00000000000E+00  0.00000000000E+00  0.25470178822E+03  0.25470178823E+03  0.25500000920E-02 0.  1.
       -2   -1    0    0    0  501  0.00000000000E+00  0.00000000000E+00 -0.49403583164E+03  0.49403583164E+03  0.25500000920E-02 0. -1.
    10030    2    1    2    0    0  0.00000000000E+00  0.00000000000E+00 -0.23933404342E+03  0.74873761987E+03  0.70945559345E+03 0.  0.
        3    1    3    3  502    0  0.13850979341E+03  0.92598987360E+02 -0.45017164462E+03  0.48001464056E+03  0.10100000352E+00 0. -1.
       -3    1    3    3    0  502 -0.13850979341E+03 -0.92598987360E+02  0.21083760120E+03  0.26872297931E+03  0.10100000352E+00 0.  1.
</event>
<event>
 5   0  0.1948138E-02  0.7132892E+03  0.7818609E-02  0.9694772E-01
        2   -1    0    0  501    0  0.00000000000E+00  0.00000000000E+00  0.88717083971E+02  0.88717084007E+02  0.25500000920E-02 0.  1.
       -2   -1    0    0    0  501  0.00000000000E+00  0.00000000000E+00 -0.14337191103E+04  0.14337191103E+04  0.25500000920E-02 0. -1.
    10030    2    1    2    0    0  0.00000000000E+00  0.00000000000E+00 -0.13450020264E+04  0.15224361943E+04  0.71328922249E+03 0.  0.
        3    1    3    3  502    0  0.81996934110E+02  0.24693750315E+03 -0.11931069028E+04  0.12211493436E+04  0.10100000352E+00 0. -1.
       -3    1    3    3    0  502 -0.81996934110E+02 -0.24693750315E+03 -0.15189512355E+03  0.30128685073E+03  0.10100000352E+00 0.  1.
</event>
<event>
 5   0  0.1223742E-02  0.7000350E+03  0.7818609E-02  0.9717172E-01
        1   -1    0    0  501    0  0.00000000000E+00  0.00000000000E+00  0.16941584787E+03  0.16941584795E+03  0.50400001928E-02 0. -1.
       -1   -1    0    0    0  501  0.00000000000E+00  0.00000000000E+00 -0.72314523899E+03  0.72314523900E+03  0.50400001928E-02 0.  1.
    10030    2    1    2    0    0  0.00000000000E+00  0.00000000000E+00 -0.55372939111E+03  0.89256108695E+03  0.70003503867E+03 0.  0.
        2    1    3    3  502    0 -0.26214361148E+03 -0.48046419254E+02  0.12440715823E+02  0.26680049261E+03  0.25500000920E-02 0. -1.
       -2    1    3    3    0  502  0.26214361148E+03  0.48046419254E+02 -0.56617010693E+03  0.62576059434E+03  0.25500000920E-02 0.  1.
</event>
<event>
 5   0  0.2006362E-02  0.6928957E+03  0.7818609E-02  0.9729459E-01
        2   -1    0    0  501    0  0.00000000000E+00  0.00000000000E+00  0.10165671109E+04  0.10165671109E+04  0.25500000920E-02 0. -1.
       -2   -1    0    0    0  501  0.00000000000E+00  0.00000000000E+00 -0.11807003026E+03  0.11807003028E+03  0.25500000920E-02 0.  1.
    10030    2    1    2    0    0  0.00000000000E+00  0.00000000000E+00  0.89849708060E+03  0.11346371411E+04  0.69289569072E+03 0.  0.
        4    1    3    3  502    0  0.31595408354E+03 -0.47455608949E+02  0.22988388104E+03  0.39360796409E+03  0.12699999809E+01 0.  1.
       -4    1    3    3    0  502 -0.31595408354E+03  0.47455608949E+02  0.66861319956E+03  0.74102917706E+03  0.12699999809E+01 0. -1.
</event>
<event>
 5   0  0.1948138E-02  0.6921363E+03  0.7818609E-02  0.9730776E-01
       -2   -1    0    0    0  501  0.00000000000E+00  0.00000000000E+00  0.15748230882E+03  0.15748230884E+03  0.25500000920E-02 0. -1.
        2   -1    0    0  501    0  0.00000000000E+00  0.00000000000E+00 -0.76048639337E+03  0.76048639337E+03  0.25500000920E-02 0.  1.
    10030    2    1    2    0    0  0.00000000000E+00  0.00000000000E+00 -0.60300408455E+03  0.91796870221E+03  0.69213626712E+03 0.  0.
        3    1    3    3  502    0 -0.72733302303E+02 -0.17831491594E+03  0.79851775396E+02  0.20847699812E+03  0.10100000352E+00 0. -1.
       -3    1    3    3    0  502  0.72733302303E+02  0.17831491594E+03 -0.68285585994E+03  0.70949170409E+03  0.10100000352E+00 0.  1.
</event>
<event>
 5   0  0.1948138E-02  0.6943986E+03  0.7818609E-02  0.9726860E-01
       -2   -1    0    0    0  501  0.00000000000E+00  0.00000000000E+00  0.23972271892E+03  0.23972271893E+03  0.25500000920E-02 0.  1.
        2   -1    0    0  501    0  0.00000000000E+00  0.00000000000E+00 -0.50286154971E+03  0.50286154972E+03  0.25500000920E-02 0. -1.
    10030    2    1    2    0    0  0.00000000000E+00  0.00000000000E+00 -0.26313883080E+03  0.74258426865E+03  0.69439855398E+03 0.  0.
        3    1    3    3  502    0  0.21888156275E+03 -0.43214070149E+02  0.15291847504E+03  0.27048228145E+03  0.10100000352E+00 0.  1.
       -3    1    3    3    0  502 -0.21888156275E+03  0.43214070149E+02 -0.41605730584E+03  0.47210198720E+03  0.10100000352E+00 0. -1.
</event>
<event>
 5   0  0.7947250E-03  0.6997568E+03  0.7818609E-02  0.9717648E-01
        3   -1    0    0  501    0  0.00000000000E+00  0.00000000000E+00  0.77449719036E+03  0.77449719695E+03  0.10100000352E+00 0.  1.
       -3   -1    0    0    0  501  0.00000000000E+00  0.00000000000E+00 -0.15805723638E+03  0.15805726865E+03  0.10100000352E+00 0. -1.
    10030    2    1    2    0    0  0.00000000000E+00  0.00000000000E+00  0.61643995399E+03  0.93255446560E+03  0.69975682521E+03 0.  0.
        1    1    3    3  502    0 -0.20776113604E+03  0.28098240616E+03  0.33126813684E+03  0.48151259665E+03  0.50400001928E-02 0. -1.
       -1    1    3    3    0  502  0.20776113604E+03 -0.28098240616E+03  0.28517181714E+03  0.45104186894E+03  0.50400001928E-02 0.  1.
</event>
<event>
 5   0  0.1948138E-02  0.7051385E+03  0.7818609E-02  0.9708485E-01
        2   -1    0    0  501    0  0.00000000000E+00  0.00000000000E+00  0.17270884222E+04  0.17270884222E+04  0.25500000920E-02 0.  1.
       -2   -1    0    0    0  501  0.00000000000E+00  0.00000000000E+00 -0.71973768133E+02  0.71973768178E+02  0.25500000920E-02 0. -1.
    10030    2    1    2    0    0  0.00000000000E+00  0.00000000000E+00  0.16551146540E+04  0.17990621903E+04  0.70513845927E+03 0.  0.
        3    1    3    3  502    0 -0.18075893214E+03  0.22856252026E+03  0.32118827085E+03  0.43367791360E+03  0.10100000352E+00 0.  1.
       -3    1    3    3    0  502  0.18075893214E+03 -0.22856252026E+03  0.13339263832E+04  0.13653842767E+04  0.10100000352E+00 0. -1.
</event>
<event>
 5   0  0.1973067E-02  0.7095663E+03  0.7818609E-02  0.9701011E-01
       -2   -1    0    0    0  501  0.00000000000E+00  0.00000000000E+00  0.29703138513E+03  0.29703138514E+03  0.25500000920E-02 0.  1.
        2   -1    0    0  501    0  0.00000000000E+00  0.00000000000E+00 -0.42376352456E+03  0.42376352456E+03  0.25500000920E-02 0. -1.
    10030    2    1    2    0    0  0.00000000000E+00  0.00000000000E+00 -0.12673213943E+03  0.72079490970E+03  0.70956625250E+03 0.  0.
        5    1    3    3  502    0  0.23790164992E+03  0.25437517489E+03 -0.13184992312E+03  0.37243847393E+03  0.46999998093E+01 0. -1.
       -5    1    3    3    0  502 -0.23790164992E+03 -0.25437517489E+03  0.51177836912E+01  0.34835643577E+03  0.46999998093E+01 0.  1.
</event>
<event>
 5   0  0.1197259E-02  0.7007019E+03  0.7818609E-02  0.9716033E-01
        1   -1    0    0  501    0  0.00000000000E+00  0.00000000000E+00  0.12601467087E+04  0.12601467087E+04  0.50400001928E-02 0. -1.
       -1   -1    0    0    0  501  0.00000000000E+00  0.00000000000E+00 -0.97405951248E+02  0.97405951379E+02  0.50400001928E-02 0.  1.
    10030    2    1    2    0    0  0.00000000000E+00  0.00000000000E+00  0.11627407575E+04  0.13575526601E+04  0.70070190230E+03 0.  0.
        3    1    3    3  502    0 -0.23454940997E+03 -0.20665378599E+03  0.27487493848E+03  0.41626368444E+03  0.10100000352E+00 0.  1.
       -3    1    3    3    0  502  0.23454940997E+03  0.20665378599E+03  0.88786581901E+03  0.94128897568E+03  0.10100000352E+00 0. -1.
</event>
<event>
 5   0  0.7947250E-03  0.6992017E+03  0.7818609E-02  0.9718598E-01
        3   -1    0    0  501    0  0.00000000000E+00  0.00000000000E+00  0.38275477345E+03  0.38275478677E+03  0.10100000352E+00 0.  1.
       -3   -1    0    0    0  501  0.00000000000E+00  0.00000000000E+00 -0.31931870964E+03  0.31931872561E+03  0.10100000352E+00 0. -1.
    10030    2    1    2    0    0  0.00000000000E+00  0.00000000000E+00  0.63436063808E+02  0.70207351238E+03  0.69920174671E+03 0.  0.
        4    1    3    3  502    0  0.45476164446E+02 -0.34192231754E+03 -0.25438560226E+02  0.34587235508E+03  0.12699999809E+01 0. -1.
       -4    1    3    3    0  502 -0.45476164446E+02  0.34192231754E+03  0.88874624034E+02  0.35620115730E+03  0.12699999809E+01 0.  1.
</event>
<event>
 5   0  0.1223742E-02  0.7027489E+03  0.7818609E-02  0.9712543E-01
        1   -1    0    0  501    0  0.00000000000E+00  0.00000000000E+00  0.68279740787E+03  0.68279740789E+03  0.50400001928E-02 0.  1.
       -1   -1    0    0    0  501  0.00000000000E+00  0.00000000000E+00 -0.18082085923E+03  0.18082085930E+03  0.50400001928E-02 0. -1.
    10030    2    1    2    0    0  0.00000000000E+00  0.00000000000E+00  0.50197654865E+03  0.86361826719E+03  0.70274892816E+03 0.  0.
        2    1    3    3  502    0  0.20342447462E+03 -0.28641330583E+03  0.24230589429E+03  0.42676251598E+03  0.25500000920E-02 0.  1.
       -2    1    3    3    0  502 -0.20342447462E+03  0.28641330583E+03  0.25967065435E+03  0.43685575121E+03  0.25500000920E-02 0. -1.
</event>
<event>
 5   0  0.1226303E-02  0.6994602E+03  0.7818609E-02  0.9718156E-01
       -1   -1    0    0    0  501  0.00000000000E+00  0.00000000000E+00  0.82664481426E+02  0.82664481580E+02  0.50400001928E-02 0. -1.
        1   -1    0    0  501    0  0.00000000000E+00  0.00000000000E+00 -0.14796092594E+04  0.14796092594E+04  0.50400001928E-02 0.  1.
    10030    2    1    2    0    0  0.00000000000E+00  0.00000000000E+00 -0.13969447780E+04  0.15622737410E+04  0.69946016975E+03 0.  0.
        4    1    3    3  502    0 -0.33511788008E+03  0.93220353145E+02 -0.61746247342E+03  0.70869989895E+03  0.12699999809E+01 0. -1.
       -4    1    3    3    0  502  0.33511788008E+03 -0.93220353145E+02 -0.77948230453E+03  0.85357384201E+03  0.12699999809E+01 0.  1.
</event>
<event>
 5   0  0.1948138E-02  0.7006376E+03  0.7818609E-02  0.9716142E-01
       -2   -1    0    0    0  501  0.00000000000E+00  0.00000000000E+00  0.11127902339E+03  0.11127902342E+03  0.25500000920E-02 0. -1.
        2   -1    0    0  501    0  0.00000000000E+00  0.00000000000E+00 -0.11028426767E+04  0.11028426767E+04  0.25500000920E-02 0.  1.
    10030    2    1    2    0    0  0.00000000000E+00  0.00000000000E+00 -0.99156365334E+03  0.12141217002E+04  0.70063758403E+03 0.  0.
        3    1    3    3  502    0 -0.34163360898E+03 -0.35310955191E+02 -0.61537397735E+03  0.70473081992E+03  0.10100000352E+00 0.  1.
       -3    1    3    3    0  502  0.34163360898E+03  0.35310955191E+02 -0.37618967599E+03  0.50939088024E+03  0.10100000352E+00 0. -1.
</event>
<event>
 5   0  0.1948138E-02  0.7050982E+03  0.7818609E-02  0.9708553E-01
        2   -1    0    0  501    0  0.00000000000E+00  0.00000000000E+00  0.26790020565E+04  0.26790020565E+04  0.25500000920E-02 0.  1.
       -2   -1    0    0    0  501  0.00000000000E+00  0.00000000000E+00 -0.46394464485E+02  0.46394464555E+02  0.25500000920E-02 0. -1.
    10030    2    1    2    0    0  0.00000000000E+00  0.00000000000E+00  0.26326075920E+04  0.27253965210E+04  0.70509819418E+03 0.  0.
        3    1    3    3  502    0 -0.11998685597E+03 -0.21353674037E+03  0.33619945945E+03  0.41596258465E+03  0.10100000352E+00 0. -1.
       -3    1    3    3    0  502  0.11998685597E+03  0.21353674037E+03  0.22964081325E+04  0.23094339364E+04  0.10100000352E+00 0.  1.
</event>
<event>
 5   0  0.1909053E-02  0.6946471E+03  0.7818609E-02  0.9726430E-01
       -2   -1    0    0    0  501  0.00000000000E+00  0.00000000000E+00  0.17982061734E+03  0.17982061736E+03  0.25500000920E-02 0. -1.
        2   -1    0    0  501    0  0.00000000000E+00  0.00000000000E+00 -0.67085544415E+03  0.67085544416E+03  0.25500000920E-02 0.  1.
    10030    2    1    2    0    0  0.00000000000E+00  0.00000000000E+00 -0.49103482681E+03  0.85067606152E+03  0.69464707622E+03 0.  0.
        1    1    3    3  502    0  0.26145209522E+03  0.66485901681E+02  0.22379987957E+02  0.27069990230E+03  0.50400001928E-02 0. -1.
       -1    1    3    3    0  502 -0.26145209522E+03 -0.66485901681E+02 -0.51341481476E+03  0.57997615922E+03  0.50400001928E-02 0.  1.
</event>
<event>
 5   0  0.1257442E-02  0.6981096E+03  0.7818609E-02  0.9720470E-01
       -1   -1    0    0    0  501  0.00000000000E+00  0.00000000000E+00  0.32266543802E+03  0.32266543806E+03  0.50400001928E-02 0. -1.
        1   -1    0    0  501    0  0.00000000000E+00  0.00000000000E+00 -0.37760246330E+03  0.37760246333E+03  0.50400001928E-02 0.  1.
    10030    2    1    2    0    0  0.00000000000E+00  0.00000000000E+00 -0.54937025282E+02  0.70026790139E+03  0.69810963105E+03 0.  0.
        1    1    3    3  502    0 -0.20466078946E+03  0.35384923207E+02  0.25393601563E+03  0.32805736022E+03  0.50400001928E-02 0. -1.
       -1    1    3    3    0  502  0.20466078946E+03 -0.35384923207E+02 -0.30887304092E+03  0.37221054117E+03  0.50400001928E-02 0.  1.
</event>
<event>
 5   0  0.2026361E-02  0.6964781E+03  0.7818609E-02  0.9723274E-01
        2   -1    0    0  501    0  0.00000000000E+00  0.00000000000E+00  0.72492243210E+03  0.72492243210E+03  0.25500000920E-02 0.  1.
       -2   -1    0    0    0  501  0.00000000000E+00  0.00000000000E+00 -0.16728744637E+03  0.16728744639E+03  0.25500000920E-02 0. -1.
    10030    2    1    2    0    0  0.00000000000E+00  0.00000000000E+00  0.55763498573E+03  0.89220987849E+03  0.69647806137E+03 0.  0.
        2    1    3    3  502    0 -0.12059193459E+03 -0.24154048733E+03  0.56060410008E+03  0.62222277260E+03  0.25500000920E-02 0.  1.
       -2    1    3    3    0  502  0.12059193459E+03  0.24154048733E+03 -0.29691143500E+01  0.26998710590E+03  0.25500000920E-02 0. -1.
</event>
<event>
 5   0  0.1948138E-02  0.6961575E+03  0.7818609E-02  0.9723826E-01
       -2   -1    0    0    0  501  0.00000000000E+00  0.00000000000E+00  0.15144298612E+03  0.15144298614E+03  0.25500000920E-02 0.  1.
        2   -1    0    0  501    0  0.00000000000E+00  0.00000000000E+00 -0.80002922857E+03  0.80002922857E+03  0.25500000920E-02 0. -1.
    10030    2    1    2    0    0  0.00000000000E+00  0.00000000000E+00 -0.64858624245E+03  0.95147221471E+03  0.69615749761E+03 0.  0.
        3    1    3    3  502    0  0.17668092936E+03 -0.14538848805E+03  0.34214263717E+02  0.23135381842E+03  0.10100000352E+00 0.  1.
       -3    1    3    3    0  502 -0.17668092936E+03  0.14538848805E+03 -0.68280050616E+03  0.72011839629E+03  0.10100000352E+00 0. -1.
</event>
<event>
 5   0  0.1257442E-02  0.7551106E+03  0.7818609E-02  0.9627367E-01
        1   -1    0    0  501    0  0.00000000000E+00  0.00000000000E+00  0.32754651448E+03  0.32754651451E+03  0.50400001928E-02 0.  1.
       -1   -1    0    0    0  501  0.00000000000E+00  0.00000000000E+00 -0.43519927693E+03  0.43519927696E+03  0.50400001928E-02 0. -1.
    10030    2    1    2    0    0  0.00000000000E+00  0.00000000000E+00 -0.10765276245E+03  0.76274579147E+03  0.75511060457E+03 0.  0.
        1    1    3    3  502    0  0.27275355549E+03 -0.21263949928E+03  0.99157800714E+02  0.35978094468E+03  0.50400001928E-02 0.  1.
       -1    1    3    3    0  502 -0.27275355549E+03  0.21263949928E+03 -0.20681056316E+03  0.40296484679E+03  0.50400001928E-02 0. -1.
</event>
<event>
 5   0  0.2006362E-02  0.7023500E+03  0.7818609E-02  0.9713222E-01
       -2   -1    0    0    0  501  0.00000000000E+00  0.00000000000E+00  0.45195222518E+03  0.45195222519E+03  0.25500000920E-02 0.  1.
        2   -1    0    0  501    0  0.00000000000E+00  0.00000000000E+00 -0.27286925853E+03  0.27286925854E+03  0.25500000920E-02 0. -1.
    10030    2    1    2    0    0  0.00000000000E+00  0.00000000000E+00  0.17908296665E+03  0.72482148374E+03  0.70234996571E+03 0.  0.
        4    1    3    3  502    0 -0.86474201827E+02 -0.20279339215E+03 -0.19255255819E+03  0.29271325226E+03  0.12699999809E+01 0. -1.
       -4    1    3    3    0  502  0.86474201827E+02  0.20279339215E+03  0.37163552484E+03  0.43210823147E+03  0.12699999809E+01 0.  1.
</event>
<event>
 5   0  0.1237686E-02  0.7062632E+03  0.7818609E-02  0.9706581E-01
       -1   -1    0    0    0  501  0.00000000000E+00  0.00000000000E+00  0.64408613992E+02  0.64408614189E+02  0.50400001928E-02 0. -1.
        1   -1    0    0  501    0  0.00000000000E+00  0.00000000000E+00 -0.19361061840E+04  0.19361061840E+04  0.50400001928E-02 0.  1.
    10030    2    1    2    0    0  0.00000000000E+00  0.00000000000E+00 -0.18716975700E+04  0.20005147982E+04  0.70626316924E+03 0.  0.
        5    1    3    3  502    0 -0.12083213333E+03 -0.15769388947E+03 -0.17626968962E+04  0.17738630739E+04  0.46999998093E+01 0.  1.
       -5    1    3    3    0  502  0.12083213333E+03  0.15769388947E+03 -0.10900067383E+03  0.22665172427E+03  0.46999998093E+01 0. -1.
</event>
<event>
 5   0  0.1973067E-02  0.7129713E+03  0.7818609E-02  0.9695303E-01
        2   -1    0    0  501    0  0.00000000000E+00  0.00000000000E+00  0.34955844416E+03  0.34955844417E+03  0.25500000920E-02 0.  1.
       -2   -1    0    0    0  501  0.00000000000E+00  0.00000000000E+00 -0.36355014216E+03  0.36355014217E+03  0.25500000920E-02 0. -1.
    10030    2    1    2    0    0  0.00000000000E+00  0.00000000000E+00 -0.13991697993E+02  0.71310858634E+03  0.71297130959E+03 0.  0.
        5    1    3    3  502    0 -0.82694745337E+02  0.34071343307E+03  0.57327245652E+02  0.35529222827E+03  0.46999998093E+01 0. -1.
       -5    1    3    3    0  502  0.82694745337E+02 -0.34071343307E+03 -0.71318943644E+02  0.35781635807E+03  0.46999998093E+01 0.  1.
</event>
<event>
 5   0  0.2006362E-02  0.7204329E+03  0.7818609E-02  0.9682913E-01
        2   -1    0    0  501    0  0.00000000000E+00  0.00000000000E+00  0.12280337937E+04  0.12280337937E+04  0.25500000920E-02 0.  1.
       -2   -1    0    0    0  501  0.00000000000E+00  0.00000000000E+00 -0.10566150765E+03  0.10566150768E+03  0.25500000920E-02 0. -1.
    10030    2    1    2    0    0  0.00000000000E+00  0.00000000000E+00  0.11223722861E+04  0.13336953014E+04  0.72043293127E+03 0.  0.
        4    1    3    3  502    0  0.76094903997E+02  0.24527482238E+03  0.93572241356E+02  0.27332681932E+03  0.12699999809E+01 0. -1.
       -4    1    3    3    0  502 -0.76094903997E+02 -0.24527482238E+03  0.10288000447E+04  0.10603684821E+04  0.12699999809E+01 0.  1.
</event>
<event>
 5   0  0.1948138E-02  0.7015724E+03  0.7818609E-02  0.9714547E-01
       -2   -1    0    0    0  501  0.00000000000E+00  0.00000000000E+00  0.49828178380E+03  0.49828178380E+03  0.25500000920E-02 0.  1.
        2   -1    0    0  501    0  0.00000000000E+00  0.00000000000E+00 -0.24695055204E+03  0.24695055206E+03  0.25500000920E-02 0. -1.
    10030    2    1    2    0    0  0.00000000000E+00  0.00000000000E+00  0.25133123175E+03  0.74523233586E+03  0.70157240992E+03 0.  0.
        3    1    3    3  502    0 -0.29437744775E+02 -0.25450232940E+03  0.38018687516E+03  0.45845401812E+03  0.10100000352E+00 0.  1.
       -3    1    3    3    0  502  0.29437744775E+02  0.25450232940E+03 -0.12885564341E+03  0.28677831774E+03  0.10100000352E+00 0. -1.
</event>
<event>
 5   0  0.1948138E-02  0.7047716E+03  0.7818609E-02  0.9709107E-01
        2   -1    0    0  501    0  0.00000000000E+00  0.00000000000E+00  0.71545041058E+03  0.71545041059E+03  0.25500000920E-02 0. -1.
       -2   -1    0    0    0  501  0.00000000000E+00  0.00000000000E+00 -0.17356303757E+03  0.17356303759E+03  0.25500000920E-02 0.  1.
    10030    2    1    2    0    0  0.00000000000E+00  0.00000000000E+00  0.54188737301E+03  0.88901344818E+03  0.70477158428E+03 0.  0.
        3    1    3    3  502    0  0.71413144549E+02 -0.20230385869E+03 -0.81688370664E+02  0.22956412734E+03  0.10100000352E+00 0.  1.
       -3    1    3    3    0  502 -0.71413144549E+02  0.20230385869E+03  0.62357574368E+03  0.65944932084E+03  0.10100000352E+00 0. -1.
</event>
<event>
 5   0  0.2006362E-02  0.7037137E+03  0.7818609E-02  0.9710902E-01
        2   -1    0    0  501    0  0.00000000000E+00  0.00000000000E+00  0.18480264711E+04  0.18480264711E+04  0.25500000920E-02 0. -1.
       -2   -1    0    0    0  501  0.00000000000E+00  0.00000000000E+00 -0.66992128255E+02  0.66992128304E+02  0.25500000920E-02 0.  1.
    10030    2    1    2    0    0  0.00000000000E+00  0.00000000000E+00  0.17810343428E+04  0.19150185994E+04  0.70371365318E+03 0.  0.
        4    1    3    3  502    0 -0.18072201666E+03  0.28827370873E+02  0.17083137672E+04  0.17180887651E+04  0.12699999809E+01 0. -1.
       -4    1    3    3    0  502  0.18072201666E+03 -0.28827370873E+02  0.72720575623E+02  0.19692983430E+03  0.12699999809E+01 0.  1.
</event>
<event>
 5   0  0.1948138E-02  0.7005899E+03  0.7818609E-02  0.9716224E-01
        2   -1    0    0  501    0  0.00000000000E+00  0.00000000000E+00  0.44089247188E+03  0.44089247188E+03  0.25500000920E-02 0.  1.
       -2   -1    0    0    0  501  0.00000000000E+00  0.00000000000E+00 -0.27831397470E+03  0.27831397471E+03  0.25500000920E-02 0. -1.
    10030    2    1    2    0    0  0.00000000000E+00  0.00000000000E+00  0.16257849718E+03  0.71920644660E+03  0.70058985511E+03 0.  0.
        3    1    3    3  502    0  0.73952285255E+02 -0.13848441594E+03 -0.24017664413E+03  0.28693501797E+03  0.10100000352E+00 0. -1.
       -3    1    3    3    0  502 -0.73952285255E+02  0.13848441594E+03  0.40275514131E+03  0.43227142862E+03  0.10100000352E+00 0.  1.
</event>
<event>
 5   0  0.7947250E-03  0.7006354E+03  0.7818609E-02  0.9716146E-01
        3   -1    0    0  501    0  0.00000000000E+00  0.00000000000E+00  0.27898656258E+03  0.27898658086E+03  0.10100000352E+00 0. -1.
       -3   -1    0    0    0  501  0.00000000000E+00  0.00000000000E+00 -0.43988675515E+03  0.43988676675E+03  0.10100000352E+00 0.  1.
    10030    2    1    2    0    0  0.00000000000E+00  0.00000000000E+00 -0.16090019257E+03  0.71887334761E+03  0.70063543868E+03 0.  0.
        1    1    3    3  502    0  0.10064391379E+03  0.15027351794E+03  0.22737817392E+03  0.29053771111E+03  0.50400001928E-02 0. -1.
       -1    1    3    3    0  502 -0.10064391379E+03 -0.15027351794E+03 -0.38827836650E+03  0.42833563649E+03  0.50400001928E-02 0.  1.
</event>
<event>
 5   0  0.1237686E-02  0.7222221E+03  0.7818609E-02  0.9679966E-01
        1   -1    0    0  501    0  0.00000000000E+00  0.00000000000E+00  0.20967063027E+03  0.20967063034E+03  0.50400001928E-02 0.  1.
       -1   -1    0    0    0  501  0.00000000000E+00  0.00000000000E+00 -0.62193347690E+03  0.62193347692E+03  0.50400001928E-02 0. -1.
    10030    2    1    2    0    0  0.00000000000E+00  0.00000000000E+00 -0.41226284663E+03  0.83160410726E+03  0.72222208253E+03 0.  0.
        5    1    3    3  502    0  0.20525862755E+03 -0.12015290653E+03 -0.51896056162E+03  0.57088525962E+03  0.46999998093E+01 0. -1.
       -5    1    3    3    0  502 -0.20525862755E+03  0.12015290653E+03  0.10669771499E+03  0.26071884764E+03  0.46999998093E+01 0.  1.
</event>
<event>
 5   0  0.1909053E-02  0.7002262E+03  0.7818609E-02  0.9716845E-01
       -2   -1    0    0    0  501  0.00000000000E+00  0.00000000000E+00  0.20394139041E+03  0.20394139042E+03  0.25500000920E-02 0.  1.
        2   -1    0    0  501    0  0.00000000000E+00  0.00000000000E+00 -0.60105105057E+03  0.60105105058E+03  0.25500000920E-02 0. -1.
    10030    2    1    2    0    0  0.00000000000E+00  0.00000000000E+00 -0.39710966016E+03  0.80499244100E+03  0.70022621192E+03 0.  0.
        1    1    3    3  502    0 -0.22216543435E+03 -0.41772031173E+02  0.10879714016E+03  0.25087686330E+03  0.50400001928E-02 0.  1.
       -1    1    3    3    0  502  0.22216543435E+03  0.41772031173E+02 -0.50590680032E+03  0.55411557769E+03  0.50400001928E-02 0. -1.
</event>
<event>
 5   0  0.1257442E-02  0.7088285E+03  0.7818609E-02  0.9702252E-01
       -1   -1    0    0    0  501  0.00000000000E+00  0.00000000000E+00  0.66456217182E+02  0.66456217373E+02  0.50400001928E-02 0. -1.
        1   -1    0    0  501    0  0.00000000000E+00  0.00000000000E+00 -0.18901086177E+04  0.18901086177E+04  0.50400001928E-02 0.  1.
    10030    2    1    2    0    0  0.00000000000E+00  0.00000000000E+00 -0.18236524005E+04  0.19565648351E+04  0.70882852366E+03 0.  0.
        1    1    3    3  502    0  0.19625236337E+03 -0.28562977547E+03 -0.11167220685E+04  0.11692593968E+04  0.50400001928E-02 0.  1.
       -1    1    3    3    0  502 -0.19625236337E+03  0.28562977547E+03 -0.70693033208E+03  0.78730543831E+03  0.50400001928E-02 0. -1.
</event>
<event>
 5   0  0.2006362E-02  0.7201430E+03  0.7818609E-02  0.9683392E-01
        2   -1    0    0  501    0  0.00000000000E+00  0.00000000000E+00  0.27626234691E+03  0.27626234692E+03  0.25500000920E-02 0. -1.
       -2   -1    0    0    0  501  0.00000000000E+00  0.00000000000E+00 -0.46930567723E+03  0.46930567724E+03  0.25500000920E-02 0.  1.
    10030    2    1    2    0    0  0.00000000000E+00  0.00000000000E+00 -0.19304333032E+03  0.74556802416E+03  0.72014300751E+03 0.  0.
        4    1    3    3  502    0  0.30007123686E+03 -0.54235299645E+02  0.10172152559E+03  0.32145465712E+03  0.12699999809E+01 0.  1.
       -4    1    3    3    0  502 -0.30007123686E+03  0.54235299645E+02 -0.29476485591E+03  0.42411336704E+03  0.12699999809E+01 0. -1.
</event>
<event>
 5   0  0.2006362E-02  0.6975626E+03  0.7818609E-02  0.9721410E-01
        2   -1    0    0  501    0  0.00000000000E+00  0.00000000000E+00  0.87697278644E+03  0.87697278645E+03  0.25500000920E-02 0.  1.
       -2   -1    0    0    0  501  0.00000000000E+00  0.00000000000E+00 -0.13871399634E+03  0.13871399636E+03  0.25500000920E-02 0. -1.
    10030    2    1    2    0    0  0.00000000000E+00  0.00000000000E+00  0.73825879011E+03  0.10156867828E+04  0.69756261339E+03 0.  0.
        4    1    3    3  502    0  0.19317324898E+03  0.86006849186E+02  0.77299319590E+03  0.80139451959E+03  0.12699999809E+01 0.  1.
       -4    1    3    3    0  502 -0.19317324898E+03 -0.86006849186E+02 -0.34734405792E+02  0.21429226322E+03  0.12699999809E+01 0. -1.
</event>
<event>
 5   0  0.7947250E-03  0.7023948E+03  0.7818609E-02  0.9713145E-01
       -3   -1    0    0    0  501  0.00000000000E+00  0.00000000000E+00  0.26833909092E+03  0.26833910993E+03  0.10100000352E+00 0.  1.
        3   -1    0    0  501    0  0.00000000000E+00  0.00000000000E+00 -0.45964086802E+03  0.45964087912E+03  0.10100000352E+00 0. -1.
    10030    2    1    2    0    0  0.00000000000E+00  0.00000000000E+00 -0.19130177710E+03  0.72797998905E+03  0.70239482809E+03 0.  0.
        2    1    3    3  502    0 -0.13844835934E+03  0.18777754184E+03 -0.36772252192E+03  0.43548617264E+03  0.25500000920E-02 0. -1.
       -2    1    3    3    0  502  0.13844835934E+03 -0.18777754184E+03  0.17642074482E+03  0.29249381641E+03  0.25500000920E-02 0.  1.
</event>
<event>
 5   0  0.2006362E-02  0.7008175E+03  0.7818609E-02  0.9715835E-01
       -2   -1    0    0    0  501  0.00000000000E+00  0.00000000000E+00  0.16386463511E+03  0.16386463513E+03  0.25500000920E-02 0.  1.
        2   -1    0    0  501    0  0.00000000000E+00  0.00000000000E+00 -0.74931531484E+03  0.74931531484E+03  0.25500000920E-02 0. -1.
    10030    2    1    2    0    0  0.00000000000E+00  0.00000000000E+00 -0.58545067973E+03  0.91317994997E+03  0.70081746742E+03 0.  0.
        4    1    3    3  502    0  0.24633508525E+03 -0.31723616954E+02  0.29353711923E+02  0.25010121031E+03  0.12699999809E+01 0.  1.
       -4    1    3    3    0  502 -0.24633508525E+03  0.31723616954E+02 -0.61480439165E+03  0.66307873966E+03  0.12699999809E+01 0. -1.
</event>
<event>
 5   0  0.1909053E-02  0.7002102E+03  0.7818609E-02  0.9716873E-01
        2   -1    0    0  501    0  0.00000000000E+00  0.00000000000E+00  0.11234973247E+04  0.11234973247E+04  0.25500000920E-02 0. -1.
       -2   -1    0    0    0  501  0.00000000000E+00  0.00000000000E+00 -0.10910000909E+03  0.10910000912E+03  0.25500000920E-02 0.  1.
    10030    2    1    2    0    0  0.00000000000E+00  0.00000000000E+00  0.10143973156E+04  0.12325973338E+04  0.70021016375E+03 0.  0.
        1    1    3    3  502    0  0.72632758612E+02 -0.15166841584E+03  0.10477495055E+04  0.10611587309E+04  0.50400001928E-02 0. -1.
       -1    1    3    3    0  502 -0.72632758612E+02  0.15166841584E+03 -0.33352189811E+02  0.17143860294E+03  0.50400001928E-02 0.  1.
</event>
<event>
 5   0  0.1226303E-02  0.7003076E+03  0.7818609E-02  0.9716706E-01
        1   -1    0    0  501    0  0.00000000000E+00  0.00000000000E+00  0.33597333770E+03  0.33597333773E+03  0.50400001928E-02 0. -1.
       -1   -1    0    0    0  501  0.00000000000E+00  0.00000000000E+00 -0.36493281948E+03  0.36493281951E+03  0.50400001928E-02 0.  1.
    10030    2    1    2    0    0  0.00000000000E+00  0.00000000000E+00 -0.28959481781E+02  0.70090615725E+03  0.70030763932E+03 0.  0.
        4    1    3    3  502    0  0.32551185523E+03  0.36662379805E+02  0.10933526956E+03  0.34533738874E+03  0.12699999809E+01 0. -1.
       -4    1    3    3    0  502 -0.32551185523E+03 -0.36662379805E+02 -0.13829475134E+03  0.35556876851E+03  0.12699999809E+01 0.  1.
</event>
<event>
 5   0  0.7947250E-03  0.6959049E+03  0.7818609E-02  0.9724261E-01
       -3   -1    0    0    0  501  0.00000000000E+00  0.00000000000E+00  0.11836987295E+04  0.11836987338E+04  0.10100000352E+00 0. -1.
        3   -1    0    0  501    0  0.00000000000E+00  0.00000000000E+00 -0.10228182562E+03  0.10228187549E+03  0.10100000352E+00 0.  1.
    10030    2    1    2    0    0  0.00000000000E+00  0.00000000000E+00  0.10814169038E+04  0.12859806093E+04  0.69590488393E+03 0.  0.
        2    1    3    3  502    0 -0.31562933952E+03 -0.10246328636E+03  0.34733471859E+03  0.48037694757E+03  0.25500000920E-02 0.  1.
       -2    1    3    3    0  502  0.31562933952E+03  0.10246328636E+03  0.73408218524E+03  0.80560366168E+03  0.25500000920E-02 0. -1.
</event>
<event>
 5   0  0.1197259E-02  0.6999448E+03  0.7818609E-02  0.9717327E-01
       -1   -1    0    0    0  501  0.00000000000E+00  0.00000000000E+00  0.36351496339E+03  0.36351496343E+03  0.50400001928E-02 0. -1.
        1   -1    0    0  501    0  0.00000000000E+00  0.00000000000E+00 -0.33693431578E+03  0.33693431581E+03  0.50400001928E-02 0.  1.
    10030    2    1    2    0    0  0.00000000000E+00  0.00000000000E+00  0.26580647615E+02  0.70044927924E+03  0.69994475636E+03 0.  0.
        3    1    3    3  502    0  0.21136622973E+03 -0.15098004057E+03 -0.22142084122E+03  0.34131782088E+03  0.10100000352E+00 0.  1.
       -3    1    3    3    0  502 -0.21136622973E+03  0.15098004057E+03  0.24800148884E+03  0.35913145836E+03  0.10100000352E+00 0. -1.
</event>
<event>
 5   0  0.2006362E-02  0.6902045E+03  0.7818609E-02  0.9734132E-01
        2   -1    0    0  501    0  0.00000000000E+00  0.00000000000E+00  0.10846468639E+04  0.10846468639E+04  0.25500000920E-02 0. -1.
       -2   -1    0    0    0  501  0.00000000000E+00  0.00000000000E+00 -0.10980122161E+03  0.10980122164E+03  0.25500000920E-02 0.  1.
    10030    2    1    2    0    0  0.00000000000E+00  0.00000000000E+00  0.97484564229E+03  0.11944480855E+04  0.69020446447E+03 0.  0.
        4    1    3    3  502    0  0.13725362796E+03 -0.11556305892E+03 -0.22730595017E+02  0.18086368298E+03  0.12699999809E+01 0.  1.
       -4    1    3    3    0  502 -0.13725362796E+03  0.11556305892E+03  0.99757623731E+03  0.10135844026E+04  0.12699999809E+01 0. -1.
</event>
<event>
 5   0  0.1909053E-02  0.7018111E+03  0.7818609E-02  0.9714140E-01
       -2   -1    0    0    0  501  0.00000000000E+00  0.00000000000E+00  0.15593016473E+03  0.15593016476E+03  0.25500000920E-02 0. -1.
        2   -1    0    0  501    0  0.00000000000E+00  0.00000000000E+00 -0.78967855179E+03  0.78967855179E+03  0.25500000920E-02 0.  1.
    10030    2    1    2    0    0  0.00000000000E+00  0.00000000000E+00 -0.63374838705E+03  0.94560871655E+03  0.70181110473E+03 0.  0.
        1    1    3    3  502    0 -0.16204689920E+03 -0.10518064428E+03 -0.71157372657E+03  0.73733258021E+03  0.50400001928E-02 0.  1.
       -1    1    3    3    0  502  0.16204689920E+03  0.10518064428E+03  0.77825339513E+02  0.20827613634E+03  0.50400001928E-02 0. -1.
</event>
<event>
 5   0  0.2026361E-02  0.6637497E+03  0.7818609E-02  0.9781315E-01
        2   -1    0    0  501    0  0.00000000000E+00  0.00000000000E+00  0.13636913841E+04  0.13636913841E+04  0.25500000920E-02 0. -1.
       -2   -1    0    0    0  501  0.00000000000E+00  0.00000000000E+00 -0.80766756515E+02  0.80766756555E+02  0.25500000920E-02 0.  1.
    10030    2    1    2    0    0  0.00000000000E+00  0.00000000000E+00  0.12829246275E+04  0.14444581406E+04  0.66374974202E+03 0.  0.
        2    1    3    3  502    0 -0.27421885247E+03 -0.18259375787E+03  0.72863219797E+03  0.79965076089E+03  0.25500000920E-02 0.  1.
       -2    1    3    3    0  502  0.27421885247E+03  0.18259375787E+03  0.55429242957E+03  0.64480737973E+03  0.25500000920E-02 0. -1.
</event>
<event>
 5   0  0.1973067E-02  0.6968119E+03  0.7818609E-02  0.9722700E-01
        2   -1    0    0  501    0  0.00000000000E+00  0.00000000000E+00  0.86097011689E+03  0.86097011689E+03  0.25500000920E-02 0. -1.
       -2   -1    0    0    0  501  0.00000000000E+00  0.00000000000E+00 -0.14098830218E+03  0.14098830221E+03  0.25500000920E-02 0.  1.
    10030    2    1    2    0    0  0.00000000000E+00  0.00000000000E+00  0.71998181471E+03  0.10019584191E+04  0.69681192591E+03 0.  0.
        5    1    3    3  502    0 -0.45054606035E+02 -0.31818130677E+03  0.55341821193E+03  0.63997114685E+03  0.46999998093E+01 0.  1.
       -5    1    3    3    0  502  0.45054606035E+02  0.31818130677E+03  0.16656360278E+03  0.36198727225E+03  0.46999998093E+01 0. -1.
</event>
<event>
 5   0  0.2026361E-02  0.7009423E+03  0.7818609E-02  0.9715622E-01
        2   -1    0    0  501    0  0.00000000000E+00  0.00000000000E+00  0.13537495511E+04  0.13537495511E+04  0.25500000920E-02 0. -1.
       -2   -1    0    0    0  501  0.00000000000E+00  0.00000000000E+00 -0.90733197921E+02  0.90733197957E+02  0.25500000920E-02 0.  1.
    10030    2    1    2    0    0  0.00000000000E+00  0.00000000000E+00  0.12630163532E+04  0.14444827491E+04  0.70094229716E+03 0.  0.
        2    1    3    3  502    0  0.81635159024E+02  0.18094313640E+03  0.12267302137E+04  0.12426873038E+04  0.25500000920E-02 0. -1.
       -2    1    3    3    0  502 -0.81635159024E+02 -0.18094313640E+03  0.36286139465E+02  0.20179544525E+03  0.25500000920E-02 0.  1.
</event>
<event>
 5   0  0.1197259E-02  0.7022459E+03  0.7818609E-02  0.9713399E-01
        1   -1    0    0  501    0  0.00000000000E+00  0.00000000000E+00  0.23737504949E+03  0.23737504954E+03  0.50400001928E-02 0.  1.
       -1   -1    0    0    0  501  0.00000000000E+00  0.00000000000E+00 -0.51937777443E+03  0.51937777445E+03  0.50400001928E-02 0. -1.
    10030    2    1    2    0    0  0.00000000000E+00  0.00000000000E+00 -0.28200272494E+03  0.75675282399E+03  0.70224589692E+03 0.  0.
        3    1    3    3  502    0  0.90567866821E+02 -0.66365484233E+02  0.21750774879E+03  0.24477856725E+03  0.10100000352E+00 0.  1.
       -3    1    3    3    0  502 -0.90567866821E+02  0.66365484233E+02 -0.49951047373E+03  0.51197425674E+03  0.10100000352E+00 0. -1.
</event>
<event>
 5   0  0.1909053E-02  0.6929849E+03  0.7818609E-02  0.9729305E-01
       -2   -1    0    0    0  501  0.00000000000E+00  0.00000000000E+00  0.13159230795E+03  0.13159230797E+03  0.25500000920E-02 0. -1.
        2   -1    0    0  501    0  0.00000000000E+00  0.00000000000E+00 -0.91234069613E+03  0.91234069613E+03  0.25500000920E-02 0.  1.
    10030    2    1    2    0    0  0.00000000000E+00  0.00000000000E+00 -0.78074838818E+03  0.10439330041E+04  0.69298489984E+03 0.  0.
        1    1    3    3  502    0  0.27401365447E+03  0.25574221282E+02 -0.70751071264E+03  0.75915013809E+03  0.50400001928E-02 0.  1.
       -1    1    3    3    0  502 -0.27401365447E+03 -0.25574221282E+02 -0.73237675541E+02  0.28478286601E+03  0.50400001928E-02 0. -1.
</event>
<event>
 5   0  0.1223742E-02  0.6980227E+03  0.7818609E-02  0.9720620E-01
       -1   -1    0    0    0  501  0.00000000000E+00  0.00000000000E+00  0.59763201227E+03  0.59763201229E+03  0.50400001928E-02 0. -1.
        1   -1    0    0  501    0  0.00000000000E+00  0.00000000000E+00 -0.20381930181E+03  0.20381930187E+03  0.50400001928E-02 0.  1.
    10030    2    1    2    0    0  0.00000000000E+00  0.00000000000E+00  0.39381271046E+03  0.80145131417E+03  0.69802274896E+03 0.  0.
        2    1    3    3  502    0  0.17164765860E+03  0.29209315182E+03  0.29315872703E+03  0.44802161475E+03  0.25500000920E-02 0. -1.
       -2    1    3    3    0  502 -0.17164765860E+03 -0.29209315182E+03  0.10065398343E+03  0.35342969942E+03  0.25500000920E-02 0.  1.
</event>
<event>
 5   0  0.1226303E-02  0.7090126E+03  0.7818609E-02  0.9701942E-01
        1   -1    0    0  501    0  0.00000000000E+00  0.00000000000E+00  0.15858565485E+04  0.15858565486E+04  0.50400001928E-02 0. -1.
       -1   -1    0    0    0  501  0.00000000000E+00  0.00000000000E+00 -0.79247226730E+02  0.79247226890E+02  0.50400001928E-02 0.  1.
    10030    2    1    2    0    0  0.00000000000E+00  0.00000000000E+00  0.15066093218E+04  0.16651037754E+04  0.70901264757E+03 0.  0.
        4    1    3    3  502    0  0.34031336401E+03 -0.55061405359E+02  0.55924302132E+03  0.65696218604E+03  0.12699999809E+01 0.  1.
       -4    1    3    3    0  502 -0.34031336401E+03  0.55061405359E+02  0.94736630050E+03  0.10081415894E+04  0.12699999809E+01 0. -1.
</event>
<event>
 5   0  0.1948138E-02  0.6978795E+03  0.7818609E-02  0.9720865E-01
       -2   -1    0    0    0  501  0.00000000000E+00  0.00000000000E+00  0.11180098019E+03  0.11180098022E+03  0.25500000920E-02 0.  1.
        2   -1    0    0  501    0  0.00000000000E+00  0.00000000000E+00 -0.10890687537E+04  0.10890687537E+04  0.25500000920E-02 0. -1.
    10030    2    1    2    0    0  0.00000000000E+00  0.00000000000E+00 -0.97726777346E+03  0.12008697339E+04  0.69787951445E+03 0.  0.
        3    1    3    3  502    0  0.30600720218E+03  0.78487277015E+02 -0.23364888067E+03  0.39292807240E+03  0.10100000352E+00 0.  1.
       -3    1    3    3    0  502 -0.30600720218E+03 -0.78487277015E+02 -0.74361889279E+03  0.80794166148E+03  0.10100000352E+00 0. -1.
</event>
<event>
 5   0  0.1973067E-02  0.6991072E+03  0.7818609E-02  0.9718760E-01
        2   -1    0    0  501    0  0.00000000000E+00  0.00000000000E+00  0.15765988068E+04  0.15765988068E+04  0.25500000920E-02 0. -1.
       -2   -1    0    0    0  501  0.00000000000E+00  0.00000000000E+00 -0.77500828904E+02  0.77500828946E+02  0.25500000920E-02 0.  1.
    10030    2    1    2    0    0  0.00000000000E+00  0.00000000000E+00  0.14990979779E+04  0.16540996357E+04  0.69910718609E+03 0.  0.
        5    1    3    3  502    0  0.33051458572E+03 -0.46348212066E+02  0.99517731721E+03  0.10496609123E+04  0.46999998093E+01 0. -1.
       -5    1    3    3    0  502 -0.33051458572E+03  0.46348212066E+02  0.50392066069E+03  0.60443872344E+03  0.46999998093E+01 0.  1.
</event>
<event>
 5   0  0.7947250E-03  0.6957214E+03  0.7818609E-02  0.9724577E-01
        3   -1    0    0  501    0  0.00000000000E+00  0.00000000000E+00  0.56272323693E+03  0.56272324599E+03  0.10100000352E+00 0. -1.
       -3   -1    0    0    0  501  0.00000000000E+00  0.00000000000E+00 -0.21503830514E+03  0.21503832886E+03  0.10100000352E+00 0.  1.
    10030    2    1    2    0    0  0.00000000000E+00  0.00000000000E+00  0.34768493178E+03  0.77776157485E+03  0.69572139217E+03 0.  0.
        1    1    3    3  502    0  0.97592715720E+02 -0.37015316175E+02 -0.19711970023E+03  0.22304853292E+03  0.50400001928E-02 0.  1.
       -1    1    3    3    0  502 -0.97592715720E+02  0.37015316175E+02  0.54480463202E+03  0.55471304193E+03  0.50400001928E-02 0. -1.
</event>
<event>
 5   0  0.7947250E-03  0.7134717E+03  0.7818609E-02  0.9694467E-01
        3   -1    0    0  501    0  0.00000000000E+00  0.00000000000E+00  0.46107976248E+03  0.46107977354E+03  0.10100000352E+00 0. -1.
       -3   -1    0    0    0  501  0.00000000000E+00  0.00000000000E+00 -0.27600526711E+03  0.27600528559E+03  0.10100000352E+00 0.  1.
    10030    2    1    2    0    0  0.00000000000E+00  0.00000000000E+00  0.18507449537E+03  0.73708505914E+03  0.71347166416E+03 0.  0.
        2    1    3    3  502    0 -0.24877760739E+03 -0.56288629406E+02  0.35019437872E+03  0.43323759144E+03  0.25500000920E-02 0. -1.
       -2    1    3    3    0  502  0.24877760739E+03  0.56288629406E+02 -0.16511988335E+03  0.30384746770E+03  0.25500000920E-02 0.  1.
</event>
<event>
 5   0  0.1973067E-02  0.6971587E+03  0.7818609E-02  0.9722104E-01
        2   -1    0    0  501    0  0.00000000000E+00  0.00000000000E+00  0.56960340532E+03  0.56960340532E+03  0.25500000920E-02 0. -1.
       -2   -1    0    0    0  501  0.00000000000E+00  0.00000000000E+00 -0.21331958896E+03  0.21331958898E+03  0.25500000920E-02 0.  1.
    10030    2    1    2    0    0  0.00000000000E+00  0.00000000000E+00  0.35628381635E+03  0.78292299430E+03  0.69715870303E+03 0.  0.
        5    1    3    3  502    0  0.26102209846E+03  0.19797155215E+03  0.44506318546E+02  0.33064811164E+03  0.46999998093E+01 0.  1.
       -5    1    3    3    0  502 -0.26102209846E+03 -0.19797155215E+03  0.31177749781E+03  0.45227488266E+03  0.46999998093E+01 0. -1.
</event>
<event>
 5   0  0.1909053E-02  0.7019532E+03  0.7818609E-02  0.9713898E-01
       -2   -1    0    0    0  501  0.00000000000E+00  0.00000000000E+00  0.17395603514E+03  0.17395603515E+03  0.25500000920E-02 0.  1.
        2   -1    0    0  501    0  0.00000000000E+00  0.00000000000E+00 -0.70813624624E+03  0.70813624624E+03  0.25500000920E-02 0. -1.
    10030    2    1    2    0    0  0.00000000000E+00  0.00000000000E+00 -0.53418021110E+03  0.88209228140E+03  0.70195319998E+03 0.  0.
        1    1    3    3  502    0  0.88758997279E+02 -0.13409233047E+03 -0.65912032414E+03  0.67845303036E+03  0.50400001928E-02 0. -1.
       -1    1    3    3    0  502 -0.88758997279E+02  0.13409233047E+03  0.12494011304E+03  0.20363925103E+03  0.50400001928E-02 0.  1.
</event>
<event>
 5   0  0.1226303E-02  0.6959436E+03  0.7818609E-02  0.9724194E-01
       -1   -1    0    0    0  501  0.00000000000E+00  0.00000000000E+00  0.10285825829E+03  0.10285825841E+03  0.50400001928E-02 0.  1.
        1   -1    0    0  501    0  0.00000000000E+00  0.00000000000E+00 -0.11771962981E+04  0.11771962981E+04  0.50400001928E-02 0. -1.
    10030    2    1    2    0    0  0.00000000000E+00  0.00000000000E+00 -0.10743380398E+04  0.12800545566E+04  0.69594356374E+03 0.  0.
        4    1    3    3  502    0 -0.20711675902E+03 -0.27867159604E+03 -0.49492344382E+03  0.60457095402E+03  0.12699999809E+01 0. -1.
       -4    1    3    3    0  502  0.20711675902E+03  0.27867159604E+03 -0.57941459603E+03  0.67548360254E+03  0.12699999809E+01 0.  1.
</event>
<event>
 5   0  0.7947250E-03  0.6903694E+03  0.7818609E-02  0.9733845E-01
       -3   -1    0    0    0  501  0.00000000000E+00  0.00000000000E+00  0.17590825463E+03  0.17590828362E+03  0.10100000352E+00 0. -1.
        3   -1    0    0  501    0  0.00000000000E+00  0.00000000000E+00 -0.67735571526E+03  0.67735572279E+03  0.10100000352E+00 0.  1.
    10030    2    1    2    0    0  0.00000000000E+00  0.00000000000E+00 -0.50144746063E+03  0.85326400641E+03  0.69036940030E+03 0.  0.
        5    1    3    3  502    0 -0.23472572974E+03  0.20334738138E+03 -0.43687341307E+03  0.53602872569E+03  0.46999998093E+01 0. -1.
       -5    1    3    3    0  502  0.23472572974E+03 -0.20334738138E+03 -0.64574047557E+02  0.31723528072E+03  0.46999998093E+01 0.  1.
</event>
<event>
 5   0  0.1237686E-02  0.6969964E+03  0.7818609E-02  0.9722383E-01
        1   -1    0    0  501    0  0.00000000000E+00  0.00000000000E+00  0.94415936624E+02  0.94415936758E+02  0.50400001928E-02 0.  1.
       -1   -1    0    0    0  501  0.00000000000E+00  0.00000000000E+00 -0.12863399573E+04  0.12863399574E+04  0.50400001928E-02 0. -1.
    10030    2    1    2    0    0  0.00000000000E+00  0.00000000000E+00 -0.11919240207E+04  0.13807558941E+04  0.69699639020E+03 0.  0.
        5    1    3    3  502    0 -0.21509981314E+03 -0.22238453952E+02 -0.11372757515E+04  0.11576617396E+04  0.46999998093E+01 0. -1.
       -5    1    3    3    0  502  0.21509981314E+03  0.22238453952E+02 -0.54648269244E+02  0.22309415451E+03  0.46999998093E+01 0.  1.
</event>
<event>
 5   0  0.1973067E-02  0.6805174E+03  0.7818609E-02  0.9751142E-01
       -2   -1    0    0    0  501  0.00000000000E+00  0.00000000000E+00  0.11099470360E+03  0.11099470363E+03  0.25500000920E-02 0.  1.
        2   -1    0    0  501    0  0.00000000000E+00  0.00000000000E+00 -0.10430767599E+04  0.10430767599E+04  0.25500000920E-02 0. -1.
    10030    2    1    2    0    0  0.00000000000E+00  0.00000000000E+00 -0.93208205633E+03  0.11540714636E+04  0.68051743789E+03 0.  0.
        5    1    3    3  502    0  0.22554984605E+03  0.21732473629E+03 -0.69135064173E+03  0.75900630687E+03  0.46999998093E+01 0.  1.
       -5    1    3    3    0  502 -0.22554984605E+03 -0.21732473629E+03 -0.24073141460E+03  0.39506515669E+03  0.46999998093E+01 0. -1.
</event>
<event>
 5   0  0.2026361E-02  0.7064728E+03  0.7818609E-02  0.9706226E-01
        2   -1    0    0  501    0  0.00000000000E+00  0.00000000000E+00  0.29241440970E+03  0.29241440971E+03  0.25500000920E-02 0. -1.
       -2   -1    0    0    0  501  0.00000000000E+00  0.00000000000E+00 -0.42670928996E+03  0.42670928997E+03  0.25500000920E-02 0.  1.
    10030    2    1    2    0    0  0.00000000000E+00  0.00000000000E+00 -0.13429488027E+03  0.71912369968E+03  0.70647277412E+03 0.  0.
        2    1    3    3  502    0 -0.86021750759E+02  0.31582038844E+03  0.68022375309E+02  0.33431916324E+03  0.25500000920E-02 0. -1.
       -2    1    3    3    0  502  0.86021750759E+02 -0.31582038844E+03 -0.20231725558E+03  0.38480453644E+03  0.25500000920E-02 0.  1.
</event>
<event>
 5   0  0.1948138E-02  0.6217613E+03  0.7818609E-02  0.9861259E-01
        2   -1    0    0  501    0  0.00000000000E+00  0.00000000000E+00  0.11892993799E+04  0.11892993799E+04  0.25500000920E-02 0. -1.
       -2   -1    0    0    0  501  0.00000000000E+00  0.00000000000E+00 -0.81263625147E+02  0.81263625187E+02  0.25500000920E-02 0.  1.
    10030    2    1    2    0    0  0.00000000000E+00  0.00000000000E+00  0.11080357547E+04  0.12705630051E+04  0.62176130153E+03 0.  0.
        3    1    3    3  502    0 -0.16579981514E+03 -0.21939791955E+03  0.85030097679E+03  0.89366480692E+03  0.10100000352E+00 0.  1.
       -3    1    3    3    0  502  0.16579981514E+03  0.21939791955E+03  0.25773477794E+03  0.37689819814E+03  0.10100000352E+00 0. -1.
</event>
<event>
 5   0  0.1257442E-02  0.7016945E+03  0.7818609E-02  0.9714339E-01
       -1   -1    0    0    0  501  0.00000000000E+00  0.00000000000E+00  0.29392989208E+03  0.29392989213E+03  0.50400001928E-02 0. -1.
        1   -1    0    0  501    0  0.00000000000E+00  0.00000000000E+00 -0.41878624435E+03  0.41878624438E+03  0.50400001928E-02 0.  1.
    10030    2    1    2    0    0  0.00000000000E+00  0.00000000000E+00 -0.12485635227E+03  0.71271613650E+03  0.70169450798E+03 0.  0.
        1    1    3    3  502    0  0.20792749986E+03  0.71563237315E+01  0.22451356848E+03  0.30609051051E+03  0.50400001928E-02 0. -1.
       -1    1    3    3    0  502 -0.20792749986E+03 -0.71563237315E+01 -0.34936992074E+03  0.40662562599E+03  0.50400001928E-02 0.  1.
</event>
<event>
 5   0  0.1948138E-02  0.7035130E+03  0.7818609E-02  0.9711243E-01
        2   -1    0    0  501    0  0.00000000000E+00  0.00000000000E+00  0.15831537800E+04  0.15831537800E+04  0.25500000920E-02 0. -1.
       -2   -1    0    0    0  501  0.00000000000E+00  0.00000000000E+00 -0.78155785892E+02  0.78155785934E+02  0.25500000920E-02 0.  1.
    10030    2    1    2    0    0  0.00000000000E+00  0.00000000000E+00  0.15049979941E+04  0.16613095660E+04  0.70351297899E+03 0.  0.
        3    1    3    3  502    0  0.12010184699E+03 -0.29617789270E+03  0.40554428821E+03  0.51634482439E+03  0.10100000352E+00 0. -1.
       -3    1    3    3    0  502 -0.12010184699E+03  0.29617789270E+03  0.10994537059E+04  0.11449647416E+04  0.10100000352E+00 0.  1.
</event>
<event>
 5   0  0.1973067E-02  0.7011351E+03  0.7818609E-02  0.9715293E-01
        2   -1    0    0  501    0  0.00000000000E+00  0.00000000000E+00  0.60792740233E+03  0.60792740234E+03  0.25500000920E-02 0. -1.
       -2   -1    0    0    0  501  0.00000000000E+00  0.00000000000E+00 -0.20215838423E+03  0.20215838425E+03  0.25500000920E-02 0.  1.
    10030    2    1    2    0    0  0.00000000000E+00  0.00000000000E+00  0.40576901810E+03  0.81008578659E+03  0.70113514074E+03 0.  0.
        5    1    3    3  502    0  0.10377813299E+03 -0.67928414738E+02  0.58168981950E+03  0.59478509272E+03  0.46999998093E+01 0. -1.
       -5    1    3    3    0  502 -0.10377813299E+03  0.67928414738E+02 -0.17592080140E+03  0.21530069387E+03  0.46999998093E+01 0.  1.
</event>
<event>
 5   0  0.1226303E-02  0.6949409E+03  0.7818609E-02  0.9725923E-01
       -1   -1    0    0    0  501  0.00000000000E+00  0.00000000000E+00  0.13626441219E+03  0.13626441228E+03  0.50400001928E-02 0.  1.
        1   -1    0    0  501    0  0.00000000000E+00  0.00000000000E+00 -0.88603996282E+03  0.88603996284E+03  0.50400001928E-02 0. -1.
    10030    2    1    2    0    0  0.00000000000E+00  0.00000000000E+00 -0.74977555063E+03  0.10223043751E+04  0.69494090329E+03 0.  0.
        4    1    3    3  502    0 -0.20714889453E+03  0.21832366692E+03 -0.11942057235E+03  0.32378816229E+03  0.12699999809E+01 0.  1.
       -4    1    3    3    0  502  0.20714889453E+03 -0.21832366692E+03 -0.63035497828E+03  0.69851621283E+03  0.12699999809E+01 0. -1.
</event>
<event>
 5   0  0.7947250E-03  0.6942473E+03  0.7818609E-02  0.9727121E-01
        4   -1    0    0  501    0  0.00000000000E+00  0.00000000000E+00  0.19391001893E+03  0.19391417777E+03  0.12699999809E+01 0.  1.
       -4   -1    0    0    0  501  0.00000000000E+00  0.00000000000E+00 -0.62138407090E+03  0.62138536873E+03  0.12699999809E+01 0. -1.
    10030    2    1    2    0    0  0.00000000000E+00  0.00000000000E+00 -0.42747405197E+03  0.81529954650E+03  0.69424727973E+03 0.  0.
        5    1    3    3  502    0  0.29753796830E+03  0.17856156548E+03 -0.22280751042E+03  0.41240556730E+03  0.46999998093E+01 0.  1.
       -5    1    3    3    0  502 -0.29753796830E+03 -0.17856156548E+03 -0.20466654155E+03  0.40289397920E+03  0.46999998093E+01 0. -1.
</event>
<event>
 5   0  0.2006362E-02  0.7603136E+03  0.7818609E-02  0.9619308E-01
        2   -1    0    0  501    0  0.00000000000E+00  0.00000000000E+00  0.52371336382E+03  0.52371336383E+03  0.25500000920E-02 0. -1.
       -2   -1    0    0    0  501  0.00000000000E+00  0.00000000000E+00 -0.27595090381E+03  0.27595090382E+03  0.25500000920E-02 0.  1.
    10030    2    1    2    0    0  0.00000000000E+00  0.00000000000E+00  0.24776246001E+03  0.79966426764E+03  0.76031355660E+03 0.  0.
        4    1    3    3  502    0 -0.13654619920E+03  0.18732407363E+03 -0.19301404407E+03  0.30164748828E+03  0.12699999809E+01 0.  1.
       -4    1    3    3    0  502  0.13654619920E+03 -0.18732407363E+03  0.44077650409E+03  0.49801677937E+03  0.12699999809E+01 0. -1.
</event>
<event>
 5   0  0.2006362E-02  0.6988107E+03  0.7818609E-02  0.9719268E-01
       -2   -1    0    0    0  501  0.00000000000E+00  0.00000000000E+00  0.16991678015E+03  0.16991678017E+03  0.25500000920E-02 0.  1.
        2   -1    0    0  501    0  0.00000000000E+00  0.00000000000E+00 -0.71849357224E+03  0.71849357224E+03  0.25500000920E-02 0. -1.
    10030    2    1    2    0    0  0.00000000000E+00  0.00000000000E+00 -0.54857679208E+03  0.88841035241E+03  0.69881074510E+03 0.  0.
        4    1    3    3  502    0  0.19524760002E+03 -0.13586198032E+03 -0.59966223972E+03  0.64511744485E+03  0.12699999809E+01 0. -1.
       -4    1    3    3    0  502 -0.19524760002E+03  0.13586198032E+03  0.51085447638E+02  0.24329290756E+03  0.12699999809E+01 0.  1.
</event>
<event>
 5   0  0.2026361E-02  0.6967131E+03  0.7818609E-02  0.9722870E-01
        2   -1    0    0  501    0  0.00000000000E+00  0.00000000000E+00  0.96317421912E+03  0.96317421912E+03  0.25500000920E-02 0.  1.
       -2   -1    0    0    0  501  0.00000000000E+00  0.00000000000E+00 -0.12599205002E+03  0.12599205004E+03  0.25500000920E-02 0. -1.
    10030    2    1    2    0    0  0.00000000000E+00  0.00000000000E+00  0.83718216910E+03  0.10891662692E+04  0.69671312434E+03 0.  0.
        2    1    3    3  502    0  0.31719675014E+03 -0.27219562795E+02  0.63966080137E+03  0.71450725938E+03  0.25500000920E-02 0.  1.
       -2    1    3    3    0  502 -0.31719675014E+03  0.27219562795E+02  0.19752136774E+03  0.37465900979E+03  0.25500000920E-02 0. -1.
</event>
<event>
 5   0  0.1909053E-02  0.6996272E+03  0.7818609E-02  0.9717870E-01
       -2   -1    0    0    0  501  0.00000000000E+00  0.00000000000E+00  0.64570913966E+02  0.64570914016E+02  0.25500000920E-02 0. -1.
        2   -1    0    0  501    0  0.00000000000E+00  0.00000000000E+00 -0.18951185771E+04  0.18951185771E+04  0.25500000920E-02 0.  1.
    10030    2    1    2    0    0  0.00000000000E+00  0.00000000000E+00 -0.18305476631E+04  0.19596894911E+04  0.69962715398E+03 0.  0.
        1    1    3    3  502    0  0.13503111278E+03 -0.20265517519E+03 -0.16187052342E+04  0.16369206324E+04  0.50400001928E-02 0.  1.
       -1    1    3    3    0  502 -0.13503111278E+03  0.20265517519E+03 -0.21184242893E+03  0.32276885874E+03  0.50400001928E-02 0. -1.
</event>
<event>
 5   0  0.2006362E-02  0.7015109E+03  0.7818609E-02  0.9714652E-01
       -2   -1    0    0    0  501  0.00000000000E+00  0.00000000000E+00  0.78009801652E+02  0.78009801693E+02  0.25500000920E-02 0. -1.
        2   -1    0    0  501    0  0.00000000000E+00  0.00000000000E+00 -0.15771014402E+04  0.15771014402E+04  0.25500000920E-02 0.  1.
    10030    2    1    2    0    0  0.00000000000E+00  0.00000000000E+00 -0.14990916385E+04  0.16551112419E+04  0.70151085685E+03 0.  0.
        4    1    3    3  502    0  0.31990795312E+03  0.58711295557E+02 -0.43976328697E+03  0.54697484052E+03  0.12699999809E+01 0. -1.
       -4    1    3    3    0  502 -0.31990795312E+03 -0.58711295557E+02 -0.10593283515E+04  0.11081364013E+04  0.12699999809E+01 0.  1.
</event>
<event>
 5   0  0.1948138E-02  0.6993208E+03  0.7818609E-02  0.9718394E-01
        2   -1    0    0  501    0  0.00000000000E+00  0.00000000000E+00  0.37000322783E+03  0.37000322784E+03  0.25500000920E-02 0.  1.
       -2   -1    0    0    0  501  0.00000000000E+00  0.00000000000E+00 -0.33043601196E+03  0.33043601197E+03  0.25500000920E-02 0. -1.
    10030    2    1    2    0    0  0.00000000000E+00  0.00000000000E+00  0.39567215868E+02  0.70043923982E+03  0.69932078770E+03 0.  0.
        3    1    3    3  502    0 -0.22509578774E+02  0.17531763941E+03 -0.28239316142E+03  0.33314991167E+03  0.10100000352E+00 0. -1.
       -3    1    3    3    0  502  0.22509578774E+02 -0.17531763941E+03  0.32196037729E+03  0.36728932815E+03  0.10100000352E+00 0.  1.
</event>
<event>
 5   0  0.7947250E-03  0.6997189E+03  0.7818609E-02  0.9717713E-01
        3   -1    0    0  501    0  0.00000000000E+00  0.00000000000E+00  0.16564055984E+03  0.16564059063E+03  0.10100000352E+00 0. -1.
       -3   -1    0    0    0  501  0.00000000000E+00  0.00000000000E+00 -0.73895912396E+03  0.73895913086E+03  0.10100000352E+00 0.  1.
    10030    2    1    2    0    0  0.00000000000E+00  0.00000000000E+00 -0.57331856412E+03  0.90459972149E+03  0.69971885795E+03 0.  0.
        5    1    3    3  502    0 -0.30870585261E+03 -0.15408506371E+03 -0.36135183817E+03  0.49963862064E+03  0.46999998093E+01 0. -1.
       -5    1    3    3    0  502  0.30870585261E+03  0.15408506371E+03 -0.21196672595E+03  0.40496110085E+03  0.46999998093E+01 0.  1.
</event>
<event>
 5   0  0.1257442E-02  0.6986503E+03  0.7818609E-02  0.9719543E-01
        1   -1    0    0  501    0  0.00000000000E+00  0.00000000000E+00  0.18735913940E+03  0.18735913947E+03  0.50400001928E-02 0.  1.
       -1   -1    0    0    0  501  0.00000000000E+00  0.00000000000E+00 -0.65130570044E+03  0.65130570046E+03  0.50400001928E-02 0. -1.
    10030    2    1    2    0    0  0.00000000000E+00  0.00000000000E+00 -0.46394656104E+03  0.83866483993E+03  0.69865034333E+03 0.  0.
        1    1    3    3  502    0 -0.13370951289E+03  0.20845512669E+03 -0.52771301235E+03  0.58293464223E+03  0.50400001928E-02 0.  1.
       -1    1    3    3    0  502  0.13370951289E+03 -0.20845512669E+03  0.63766451306E+02  0.25573019770E+03  0.50400001928E-02 0. -1.
</event>
<event>
 5   0  0.1257442E-02  0.6922162E+03  0.7818609E-02  0.9730637E-01
       -1   -1    0    0    0  501  0.00000000000E+00  0.00000000000E+00  0.24927812610E+03  0.24927812615E+03  0.50400001928E-02 0.  1.
        1   -1    0    0  501    0  0.00000000000E+00  0.00000000000E+00 -0.48055083403E+03  0.48055083406E+03  0.50400001928E-02 0. -1.
    10030    2    1    2    0    0  0.00000000000E+00  0.00000000000E+00 -0.23127270793E+03  0.72982896021E+03  0.69221618424E+03 0.  0.
        1    1    3    3  502    0  0.10660921389E+03 -0.23423344634E+03  0.12836910617E+03  0.28759252305E+03  0.50400001928E-02 0.  1.
       -1    1    3    3    0  502 -0.10660921389E+03  0.23423344634E+03 -0.35964181410E+03  0.44223643716E+03  0.50400001928E-02 0. -1.
</event>
<event>
 5   0  0.1226303E-02  0.6957272E+03  0.7818609E-02  0.9724567E-01
       -1   -1    0    0    0  501  0.00000000000E+00  0.00000000000E+00  0.44167060123E+03  0.44167060126E+03  0.50400001928E-02 0.  1.
        1   -1    0    0  501    0  0.00000000000E+00  0.00000000000E+00 -0.27398042511E+03  0.27398042515E+03  0.50400001928E-02 0. -1.
    10030    2    1    2    0    0  0.00000000000E+00  0.00000000000E+00  0.16769017612E+03  0.71565102641E+03  0.69572724285E+03 0.  0.
        4    1    3    3  502    0  0.18910295678E+03 -0.23598124789E+03 -0.93009978201E+02  0.31638512380E+03  0.12699999809E+01 0. -1.
       -4    1    3    3    0  502 -0.18910295678E+03  0.23598124789E+03  0.26070015433E+03  0.39926590261E+03  0.12699999809E+01 0.  1.
</event>
<event>
 5   0  0.1257442E-02  0.6949868E+03  0.7818609E-02  0.9725844E-01
       -1   -1    0    0    0  501  0.00000000000E+00  0.00000000000E+00  0.13415965421E+03  0.13415965431E+03  0.50400001928E-02 0.  1.
        1   -1    0    0  501    0  0.00000000000E+00  0.00000000000E+00 -0.90005944543E+03  0.90005944545E+03  0.50400001928E-02 0. -1.
    10030    2    1    2    0    0  0.00000000000E+00  0.00000000000E+00 -0.76589979122E+03  0.10342190998E+04  0.69498680283E+03 0.  0.
        1    1    3    3  502    0  0.34459159893E+03 -0.35064336369E+02 -0.42447828973E+03  0.54786375698E+03  0.50400001928E-02 0. -1.
       -1    1    3    3    0  502 -0.34459159893E+03  0.35064336369E+02 -0.34142150149E+03  0.48635534277E+03  0.50400001928E-02 0.  1.
</event>
<event>
 5   0  0.1909053E-02  0.6940596E+03  0.7818609E-02  0.9727445E-01
       -2   -1    0    0    0  501  0.00000000000E+00  0.00000000000E+00  0.96309015384E+03  0.96309015384E+03  0.25500000920E-02 0. -1.
        2   -1    0    0  501    0  0.00000000000E+00  0.00000000000E+00 -0.12504506655E+03  0.12504506658E+03  0.25500000920E-02 0.  1.
    10030    2    1    2    0    0  0.00000000000E+00  0.00000000000E+00  0.83804508729E+03  0.10881352204E+04  0.69405957207E+03 0.  0.
        1    1    3    3  502    0 -0.21110928853E+02 -0.23688803135E+02  0.96081109046E+03  0.96133489601E+03  0.50400001928E-02 0. -1.
       -1    1    3    3    0  502  0.21110928853E+02  0.23688803135E+02 -0.12276600317E+03  0.12680032441E+03  0.50400001928E-02 0.  1.
</event>
<event>
 5   0  0.2006362E-02  0.6965806E+03  0.7818609E-02  0.9723098E-01
        2   -1    0    0  501    0  0.00000000000E+00  0.00000000000E+00  0.68343550348E+03  0.68343550348E+03  0.25500000920E-02 0. -1.
       -2   -1    0    0    0  501  0.00000000000E+00  0.00000000000E+00 -0.17749465214E+03  0.17749465216E+03  0.25500000920E-02 0.  1.
    10030    2    1    2    0    0  0.00000000000E+00  0.00000000000E+00  0.50594085134E+03  0.86093015564E+03  0.69658063986E+03 0.  0.
        4    1    3    3  502    0  0.15781088400E+03 -0.20110297963E+03 -0.39395686145E+02  0.25865095498E+03  0.12699999809E+01 0.  1.
       -4    1    3    3    0  502 -0.15781088400E+03  0.20110297963E+03  0.54533653749E+03  0.60227920066E+03  0.12699999809E+01 0. -1.
</event>
<event>
 5   0  0.2026361E-02  0.6979409E+03  0.7818609E-02  0.9720760E-01
        2   -1    0    0  501    0  0.00000000000E+00  0.00000000000E+00  0.91885487576E+03  0.91885487576E+03  0.25500000920E-02 0. -1.
       -2   -1    0    0    0  501  0.00000000000E+00  0.00000000000E+00 -0.13253494058E+03  0.13253494061E+03  0.25500000920E-02 0.  1.
    10030    2    1    2    0    0  0.00000000000E+00  0.00000000000E+00  0.78631993518E+03  0.10513898164E+04  0.69794090403E+03 0.  0.
        2    1    3    3  502    0 -0.33096405326E+02  0.34162000204E+03  0.48820493430E+03  0.59677772723E+03  0.25500000920E-02 0.  1.
       -2    1    3    3    0  502  0.33096405326E+02 -0.34162000204E+03  0.29811500087E+03  0.45461208914E+03  0.25500000920E-02 0. -1.
</event>
<event>
 5   0  0.1237686E-02  0.6857406E+03  0.7818609E-02  0.9741933E-01
        1   -1    0    0  501    0  0.00000000000E+00  0.00000000000E+00  0.28297488681E+03  0.28297488686E+03  0.50400001928E-02 0.  1.
       -1   -1    0    0    0  501  0.00000000000E+00  0.00000000000E+00 -0.41544336701E+03  0.41544336704E+03  0.50400001928E-02 0. -1.
    10030    2    1    2    0    0  0.00000000000E+00  0.00000000000E+00 -0.13246848019E+03  0.69841825390E+03  0.68574059172E+03 0.  0.
        5    1    3    3  502    0 -0.78571957748E+02  0.62887165851E+02  0.26755879972E+03  0.28589884484E+03  0.46999998093E+01 0.  1.
       -5    1    3    3    0  502  0.78571957748E+02 -0.62887165851E+02 -0.40002727992E+03  0.41251940906E+03  0.46999998093E+01 0. -1.
</event>
<event>
 5   0  0.1197259E-02  0.6986898E+03  0.7818609E-02  0.9719475E-01
        1   -1    0    0  501    0  0.00000000000E+00  0.00000000000E+00  0.49127175853E+03  0.49127175855E+03  0.50400001928E-02 0. -1.
       -1   -1    0    0    0  501  0.00000000000E+00  0.00000000000E+00 -0.24842024566E+03  0.24842024571E+03  0.50400001928E-02 0.  1.
    10030    2    1    2    0    0  0.00000000000E+00  0.00000000000E+00  0.24285151287E+03  0.73969200426E+03  0.69868977655E+03 0.  0.
        3    1    3    3  502    0  0.18584486134E+02  0.20240341048E+03  0.42222876448E+03  0.46860395160E+03  0.10100000352E+00 0. -1.
       -3    1    3    3    0  502 -0.18584486134E+02 -0.20240341048E+03 -0.17937725161E+03  0.27108805266E+03  0.10100000352E+00 0.  1.
</event>
<event>
 5   0  0.1909053E-02  0.7010808E+03  0.7818609E-02  0.9715386E-01
        2   -1    0    0  501    0  0.00000000000E+00  0.00000000000E+00  0.45526269615E+03  0.45526269615E+03  0.25500000920E-02 0. -1.
       -2   -1    0    0    0  501  0.00000000000E+00  0.00000000000E+00 -0.26990699482E+03  0.26990699483E+03  0.25500000920E-02 0.  1.
    10030    2    1    2    0    0  0.00000000000E+00  0.00000000000E+00  0.18535570133E+03  0.72516969099E+03  0.70108084035E+03 0.  0.
        1    1    3    3  502    0  0.18962386845E+03  0.17189081564E+03 -0.15508295254E+03  0.29925638871E+03  0.50400001928E-02 0.  1.
       -1    1    3    3    0  502 -0.18962386845E+03 -0.17189081564E+03  0.34043865387E+03  0.42591330228E+03  0.50400001928E-02 0. -1.
</event>
<event>
 5   0  0.1226303E-02  0.6979954E+03  0.7818609E-02  0.9720666E-01
        1   -1    0    0  501    0  0.00000000000E+00  0.00000000000E+00  0.16992101548E+04  0.16992101548E+04  0.50400001928E-02 0. -1.
       -1   -1    0    0    0  501  0.00000000000E+00  0.00000000000E+00 -0.71680006159E+02  0.71680006336E+02  0.50400001928E-02 0.  1.
    10030    2    1    2    0    0  0.00000000000E+00  0.00000000000E+00  0.16275301486E+04  0.17708901611E+04  0.69799539977E+03 0.  0.
        4    1    3    3  502    0 -0.24002954655E+03 -0.24923854304E+03  0.69850807738E+03  0.77951855758E+03  0.12699999809E+01 0.  1.
       -4    1    3    3    0  502  0.24002954655E+03  0.24923854304E+03  0.92902207125E+03  0.99137160355E+03  0.12699999809E+01 0. -1.
</event>
<event>
 5   0  0.1197259E-02  0.7005778E+03  0.7818609E-02  0.9716245E-01
        1   -1    0    0  501    0  0.00000000000E+00  0.00000000000E+00  0.20112846392E+04  0.20112846392E+04  0.50400001928E-02 0.  1.
       -1   -1    0    0    0  501  0.00000000000E+00  0.00000000000E+00 -0.61006929146E+02  0.61006929355E+02  0.50400001928E-02 0. -1.
    10030    2    1    2    0    0  0.00000000000E+00  0.00000000000E+00  0.19502777100E+04  0.20722915685E+04  0.70057776070E+03 0.  0.
        3    1    3    3  502    0  0.32003092877E+03  0.52046302893E+02  0.13672650243E+04  0.14051840697E+04  0.10100000352E+00 0.  1.
       -3    1    3    3    0  502 -0.32003092877E+03 -0.52046302893E+02  0.58301268574E+03  0.66710749879E+03  0.10100000352E+00 0. -1.
</event>
<event>
 5   0  0.1257442E-02  0.7006629E+03  0.7818609E-02  0.9716099E-01
        1   -1    0    0  501    0  0.00000000000E+00  0.00000000000E+00  0.37425378501E+03  0.37425378505E+03  0.50400001928E-02 0.  1.
       -1   -1    0    0    0  501  0.00000000000E+00  0.00000000000E+00 -0.32793824826E+03  0.32793824830E+03  0.50400001928E-02 0. -1.
    10030    2    1    2    0    0  0.00000000000E+00  0.00000000000E+00  0.46315536754E+02  0.70219203335E+03  0.70066291664E+03 0.  0.
        1    1    3    3  502    0  0.18037385530E+03  0.29745943275E+03 -0.18348663237E+02  0.34835831450E+03  0.50400001928E-02 0.  1.
       -1    1    3    3    0  502 -0.18037385530E+03 -0.29745943275E+03  0.64664199992E+02  0.35383371885E+03  0.50400001928E-02 0. -1.
</event>
<event>
 5   0  0.7947250E-03  0.6943214E+03  0.7818609E-02  0.9726993E-01
        3   -1    0    0  501    0  0.00000000000E+00  0.00000000000E+00  0.15833113513E+03  0.15833116734E+03  0.10100000352E+00 0. -1.
       -3   -1    0    0    0  501  0.00000000000E+00  0.00000000000E+00 -0.76119298361E+03  0.76119299031E+03  0.10100000352E+00 0.  1.
    10030    2    1    2    0    0  0.00000000000E+00  0.00000000000E+00 -0.60286184848E+03  0.91952415765E+03  0.69432144440E+03 0.  0.
        1    1    3    3  502    0 -0.32902494586E+03 -0.39069437092E+02 -0.43865761893E+03  0.54973115482E+03  0.50400001928E-02 0.  1.
       -1    1    3    3    0  502  0.32902494586E+03  0.39069437092E+02 -0.16420422955E+03  0.36979300283E+03  0.50400001928E-02 0. -1.
</event>
<event>
 5   0  0.1237686E-02  0.6970128E+03  0.7818609E-02  0.9722354E-01
        1   -1    0    0  501    0  0.00000000000E+00  0.00000000000E+00  0.57993855093E+03  0.57993855096E+03  0.50400001928E-02 0.  1.
       -1   -1    0    0    0  501  0.00000000000E+00  0.00000000000E+00 -0.20943033062E+03  0.20943033068E+03  0.50400001928E-02 0. -1.
    10030    2    1    2    0    0  0.00000000000E+00  0.00000000000E+00  0.37050822032E+03  0.78936888163E+03  0.69701283343E+03 0.  0.
        5    1    3    3  502    0 -0.18330437854E+03  0.26605573169E+03  0.33312480800E+03  0.46409091271E+03  0.46999998093E+01 0.  1.
       -5    1    3    3    0  502  0.18330437854E+03 -0.26605573169E+03  0.37383412318E+02  0.32527796893E+03  0.46999998093E+01 0. -1.
</event>
<event>
 5   0  0.1197259E-02  0.7018218E+03  0.7818609E-02  0.9714122E-01
        1   -1    0    0  501    0  0.00000000000E+00  0.00000000000E+00  0.12736708582E+04  0.12736708582E+04  0.50400001928E-02 0.  1.
       -1   -1    0    0    0  501  0.00000000000E+00  0.00000000000E+00 -0.96679962297E+02  0.96679962428E+02  0.50400001928E-02 0. -1.
    10030    2    1    2    0    0  0.00000000000E+00  0.00000000000E+00  0.11769908959E+04  0.13703508206E+04  0.70182177408E+03 0.  0.
        3    1    3    3  502    0  0.12413739193E+03 -0.32106363246E+03  0.45539867187E+03  0.57085892190E+03  0.10100000352E+00 0. -1.
       -3    1    3    3    0  502 -0.12413739193E+03  0.32106363246E+03  0.72159222402E+03  0.79949189873E+03  0.10100000352E+00 0.  1.
</event>
<event>
 5   0  0.2006362E-02  0.6988907E+03  0.7818609E-02  0.9719131E-01
        2   -1    0    0  501    0  0.00000000000E+00  0.00000000000E+00  0.16497370195E+04  0.16497370195E+04  0.25500000920E-02 0.  1.
       -2   -1    0    0    0  501  0.00000000000E+00  0.00000000000E+00 -0.74019109767E+02  0.74019109811E+02  0.25500000920E-02 0. -1.
    10030    2    1    2    0    0  0.00000000000E+00  0.00000000000E+00  0.15757179097E+04  0.17237561293E+04  0.69889073702E+03 0.  0.
        4    1    3    3  502    0 -0.12919277634E+03  0.26871013149E+03  0.33835792704E+03  0.45098071790E+03  0.12699999809E+01 0. -1.
       -4    1    3    3    0  502  0.12919277634E+03 -0.26871013149E+03  0.12373599827E+04  0.12727754114E+04  0.12699999809E+01 0.  1.
</event>
<event>
 5   0  0.1909053E-02  0.6999723E+03  0.7818609E-02  0.9717280E-01
       -2   -1    0    0    0  501  0.00000000000E+00  0.00000000000E+00  0.12941168265E+03  0.12941168267E+03  0.25500000920E-02 0.  1.
        2   -1    0    0  501    0  0.00000000000E+00  0.00000000000E+00 -0.94651664867E+03  0.94651664868E+03  0.25500000920E-02 0. -1.
    10030    2    1    2    0    0  0.00000000000E+00  0.00000000000E+00 -0.81710496603E+03  0.10759283313E+04  0.69997231995E+03 0.  0.
        1    1    3    3  502    0 -0.44724113557E+02 -0.28545682027E+03 -0.10498191360E+03  0.30741998110E+03  0.50400001928E-02 0.  1.
       -1    1    3    3    0  502  0.44724113557E+02  0.28545682027E+03 -0.71212305243E+03  0.76850835025E+03  0.50400001928E-02 0. -1.
</event>
<event>
 5   0  0.1226303E-02  0.6864600E+03  0.7818609E-02  0.9740672E-01
        1   -1    0    0  501    0  0.00000000000E+00  0.00000000000E+00  0.86976426502E+03  0.86976426503E+03  0.50400001928E-02 0.  1.
       -1   -1    0    0    0  501  0.00000000000E+00  0.00000000000E+00 -0.13544686491E+03  0.13544686500E+03  0.50400001928E-02 0. -1.
    10030    2    1    2    0    0  0.00000000000E+00  0.00000000000E+00  0.73431740011E+03  0.10052111300E+04  0.68646002931E+03 0.  0.
        4    1    3    3  502    0  0.16263469300E+03  0.16421769412E+03 -0.44138390494E+01  0.23116788121E+03  0.12699999809E+01 0. -1.
       -4    1    3    3    0  502 -0.16263469300E+03 -0.16421769412E+03  0.73873123916E+03  0.77404324882E+03  0.12699999809E+01 0.  1.
</event>
<event>
 5   0  0.1973067E-02  0.7027495E+03  0.7818609E-02  0.9712542E-01
        2   -1    0    0  501    0  0.00000000000E+00  0.00000000000E+00  0.35975645608E+03  0.35975645609E+03  0.25500000920E-02 0.  1.
       -2   -1    0    0    0  501  0.00000000000E+00  0.00000000000E+00 -0.34318832256E+03  0.34318832257E+03  0.25500000920E-02 0. -1.
    10030    2    1    2    0    0  0.00000000000E+00  0.00000000000E+00  0.16568133512E+02  0.70294477866E+03  0.70274949932E+03 0.  0.
        5    1    3    3  502    0  0.82125199290E+02  0.23564621081E+03 -0.23910720077E+03  0.34564147391E+03  0.46999998093E+01 0. -1.
       -5    1    3    3    0  502 -0.82125199290E+02 -0.23564621081E+03  0.25567533428E+03  0.35730330475E+03  0.46999998093E+01 0.  1.
</event>
<event>
 5   0  0.1226303E-02  0.6911703E+03  0.7818609E-02  0.9732452E-01
       -1   -1    0    0    0  501  0.00000000000E+00  0.00000000000E+00  0.75223283092E+02  0.75223283260E+02  0.50400001928E-02 0. -1.
        1   -1    0    0  501    0  0.00000000000E+00  0.00000000000E+00 -0.15876613028E+04  0.15876613028E+04  0.50400001928E-02 0.  1.
    10030    2    1    2    0    0  0.00000000000E+00  0.00000000000E+00 -0.15124380197E+04  0.16628845860E+04  0.69117029965E+03 0.  0.
        4    1    3    3  502    0 -0.18570299100E+03 -0.65481014197E+01 -0.55202351073E+02  0.19384888693E+03  0.12699999809E+01 0. -1.
       -4    1    3    3    0  502  0.18570299100E+03  0.65481014197E+01 -0.14572356686E+04  0.14690356991E+04  0.12699999809E+01 0.  1.
</event>
<event>
 5   0  0.1257442E-02  0.7160827E+03  0.7818609E-02  0.9690117E-01
        1   -1    0    0  501    0  0.00000000000E+00  0.00000000000E+00  0.80741418314E+03  0.80741418315E+03  0.50400001928E-02 0.  1.
       -1   -1    0    0    0  501  0.00000000000E+00  0.00000000000E+00 -0.15877054811E+03  0.15877054819E+03  0.50400001928E-02 0. -1.
    10030    2    1    2    0    0  0.00000000000E+00  0.00000000000E+00  0.64864363503E+03  0.96618473134E+03  0.71608265571E+03 0.  0.
        1    1    3    3  502    0  0.57165960761E+02 -0.34748238253E+03  0.41157279353E+03  0.54166790346E+03  0.50400001928E-02 0. -1.
       -1    1    3    3    0  502 -0.57165960761E+02  0.34748238253E+03  0.23707084150E+03  0.42451682788E+03  0.50400001928E-02 0.  1.
</event>
<event>
 5   0  0.1257442E-02  0.7181294E+03  0.7818609E-02  0.9686721E-01
       -1   -1    0    0    0  501  0.00000000000E+00  0.00000000000E+00  0.23712548880E+03  0.23712548885E+03  0.50400001928E-02 0. -1.
        1   -1    0    0  501    0  0.00000000000E+00  0.00000000000E+00 -0.54370978243E+03  0.54370978245E+03  0.50400001928E-02 0.  1.
    10030    2    1    2    0    0  0.00000000000E+00  0.00000000000E+00 -0.30658429363E+03  0.78083527130E+03  0.71812936982E+03 0.  0.
        1    1    3    3  502    0  0.24763251834E+01  0.19589736530E+03 -0.48047479316E+03  0.51888142847E+03  0.50400001928E-02 0.  1.
       -1    1    3    3    0  502 -0.24763251834E+01 -0.19589736530E+03  0.17389049953E+03  0.26195384283E+03  0.50400001928E-02 0. -1.
</event>
<event>
 5   0  0.1197259E-02  0.6877696E+03  0.7818609E-02  0.9738379E-01
        1   -1    0    0  501    0  0.00000000000E+00  0.00000000000E+00  0.97484977024E+03  0.97484977026E+03  0.50400001928E-02 0. -1.
       -1   -1    0    0    0  501  0.00000000000E+00  0.00000000000E+00 -0.12130766958E+03  0.12130766969E+03  0.50400001928E-02 0.  1.
    10030    2    1    2    0    0  0.00000000000E+00  0.00000000000E+00  0.85354210066E+03  0.10961574399E+04  0.68776959481E+03 0.  0.
        3    1    3    3  502    0  0.25534689148E+02 -0.24561298621E+03  0.45329834781E+02  0.25106286756E+03  0.10100000352E+00 0.  1.
       -3    1    3    3    0  502 -0.25534689148E+02  0.24561298621E+03  0.80821226588E+03  0.84509457238E+03  0.10100000352E+00 0. -1.
</event>
<event>
 5   0  0.1973067E-02  0.7033906E+03  0.7818609E-02  0.9711451E-01
       -2   -1    0    0    0  501  0.00000000000E+00  0.00000000000E+00  0.10105848636E+03  0.10105848639E+03  0.25500000920E-02 0.  1.
        2   -1    0    0  501    0  0.00000000000E+00  0.00000000000E+00 -0.12239407656E+04  0.12239407656E+04  0.25500000920E-02 0. -1.
    10030    2    1    2    0    0  0.00000000000E+00  0.00000000000E+00 -0.11228822792E+04  0.13249992520E+04  0.70339064875E+03 0.  0.
        5    1    3    3  502    0 -0.86524016658E+02  0.12745011688E+03 -0.11569434393E+04  0.11671632917E+04  0.46999998093E+01 0. -1.
       -5    1    3    3    0  502  0.86524016658E+02 -0.12745011688E+03  0.34061160023E+02  0.15783596033E+03  0.46999998093E+01 0.  1.
</event>
<event>
 5   0  0.1909053E-02  0.6986091E+03  0.7818609E-02  0.9719614E-01
        2   -1    0    0  501    0  0.00000000000E+00  0.00000000000E+00  0.12452820373E+04  0.12452820373E+04  0.25500000920E-02 0. -1.
       -2   -1    0    0    0  501  0.00000000000E+00  0.00000000000E+00 -0.97980741372E+02  0.97980741405E+02  0.25500000920E-02 0.  1.
    10030    2    1    2    0    0  0.00000000000E+00  0.00000000000E+00  0.11473012960E+04  0.13432627787E+04  0.69860906739E+03 0.  0.
        1    1    3    3  502    0  0.90596437068E+02  0.10073993618E+03  0.11927023690E+04  0.12003729379E+04  0.50400001928E-02 0. -1.
       -1    1    3    3    0  502 -0.90596437068E+02 -0.10073993618E+03 -0.45401073007E+02  0.14288984081E+03  0.50400001928E-02 0.  1.
</event>
<event>
 5   0  0.1226303E-02  0.7014753E+03  0.7818609E-02  0.9714713E-01
        1   -1    0    0  501    0  0.00000000000E+00  0.00000000000E+00  0.16841956544E+03  0.16841956551E+03  0.50400001928E-02 0.  1.
       -1   -1    0    0    0  501  0.00000000000E+00  0.00000000000E+00 -0.73041920215E+03  0.73041920217E+03  0.50400001928E-02 0. -1.
    10030    2    1    2    0    0  0.00000000000E+00  0.00000000000E+00 -0.56199963671E+03  0.89883876768E+03  0.70147525874E+03 0.  0.
        4    1    3    3  502    0 -0.31189090589E+03 -0.32406694843E+02 -0.48233627686E+03  0.57530516069E+03  0.12699999809E+01 0. -1.
       -4    1    3    3    0  502  0.31189090589E+03  0.32406694843E+02 -0.79663359853E+02  0.32353360699E+03  0.12699999809E+01 0.  1.
</event>
<event>
 5   0  0.1197259E-02  0.7483460E+03  0.7818609E-02  0.9637949E-01
       -1   -1    0    0    0  501  0.00000000000E+00  0.00000000000E+00  0.53120602772E+03  0.53120602774E+03  0.50400001928E-02 0. -1.
        1   -1    0    0  501    0  0.00000000000E+00  0.00000000000E+00 -0.26356145637E+03  0.26356145641E+03  0.50400001928E-02 0.  1.
    10030    2    1    2    0    0  0.00000000000E+00  0.00000000000E+00  0.26764457135E+03  0.79476748415E+03  0.74834600106E+03 0.  0.
        3    1    3    3  502    0 -0.35326673296E+03  0.41361085770E+00  0.26479228396E+03  0.44148898009E+03  0.10100000352E+00 0.  1.
       -3    1    3    3    0  502  0.35326673296E+03 -0.41361085770E+00  0.28522873914E+01  0.35327850407E+03  0.10100000352E+00 0. -1.
</event>
<event>
 5   0  0.1973067E-02  0.6995274E+03  0.7818609E-02  0.9718041E-01
       -2   -1    0    0    0  501  0.00000000000E+00  0.00000000000E+00  0.30274790774E+03  0.30274790775E+03  0.25500000920E-02 0.  1.
        2   -1    0    0  501    0  0.00000000000E+00  0.00000000000E+00 -0.40408094418E+03  0.40408094419E+03  0.25500000920E-02 0. -1.
    10030    2    1    2    0    0  0.00000000000E+00  0.00000000000E+00 -0.10133303643E+03  0.70682885194E+03  0.69952744168E+03 0.  0.
        5    1    3    3  502    0 -0.11408683544E+03 -0.22319835851E+03  0.19576274610E+03  0.31808561115E+03  0.46999998093E+01 0.  1.
       -5    1    3    3    0  502  0.11408683544E+03  0.22319835851E+03 -0.29709578253E+03  0.38874324079E+03  0.46999998093E+01 0. -1.
</event>
<event>
 5   0  0.1197259E-02  0.7008580E+03  0.7818609E-02  0.9715766E-01
       -1   -1    0    0    0  501  0.00000000000E+00  0.00000000000E+00  0.24018453247E+03  0.24018453253E+03  0.50400001928E-02 0.  1.
        1   -1    0    0  501    0  0.00000000000E+00  0.00000000000E+00 -0.51127556659E+03  0.51127556662E+03  0.50400001928E-02 0. -1.
    10030    2    1    2    0    0  0.00000000000E+00  0.00000000000E+00 -0.27109103412E+03  0.75146009914E+03  0.70085799691E+03 0.  0.
        3    1    3    3  502    0  0.33579921404E+03  0.27263511787E+02 -0.32168168963E+02  0.33843642316E+03  0.10100000352E+00 0.  1.
       -3    1    3    3    0  502 -0.33579921404E+03 -0.27263511787E+02 -0.23892286515E+03  0.41302367598E+03  0.10100000352E+00 0. -1.
</event>
<event>
 5   0  0.1257442E-02  0.6982030E+03  0.7818609E-02  0.9720310E-01
       -1   -1    0    0    0  501  0.00000000000E+00  0.00000000000E+00  0.16828028900E+03  0.16828028907E+03  0.50400001928E-02 0. -1.
        1   -1    0    0  501    0  0.00000000000E+00  0.00000000000E+00 -0.72421939934E+03  0.72421939936E+03  0.50400001928E-02 0.  1.
    10030    2    1    2    0    0  0.00000000000E+00  0.00000000000E+00 -0.55593911034E+03  0.89249968843E+03  0.69820297868E+03 0.  0.
        1    1    3    3  502    0 -0.30800690947E+03  0.16413319205E+03 -0.26775219231E+03  0.43988543682E+03  0.50400001928E-02 0. -1.
       -1    1    3    3    0  502  0.30800690947E+03 -0.16413319205E+03 -0.28818691803E+03  0.45261425161E+03  0.50400001928E-02 0.  1.
</event>
<event>
 5   0  0.2006362E-02  0.6962503E+03  0.7818609E-02  0.9723666E-01
        2   -1    0    0  501    0  0.00000000000E+00  0.00000000000E+00  0.39135984682E+03  0.39135984683E+03  0.25500000920E-02 0. -1.
       -2   -1    0    0    0  501  0.00000000000E+00  0.00000000000E+00 -0.30966670782E+03  0.30966670783E+03  0.25500000920E-02 0.  1.
    10030    2    1    2    0    0  0.00000000000E+00  0.00000000000E+00  0.81693138999E+02  0.70102655466E+03  0.69625028645E+03 0.  0.
        4    1    3    3  502    0  0.76101184091E+02 -0.96201004850E+00  0.38287853261E+03  0.39037148886E+03  0.12699999809E+01 0. -1.
       -4    1    3    3    0  502 -0.76101184091E+02  0.96201004850E+00 -0.30118539361E+03  0.31065506580E+03  0.12699999809E+01 0.  1.
</event>
<event>
 5   0  0.2026361E-02  0.6979370E+03  0.7818609E-02  0.9720767E-01
       -2   -1    0    0    0  501  0.00000000000E+00  0.00000000000E+00  0.21494820063E+03  0.21494820065E+03  0.25500000920E-02 0. -1.
        2   -1    0    0  501    0  0.00000000000E+00  0.00000000000E+00 -0.56655058603E+03  0.56655058603E+03  0.25500000920E-02 0.  1.
    10030    2    1    2    0    0  0.00000000000E+00  0.00000000000E+00 -0.35160238539E+03  0.78149878668E+03  0.69793704313E+03 0.  0.
        2    1    3    3  502    0  0.10085169226E+03  0.32236547986E+03 -0.27398317852E+03  0.43492223277E+03  0.25500000920E-02 0.  1.
       -2    1    3    3    0  502 -0.10085169226E+03 -0.32236547986E+03 -0.77619206871E+02  0.34657655391E+03  0.25500000920E-02 0. -1.
</event>
<event>
 5   0  0.1223742E-02  0.7007401E+03  0.7818609E-02  0.9715967E-01
       -1   -1    0    0    0  501  0.00000000000E+00  0.00000000000E+00  0.19780626863E+03  0.19780626869E+03  0.50400001928E-02 0. -1.
        1   -1    0    0  501    0  0.00000000000E+00  0.00000000000E+00 -0.62060305116E+03  0.62060305118E+03  0.50400001928E-02 0.  1.
    10030    2    1    2    0    0  0.00000000000E+00  0.00000000000E+00 -0.42279678253E+03  0.81840931987E+03  0.70074010555E+03 0.  0.
        2    1    3    3  502    0 -0.12383916281E+03  0.28773495882E+03 -0.28099363942E+02  0.31451092037E+03  0.25500000920E-02 0. -1.
       -2    1    3    3    0  502  0.12383916281E+03 -0.28773495882E+03 -0.39469741859E+03  0.50389839950E+03  0.25500000920E-02 0.  1.
</event>
<event>
 5   0  0.2026361E-02  0.7026949E+03  0.7818609E-02  0.9712635E-01
       -2   -1    0    0    0  501  0.00000000000E+00  0.00000000000E+00  0.30294251696E+03  0.30294251697E+03  0.25500000920E-02 0.  1.
        2   -1    0    0  501    0  0.00000000000E+00  0.00000000000E+00 -0.40748667270E+03  0.40748667271E+03  0.25500000920E-02 0. -1.
    10030    2    1    2    0    0  0.00000000000E+00  0.00000000000E+00 -0.10454415574E+03  0.71042918968E+03  0.70269492175E+03 0.  0.
        2    1    3    3  502    0  0.20640547576E+02  0.33797761546E+03 -0.14705974101E+03  0.36916319994E+03  0.25500000920E-02 0.  1.
       -2    1    3    3    0  502 -0.20640547576E+02 -0.33797761546E+03  0.42515585270E+02  0.34126598974E+03  0.25500000920E-02 0. -1.
</event>
<event>
 5   0  0.1223742E-02  0.7127173E+03  0.7818609E-02  0.9695728E-01
       -1   -1    0    0    0  501  0.00000000000E+00  0.00000000000E+00  0.20243562918E+03  0.20243562925E+03  0.50400001928E-02 0. -1.
        1   -1    0    0  501    0  0.00000000000E+00  0.00000000000E+00 -0.62731788061E+03  0.62731788063E+03  0.50400001928E-02 0.  1.
    10030    2    1    2    0    0  0.00000000000E+00  0.00000000000E+00 -0.42488225142E+03  0.82975350988E+03  0.71271730692E+03 0.  0.
        2    1    3    3  502    0 -0.17102577116E+03 -0.30838344909E+03 -0.27227437893E+03  0.44551487461E+03  0.25500000920E-02 0.  1.
       -2    1    3    3    0  502  0.17102577116E+03  0.30838344909E+03 -0.15260787249E+03  0.38423863526E+03  0.25500000920E-02 0. -1.
</event>
<event>
 5   0  0.7947250E-03  0.7015704E+03  0.7818609E-02  0.9714550E-01
       -3   -1    0    0    0  501  0.00000000000E+00  0.00000000000E+00  0.34940544237E+03  0.34940545697E+03  0.10100000352E+00 0. -1.
        3   -1    0    0  501    0  0.00000000000E+00  0.00000000000E+00 -0.35217033631E+03  0.35217035079E+03  0.10100000352E+00 0.  1.
    10030    2    1    2    0    0  0.00000000000E+00  0.00000000000E+00 -0.27648939367E+01  0.70157580776E+03  0.70157035955E+03 0.  0.
        2    1    3    3  502    0  0.15192123329E+03  0.56198597533E+02  0.30976607463E+03  0.34956167480E+03  0.25500000920E-02 0. -1.
       -2    1    3    3    0  502 -0.15192123329E+03 -0.56198597533E+02 -0.31253096856E+03  0.35201413297E+03  0.25500000920E-02 0.  1.
</event>
<event>
 5   0  0.1257442E-02  0.6943991E+03  0.7818609E-02  0.9726859E-01
        1   -1    0    0  501    0  0.00000000000E+00  0.00000000000E+00  0.21065619658E+04  0.21065619658E+04  0.50400001928E-02 0. -1.
       -1   -1    0    0    0  501  0.00000000000E+00  0.00000000000E+00 -0.57224772248E+02  0.57224772470E+02  0.50400001928E-02 0.  1.
    10030    2    1    2    0    0  0.00000000000E+00  0.00000000000E+00  0.20493371935E+04  0.21637867382E+04  0.69439910416E+03 0.  0.
        1    1    3    3  502    0  0.28998439365E+03 -0.11990951710E+03  0.14876760699E+04  0.15204109082E+04  0.50400001928E-02 0. -1.
       -1    1    3    3    0  502 -0.28998439365E+03  0.11990951710E+03  0.56166112365E+03  0.64337583006E+03  0.50400001928E-02 0.  1.
</event>
<event>
 5   0  0.2026361E-02  0.6712029E+03  0.7818609E-02  0.9767787E-01
       -2   -1    0    0    0  501  0.00000000000E+00  0.00000000000E+00  0.64992056352E+02  0.64992056402E+02  0.25500000920E-02 0. -1.
        2   -1    0    0  501    0  0.00000000000E+00  0.00000000000E+00 -0.17329552887E+04  0.17329552887E+04  0.25500000920E-02 0.  1.
    10030    2    1    2    0    0  0.00000000000E+00  0.00000000000E+00 -0.16679632324E+04  0.17979473451E+04  0.67120288387E+03 0.  0.
        2    1    3    3  502    0 -0.26003543667E+02 -0.31953830046E+03 -0.56816364243E+03  0.65237323238E+03  0.25500000920E-02 0. -1.
       -2    1    3    3    0  502  0.26003543667E+02  0.31953830046E+03 -0.10997995900E+04  0.11455741128E+04  0.25500000920E-02 0.  1.
</event>
<event>
 5   0  0.2006362E-02  0.6964201E+03  0.7818609E-02  0.9723374E-01
       -2   -1    0    0    0  501  0.00000000000E+00  0.00000000000E+00  0.16665811663E+03  0.16665811665E+03  0.25500000920E-02 0.  1.
        2   -1    0    0  501    0  0.00000000000E+00  0.00000000000E+00 -0.72753878557E+03  0.72753878557E+03  0.25500000920E-02 0. -1.
    10030    2    1    2    0    0  0.00000000000E+00  0.00000000000E+00 -0.56088066894E+03  0.89419690222E+03  0.69642011398E+03 0.  0.
        4    1    3    3  502    0 -0.25083331292E+03 -0.19221075388E+03 -0.46821186426E+03  0.56487723224E+03  0.12699999809E+01 0. -1.
       -4    1    3    3    0  502  0.25083331292E+03  0.19221075388E+03 -0.92668804680E+02  0.32931966998E+03  0.12699999809E+01 0.  1.
</event>
<event>
 5   0  0.1909053E-02  0.6954431E+03  0.7818609E-02  0.9725057E-01
        2   -1    0    0  501    0  0.00000000000E+00  0.00000000000E+00  0.67241994829E+03  0.67241994830E+03  0.25500000920E-02 0.  1.
       -2   -1    0    0    0  501  0.00000000000E+00  0.00000000000E+00 -0.17981364408E+03  0.17981364410E+03  0.25500000920E-02 0. -1.
    10030    2    1    2    0    0  0.00000000000E+00  0.00000000000E+00  0.49260630421E+03  0.85223359239E+03  0.69544311418E+03 0.  0.
        1    1    3    3  502    0 -0.20938697313E+03 -0.25857867863E+03  0.12251140168E+03  0.35456294381E+03  0.50400001928E-02 0. -1.
       -1    1    3    3    0  502  0.20938697313E+03  0.25857867863E+03  0.37009490253E+03  0.49767064858E+03  0.50400001928E-02 0.  1.
</event>
<event>
 5   0  0.1909053E-02  0.6845507E+03  0.7818609E-02  0.9744023E-01
        2   -1    0    0  501    0  0.00000000000E+00  0.00000000000E+00  0.96113124405E+03  0.96113124405E+03  0.25500000920E-02 0. -1.
       -2   -1    0    0    0  501  0.00000000000E+00  0.00000000000E+00 -0.12189014663E+03  0.12189014665E+03  0.25500000920E-02 0.  1.
    10030    2    1    2    0    0  0.00000000000E+00  0.00000000000E+00  0.83924109742E+03  0.10830213907E+04  0.68455073817E+03 0.  0.
        1    1    3    3  502    0  0.24482634613E+03  0.40176828917E+02  0.46574718234E+02  0.25243478712E+03  0.50400001928E-02 0.  1.
       -1    1    3    3    0  502 -0.24482634613E+03 -0.40176828917E+02  0.79266637919E+03  0.83058660359E+03  0.50400001928E-02 0. -1.
</event>
<event>
 5   0  0.7947250E-03  0.7040794E+03  0.7818609E-02  0.9710281E-01
       -4   -1    0    0    0  501  0.00000000000E+00  0.00000000000E+00  0.43707268141E+03  0.43707452653E+03  0.12699999809E+01 0.  1.
        4   -1    0    0  501    0  0.00000000000E+00  0.00000000000E+00 -0.28354615206E+03  0.28354899620E+03  0.12699999809E+01 0. -1.
    10030    2    1    2    0    0  0.00000000000E+00  0.00000000000E+00  0.15352652935E+03  0.72062352273E+03  0.70407944601E+03 0.  0.
        5    1    3    3  502    0 -0.61567416958E+02 -0.97314200620E+02 -0.26369278568E+03  0.28777869221E+03  0.46999998093E+01 0. -1.
       -5    1    3    3    0  502  0.61567416958E+02  0.97314200620E+02  0.41721931503E+03  0.43284483052E+03  0.46999998093E+01 0.  1.
</event>
<event>
 5   0  0.1973067E-02  0.6893372E+03  0.7818609E-02  0.9735643E-01
        2   -1    0    0  501    0  0.00000000000E+00  0.00000000000E+00  0.52098841943E+03  0.52098841943E+03  0.25500000920E-02 0.  1.
       -2   -1    0    0    0  501  0.00000000000E+00  0.00000000000E+00 -0.22802124601E+03  0.22802124603E+03  0.25500000920E-02 0. -1.
    10030    2    1    2    0    0  0.00000000000E+00  0.00000000000E+00  0.29296717342E+03  0.74900966546E+03  0.68933715572E+03 0.  0.
        5    1    3    3  502    0 -0.20895266345E+03 -0.18012671728E+03 -0.77958488377E+02  0.28671669946E+03  0.46999998093E+01 0. -1.
       -5    1    3    3    0  502  0.20895266345E+03  0.18012671728E+03  0.37092566179E+03  0.46229296600E+03  0.46999998093E+01 0.  1.
</event>
<event>
 5   0  0.1909053E-02  0.6942802E+03  0.7818609E-02  0.9727064E-01
       -2   -1    0    0    0  501  0.00000000000E+00  0.00000000000E+00  0.54144128322E+03  0.54144128323E+03  0.25500000920E-02 0. -1.
        2   -1    0    0  501    0  0.00000000000E+00  0.00000000000E+00 -0.22256567801E+03  0.22256567802E+03  0.25500000920E-02 0.  1.
    10030    2    1    2    0    0  0.00000000000E+00  0.00000000000E+00  0.31887560521E+03  0.76400696125E+03  0.69428019217E+03 0.  0.
        1    1    3    3  502    0  0.28474032745E+03 -0.14775137716E+03  0.13454523206E+02  0.32107405337E+03  0.50400001928E-02 0. -1.
       -1    1    3    3    0  502 -0.28474032745E+03  0.14775137716E+03  0.30542108201E+03  0.44293290788E+03  0.50400001928E-02 0.  1.
</event>
<event>
 5   0  0.1973067E-02  0.7042023E+03  0.7818609E-02  0.9710073E-01
       -2   -1    0    0    0  501  0.00000000000E+00  0.00000000000E+00  0.14900071911E+03  0.14900071913E+03  0.25500000920E-02 0.  1.
        2   -1    0    0  501    0  0.00000000000E+00  0.00000000000E+00 -0.83204450942E+03  0.83204450943E+03  0.25500000920E-02 0. -1.
    10030    2    1    2    0    0  0.00000000000E+00  0.00000000000E+00 -0.68304379031E+03  0.98104522856E+03  0.70420232958E+03 0.  0.
        5    1    3    3  502    0  0.11720211006E+03  0.32846329857E+03 -0.27429465548E+03  0.44371626197E+03  0.46999998093E+01 0.  1.
       -5    1    3    3    0  502 -0.11720211006E+03 -0.32846329857E+03 -0.40874913483E+03  0.53732896659E+03  0.46999998093E+01 0. -1.
</event>
<event>
 5   0  0.2006362E-02  0.7007686E+03  0.7818609E-02  0.9715919E-01
       -2   -1    0    0    0  501  0.00000000000E+00  0.00000000000E+00  0.46540682098E+03  0.46540682099E+03  0.25500000920E-02 0. -1.
        2   -1    0    0  501    0  0.00000000000E+00  0.00000000000E+00 -0.26378887838E+03  0.26378887840E+03  0.25500000920E-02 0.  1.
    10030    2    1    2    0    0  0.00000000000E+00  0.00000000000E+00  0.20161794260E+03  0.72919569938E+03  0.70076855896E+03 0.  0.
        4    1    3    3  502    0  0.34581253805E+03 -0.14996971196E+02  0.44231379084E+02  0.34895450765E+03  0.12699999809E+01 0.  1.
       -4    1    3    3    0  502 -0.34581253805E+03  0.14996971196E+02  0.15738656351E+03  0.38024119173E+03  0.12699999809E+01 0. -1.
</event>
<event>
 5   0  0.1257442E-02  0.7050647E+03  0.7818609E-02  0.9708610E-01
        1   -1    0    0  501    0  0.00000000000E+00  0.00000000000E+00  0.81136347030E+03  0.81136347031E+03  0.50400001928E-02 0. -1.
       -1   -1    0    0    0  501  0.00000000000E+00  0.00000000000E+00 -0.15317310039E+03  0.15317310048E+03  0.50400001928E-02 0.  1.
    10030    2    1    2    0    0  0.00000000000E+00  0.00000000000E+00  0.65819036990E+03  0.96453657079E+03  0.70506470154E+03 0.  0.
        1    1    3    3  502    0  0.11404902157E+03  0.24313337774E+03  0.64152347800E+03  0.69546631230E+03  0.50400001928E-02 0. -1.
       -1    1    3    3    0  502 -0.11404902157E+03 -0.24313337774E+03  0.16666891906E+02  0.26907025849E+03  0.50400001928E-02 0.  1.
</event>
<event>
 5   0  0.1948138E-02  0.6973681E+03  0.7818609E-02  0.9721744E-01
        2   -1    0    0  501    0  0.00000000000E+00  0.00000000000E+00  0.17698027943E+04  0.17698027943E+04  0.25500000920E-02 0. -1.
       -2   -1    0    0    0  501  0.00000000000E+00  0.00000000000E+00 -0.68697247902E+02  0.68697247950E+02  0.25500000920E-02 0.  1.
    10030    2    1    2    0    0  0.00000000000E+00  0.00000000000E+00  0.17011055464E+04  0.18385000422E+04  0.69736814192E+03 0.  0.
        3    1    3    3  502    0 -0.30055923089E+03 -0.14330332446E+03  0.57773446765E+03  0.66681993026E+03  0.10100000352E+00 0. -1.
       -3    1    3    3    0  502  0.30055923089E+03  0.14330332446E+03  0.11233710787E+04  0.11716801120E+04  0.10100000352E+00 0.  1.
</event>
<event>
 5   0  0.1909053E-02  0.7056198E+03  0.7818609E-02  0.9707670E-01
       -2   -1    0    0    0  501  0.00000000000E+00  0.00000000000E+00  0.48066401889E+03  0.48066401890E+03  0.25500000920E-02 0.  1.
        2   -1    0    0  501    0  0.00000000000E+00  0.00000000000E+00 -0.25896428389E+03  0.25896428390E+03  0.25500000920E-02 0. -1.
    10030    2    1    2    0    0  0.00000000000E+00  0.00000000000E+00  0.22169973501E+03  0.73962830280E+03  0.70561976574E+03 0.  0.
        1    1    3    3  502    0  0.15234970505E+03  0.83262182873E+02 -0.21108782061E+03  0.27331500463E+03  0.50400001928E-02 0. -1.
       -1    1    3    3    0  502 -0.15234970505E+03 -0.83262182873E+02  0.43278755561E+03  0.46631329816E+03  0.50400001928E-02 0.  1.
</event>
<event>
 5   0  0.1226303E-02  0.6844021E+03  0.7818609E-02  0.9744285E-01
        1   -1    0    0  501    0  0.00000000000E+00  0.00000000000E+00  0.20635692702E+03  0.20635692708E+03  0.50400001928E-02 0. -1.
       -1   -1    0    0    0  501  0.00000000000E+00  0.00000000000E+00 -0.56747099765E+03  0.56747099767E+03  0.50400001928E-02 0.  1.
    10030    2    1    2    0    0  0.00000000000E+00  0.00000000000E+00 -0.36111407063E+03  0.77382792475E+03  0.68440213698E+03 0.  0.
        4    1    3    3  502    0 -0.69491322217E+02  0.33386787275E+03 -0.14851400712E+03  0.37196078225E+03  0.12699999809E+01 0. -1.
       -4    1    3    3    0  502  0.69491322217E+02 -0.33386787275E+03 -0.21260006351E+03  0.40186714250E+03  0.12699999809E+01 0.  1.
</event>
<event>
 5   0  0.1948138E-02  0.6897438E+03  0.7818609E-02  0.9734934E-01
        2   -1    0    0  501    0  0.00000000000E+00  0.00000000000E+00  0.49817609230E+03  0.49817609231E+03  0.25500000920E-02 0.  1.
       -2   -1    0    0    0  501  0.00000000000E+00  0.00000000000E+00 -0.23874412197E+03  0.23874412199E+03  0.25500000920E-02 0. -1.
    10030    2    1    2    0    0  0.00000000000E+00  0.00000000000E+00  0.25943197033E+03  0.73692021430E+03  0.68974376040E+03 0.  0.
        3    1    3    3  502    0  0.17000449047E+03 -0.24287420331E+03  0.31796984780E+03  0.43473467739E+03  0.10100000352E+00 0.  1.
       -3    1    3    3    0  502 -0.17000449047E+03  0.24287420331E+03 -0.58537877473E+02  0.30218553690E+03  0.10100000352E+00 0. -1.
</event>
<event>
 5   0  0.1909053E-02  0.7045691E+03  0.7818609E-02  0.9709450E-01
       -2   -1    0    0    0  501  0.00000000000E+00  0.00000000000E+00  0.57676959995E+02  0.57676960051E+02  0.25500000920E-02 0.  1.
        2   -1    0    0  501    0  0.00000000000E+00  0.00000000000E+00 -0.21517151318E+04  0.21517151318E+04  0.25500000920E-02 0. -1.
    10030    2    1    2    0    0  0.00000000000E+00  0.00000000000E+00 -0.20940381718E+04  0.22093920919E+04  0.70456905309E+03 0.  0.
        1    1    3    3  502    0  0.12662576153E+03  0.31871000654E+02 -0.20730295341E+04  0.20771377647E+04  0.50400001928E-02 0. -1.
       -1    1    3    3    0  502 -0.12662576153E+03 -0.31871000654E+02 -0.21008637673E+02  0.13225432715E+03  0.50400001928E-02 0.  1.
</event>
<event>
 5   0  0.1223742E-02  0.6905387E+03  0.7818609E-02  0.9733551E-01
       -1   -1    0    0    0  501  0.00000000000E+00  0.00000000000E+00  0.81725203898E+02  0.81725204053E+02  0.50400001928E-02 0.  1.
        1   -1    0    0  501    0  0.00000000000E+00  0.00000000000E+00 -0.14586799059E+04  0.14586799059E+04  0.50400001928E-02 0. -1.
    10030    2    1    2    0    0  0.00000000000E+00  0.00000000000E+00 -0.13769547020E+04  0.15404051099E+04  0.69053866758E+03 0.  0.
        2    1    3    3  502    0  0.73066659058E+02 -0.32151868750E+03 -0.91703637137E+03  0.97450947122E+03  0.25500000920E-02 0. -1.
       -2    1    3    3    0  502 -0.73066659058E+02  0.32151868750E+03 -0.45991833060E+03  0.56589563871E+03  0.25500000920E-02 0.  1.
</event>
<event>
 5   0  0.1973067E-02  0.7170584E+03  0.7818609E-02  0.9688497E-01
       -2   -1    0    0    0  501  0.00000000000E+00  0.00000000000E+00  0.17512894374E+03  0.17512894376E+03  0.25500000920E-02 0.  1.
        2   -1    0    0  501    0  0.00000000000E+00  0.00000000000E+00 -0.73399171525E+03  0.73399171525E+03  0.25500000920E-02 0. -1.
    10030    2    1    2    0    0  0.00000000000E+00  0.00000000000E+00 -0.55886277151E+03  0.90912065902E+03  0.71705841831E+03 0.  0.
        5    1    3    3  502    0  0.13634742835E+03 -0.22931667136E+03  0.24175972710E+02  0.26792410238E+03  0.46999998093E+01 0.  1.
       -5    1    3    3    0  502 -0.13634742835E+03  0.22931667136E+03 -0.58303874422E+03  0.64119655663E+03  0.46999998093E+01 0. -1.
</event>
<event>
 5   0  0.1257442E-02  0.7041472E+03  0.7818609E-02  0.9710166E-01
        1   -1    0    0  501    0  0.00000000000E+00  0.00000000000E+00  0.58530808019E+03  0.58530808021E+03  0.50400001928E-02 0. -1.
       -1   -1    0    0    0  501  0.00000000000E+00  0.00000000000E+00 -0.21177874532E+03  0.21177874538E+03  0.50400001928E-02 0.  1.
    10030    2    1    2    0    0  0.00000000000E+00  0.00000000000E+00  0.37352933487E+03  0.79708682560E+03  0.70414717462E+03 0.  0.
        1    1    3    3  502    0  0.68068764176E+01 -0.33088140405E+03  0.50798827237E+02  0.33482735550E+03  0.50400001928E-02 0.  1.
       -1    1    3    3    0  502 -0.68068764176E+01  0.33088140405E+03  0.32273050763E+03  0.46225947010E+03  0.50400001928E-02 0. -1.
</event>
<event>
 5   0  0.1909053E-02  0.6920034E+03  0.7818609E-02  0.9731006E-01
       -2   -1    0    0    0  501  0.00000000000E+00  0.00000000000E+00  0.35097721262E+03  0.35097721263E+03  0.25500000920E-02 0. -1.
        2   -1    0    0  501    0  0.00000000000E+00  0.00000000000E+00 -0.34109671658E+03  0.34109671659E+03  0.25500000920E-02 0.  1.
    10030    2    1    2    0    0  0.00000000000E+00  0.00000000000E+00  0.98804960416E+01  0.69207392921E+03  0.69200339544E+03 0.  0.
        1    1    3    3  502    0  0.17334922518E+03  0.14749758392E+03  0.26556551239E+03  0.34975781983E+03  0.50400001928E-02 0. -1.
       -1    1    3    3    0  502 -0.17334922518E+03 -0.14749758392E+03 -0.25568501635E+03  0.34231610939E+03  0.50400001928E-02 0.  1.
</event>
<event>
 5   0  0.2026361E-02  0.6933253E+03  0.7818609E-02  0.9728715E-01
       -2   -1    0    0    0  501  0.00000000000E+00  0.00000000000E+00  0.82125610596E+02  0.82125610636E+02  0.25500000920E-02 0.  1.
        2   -1    0    0  501    0  0.00000000000E+00  0.00000000000E+00 -0.14633072227E+04  0.14633072227E+04  0.25500000920E-02 0. -1.
    10030    2    1    2    0    0  0.00000000000E+00  0.00000000000E+00 -0.13811816121E+04  0.15454328334E+04  0.69332531813E+03 0.  0.
        2    1    3    3  502    0  0.55391471585E+02 -0.16165594001E+03 -0.18276957289E+02  0.17185722341E+03  0.25500000920E-02 0.  1.
       -2    1    3    3    0  502 -0.55391471585E+02  0.16165594001E+03 -0.13629046549E+04  0.13735756100E+04  0.25500000920E-02 0. -1.
</event>
<event>
 5   0  0.1237686E-02  0.7111862E+03  0.7818609E-02  0.9698291E-01
       -1   -1    0    0    0  501  0.00000000000E+00  0.00000000000E+00  0.13416901086E+03  0.13416901096E+03  0.50400001928E-02 0.  1.
        1   -1    0    0  501    0  0.00000000000E+00  0.00000000000E+00 -0.94244157188E+03  0.94244157190E+03  0.50400001928E-02 0. -1.
    10030    2    1    2    0    0  0.00000000000E+00  0.00000000000E+00 -0.80827256102E+03  0.10766105829E+04  0.71118620221E+03 0.  0.
        5    1    3    3  502    0 -0.29123338454E+03  0.16761378055E+03 -0.58011202662E+03  0.67042025412E+03  0.46999998093E+01 0. -1.
       -5    1    3    3    0  502  0.29123338454E+03 -0.16761378055E+03 -0.22816053440E+03  0.40619032873E+03  0.46999998093E+01 0.  1.
</event>
<event>
 5   0  0.1197259E-02  0.7011951E+03  0.7818609E-02  0.9715191E-01
       -1   -1    0    0    0  501  0.00000000000E+00  0.00000000000E+00  0.13900203479E+03  0.13900203488E+03  0.50400001928E-02 0. -1.
        1   -1    0    0  501    0  0.00000000000E+00  0.00000000000E+00 -0.88429376432E+03  0.88429376433E+03  0.50400001928E-02 0.  1.
    10030    2    1    2    0    0  0.00000000000E+00  0.00000000000E+00 -0.74529172953E+03  0.10232957992E+04  0.70119507313E+03 0.  0.
        3    1    3    3  502    0 -0.19318469586E+03 -0.17374247057E+03 -0.71617506551E+03  0.76184874316E+03  0.10100000352E+00 0.  1.
       -3    1    3    3    0  502  0.19318469586E+03  0.17374247057E+03 -0.29116664014E+02  0.26144705605E+03  0.10100000352E+00 0. -1.
</event>
<event>
 5   0  0.1948138E-02  0.7007769E+03  0.7818609E-02  0.9715905E-01
       -2   -1    0    0    0  501  0.00000000000E+00  0.00000000000E+00  0.90459741651E+02  0.90459741687E+02  0.25500000920E-02 0.  1.
        2   -1    0    0  501    0  0.00000000000E+00  0.00000000000E+00 -0.13572011842E+04  0.13572011842E+04  0.25500000920E-02 0. -1.
    10030    2    1    2    0    0  0.00000000000E+00  0.00000000000E+00 -0.12667414425E+04  0.14476609259E+04  0.70077690749E+03 0.  0.
        3    1    3    3  502    0  0.14773933641E+03 -0.29376788137E+03 -0.38337053156E+03  0.50507371177E+03  0.10100000352E+00 0.  1.
       -3    1    3    3    0  502 -0.14773933641E+03  0.29376788137E+03 -0.88337091096E+03  0.94258721410E+03  0.10100000352E+00 0. -1.
</event>
<event>
 5   0  0.1973067E-02  0.6943442E+03  0.7818609E-02  0.9726954E-01
       -2   -1    0    0    0  501  0.00000000000E+00  0.00000000000E+00  0.12516180292E+03  0.12516180295E+03  0.25500000920E-02 0. -1.
        2   -1    0    0  501    0  0.00000000000E+00  0.00000000000E+00 -0.96298122345E+03  0.96298122345E+03  0.25500000920E-02 0.  1.
    10030    2    1    2    0    0  0.00000000000E+00  0.00000000000E+00 -0.83781942053E+03  0.10881430264E+04  0.69434419741E+03 0.  0.
        5    1    3    3  502    0  0.16403353346E+03  0.13741394268E+03  0.94614838951E+01  0.21424565671E+03  0.46999998093E+01 0. -1.
       -5    1    3    3    0  502 -0.16403353346E+03 -0.13741394268E+03 -0.84728090442E+03  0.87389736969E+03  0.46999998093E+01 0.  1.
</event>
<event>
 5   0  0.1237686E-02  0.6938510E+03  0.7818609E-02  0.9727806E-01
       -1   -1    0    0    0  501  0.00000000000E+00  0.00000000000E+00  0.26763283750E+03  0.26763283754E+03  0.50400001928E-02 0.  1.
        1   -1    0    0  501    0  0.00000000000E+00  0.00000000000E+00 -0.44971046246E+03  0.44971046248E+03  0.50400001928E-02 0. -1.
    10030    2    1    2    0    0  0.00000000000E+00  0.00000000000E+00 -0.18207762496E+03  0.71734330003E+03  0.69385095560E+03 0.  0.
        5    1    3    3  502    0  0.10250727217E+03  0.41200372162E+02 -0.43100359353E+03  0.44496224463E+03  0.46999998093E+01 0. -1.
       -5    1    3    3    0  502 -0.10250727217E+03 -0.41200372162E+02  0.24892596857E+03  0.27238105540E+03  0.46999998093E+01 0.  1.
</event>
<event>
 5   0  0.1909053E-02  0.7099876E+03  0.7818609E-02  0.9700303E-01
        2   -1    0    0  501    0  0.00000000000E+00  0.00000000000E+00  0.33803203839E+03  0.33803203840E+03  0.25500000920E-02 0.  1.
       -2   -1    0    0    0  501  0.00000000000E+00  0.00000000000E+00 -0.37280662484E+03  0.37280662485E+03  0.25500000920E-02 0. -1.
    10030    2    1    2    0    0  0.00000000000E+00  0.00000000000E+00 -0.34774586449E+02  0.71083866325E+03  0.70998755855E+03 0.  0.
        1    1    3    3  502    0 -0.14560582637E+03  0.40010055288E+02  0.30427454689E+03  0.33968347193E+03  0.50400001928E-02 0.  1.
       -1    1    3    3    0  502  0.14560582637E+03 -0.40010055288E+02 -0.33904913334E+03  0.37115519131E+03  0.50400001928E-02 0. -1.
</event>
<event>
 5   0  0.1226303E-02  0.6997507E+03  0.7818609E-02  0.9717659E-01
       -1   -1    0    0    0  501  0.00000000000E+00  0.00000000000E+00  0.11032547768E+03  0.11032547779E+03  0.50400001928E-02 0.  1.
        1   -1    0    0  501    0  0.00000000000E+00  0.00000000000E+00 -0.11095601145E+04  0.11095601146E+04  0.50400001928E-02 0. -1.
    10030    2    1    2    0    0  0.00000000000E+00  0.00000000000E+00 -0.99923463687E+03  0.12198855924E+04  0.69975066911E+03 0.  0.
        4    1    3    3  502    0  0.10447300819E+03  0.22882290163E+03 -0.75677722639E+02  0.26268471664E+03  0.12699999809E+01 0.  1.
       -4    1    3    3    0  502 -0.10447300819E+03 -0.22882290163E+03 -0.92355691423E+03  0.95720087571E+03  0.12699999809E+01 0. -1.
</event>
<event>
 5   0  0.1948138E-02  0.7334945E+03  0.7818609E-02  0.9661607E-01
        2   -1    0    0  501    0  0.00000000000E+00  0.00000000000E+00  0.95299108525E+03  0.95299108526E+03  0.25500000920E-02 0. -1.
       -2   -1    0    0    0  501  0.00000000000E+00  0.00000000000E+00 -0.14113828888E+03  0.14113828890E+03  0.25500000920E-02 0.  1.
    10030    2    1    2    0    0  0.00000000000E+00  0.00000000000E+00  0.81185279637E+03  0.10941293742E+04  0.73349446107E+03 0.  0.
        3    1    3    3  502    0 -0.12535102746E+03 -0.30018313682E+02 -0.10623810895E+03  0.16703450313E+03  0.10100000352E+00 0.  1.
       -3    1    3    3    0  502  0.12535102746E+03  0.30018313682E+02  0.91809090533E+03  0.92709487103E+03  0.10100000352E+00 0. -1.
</event>
<event>
 5   0  0.7947250E-03  0.7012263E+03  0.7818609E-02  0.9715137E-01
       -3   -1    0    0    0  501  0.00000000000E+00  0.00000000000E+00  0.57861464098E+03  0.57861464980E+03  0.10100000352E+00 0.  1.
        3   -1    0    0  501    0  0.00000000000E+00  0.00000000000E+00 -0.21245500714E+03  0.21245503115E+03  0.10100000352E+00 0. -1.
    10030    2    1    2    0    0  0.00000000000E+00  0.00000000000E+00  0.36615963385E+03  0.79106968094E+03  0.70122632769E+03 0.  0.
        5    1    3    3  502    0 -0.23442539230E+03 -0.25625024627E+03  0.12911769305E+03  0.37055758247E+03  0.46999998093E+01 0.  1.
       -5    1    3    3    0  502  0.23442539230E+03  0.25625024627E+03  0.23704194080E+03  0.42051209847E+03  0.46999998093E+01 0. -1.
</event>
<event>
 5   0  0.2006362E-02  0.6932700E+03  0.7818609E-02  0.9728811E-01
        2   -1    0    0  501    0  0.00000000000E+00  0.00000000000E+00  0.79752029855E+03  0.79752029855E+03  0.25500000920E-02 0. -1.
       -2   -1    0    0    0  501  0.00000000000E+00  0.00000000000E+00 -0.15066175772E+03  0.15066175774E+03  0.25500000920E-02 0.  1.
    10030    2    1    2    0    0  0.00000000000E+00  0.00000000000E+00  0.64685854083E+03  0.94818205630E+03  0.69326996187E+03 0.  0.
        4    1    3    3  502    0  0.30112409095E+03 -0.55169856929E+02  0.10105881637E+03  0.32238785420E+03  0.12699999809E+01 0.  1.
       -4    1    3    3    0  502 -0.30112409095E+03  0.55169856929E+02  0.54579972445E+03  0.62579420210E+03  0.12699999809E+01 0. -1.
</event>
<event>
 5   0  0.2026361E-02  0.6967552E+03  0.7818609E-02  0.9722797E-01
       -2   -1    0    0    0  501  0.00000000000E+00  0.00000000000E+00  0.10560482065E+03  0.10560482068E+03  0.25500000920E-02 0. -1.
        2   -1    0    0  501    0  0.00000000000E+00  0.00000000000E+00 -0.11492556461E+04  0.11492556461E+04  0.25500000920E-02 0.  1.
    10030    2    1    2    0    0  0.00000000000E+00  0.00000000000E+00 -0.10436508254E+04  0.12548604668E+04  0.69675515472E+03 0.  0.
        2    1    3    3  502    0 -0.24649202473E+03  0.15241654413E+03 -0.87002015056E+03  0.91701918386E+03  0.25500000920E-02 0.  1.
       -2    1    3    3    0  502  0.24649202473E+03 -0.15241654413E+03 -0.17363067489E+03  0.33784128292E+03  0.25500000920E-02 0. -1.
</event>
<event>
 5   0  0.2026361E-02  0.6981853E+03  0.7818609E-02  0.9720341E-01
       -2   -1    0    0    0  501  0.00000000000E+00  0.00000000000E+00  0.96365069228E+02  0.96365069262E+02  0.25500000920E-02 0.  1.
        2   -1    0    0  501    0  0.00000000000E+00  0.00000000000E+00 -0.12646250859E+04  0.12646250859E+04  0.25500000920E-02 0. -1.
    10030    2    1    2    0    0  0.00000000000E+00  0.00000000000E+00 -0.11682600166E+04  0.13609901551E+04  0.69818531630E+03 0.  0.
        2    1    3    3  502    0  0.26666569744E+03 -0.18313852012E+03 -0.83989581399E+03  0.90004182687E+03  0.25500000920E-02 0. -1.
       -2    1    3    3    0  502 -0.26666569744E+03  0.18313852012E+03 -0.32836420266E+03  0.46094832828E+03  0.25500000920E-02 0.  1.
</event>
<event>
 5   0  0.1909053E-02  0.6754601E+03  0.7818609E-02  0.9760144E-01
       -2   -1    0    0    0  501  0.00000000000E+00  0.00000000000E+00  0.15047077768E+03  0.15047077770E+03  0.25500000920E-02 0.  1.
        2   -1    0    0  501    0  0.00000000000E+00  0.00000000000E+00 -0.75803147081E+03  0.75803147081E+03  0.25500000920E-02 0. -1.
    10030    2    1    2    0    0  0.00000000000E+00  0.00000000000E+00 -0.60756069313E+03  0.90850224852E+03  0.67546009484E+03 0.  0.
        1    1    3    3  502    0  0.17431854511E+02  0.15247477651E+03 -0.70842384976E+03  0.72485638437E+03  0.50400001928E-02 0. -1.
       -1    1    3    3    0  502 -0.17431854511E+02 -0.15247477651E+03  0.10086315664E+03  0.18364586414E+03  0.50400001928E-02 0.  1.
</event>
<event>
 5   0  0.1237686E-02  0.7041809E+03  0.7818609E-02  0.9710109E-01
        1   -1    0    0  501    0  0.00000000000E+00  0.00000000000E+00  0.89070591986E+03  0.89070591987E+03  0.50400001928E-02 0.  1.
       -1   -1    0    0    0  501  0.00000000000E+00  0.00000000000E+00 -0.13917914795E+03  0.13917914804E+03  0.50400001928E-02 0. -1.
    10030    2    1    2    0    0  0.00000000000E+00  0.00000000000E+00  0.75152677191E+03  0.10298850679E+04  0.70418091724E+03 0.  0.
        5    1    3    3  502    0 -0.69721059715E+02 -0.28870108564E+03  0.99286361201E+02  0.31319197712E+03  0.46999998093E+01 0. -1.
       -5    1    3    3    0  502  0.69721059715E+02  0.28870108564E+03  0.65224041071E+03  0.71669309078E+03  0.46999998093E+01 0.  1.
</event>
<event>
 5   0  0.1257442E-02  0.6998583E+03  0.7818609E-02  0.9717475E-01
        1   -1    0    0  501    0  0.00000000000E+00  0.00000000000E+00  0.23414220578E+03  0.23414220583E+03  0.50400001928E-02 0.  1.
       -1   -1    0    0    0  501  0.00000000000E+00  0.00000000000E+00 -0.52297456669E+03  0.52297456671E+03  0.50400001928E-02 0. -1.
    10030    2    1    2    0    0  0.00000000000E+00  0.00000000000E+00 -0.28883236091E+03  0.75711677254E+03  0.69985832463E+03 0.  0.
        1    1    3    3  502    0  0.25244771078E+03  0.24178388333E+03 -0.12693472675E+03  0.37188938919E+03  0.50400001928E-02 0. -1.
       -1    1    3    3    0  502 -0.25244771078E+03 -0.24178388333E+03 -0.16189763416E+03  0.38522738335E+03  0.50400001928E-02 0.  1.
</event>
<event>
 5   0  0.1909053E-02  0.7111470E+03  0.7818609E-02  0.9698357E-01
       -2   -1    0    0    0  501  0.00000000000E+00  0.00000000000E+00  0.95666339093E+02  0.95666339127E+02  0.25500000920E-02 0.  1.
        2   -1    0    0  501    0  0.00000000000E+00  0.00000000000E+00 -0.13215987140E+04  0.13215987140E+04  0.25500000920E-02 0. -1.
    10030    2    1    2    0    0  0.00000000000E+00  0.00000000000E+00 -0.12259323749E+04  0.14172650532E+04  0.71114699112E+03 0.  0.
        1    1    3    3  502    0 -0.15404784378E+03  0.36416328917E+02  0.21573033123E+02  0.15975694967E+03  0.50400001928E-02 0.  1.
       -1    1    3    3    0  502  0.15404784378E+03 -0.36416328917E+02 -0.12475054081E+04  0.12575081035E+04  0.50400001928E-02 0. -1.
</event>
<event>
 5   0  0.1223742E-02  0.7165043E+03  0.7818609E-02  0.9689417E-01
        1   -1    0    0  501    0  0.00000000000E+00  0.00000000000E+00  0.89075616891E+03  0.89075616893E+03  0.50400001928E-02 0. -1.
       -1   -1    0    0    0  501  0.00000000000E+00  0.00000000000E+00 -0.14408498950E+03  0.14408498959E+03  0.50400001928E-02 0.  1.
    10030    2    1    2    0    0  0.00000000000E+00  0.00000000000E+00  0.74667117941E+03  0.10348411585E+04  0.71650427298E+03 0.  0.
        2    1    3    3  502    0  0.33224588202E+03 -0.63753028852E+02  0.54357107358E+03  0.64025095615E+03  0.25500000920E-02 0. -1.
       -2    1    3    3    0  502 -0.33224588202E+03  0.63753028852E+02  0.20310010583E+03  0.39459020237E+03  0.25500000920E-02 0.  1.
</event>
<event>
 5   0  0.1197259E-02  0.6966393E+03  0.7818609E-02  0.9722997E-01
       -1   -1    0    0    0  501  0.00000000000E+00  0.00000000000E+00  0.29513766224E+03  0.29513766228E+03  0.50400001928E-02 0. -1.
        1   -1    0    0  501    0  0.00000000000E+00  0.00000000000E+00 -0.41108466446E+03  0.41108466449E+03  0.50400001928E-02 0.  1.
    10030    2    1    2    0    0  0.00000000000E+00  0.00000000000E+00 -0.11594700222E+03  0.70622232677E+03  0.69663926641E+03 0.  0.
        3    1    3    3  502    0  0.93336812890E+02 -0.56096708638E+02 -0.39338426558E+03  0.40817862752E+03  0.10100000352E+00 0.  1.
       -3    1    3    3    0  502 -0.93336812890E+02  0.56096708638E+02  0.27743726336E+03  0.29804369925E+03  0.10100000352E+00 0. -1.
</event>
<event>
 5   0  0.1226303E-02  0.7027455E+03  0.7818609E-02  0.9712548E-01
        1   -1    0    0  501    0  0.00000000000E+00  0.00000000000E+00  0.45146784079E+03  0.45146784082E+03  0.50400001928E-02 0.  1.
       -1   -1    0    0    0  501  0.00000000000E+00  0.00000000000E+00 -0.27346980235E+03  0.27346980240E+03  0.50400001928E-02 0. -1.
    10030    2    1    2    0    0  0.00000000000E+00  0.00000000000E+00  0.17799803844E+03  0.72493764322E+03  0.70274553351E+03 0.  0.
        4    1    3    3  502    0  0.18373113947E+02  0.13696078025E+03  0.42225717790E+03  0.44429558160E+03  0.12699999809E+01 0.  1.
       -4    1    3    3    0  502 -0.18373113947E+02 -0.13696078025E+03 -0.24425913946E+03  0.28064206162E+03  0.12699999809E+01 0. -1.
</event>
<event>
 5   0  0.1909053E-02  0.6926362E+03  0.7818609E-02  0.9729909E-01
        2   -1    0    0  501    0  0.00000000000E+00  0.00000000000E+00  0.13656343977E+04  0.13656343977E+04  0.25500000920E-02 0.  1.
       -2   -1    0    0    0  501  0.00000000000E+00  0.00000000000E+00 -0.87824545723E+02  0.87824545760E+02  0.25500000920E-02 0. -1.
    10030    2    1    2    0    0  0.00000000000E+00  0.00000000000E+00  0.12778098520E+04  0.14534589435E+04  0.69263618338E+03 0.  0.
        1    1    3    3  502    0  0.39199701132E+02 -0.31897726340E+03  0.90970280696E+03  0.96480169370E+03  0.50400001928E-02 0.  1.
       -1    1    3    3    0  502 -0.39199701132E+02  0.31897726340E+03  0.36810704502E+03  0.48865724977E+03  0.50400001928E-02 0. -1.
</event>
<event>
 5   0  0.1223742E-02  0.7001802E+03  0.7818609E-02  0.9716924E-01
        1   -1    0    0  501    0  0.00000000000E+00  0.00000000000E+00  0.22389053917E+03  0.22389053923E+03  0.50400001928E-02 0. -1.
       -1   -1    0    0    0  501  0.00000000000E+00  0.00000000000E+00 -0.54742407189E+03  0.54742407192E+03  0.50400001928E-02 0.  1.
    10030    2    1    2    0    0  0.00000000000E+00  0.00000000000E+00 -0.32353353272E+03  0.77131461115E+03  0.70018017865E+03 0.  0.
        2    1    3    3  502    0  0.21144374145E+03 -0.19565170362E+03  0.57378628604E+02  0.29373517316E+03  0.25500000920E-02 0. -1.
       -2    1    3    3    0  502 -0.21144374145E+03  0.19565170362E+03 -0.38091216133E+03  0.47757943798E+03  0.25500000920E-02 0.  1.
</event>
<event>
 5   0  0.1197259E-02  0.6942254E+03  0.7818609E-02  0.9727159E-01
        1   -1    0    0  501    0  0.00000000000E+00  0.00000000000E+00  0.13123698838E+04  0.13123698838E+04  0.50400001928E-02 0. -1.
       -1   -1    0    0    0  501  0.00000000000E+00  0.00000000000E+00 -0.91808884366E+02  0.91808884504E+02  0.50400001928E-02 0.  1.
    10030    2    1    2    0    0  0.00000000000E+00  0.00000000000E+00  0.12205609994E+04  0.14041787683E+04  0.69422536690E+03 0.  0.
        3    1    3    3  502    0  0.98374009612E+02 -0.32221043639E+03  0.77938942493E+03  0.84908474075E+03  0.10100000352E+00 0.  1.
       -3    1    3    3    0  502 -0.98374009612E+02  0.32221043639E+03  0.44117157450E+03  0.55509402756E+03  0.10100000352E+00 0. -1.
</event>
<event>
 5   0  0.1237686E-02  0.7052538E+03  0.7818609E-02  0.9708289E-01
       -1   -1    0    0    0  501  0.00000000000E+00  0.00000000000E+00  0.30594499052E+03  0.30594499056E+03  0.50400001928E-02 0. -1.
        1   -1    0    0  501    0  0.00000000000E+00  0.00000000000E+00 -0.40643170656E+03  0.40643170659E+03  0.50400001928E-02 0.  1.
    10030    2    1    2    0    0  0.00000000000E+00  0.00000000000E+00 -0.10048671603E+03  0.71237669715E+03  0.70525383979E+03 0.  0.
        5    1    3    3  502    0  0.19243187300E+03 -0.18732243614E+03 -0.28103275926E+03  0.38874313191E+03  0.46999998093E+01 0.  1.
       -5    1    3    3    0  502 -0.19243187300E+03  0.18732243614E+03  0.18054604323E+03  0.32363356524E+03  0.46999998093E+01 0. -1.
</event>
<event>
 5   0  0.1909053E-02  0.6987371E+03  0.7818609E-02  0.9719394E-01
        2   -1    0    0  501    0  0.00000000000E+00  0.00000000000E+00  0.77595240725E+03  0.77595240726E+03  0.25500000920E-02 0.  1.
       -2   -1    0    0    0  501  0.00000000000E+00  0.00000000000E+00 -0.15730139544E+03  0.15730139546E+03  0.25500000920E-02 0. -1.
    10030    2    1    2    0    0  0.00000000000E+00  0.00000000000E+00  0.61865101181E+03  0.93325380272E+03  0.69873713647E+03 0.  0.
        1    1    3    3  502    0 -0.16447201052E+03 -0.69805770288E+02  0.71031361131E+03  0.73244065578E+03  0.50400001928E-02 0.  1.
       -1    1    3    3    0  502  0.16447201052E+03  0.69805770288E+02 -0.91662599497E+02  0.20081314694E+03  0.50400001928E-02 0. -1.
</event>
<event>
 5   0  0.7947250E-03  0.6952270E+03  0.7818609E-02  0.9725430E-01
        3   -1    0    0  501    0  0.00000000000E+00  0.00000000000E+00  0.90695308807E+03  0.90695309370E+03  0.10100000352E+00 0. -1.
       -3   -1    0    0    0  501  0.00000000000E+00  0.00000000000E+00 -0.13323195879E+03  0.13323199707E+03  0.10100000352E+00 0.  1.
    10030    2    1    2    0    0  0.00000000000E+00  0.00000000000E+00  0.77372112929E+03  0.10401850908E+04  0.69522704000E+03 0.  0.
        4    1    3    3  502    0  0.14703035249E+03 -0.96807437977E+02  0.83532537234E+03  0.85367423247E+03  0.12699999809E+01 0. -1.
       -4    1    3    3    0  502 -0.14703035249E+03  0.96807437977E+02 -0.61604243055E+02  0.18651085830E+03  0.12699999809E+01 0.  1.
</event>
<event>
 5   0  0.1237686E-02  0.6998240E+03  0.7818609E-02  0.9717533E-01
       -1   -1    0    0    0  501  0.00000000000E+00  0.00000000000E+00  0.11853599203E+03  0.11853599214E+03  0.50400001928E-02 0.  1.
        1   -1    0    0  501    0  0.00000000000E+00  0.00000000000E+00 -0.10329217300E+04  0.10329217300E+04  0.50400001928E-02 0. -1.
    10030    2    1    2    0    0  0.00000000000E+00  0.00000000000E+00 -0.91438573792E+03  0.11514577221E+04  0.69982398364E+03 0.  0.
        5    1    3    3  502    0 -0.76402915940E+02 -0.33038563723E+03 -0.31542262289E+03  0.46314748826E+03  0.46999998093E+01 0.  1.
       -5    1    3    3    0  502  0.76402915940E+02  0.33038563723E+03 -0.59896311503E+03  0.68831023384E+03  0.46999998093E+01 0. -1.
</event>
<event>
 5   0  0.7947250E-03  0.6934008E+03  0.7818609E-02  0.9728585E-01
        3   -1    0    0  501    0  0.00000000000E+00  0.00000000000E+00  0.41217142749E+03  0.41217143986E+03  0.10100000352E+00 0.  1.
       -3   -1    0    0    0  501  0.00000000000E+00  0.00000000000E+00 -0.29162900839E+03  0.29162902588E+03  0.10100000352E+00 0. -1.
    10030    2    1    2    0    0  0.00000000000E+00  0.00000000000E+00  0.12054241910E+03  0.70380046575E+03  0.69340076491E+03 0.  0.
        3    1    3    3  502    0  0.20006211045E+03 -0.13665998880E+03  0.31198326001E+03  0.39501185464E+03  0.10100000352E+00 0.  1.
       -3    1    3    3    0  502 -0.20006211045E+03  0.13665998880E+03 -0.19144084091E+03  0.30878861111E+03  0.10100000352E+00 0. -1.
</event>
<event>
 5   0  0.2026361E-02  0.6987193E+03  0.7818609E-02  0.9719425E-01
       -2   -1    0    0    0  501  0.00000000000E+00  0.00000000000E+00  0.17768612737E+03  0.17768612739E+03  0.25500000920E-02 0.  1.
        2   -1    0    0  501    0  0.00000000000E+00  0.00000000000E+00 -0.68689747464E+03  0.68689747464E+03  0.25500000920E-02 0. -1.
    10030    2    1    2    0    0  0.00000000000E+00  0.00000000000E+00 -0.50921134727E+03  0.86458360203E+03  0.69871926316E+03 0.  0.
        2    1    3    3  502    0  0.85119356304E+02 -0.33528406962E+03 -0.31511663089E+03  0.46793076756E+03  0.25500000920E-02 0. -1.
       -2    1    3    3    0  502 -0.85119356304E+02  0.33528406962E+03 -0.19409471638E+03  0.39665283447E+03  0.25500000920E-02 0.  1.
</event>
<event>
 5   0  0.1223742E-02  0.7075619E+03  0.7818609E-02  0.9704387E-01
        1   -1    0    0  501    0  0.00000000000E+00  0.00000000000E+00  0.93656467146E+02  0.93656467282E+02  0.50400001928E-02 0.  1.
       -1   -1    0    0    0  501  0.00000000000E+00  0.00000000000E+00 -0.13363834421E+04  0.13363834421E+04  0.50400001928E-02 0. -1.
    10030    2    1    2    0    0  0.00000000000E+00  0.00000000000E+00 -0.12427269750E+04  0.14300399094E+04  0.70756187586E+03 0.  0.
        2    1    3    3  502    0 -0.74206906751E+02 -0.13356491310E+03  0.23531465874E+02  0.15459618661E+03  0.25500000920E-02 0.  1.
       -2    1    3    3    0  502  0.74206906751E+02  0.13356491310E+03 -0.12662584408E+04  0.12754437228E+04  0.25500000920E-02 0. -1.
</event>
<event>
 5   0  0.1973067E-02  0.6997612E+03  0.7818609E-02  0.9717641E-01
        2   -1    0    0  501    0  0.00000000000E+00  0.00000000000E+00  0.64426594637E+03  0.64426594637E+03  0.25500000920E-02 0. -1.
       -2   -1    0    0    0  501  0.00000000000E+00  0.00000000000E+00 -0.19000916516E+03  0.19000916518E+03  0.25500000920E-02 0.  1.
    10030    2    1    2    0    0  0.00000000000E+00  0.00000000000E+00  0.45425678121E+03  0.83427511155E+03  0.69976120104E+03 0.  0.
        5    1    3    3  502    0 -0.14518693233E+03  0.30807676883E+03  0.13172178651E+03  0.36518934795E+03  0.46999998093E+01 0.  1.
       -5    1    3    3    0  502  0.14518693233E+03 -0.30807676883E+03  0.32253499470E+03  0.46908576360E+03  0.46999998093E+01 0. -1.
</event>
<event>
 5   0  0.2006362E-02  0.6616868E+03  0.7818609E-02  0.9785094E-01
        2   -1    0    0  501    0  0.00000000000E+00  0.00000000000E+00  0.12070445173E+04  0.12070445173E+04  0.25500000920E-02 0.  1.
       -2   -1    0    0    0  501  0.00000000000E+00  0.00000000000E+00 -0.90682112530E+02  0.90682112566E+02  0.25500000920E-02 0. -1.
    10030    2    1    2    0    0  0.00000000000E+00  0.00000000000E+00  0.11163624048E+04  0.12977266299E+04  0.66168677415E+03 0.  0.
        4    1    3    3  502    0  0.16178454924E+03 -0.11486917965E+03  0.38965102660E+02  0.20221043725E+03  0.12699999809E+01 0. -1.
       -4    1    3    3    0  502 -0.16178454924E+03  0.11486917965E+03  0.10773973021E+04  0.10955161926E+04  0.12699999809E+01 0.  1.
</event>
<event>
 5   0  0.2006362E-02  0.7026833E+03  0.7818609E-02  0.9712654E-01
       -2   -1    0    0    0  501  0.00000000000E+00  0.00000000000E+00  0.22657491522E+03  0.22657491523E+03  0.25500000920E-02 0. -1.
        2   -1    0    0  501    0  0.00000000000E+00  0.00000000000E+00 -0.54481305027E+03  0.54481305027E+03  0.25500000920E-02 0.  1.
    10030    2    1    2    0    0  0.00000000000E+00  0.00000000000E+00 -0.31823813505E+03  0.77138796550E+03  0.70268334456E+03 0.  0.
        4    1    3    3  502    0  0.65792266870E+02  0.33919571161E+03 -0.22904140704E+03  0.41454062792E+03  0.12699999809E+01 0.  1.
       -4    1    3    3    0  502 -0.65792266870E+02 -0.33919571161E+03 -0.89196728013E+02  0.35684733759E+03  0.12699999809E+01 0. -1.
</event>
<event>
 5   0  0.1237686E-02  0.6983130E+03  0.7818609E-02  0.9720122E-01
        1   -1    0    0  501    0  0.00000000000E+00  0.00000000000E+00  0.65765124781E+03  0.65765124783E+03  0.50400001928E-02 0.  1.
       -1   -1    0    0    0  501  0.00000000000E+00  0.00000000000E+00 -0.18537220698E+03  0.18537220705E+03  0.50400001928E-02 0. -1.
    10030    2    1    2    0    0  0.00000000000E+00  0.00000000000E+00  0.47227904084E+03  0.84302345488E+03  0.69831300508E+03 0.  0.
        5    1    3    3  502    0  0.32555577316E+03  0.58506416635E+02  0.10128278204E+03  0.34596221493E+03  0.46999998093E+01 0. -1.
       -5    1    3    3    0  502 -0.32555577316E+03 -0.58506416635E+02  0.37099625879E+03  0.49706123995E+03  0.46999998093E+01 0.  1.
</event>
<event>
 5   0  0.1237686E-02  0.6987934E+03  0.7818609E-02  0.9719298E-01
        1   -1    0    0  501    0  0.00000000000E+00  0.00000000000E+00  0.27670070040E+04  0.27670070041E+04  0.50400001928E-02 0. -1.
       -1   -1    0    0    0  501  0.00000000000E+00  0.00000000000E+00 -0.44119169658E+02  0.44119169946E+02  0.50400001928E-02 0.  1.
    10030    2    1    2    0    0  0.00000000000E+00  0.00000000000E+00  0.27228878344E+04  0.28111261740E+04  0.69879339398E+03 0.  0.
        5    1    3    3  502    0  0.19056341416E+03 -0.26525957578E+03  0.86256603682E+03  0.92234446669E+03  0.46999998093E+01 0. -1.
       -5    1    3    3    0  502 -0.19056341416E+03  0.26525957578E+03  0.18603217976E+04  0.18887817073E+04  0.46999998093E+01 0.  1.
</event>
<event>
 5   0  0.1237686E-02  0.7028801E+03  0.7818609E-02  0.9712319E-01
        1   -1    0    0  501    0  0.00000000000E+00  0.00000000000E+00  0.22556132027E+03  0.22556132033E+03  0.50400001928E-02 0.  1.
       -1   -1    0    0    0  501  0.00000000000E+00  0.00000000000E+00 -0.54756779508E+03  0.54756779511E+03  0.50400001928E-02 0. -1.
    10030    2    1    2    0    0  0.00000000000E+00  0.00000000000E+00 -0.32200647481E+03  0.77312911543E+03  0.70288011731E+03 0.  0.
        5    1    3    3  502    0 -0.16407525454E+03 -0.15148126155E+03 -0.45945278689E+03  0.51086809955E+03  0.46999998093E+01 0. -1.
       -5    1    3    3    0  502  0.16407525454E+03  0.15148126155E+03  0.13744631208E+03  0.26226101589E+03  0.46999998093E+01 0.  1.
</event>
<event>
 5   0  0.2006362E-02  0.6839334E+03  0.7818609E-02  0.9745110E-01
       -2   -1    0    0    0  501  0.00000000000E+00  0.00000000000E+00  0.12253690326E+03  0.12253690329E+03  0.25500000920E-02 0.  1.
        2   -1    0    0  501    0  0.00000000000E+00  0.00000000000E+00 -0.95433466245E+03  0.95433466245E+03  0.25500000920E-02 0. -1.
    10030    2    1    2    0    0  0.00000000000E+00  0.00000000000E+00 -0.83179775919E+03  0.10768715657E+04  0.68393337169E+03 0.  0.
        4    1    3    3  502    0  0.92595679824E+02  0.12381034991E+03  0.64361898673E+02  0.16747247406E+03  0.12699999809E+01 0.  1.
       -4    1    3    3    0  502 -0.92595679824E+02 -0.12381034991E+03 -0.89615965786E+03  0.90939909168E+03  0.12699999809E+01 0. -1.
</event>
<event>
 5   0  0.1973067E-02  0.7019649E+03  0.7818609E-02  0.9713878E-01
        2   -1    0    0  501    0  0.00000000000E+00  0.00000000000E+00  0.10627254475E+04  0.10627254475E+04  0.25500000920E-02 0.  1.
       -2   -1    0    0    0  501  0.00000000000E+00  0.00000000000E+00 -0.11591770397E+03  0.11591770400E+03  0.25500000920E-02 0. -1.
    10030    2    1    2    0    0  0.00000000000E+00  0.00000000000E+00  0.94680774357E+03  0.11786431515E+04  0.70196493886E+03 0.  0.
        5    1    3    3  502    0 -0.76266134255E+02  0.91351681219E+01 -0.10157798001E+03  0.12743684927E+03  0.46999998093E+01 0. -1.
       -5    1    3    3    0  502  0.76266134255E+02 -0.91351681219E+01  0.10483857236E+04  0.10512063023E+04  0.46999998093E+01 0.  1.
</event>
<event>
 5   0  0.1197259E-02  0.7039503E+03  0.7818609E-02  0.9710500E-01
       -1   -1    0    0    0  501  0.00000000000E+00  0.00000000000E+00  0.12970698440E+03  0.12970698449E+03  0.50400001928E-02 0.  1.
        1   -1    0    0  501    0  0.00000000000E+00  0.00000000000E+00 -0.95512597704E+03  0.95512597706E+03  0.50400001928E-02 0. -1.
    10030    2    1    2    0    0  0.00000000000E+00  0.00000000000E+00 -0.82541899265E+03  0.10848329616E+04  0.70395031149E+03 0.  0.
        3    1    3    3  502    0  0.13716901216E+02 -0.40766294262E+02  0.12564167248E+03  0.13280016638E+03  0.10100000352E+00 0.  1.
       -3    1    3    3    0  502 -0.13716901216E+02  0.40766294262E+02 -0.95106066513E+03  0.95203279517E+03  0.10100000352E+00 0. -1.
</event>
<event>
 5   0  0.2006362E-02  0.7006497E+03  0.7818609E-02  0.9716122E-01
        2   -1    0    0  501    0  0.00000000000E+00  0.00000000000E+00  0.41639261406E+03  0.41639261407E+03  0.25500000920E-02 0. -1.
       -2   -1    0    0    0  501  0.00000000000E+00  0.00000000000E+00 -0.29473986445E+03  0.29473986446E+03  0.25500000920E-02 0.  1.
    10030    2    1    2    0    0  0.00000000000E+00  0.00000000000E+00  0.12165274961E+03  0.71113247853E+03  0.70064970601E+03 0.  0.
        4    1    3    3  502    0  0.26994122911E+02 -0.50457412265E+02  0.41161453877E+03  0.41557523332E+03  0.12699999809E+01 0. -1.
       -4    1    3    3    0  502 -0.26994122911E+02  0.50457412265E+02 -0.28996178916E+03  0.29555724521E+03  0.12699999809E+01 0.  1.
</event>
<event>
 5   0  0.1909053E-02  0.7014034E+03  0.7818609E-02  0.9714835E-01
        2   -1    0    0  501    0  0.00000000000E+00  0.00000000000E+00  0.28351938178E+03  0.28351938180E+03  0.25500000920E-02 0. -1.
       -2   -1    0    0    0  501  0.00000000000E+00  0.00000000000E+00 -0.43380337585E+03  0.43380337585E+03  0.25500000920E-02 0.  1.
    10030    2    1    2    0    0  0.00000000000E+00  0.00000000000E+00 -0.15028399406E+03  0.71732275765E+03  0.70140335027E+03 0.  0.
        1    1    3    3  502    0  0.91395439017E+02 -0.87782758807E+02 -0.40956958179E+03  0.42872623126E+03  0.50400001928E-02 0.  1.
       -1    1    3    3    0  502 -0.91395439017E+02  0.87782758807E+02  0.25928558773E+03  0.28859652639E+03  0.50400001928E-02 0. -1.
</event>
<event>
 5   0  0.7947250E-03  0.7143946E+03  0.7818609E-02  0.9692927E-01
        3   -1    0    0  501    0  0.00000000000E+00  0.00000000000E+00  0.14039082519E+04  0.14039082555E+04  0.10100000352E+00 0. -1.
       -3   -1    0    0    0  501  0.00000000000E+00  0.00000000000E+00 -0.90881912516E+02  0.90881968638E+02  0.10100000352E+00 0.  1.
    10030    2    1    2    0    0  0.00000000000E+00  0.00000000000E+00  0.13130263394E+04  0.14947902242E+04  0.71439460130E+03 0.  0.
        3    1    3    3  502    0  0.20417245583E+03 -0.29296105618E+03  0.63811333410E+03  0.73123266442E+03  0.10100000352E+00 0. -1.
       -3    1    3    3    0  502 -0.20417245583E+03  0.29296105618E+03  0.67491300529E+03  0.76355755976E+03  0.10100000352E+00 0.  1.
</event>
<event>
 5   0  0.1257442E-02  0.7002789E+03  0.7818609E-02  0.9716755E-01
       -1   -1    0    0    0  501  0.00000000000E+00  0.00000000000E+00  0.35842421323E+03  0.35842421326E+03  0.50400001928E-02 0.  1.
        1   -1    0    0  501    0  0.00000000000E+00  0.00000000000E+00 -0.34204617614E+03  0.34204617618E+03  0.50400001928E-02 0. -1.
    10030    2    1    2    0    0  0.00000000000E+00  0.00000000000E+00  0.16378037085E+02  0.70047038944E+03  0.70027889186E+03 0.  0.
        1    1    3    3  502    0  0.88185714077E+02 -0.98888335056E+02  0.33237949622E+03  0.35781524913E+03  0.50400001928E-02 0.  1.
       -1    1    3    3    0  502 -0.88185714077E+02  0.98888335056E+02 -0.31600145914E+03  0.34265514031E+03  0.50400001928E-02 0. -1.
</event>
<event>
 5   0  0.1948138E-02  0.7009999E+03  0.7818609E-02  0.9715524E-01
       -2   -1    0    0    0  501  0.00000000000E+00  0.00000000000E+00  0.16458251439E+03  0.16458251441E+03  0.25500000920E-02 0.  1.
        2   -1    0    0  501    0  0.00000000000E+00  0.00000000000E+00 -0.74643541116E+03  0.74643541116E+03  0.25500000920E-02 0. -1.
    10030    2    1    2    0    0  0.00000000000E+00  0.00000000000E+00 -0.58185289677E+03  0.91101792557E+03  0.70099990530E+03 0.  0.
        3    1    3    3  502    0 -0.35534443359E+02 -0.15783051451E+02  0.16177106028E+03  0.16637814617E+03  0.10100000352E+00 0.  1.
       -3    1    3    3    0  502  0.35534443359E+02  0.15783051451E+02 -0.74362395704E+03  0.74463977940E+03  0.10100000352E+00 0. -1.
</event>
<event>
 5   0  0.1197259E-02  0.6982349E+03  0.7818609E-02  0.9720256E-01
       -1   -1    0    0    0  501  0.00000000000E+00  0.00000000000E+00  0.11642453493E+03  0.11642453504E+03  0.50400001928E-02 0. -1.
        1   -1    0    0  501    0  0.00000000000E+00  0.00000000000E+00 -0.10468839516E+04  0.10468839516E+04  0.50400001928E-02 0.  1.
    10030    2    1    2    0    0  0.00000000000E+00  0.00000000000E+00 -0.93045941666E+03  0.11633084866E+04  0.69823485234E+03 0.  0.
        3    1    3    3  502    0  0.13631627392E+03 -0.28965523898E+03 -0.23316885550E+03  0.39604293881E+03  0.10100000352E+00 0. -1.
       -3    1    3    3    0  502 -0.13631627392E+03  0.28965523898E+03 -0.69729056116E+03  0.76726554783E+03  0.10100000352E+00 0.  1.
</event>
<event>
 5   0  0.1237686E-02  0.7089173E+03  0.7818609E-02  0.9702103E-01
       -1   -1    0    0    0  501  0.00000000000E+00  0.00000000000E+00  0.14283849282E+03  0.14283849291E+03  0.50400001928E-02 0. -1.
        1   -1    0    0  501    0  0.00000000000E+00  0.00000000000E+00 -0.87960136626E+03  0.87960136627E+03  0.50400001928E-02 0.  1.
    10030    2    1    2    0    0  0.00000000000E+00  0.00000000000E+00 -0.73676287344E+03  0.10224398592E+04  0.70891729699E+03 0.  0.
        5    1    3    3  502    0  0.20730577851E+03  0.24170235275E+03 -0.14391194033E+03  0.34946881076E+03  0.46999998093E+01 0. -1.
       -5    1    3    3    0  502 -0.20730577851E+03 -0.24170235275E+03 -0.59285093311E+03  0.67297104842E+03  0.46999998093E+01 0.  1.
</event>
<event>
 5   0  0.7947250E-03  0.7102270E+03  0.7818609E-02  0.9699901E-01
       -3   -1    0    0    0  501  0.00000000000E+00  0.00000000000E+00  0.27855823990E+03  0.27855825821E+03  0.10100000352E+00 0.  1.
        3   -1    0    0  501    0  0.00000000000E+00  0.00000000000E+00 -0.45270820166E+03  0.45270821293E+03  0.10100000352E+00 0. -1.
    10030    2    1    2    0    0  0.00000000000E+00  0.00000000000E+00 -0.17414996176E+03  0.73126647114E+03  0.71022703597E+03 0.  0.
        3    1    3    3  502    0  0.27601258146E+03 -0.47155883231E+02 -0.31194574616E+03  0.41918585520E+03  0.10100000352E+00 0. -1.
       -3    1    3    3    0  502 -0.27601258146E+03  0.47155883231E+02  0.13779578440E+03  0.31208061594E+03  0.10100000352E+00 0.  1.
</event>
<event>
 5   0  0.1257442E-02  0.6987210E+03  0.7818609E-02  0.9719422E-01
        1   -1    0    0  501    0  0.00000000000E+00  0.00000000000E+00  0.10639873580E+04  0.10639873580E+04  0.50400001928E-02 0.  1.
       -1   -1    0    0    0  501  0.00000000000E+00  0.00000000000E+00 -0.11471259590E+03  0.11471259602E+03  0.50400001928E-02 0. -1.
    10030    2    1    2    0    0  0.00000000000E+00  0.00000000000E+00  0.94927476211E+03  0.11786999540E+04  0.69872097985E+03 0.  0.
        1    1    3    3  502    0  0.25074624633E+03 -0.76454673715E+02  0.85053874203E+02  0.27559600637E+03  0.50400001928E-02 0. -1.
       -1    1    3    3    0  502 -0.25074624633E+03  0.76454673715E+02  0.86422088791E+03  0.90310394768E+03  0.50400001928E-02 0.  1.
</event>
<event>
 5   0  0.1257442E-02  0.6978614E+03  0.7818609E-02  0.9720897E-01
       -1   -1    0    0    0  501  0.00000000000E+00  0.00000000000E+00  0.19408384377E+03  0.19408384383E+03  0.50400001928E-02 0. -1.
        1   -1    0    0  501    0  0.00000000000E+00  0.00000000000E+00 -0.62731969683E+03  0.62731969685E+03  0.50400001928E-02 0.  1.
    10030    2    1    2    0    0  0.00000000000E+00  0.00000000000E+00 -0.43323585306E+03  0.82140354068E+03  0.69786135605E+03 0.  0.
        1    1    3    3  502    0 -0.33824344542E+03 -0.93522341770E+01 -0.11635236738E+03  0.35781834228E+03  0.50400001928E-02 0. -1.
       -1    1    3    3    0  502  0.33824344542E+03  0.93522341770E+01 -0.31688348568E+03  0.46358519840E+03  0.50400001928E-02 0.  1.
</event>
<event>
 5   0  0.7947250E-03  0.6958615E+03  0.7818609E-02  0.9724336E-01
       -3   -1    0    0    0  501  0.00000000000E+00  0.00000000000E+00  0.22630992577E+03  0.22630994831E+03  0.10100000352E+00 0.  1.
        3   -1    0    0  501    0  0.00000000000E+00  0.00000000000E+00 -0.53491158359E+03  0.53491159313E+03  0.10100000352E+00 0. -1.
    10030    2    1    2    0    0  0.00000000000E+00  0.00000000000E+00 -0.30860165782E+03  0.76122154144E+03  0.69586151779E+03 0.  0.
        3    1    3    3  502    0 -0.18612317806E+03 -0.43173304225E+02 -0.47238725436E+03  0.50956402924E+03  0.10100000352E+00 0. -1.
       -3    1    3    3    0  502  0.18612317806E+03  0.43173304225E+02  0.16378559655E+03  0.25165751220E+03  0.10100000352E+00 0.  1.
</event>
<event>
 5   0  0.1948138E-02  0.6893180E+03  0.7818609E-02  0.9735676E-01
       -2   -1    0    0    0  501  0.00000000000E+00  0.00000000000E+00  0.45095465069E+03  0.45095465070E+03  0.25500000920E-02 0. -1.
        2   -1    0    0  501    0  0.00000000000E+00  0.00000000000E+00 -0.26341856423E+03  0.26341856424E+03  0.25500000920E-02 0.  1.
    10030    2    1    2    0    0  0.00000000000E+00  0.00000000000E+00  0.18753608646E+03  0.71437321495E+03  0.68931800100E+03 0.  0.
        3    1    3    3  502    0 -0.87717931541E+02  0.23568546688E+03 -0.15048430402E+03  0.29306588128E+03  0.10100000352E+00 0.  1.
       -3    1    3    3    0  502  0.87717931541E+02 -0.23568546688E+03  0.33802039049E+03  0.42130733366E+03  0.10100000352E+00 0. -1.
</event>
<event>
 5   0  0.7947250E-03  0.6967203E+03  0.7818609E-02  0.9722857E-01
        3   -1    0    0  501    0  0.00000000000E+00  0.00000000000E+00  0.41333796773E+03  0.41333798007E+03  0.10100000352E+00 0. -1.
       -3   -1    0    0    0  501  0.00000000000E+00  0.00000000000E+00 -0.29359698713E+03  0.29359700450E+03  0.10100000352E+00 0.  1.
    10030    2    1    2    0    0  0.00000000000E+00  0.00000000000E+00  0.11974098061E+03  0.70693498458E+03  0.69672029537E+03 0.  0.
        5    1    3    3  502    0  0.24766366622E+03 -0.62389097929E+02  0.30020387307E+03  0.39417527384E+03  0.46999998093E+01 0. -1.
       -5    1    3    3    0  502 -0.24766366622E+03  0.62389097929E+02 -0.18046289246E+03  0.31275971073E+03  0.46999998093E+01 0.  1.
</event>
<event>
 5   0  0.1257442E-02  0.7033778E+03  0.7818609E-02  0.9711473E-01
        1   -1    0    0  501    0  0.00000000000E+00  0.00000000000E+00  0.91153297096E+03  0.91153297098E+03  0.50400001928E-02 0.  1.
       -1   -1    0    0    0  501  0.00000000000E+00  0.00000000000E+00 -0.13568909570E+03  0.13568909579E+03  0.50400001928E-02 0. -1.
    10030    2    1    2    0    0  0.00000000000E+00  0.00000000000E+00  0.77584387526E+03  0.10472220668E+04  0.70337780627E+03 0.  0.
        1    1    3    3  502    0  0.13451114236E+02  0.88078641420E+02 -0.11860633601E+03  0.14834501176E+03  0.50400001928E-02 0. -1.
       -1    1    3    3    0  502 -0.13451114236E+02 -0.88078641420E+02  0.89445021127E+03  0.89887705501E+03  0.50400001928E-02 0.  1.
</event>
<event>
 5   0  0.1223742E-02  0.7046793E+03  0.7818609E-02  0.9709263E-01
       -1   -1    0    0    0  501  0.00000000000E+00  0.00000000000E+00  0.33942409354E+03  0.33942409357E+03  0.50400001928E-02 0. -1.
        1   -1    0    0  501    0  0.00000000000E+00  0.00000000000E+00 -0.36574664186E+03  0.36574664189E+03  0.50400001928E-02 0.  1.
    10030    2    1    2    0    0  0.00000000000E+00  0.00000000000E+00 -0.26322548324E+02  0.70517073547E+03  0.70467928138E+03 0.  0.
        2    1    3    3  502    0 -0.34100364546E+03  0.68905254947E+02  0.42661158337E+02  0.35050163311E+03  0.25500000920E-02 0. -1.
       -2    1    3    3    0  502  0.34100364546E+03 -0.68905254947E+02 -0.68983706660E+02  0.35466910236E+03  0.25500000920E-02 0.  1.
</event>
<event>
 5   0  0.1197259E-02  0.6951011E+03  0.7818609E-02  0.9725647E-01
       -1   -1    0    0    0  501  0.00000000000E+00  0.00000000000E+00  0.31865142479E+03  0.31865142483E+03  0.50400001928E-02 0. -1.
        1   -1    0    0  501    0  0.00000000000E+00  0.00000000000E+00 -0.37907057698E+03  0.37907057702E+03  0.50400001928E-02 0.  1.
    10030    2    1    2    0    0  0.00000000000E+00  0.00000000000E+00 -0.60419152195E+02  0.69772200184E+03  0.69510108467E+03 0.  0.
        3    1    3    3  502    0 -0.28510585888E+03 -0.76257203613E+02  0.15403320635E+03  0.33290651950E+03  0.10100000352E+00 0. -1.
       -3    1    3    3    0  502  0.28510585888E+03  0.76257203613E+02 -0.21445235854E+03  0.36481548234E+03  0.10100000352E+00 0.  1.
</event>
<event>
 5   0  0.1909053E-02  0.7048286E+03  0.7818609E-02  0.9709010E-01
        2   -1    0    0  501    0  0.00000000000E+00  0.00000000000E+00  0.48079400970E+03  0.48079400970E+03  0.25500000920E-02 0.  1.
       -2   -1    0    0    0  501  0.00000000000E+00  0.00000000000E+00 -0.25831404128E+03  0.25831404129E+03  0.25500000920E-02 0. -1.
    10030    2    1    2    0    0  0.00000000000E+00  0.00000000000E+00  0.22247996842E+03  0.73910805099E+03  0.70482861370E+03 0.  0.
        1    1    3    3  502    0  0.32628767056E+03 -0.12012132809E+03  0.17150746624E+03  0.38769522621E+03  0.50400001928E-02 0. -1.
       -1    1    3    3    0  502 -0.32628767056E+03  0.12012132809E+03  0.50972502177E+02  0.35141282479E+03  0.50400001928E-02 0.  1.
</event>
<event>
 5   0  0.1948138E-02  0.7016613E+03  0.7818609E-02  0.9714395E-01
       -2   -1    0    0    0  501  0.00000000000E+00  0.00000000000E+00  0.10252240328E+03  0.10252240331E+03  0.25500000920E-02 0.  1.
        2   -1    0    0  501    0  0.00000000000E+00  0.00000000000E+00 -0.12005389177E+04  0.12005389177E+04  0.25500000920E-02 0. -1.
    10030    2    1    2    0    0  0.00000000000E+00  0.00000000000E+00 -0.10980165145E+04  0.13030613210E+04  0.70166127182E+03 0.  0.
        3    1    3    3  502    0 -0.98206709049E+02 -0.24233068381E+02  0.74854062355E+02  0.12583695863E+03  0.10100000352E+00 0.  1.
       -3    1    3    3    0  502  0.98206709049E+02  0.24233068381E+02 -0.11728705768E+04  0.11772243624E+04  0.10100000352E+00 0. -1.
</event>
<event>
 5   0  0.1226303E-02  0.7261318E+03  0.7818609E-02  0.9673558E-01
        1   -1    0    0  501    0  0.00000000000E+00  0.00000000000E+00  0.44136753562E+03  0.44136753564E+03  0.50400001928E-02 0. -1.
       -1   -1    0    0    0  501  0.00000000000E+00  0.00000000000E+00 -0.29865551924E+03  0.29865551929E+03  0.50400001928E-02 0.  1.
    10030    2    1    2    0    0  0.00000000000E+00  0.00000000000E+00  0.14271201637E+03  0.74002305493E+03  0.72613180774E+03 0.  0.
        4    1    3    3  502    0  0.23122987724E+03 -0.32597305763E+02  0.35467684152E+03  0.42464940278E+03  0.12699999809E+01 0. -1.
       -4    1    3    3    0  502 -0.23122987724E+03  0.32597305763E+02 -0.21196482515E+03  0.31537365215E+03  0.12699999809E+01 0.  1.
</event>
<event>
 5   0  0.1223742E-02  0.6955950E+03  0.7818609E-02  0.9724795E-01
        1   -1    0    0  501    0  0.00000000000E+00  0.00000000000E+00  0.11102179965E+03  0.11102179977E+03  0.50400001928E-02 0. -1.
       -1   -1    0    0    0  501  0.00000000000E+00  0.00000000000E+00 -0.10895438245E+04  0.10895438245E+04  0.50400001928E-02 0.  1.
    10030    2    1    2    0    0  0.00000000000E+00  0.00000000000E+00 -0.97852202481E+03  0.12005656242E+04  0.69559504389E+03 0.  0.
        2    1    3    3  502    0 -0.25752515188E+03  0.18272701208E+03 -0.74088812876E+03  0.80537170558E+03  0.25500000920E-02 0.  1.
       -2    1    3    3    0  502  0.25752515188E+03 -0.18272701208E+03 -0.23763389605E+03  0.39519391867E+03  0.25500000920E-02 0. -1.
</event>
<event>
 5   0  0.1223742E-02  0.6999925E+03  0.7818609E-02  0.9717245E-01
        1   -1    0    0  501    0  0.00000000000E+00  0.00000000000E+00  0.49566993690E+03  0.49566993693E+03  0.50400001928E-02 0.  1.
       -1   -1    0    0    0  501  0.00000000000E+00  0.00000000000E+00 -0.24713497808E+03  0.24713497813E+03  0.50400001928E-02 0. -1.
    10030    2    1    2    0    0  0.00000000000E+00  0.00000000000E+00  0.24853495883E+03  0.74280491506E+03  0.69999251144E+03 0.  0.
        2    1    3    3  502    0  0.63532401205E+02  0.24114378750E+03  0.38486993986E+03  0.45859738646E+03  0.25500000920E-02 0.  1.
       -2    1    3    3    0  502 -0.63532401205E+02 -0.24114378750E+03 -0.13633498103E+03  0.28420752860E+03  0.25500000920E-02 0. -1.
</event>
<event>
 5   0  0.1257442E-02  0.6947279E+03  0.7818609E-02  0.9726291E-01
       -1   -1    0    0    0  501  0.00000000000E+00  0.00000000000E+00  0.17131483571E+03  0.17131483579E+03  0.50400001928E-02 0.  1.
        1   -1    0    0  501    0  0.00000000000E+00  0.00000000000E+00 -0.70432729787E+03  0.70432729789E+03  0.50400001928E-02 0. -1.
    10030    2    1    2    0    0  0.00000000000E+00  0.00000000000E+00 -0.53301246216E+03  0.87564213367E+03  0.69472790461E+03 0.  0.
        1    1    3    3  502    0  0.30765335587E+03  0.77820457404E+02 -0.88457489249E+02  0.32944094827E+03  0.50400001928E-02 0. -1.
       -1    1    3    3    0  502 -0.30765335587E+03 -0.77820457404E+02 -0.44455497291E+03  0.54620118540E+03  0.50400001928E-02 0.  1.
</event>
<event>
 5   0  0.7947250E-03  0.7234121E+03  0.7818609E-02  0.9678011E-01
        3   -1    0    0  501    0  0.00000000000E+00  0.00000000000E+00  0.10205515322E+04  0.10205515372E+04  0.10100000352E+00 0. -1.
       -3   -1    0    0    0  501  0.00000000000E+00  0.00000000000E+00 -0.12819659918E+03  0.12819663896E+03  0.10100000352E+00 0.  1.
    10030    2    1    2    0    0  0.00000000000E+00  0.00000000000E+00  0.89235493304E+03  0.11487481762E+04  0.72341208571E+03 0.  0.
        2    1    3    3  502    0 -0.11334506624E+03  0.26301416780E+03  0.79699659719E+03  0.84689263336E+03  0.25500000920E-02 0. -1.
       -2    1    3    3    0  502  0.11334506624E+03 -0.26301416780E+03  0.95358335853E+02  0.30185554282E+03  0.25500000920E-02 0.  1.
</event>
<event>
 5   0  0.1226303E-02  0.6574094E+03  0.7818609E-02  0.9792974E-01
        1   -1    0    0  501    0  0.00000000000E+00  0.00000000000E+00  0.14875031798E+04  0.14875031798E+04  0.50400001928E-02 0. -1.
       -1   -1    0    0    0  501  0.00000000000E+00  0.00000000000E+00 -0.72636331349E+02  0.72636331524E+02  0.50400001928E-02 0.  1.
    10030    2    1    2    0    0  0.00000000000E+00  0.00000000000E+00  0.14148668485E+04  0.15601395114E+04  0.65740938234E+03 0.  0.
        4    1    3    3  502    0  0.65792171183E+02 -0.32010582343E+03  0.62356929086E+03  0.70401464572E+03  0.12699999809E+01 0. -1.
       -4    1    3    3    0  502 -0.65792171183E+02  0.32010582343E+03  0.79129755763E+03  0.85612486565E+03  0.12699999809E+01 0.  1.
</event>
<event>
 5   0  0.2006362E-02  0.6985241E+03  0.7818609E-02  0.9719760E-01
       -2   -1    0    0    0  501  0.00000000000E+00  0.00000000000E+00  0.16533387394E+03  0.16533387396E+03  0.25500000920E-02 0.  1.
        2   -1    0    0  501    0  0.00000000000E+00  0.00000000000E+00 -0.73780385113E+03  0.73780385114E+03  0.25500000920E-02 0. -1.
    10030    2    1    2    0    0  0.00000000000E+00  0.00000000000E+00 -0.57246997719E+03  0.90313772510E+03  0.69852406953E+03 0.  0.
        4    1    3    3  502    0 -0.10138139444E+03  0.24446488620E+03  0.84297242489E+01  0.26479037157E+03  0.12699999809E+01 0.  1.
       -4    1    3    3    0  502  0.10138139444E+03 -0.24446488620E+03 -0.58089970144E+03  0.63834735353E+03  0.12699999809E+01 0. -1.
</event>
<event>
 5   0  0.7947250E-03  0.6988366E+03  0.7818609E-02  0.9719224E-01
        3   -1    0    0  501    0  0.00000000000E+00  0.00000000000E+00  0.14440921418E+03  0.14440924950E+03  0.10100000352E+00 0. -1.
       -3   -1    0    0    0  501  0.00000000000E+00  0.00000000000E+00 -0.84546624715E+03  0.84546625318E+03  0.10100000352E+00 0.  1.
    10030    2    1    2    0    0  0.00000000000E+00  0.00000000000E+00 -0.70105703296E+03  0.98987550269E+03  0.69883656698E+03 0.  0.
        4    1    3    3  502    0  0.38235645674E+02  0.17313157257E+03 -0.77701068619E+03  0.79698414374E+03  0.12699999809E+01 0.  1.
       -4    1    3    3    0  502 -0.38235645674E+02 -0.17313157257E+03  0.75953653221E+02  0.19289135895E+03  0.12699999809E+01 0. -1.
</event>
<event>
 5   0  0.2006362E-02  0.7010271E+03  0.7818609E-02  0.9715477E-01
        2   -1    0    0  501    0  0.00000000000E+00  0.00000000000E+00  0.24585437547E+04  0.24585437547E+04  0.25500000920E-02 0.  1.
       -2   -1    0    0    0  501  0.00000000000E+00  0.00000000000E+00 -0.49972565234E+02  0.49972565299E+02  0.25500000920E-02 0. -1.
    10030    2    1    2    0    0  0.00000000000E+00  0.00000000000E+00  0.24085711895E+04  0.25085163200E+04  0.70102707008E+03 0.  0.
        4    1    3    3  502    0  0.24401236957E+03 -0.13716039248E+03  0.19591646061E+04  0.19790610340E+04  0.12699999809E+01 0.  1.
       -4    1    3    3    0  502 -0.24401236957E+03  0.13716039248E+03  0.44940658343E+03  0.52945528602E+03  0.12699999809E+01 0. -1.
</event>
<event>
 5   0  0.1257442E-02  0.7016367E+03  0.7818609E-02  0.9714437E-01
       -1   -1    0    0    0  501  0.00000000000E+00  0.00000000000E+00  0.38575822951E+03  0.38575822955E+03  0.50400001928E-02 0. -1.
        1   -1    0    0  501    0  0.00000000000E+00  0.00000000000E+00 -0.31904313610E+03  0.31904313614E+03  0.50400001928E-02 0.  1.
    10030    2    1    2    0    0  0.00000000000E+00  0.00000000000E+00  0.66715093411E+02  0.70480136569E+03  0.70163670185E+03 0.  0.
        1    1    3    3  502    0  0.32197584153E+02  0.13681860857E+03 -0.28952262935E+03  0.32183748851E+03  0.50400001928E-02 0.  1.
       -1    1    3    3    0  502 -0.32197584153E+02 -0.13681860857E+03  0.35623772277E+03  0.38296387718E+03  0.50400001928E-02 0. -1.
</event>
<event>
 5   0  0.1226303E-02  0.7020731E+03  0.7818609E-02  0.9713693E-01
        1   -1    0    0  501    0  0.00000000000E+00  0.00000000000E+00  0.13092394946E+03  0.13092394956E+03  0.50400001928E-02 0. -1.
       -1   -1    0    0    0  501  0.00000000000E+00  0.00000000000E+00 -0.94120792287E+03  0.94120792288E+03  0.50400001928E-02 0.  1.
    10030    2    1    2    0    0  0.00000000000E+00  0.00000000000E+00 -0.81028397341E+03  0.10721318724E+04  0.70207309759E+03 0.  0.
        4    1    3    3  502    0 -0.15769838534E+03  0.11247532404E+03 -0.85220669735E+03  0.87394356063E+03  0.12699999809E+01 0.  1.
       -4    1    3    3    0  502  0.15769838534E+03 -0.11247532404E+03  0.41922723944E+02  0.19818831182E+03  0.12699999809E+01 0. -1.
</event>
<event>
 5   0  0.2006362E-02  0.6906274E+03  0.7818609E-02  0.9733396E-01
        2   -1    0    0  501    0  0.00000000000E+00  0.00000000000E+00  0.14023928713E+04  0.14023928713E+04  0.25500000920E-02 0. -1.
       -2   -1    0    0    0  501  0.00000000000E+00  0.00000000000E+00 -0.85027209135E+02  0.85027209173E+02  0.25500000920E-02 0.  1.
    10030    2    1    2    0    0  0.00000000000E+00  0.00000000000E+00  0.13173656621E+04  0.14874200804E+04  0.69062740167E+03 0.  0.
        4    1    3    3  502    0  0.26152478818E+01  0.29265683339E+03  0.10533790914E+04  0.10932812926E+04  0.12699999809E+01 0. -1.
       -4    1    3    3    0  502 -0.26152478818E+01 -0.29265683339E+03  0.26398657072E+03  0.39413878783E+03  0.12699999809E+01 0.  1.
</event>
<event>
 5   0  0.2006362E-02  0.6997932E+03  0.7818609E-02  0.9717586E-01
       -2   -1    0    0    0  501  0.00000000000E+00  0.00000000000E+00  0.70038441682E+02  0.70038441728E+02  0.25500000920E-02 0. -1.
        2   -1    0    0  501    0  0.00000000000E+00  0.00000000000E+00 -0.17480061581E+04  0.17480061581E+04  0.25500000920E-02 0.  1.
    10030    2    1    2    0    0  0.00000000000E+00  0.00000000000E+00 -0.16779677164E+04  0.18180445999E+04  0.69979319062E+03 0.  0.
        4    1    3    3  502    0 -0.41011569004E+01  0.58122606648E+02  0.57339645029E+02  0.81758820218E+02  0.12699999809E+01 0. -1.
       -4    1    3    3    0  502  0.41011569004E+01 -0.58122606648E+02 -0.17353073615E+04  0.17362857796E+04  0.12699999809E+01 0.  1.
</event>
<event>
 5   0  0.1973067E-02  0.7009696E+03  0.7818609E-02  0.9715576E-01
       -2   -1    0    0    0  501  0.00000000000E+00  0.00000000000E+00  0.10810331332E+03  0.10810331335E+03  0.25500000920E-02 0.  1.
        2   -1    0    0  501    0  0.00000000000E+00  0.00000000000E+00 -0.11363164963E+04  0.11363164963E+04  0.25500000920E-02 0. -1.
    10030    2    1    2    0    0  0.00000000000E+00  0.00000000000E+00 -0.10282131830E+04  0.12444198097E+04  0.70096955213E+03 0.  0.
        5    1    3    3  502    0  0.25411800306E+03 -0.16826345309E+03 -0.82123035671E+03  0.87597370846E+03  0.46999998093E+01 0. -1.
       -5    1    3    3    0  502 -0.25411800306E+03  0.16826345309E+03 -0.20698282628E+03  0.36844610121E+03  0.46999998093E+01 0.  1.
</event>
<event>
 5   0  0.1909053E-02  0.6972460E+03  0.7818609E-02  0.9721954E-01
       -2   -1    0    0    0  501  0.00000000000E+00  0.00000000000E+00  0.29157038857E+03  0.29157038858E+03  0.25500000920E-02 0.  1.
        2   -1    0    0  501    0  0.00000000000E+00  0.00000000000E+00 -0.41683929082E+03  0.41683929083E+03  0.25500000920E-02 0. -1.
    10030    2    1    2    0    0  0.00000000000E+00  0.00000000000E+00 -0.12526890224E+03  0.70840967941E+03  0.69724599390E+03 0.  0.
        1    1    3    3  502    0 -0.20800178077E+02 -0.96021004637E+02 -0.40248267141E+03  0.41430059322E+03  0.50400001928E-02 0. -1.
       -1    1    3    3    0  502  0.20800178077E+02  0.96021004637E+02  0.27721376916E+03  0.29410908619E+03  0.50400001928E-02 0.  1.
</event>
<event>
 5   0  0.1237686E-02  0.7031153E+03  0.7818609E-02  0.9711919E-01
       -1   -1    0    0    0  501  0.00000000000E+00  0.00000000000E+00  0.18440178400E+03  0.18440178407E+03  0.50400001928E-02 0.  1.
        1   -1    0    0  501    0  0.00000000000E+00  0.00000000000E+00 -0.67023639078E+03  0.67023639079E+03  0.50400001928E-02 0. -1.
    10030    2    1    2    0    0  0.00000000000E+00  0.00000000000E+00 -0.48583460678E+03  0.85463817486E+03  0.70311531400E+03 0.  0.
        5    1    3    3  502    0  0.11355598968E+03  0.25067907289E+03  0.22929816855E+02  0.27619345915E+03  0.46999998093E+01 0.  1.
       -5    1    3    3    0  502 -0.11355598968E+03 -0.25067907289E+03 -0.50876442363E+03  0.57844471571E+03  0.46999998093E+01 0. -1.
</event>
<event>
 5   0  0.1973067E-02  0.6968058E+03  0.7818609E-02  0.9722710E-01
        2   -1    0    0  501    0  0.00000000000E+00  0.00000000000E+00  0.81768183383E+03  0.81768183383E+03  0.25500000920E-02 0. -1.
       -2   -1    0    0    0  501  0.00000000000E+00  0.00000000000E+00 -0.14844966164E+03  0.14844966166E+03  0.25500000920E-02 0.  1.
    10030    2    1    2    0    0  0.00000000000E+00  0.00000000000E+00  0.66923217219E+03  0.96613149549E+03  0.69680583112E+03 0.  0.
        5    1    3    3  502    0 -0.15173360426E+03  0.18340136734E+03  0.68730179209E+03  0.72736853906E+03  0.46999998093E+01 0. -1.
       -5    1    3    3    0  502  0.15173360426E+03 -0.18340136734E+03 -0.18069619899E+02  0.23876295643E+03  0.46999998093E+01 0.  1.
</event>
<event>
 5   0  0.7947250E-03  0.7140270E+03  0.7818609E-02  0.9693540E-01
        4   -1    0    0  501    0  0.00000000000E+00  0.00000000000E+00  0.58646870166E+03  0.58647007675E+03  0.12699999809E+01 0.  1.
       -4   -1    0    0    0  501  0.00000000000E+00  0.00000000000E+00 -0.21732887074E+03  0.21733258144E+03  0.12699999809E+01 0. -1.
    10030    2    1    2    0    0  0.00000000000E+00  0.00000000000E+00  0.36913983092E+03  0.80380265819E+03  0.71402695926E+03 0.  0.
        4    1    3    3  502    0  0.31808979483E+03 -0.13842874540E+03  0.27951505337E+03  0.44550411119E+03  0.12699999809E+01 0.  1.
       -4    1    3    3    0  502 -0.31808979483E+03  0.13842874540E+03  0.89624777545E+02  0.35829854700E+03  0.12699999809E+01 0. -1.
</event>
<event>
 5   0  0.1973067E-02  0.7012741E+03  0.7818609E-02  0.9715056E-01
        2   -1    0    0  501    0  0.00000000000E+00  0.00000000000E+00  0.77097234954E+03  0.77097234955E+03  0.25500000920E-02 0. -1.
       -2   -1    0    0    0  501  0.00000000000E+00  0.00000000000E+00 -0.15946919791E+03  0.15946919793E+03  0.25500000920E-02 0.  1.
    10030    2    1    2    0    0  0.00000000000E+00  0.00000000000E+00  0.61150315164E+03  0.93044154747E+03  0.70127410390E+03 0.  0.
        5    1    3    3  502    0  0.48202467841E+02  0.21167394832E+03  0.67102773277E+03  0.70528692491E+03  0.46999998093E+01 0. -1.
       -5    1    3    3    0  502 -0.48202467841E+02 -0.21167394832E+03 -0.59524581135E+02  0.22515462256E+03  0.46999998093E+01 0.  1.
</event>
<event>
 5   0  0.1197259E-02  0.7066965E+03  0.7818609E-02  0.9705848E-01
       -1   -1    0    0    0  501  0.00000000000E+00  0.00000000000E+00  0.26001990748E+03  0.26001990753E+03  0.50400001928E-02 0. -1.
        1   -1    0    0  501    0  0.00000000000E+00  0.00000000000E+00 -0.48017478485E+03  0.48017478488E+03  0.50400001928E-02 0.  1.
    10030    2    1    2    0    0  0.00000000000E+00  0.00000000000E+00 -0.22015487738E+03  0.74019469241E+03  0.70669654919E+03 0.  0.
        3    1    3    3  502    0 -0.15781092662E+03  0.95167689330E+02  0.20569932011E+03  0.27617638956E+03  0.10100000352E+00 0. -1.
       -3    1    3    3    0  502  0.15781092662E+03 -0.95167689330E+02 -0.42585419749E+03  0.46401830285E+03  0.10100000352E+00 0.  1.
</event>
<event>
 5   0  0.1223742E-02  0.7010027E+03  0.7818609E-02  0.9715519E-01
       -1   -1    0    0    0  501  0.00000000000E+00  0.00000000000E+00  0.48115196388E+03  0.48115196390E+03  0.50400001928E-02 0. -1.
        1   -1    0    0  501    0  0.00000000000E+00  0.00000000000E+00 -0.25532721196E+03  0.25532721201E+03  0.50400001928E-02 0.  1.
    10030    2    1    2    0    0  0.00000000000E+00  0.00000000000E+00  0.22582475192E+03  0.73647917592E+03  0.70100268044E+03 0.  0.
        2    1    3    3  502    0  0.16691286486E+03  0.22064537249E+03  0.33899316948E+03  0.43756217138E+03  0.25500000920E-02 0. -1.
       -2    1    3    3    0  502 -0.16691286486E+03 -0.22064537249E+03 -0.11316841757E+03  0.29891700454E+03  0.25500000920E-02 0.  1.
</event>
<event>
 5   0  0.1197259E-02  0.7013461E+03  0.7818609E-02  0.9714933E-01
        1   -1    0    0  501    0  0.00000000000E+00  0.00000000000E+00  0.75132371870E+02  0.75132372039E+02  0.50400001928E-02 0.  1.
       -1   -1    0    0    0  501  0.00000000000E+00  0.00000000000E+00 -0.16367326056E+04  0.16367326056E+04  0.50400001928E-02 0. -1.
    10030    2    1    2    0    0  0.00000000000E+00  0.00000000000E+00 -0.15616002337E+04  0.17118649777E+04  0.70134614258E+03 0.  0.
        3    1    3    3  502    0  0.27707837830E+03  0.15462579263E+03 -0.11452119019E+04  0.11883567957E+04  0.10100000352E+00 0. -1.
       -3    1    3    3    0  502 -0.27707837830E+03 -0.15462579263E+03 -0.41638833185E+03  0.52350818195E+03  0.10100000352E+00 0.  1.
</event>
<event>
 5   0  0.1197259E-02  0.6923643E+03  0.7818609E-02  0.9730380E-01
        1   -1    0    0  501    0  0.00000000000E+00  0.00000000000E+00  0.12747800916E+04  0.12747800916E+04  0.50400001928E-02 0. -1.
       -1   -1    0    0    0  501  0.00000000000E+00  0.00000000000E+00 -0.94010003881E+02  0.94010004017E+02  0.50400001928E-02 0.  1.
    10030    2    1    2    0    0  0.00000000000E+00  0.00000000000E+00  0.11807700877E+04  0.13687900956E+04  0.69236430139E+03 0.  0.
        3    1    3    3  502    0 -0.19938659876E+03 -0.20300564284E+03  0.98018488503E+03  0.10206511284E+04  0.10100000352E+00 0. -1.
       -3    1    3    3    0  502  0.19938659876E+03  0.20300564284E+03  0.20058520271E+03  0.34813896728E+03  0.10100000352E+00 0.  1.
</event>
<event>
 5   0  0.2026361E-02  0.6964885E+03  0.7818609E-02  0.9723256E-01
       -2   -1    0    0    0  501  0.00000000000E+00  0.00000000000E+00  0.66814239690E+02  0.66814239739E+02  0.25500000920E-02 0.  1.
        2   -1    0    0  501    0  0.00000000000E+00  0.00000000000E+00 -0.18150927396E+04  0.18150927396E+04  0.25500000920E-02 0. -1.
    10030    2    1    2    0    0  0.00000000000E+00  0.00000000000E+00 -0.17482784999E+04  0.18819069793E+04  0.69648845334E+03 0.  0.
        2    1    3    3  502    0 -0.23650311078E+03 -0.11469510942E+03 -0.25689288633E+03  0.36753590925E+03  0.25500000920E-02 0.  1.
       -2    1    3    3    0  502  0.23650311078E+03  0.11469510942E+03 -0.14913856135E+04  0.15143710701E+04  0.25500000920E-02 0. -1.
</event>
<event>
 5   0  0.1237686E-02  0.7074027E+03  0.7818609E-02  0.9704656E-01
       -1   -1    0    0    0  501  0.00000000000E+00  0.00000000000E+00  0.33615703316E+03  0.33615703320E+03  0.50400001928E-02 0. -1.
        1   -1    0    0  501    0  0.00000000000E+00  0.00000000000E+00 -0.37216126732E+03  0.37216126736E+03  0.50400001928E-02 0.  1.
    10030    2    1    2    0    0  0.00000000000E+00  0.00000000000E+00 -0.36004234160E+02  0.70831830056E+03  0.70740265057E+03 0.  0.
        5    1    3    3  502    0 -0.27739947541E+03 -0.21062143653E+03  0.43483220617E+02  0.35103381454E+03  0.46999998093E+01 0.  1.
       -5    1    3    3    0  502  0.27739947541E+03  0.21062143653E+03 -0.79487454777E+02  0.35728448601E+03  0.46999998093E+01 0. -1.
</event>
<event>
 5   0  0.1223742E-02  0.6898929E+03  0.7818609E-02  0.9734675E-01
       -1   -1    0    0    0  501  0.00000000000E+00  0.00000000000E+00  0.15607047640E+03  0.15607047648E+03  0.50400001928E-02 0.  1.
        1   -1    0    0  501    0  0.00000000000E+00  0.00000000000E+00 -0.76239947815E+03  0.76239947816E+03  0.50400001928E-02 0. -1.
    10030    2    1    2    0    0  0.00000000000E+00  0.00000000000E+00 -0.60632900175E+03  0.91846995464E+03  0.68989288967E+03 0.  0.
        2    1    3    3  502    0  0.10509992538E+03 -0.32505223523E+03 -0.36677748053E+03  0.50122915934E+03  0.25500000920E-02 0. -1.
       -2    1    3    3    0  502 -0.10509992538E+03  0.32505223523E+03 -0.23955152122E+03  0.41724079530E+03  0.25500000920E-02 0.  1.
</event>
<event>
 5   0  0.1197259E-02  0.6977158E+03  0.7818609E-02  0.9721146E-01
        1   -1    0    0  501    0  0.00000000000E+00  0.00000000000E+00  0.64306308883E+03  0.64306308885E+03  0.50400001928E-02 0. -1.
       -1   -1    0    0    0  501  0.00000000000E+00  0.00000000000E+00 -0.18925333983E+03  0.18925333989E+03  0.50400001928E-02 0.  1.
    10030    2    1    2    0    0  0.00000000000E+00  0.00000000000E+00  0.45380974900E+03  0.83231642874E+03  0.69771580838E+03 0.  0.
        3    1    3    3  502    0  0.19312824365E+03 -0.25226241712E+03  0.54996674755E+02  0.32242749576E+03  0.10100000352E+00 0.  1.
       -3    1    3    3    0  502 -0.19312824365E+03  0.25226241712E+03  0.39881307425E+03  0.50988893298E+03  0.10100000352E+00 0. -1.
</event>
<event>
 5   0  0.1909053E-02  0.7010213E+03  0.7818609E-02  0.9715487E-01
       -2   -1    0    0    0  501  0.00000000000E+00  0.00000000000E+00  0.79675788468E+03  0.79675788468E+03  0.25500000920E-02 0.  1.
        2   -1    0    0  501    0  0.00000000000E+00  0.00000000000E+00 -0.15419703931E+03  0.15419703933E+03  0.25500000920E-02 0. -1.
    10030    2    1    2    0    0  0.00000000000E+00  0.00000000000E+00  0.64256084537E+03  0.95095492401E+03  0.70102127464E+03 0.  0.
        1    1    3    3  502    0 -0.31714648565E+03  0.54244975054E+02  0.50989779288E+03  0.60292633869E+03  0.50400001928E-02 0. -1.
       -1    1    3    3    0  502  0.31714648565E+03 -0.54244975054E+02  0.13266305249E+03  0.34802858532E+03  0.50400001928E-02 0.  1.
</event>
<event>
 5   0  0.2026361E-02  0.7010908E+03  0.7818609E-02  0.9715369E-01
        2   -1    0    0  501    0  0.00000000000E+00  0.00000000000E+00  0.14480725146E+04  0.14480725146E+04  0.25500000920E-02 0. -1.
       -2   -1    0    0    0  501  0.00000000000E+00  0.00000000000E+00 -0.84859066638E+02  0.84859066677E+02  0.25500000920E-02 0.  1.
    10030    2    1    2    0    0  0.00000000000E+00  0.00000000000E+00  0.13632134480E+04  0.15329315813E+04  0.70109081307E+03 0.  0.
        2    1    3    3  502    0 -0.91064832194E+02  0.98041696110E+02  0.13900348408E+04  0.13964604672E+04  0.25500000920E-02 0. -1.
       -2    1    3    3    0  502  0.91064832194E+02 -0.98041696110E+02 -0.26821392887E+02  0.13647111402E+03  0.25500000920E-02 0.  1.
</event>
<event>
 5   0  0.1197259E-02  0.7006932E+03  0.7818609E-02  0.9716047E-01
       -1   -1    0    0    0  501  0.00000000000E+00  0.00000000000E+00  0.11096996649E+03  0.11096996660E+03  0.50400001928E-02 0.  1.
        1   -1    0    0  501    0  0.00000000000E+00  0.00000000000E+00 -0.11060898013E+04  0.11060898013E+04  0.50400001928E-02 0. -1.
    10030    2    1    2    0    0  0.00000000000E+00  0.00000000000E+00 -0.99511983481E+03  0.12170597679E+04  0.70069322320E+03 0.  0.
        3    1    3    3  502    0  0.12564001191E+03  0.88959402383E+02  0.49074646272E+02  0.16157821318E+03  0.10100000352E+00 0.  1.
       -3    1    3    3    0  502 -0.12564001191E+03 -0.88959402383E+02 -0.10441944811E+04  0.10554815547E+04  0.10100000352E+00 0. -1.
</event>
<event>
 5   0  0.1909053E-02  0.7014450E+03  0.7818609E-02  0.9714764E-01
       -2   -1    0    0    0  501  0.00000000000E+00  0.00000000000E+00  0.22158296116E+03  0.22158296117E+03  0.25500000920E-02 0. -1.
        2   -1    0    0  501    0  0.00000000000E+00  0.00000000000E+00 -0.55512515146E+03  0.55512515146E+03  0.25500000920E-02 0.  1.
    10030    2    1    2    0    0  0.00000000000E+00  0.00000000000E+00 -0.33354219030E+03  0.77670811263E+03  0.70144500819E+03 0.  0.
        1    1    3    3  502    0 -0.23536113716E+03  0.21753728641E+03 -0.90485122687E+01  0.32062316115E+03  0.50400001928E-02 0. -1.
       -1    1    3    3    0  502  0.23536113716E+03 -0.21753728641E+03 -0.32449367803E+03  0.45608495149E+03  0.50400001928E-02 0.  1.
</event>
<event>
 5   0  0.1257442E-02  0.6704024E+03  0.7818609E-02  0.9769231E-01
        1   -1    0    0  501    0  0.00000000000E+00  0.00000000000E+00  0.81525359780E+03  0.81525359781E+03  0.50400001928E-02 0. -1.
       -1   -1    0    0    0  501  0.00000000000E+00  0.00000000000E+00 -0.13782194610E+03  0.13782194619E+03  0.50400001928E-02 0.  1.
    10030    2    1    2    0    0  0.00000000000E+00  0.00000000000E+00  0.67743165169E+03  0.95307554401E+03  0.67040237907E+03 0.  0.
        1    1    3    3  502    0 -0.21115432496E+03 -0.16279314677E+03  0.49900685351E+02  0.27125234747E+03  0.50400001928E-02 0. -1.
       -1    1    3    3    0  502  0.21115432496E+03  0.16279314677E+03  0.62753096634E+03  0.68182319653E+03  0.50400001928E-02 0.  1.
</event>
<event>
 5   0  0.1197259E-02  0.7091256E+03  0.7818609E-02  0.9701752E-01
       -1   -1    0    0    0  501  0.00000000000E+00  0.00000000000E+00  0.98223536159E+02  0.98223536288E+02  0.50400001928E-02 0. -1.
        1   -1    0    0  501    0  0.00000000000E+00  0.00000000000E+00 -0.12798844567E+04  0.12798844567E+04  0.50400001928E-02 0.  1.
    10030    2    1    2    0    0  0.00000000000E+00  0.00000000000E+00 -0.11816609206E+04  0.13781079930E+04  0.70912559483E+03 0.  0.
        3    1    3    3  502    0  0.81498117763E+02 -0.34130122162E+03 -0.49199801437E+03  0.60430995641E+03  0.10100000352E+00 0. -1.
       -3    1    3    3    0  502 -0.81498117763E+02  0.34130122162E+03 -0.68966290620E+03  0.77379803661E+03  0.10100000352E+00 0.  1.
</event>
<event>
 5   0  0.2006362E-02  0.7025756E+03  0.7818609E-02  0.9712838E-01
        2   -1    0    0  501    0  0.00000000000E+00  0.00000000000E+00  0.67975716788E+03  0.67975716788E+03  0.25500000920E-02 0. -1.
       -2   -1    0    0    0  501  0.00000000000E+00  0.00000000000E+00 -0.18153999928E+03  0.18153999930E+03  0.25500000920E-02 0.  1.
    10030    2    1    2    0    0  0.00000000000E+00  0.00000000000E+00  0.49821716859E+03  0.86129716718E+03  0.70257559246E+03 0.  0.
        4    1    3    3  502    0  0.12780483357E+03  0.94106303345E+02 -0.13507692506E+03  0.20841655500E+03  0.12699999809E+01 0.  1.
       -4    1    3    3    0  502 -0.12780483357E+03 -0.94106303345E+02  0.63329409365E+03  0.65288061219E+03  0.12699999809E+01 0. -1.
</event>
<event>
 5   0  0.1973067E-02  0.7295324E+03  0.7818609E-02  0.9668020E-01
        2   -1    0    0  501    0  0.00000000000E+00  0.00000000000E+00  0.83984039990E+03  0.83984039990E+03  0.25500000920E-02 0. -1.
       -2   -1    0    0    0  501  0.00000000000E+00  0.00000000000E+00 -0.15842816247E+03  0.15842816250E+03  0.25500000920E-02 0.  1.
    10030    2    1    2    0    0  0.00000000000E+00  0.00000000000E+00  0.68141223742E+03  0.99826856240E+03  0.72953237444E+03 0.  0.
        5    1    3    3  502    0 -0.30278711964E+03 -0.20328540309E+03  0.34785397820E+03  0.50401336796E+03  0.46999998093E+01 0. -1.
       -5    1    3    3    0  502  0.30278711964E+03  0.20328540309E+03  0.33355825923E+03  0.49425519444E+03  0.46999998093E+01 0.  1.
</event>
<event>
 5   0  0.7947250E-03  0.6973733E+03  0.7818609E-02  0.9721735E-01
        3   -1    0    0  501    0  0.00000000000E+00  0.00000000000E+00  0.11673094914E+03  0.11673099284E+03  0.10100000352E+00 0.  1.
       -3   -1    0    0    0  501  0.00000000000E+00  0.00000000000E+00 -0.10415606968E+04  0.10415607017E+04  0.10100000352E+00 0. -1.
    10030    2    1    2    0    0  0.00000000000E+00  0.00000000000E+00 -0.92482974770E+03  0.11582916946E+04  0.69737334871E+03 0.  0.
        4    1    3    3  502    0  0.19952857779E+02  0.18907133412E+03  0.23063334663E+02  0.19151923199E+03  0.12699999809E+01 0.  1.
       -4    1    3    3    0  502 -0.19952857779E+02 -0.18907133412E+03 -0.94789308236E+03  0.96677246258E+03  0.12699999809E+01 0. -1.
</event>
<event>
 5   0  0.1909053E-02  0.6990361E+03  0.7818609E-02  0.9718882E-01
       -2   -1    0    0    0  501  0.00000000000E+00  0.00000000000E+00  0.12822407462E+03  0.12822407465E+03  0.25500000920E-02 0. -1.
        2   -1    0    0  501    0  0.00000000000E+00  0.00000000000E+00 -0.95272955696E+03  0.95272955696E+03  0.25500000920E-02 0.  1.
    10030    2    1    2    0    0  0.00000000000E+00  0.00000000000E+00 -0.82450548234E+03  0.10809536316E+04  0.69903609584E+03 0.  0.
        1    1    3    3  502    0 -0.10140780494E+03  0.30680428255E+03 -0.61827408201E+03  0.69762113729E+03  0.50400001928E-02 0. -1.
       -1    1    3    3    0  502  0.10140780494E+03 -0.30680428255E+03 -0.20623140033E+03  0.38333249432E+03  0.50400001928E-02 0.  1.
</event>
<event>
 5   0  0.1973067E-02  0.6981163E+03  0.7818609E-02  0.9720459E-01
        2   -1    0    0  501    0  0.00000000000E+00  0.00000000000E+00  0.33118941760E+03  0.33118941761E+03  0.25500000920E-02 0. -1.
       -2   -1    0    0    0  501  0.00000000000E+00  0.00000000000E+00 -0.36789100674E+03  0.36789100675E+03  0.25500000920E-02 0.  1.
    10030    2    1    2    0    0  0.00000000000E+00  0.00000000000E+00 -0.36701589142E+02  0.69908042436E+03  0.69811634638E+03 0.  0.
        5    1    3    3  502    0 -0.29421864222E+03  0.18727120991E+03 -0.47525431914E+01  0.34882630657E+03  0.46999998093E+01 0.  1.
       -5    1    3    3    0  502  0.29421864222E+03 -0.18727120991E+03 -0.31949045950E+02  0.35025411779E+03  0.46999998093E+01 0. -1.
</event>
<event>
 5   0  0.2006362E-02  0.7096913E+03  0.7818609E-02  0.9700801E-01
        2   -1    0    0  501    0  0.00000000000E+00  0.00000000000E+00  0.25663317906E+04  0.25663317906E+04  0.25500000920E-02 0. -1.
       -2   -1    0    0    0  501  0.00000000000E+00  0.00000000000E+00 -0.49064358437E+02  0.49064358503E+02  0.25500000920E-02 0.  1.
    10030    2    1    2    0    0  0.00000000000E+00  0.00000000000E+00  0.25172674322E+04  0.26153961491E+04  0.70969126508E+03 0.  0.
        4    1    3    3  502    0  0.96101440919E+02  0.23772485168E+01 -0.15427660235E+00  0.96139351768E+02  0.12699999809E+01 0.  1.
       -4    1    3    3    0  502 -0.96101440919E+02 -0.23772485168E+01  0.25174217088E+04  0.25192567974E+04  0.12699999809E+01 0. -1.
</event>
<event>
 5   0  0.1197259E-02  0.7075905E+03  0.7818609E-02  0.9704339E-01
        1   -1    0    0  501    0  0.00000000000E+00  0.00000000000E+00  0.33041735495E+03  0.33041735499E+03  0.50400001928E-02 0. -1.
       -1   -1    0    0    0  501  0.00000000000E+00  0.00000000000E+00 -0.37882715099E+03  0.37882715103E+03  0.50400001928E-02 0.  1.
    10030    2    1    2    0    0  0.00000000000E+00  0.00000000000E+00 -0.48409796039E+02  0.70924450602E+03  0.70759046133E+03 0.  0.
        3    1    3    3  502    0 -0.32579178144E+02  0.72364331533E+02  0.32138077047E+03  0.33103415105E+03  0.10100000352E+00 0. -1.
       -3    1    3    3    0  502  0.32579178144E+02 -0.72364331533E+02 -0.36979056651E+03  0.37821035498E+03  0.10100000352E+00 0.  1.
</event>
<event>
 5   0  0.1197259E-02  0.6930580E+03  0.7818609E-02  0.9729178E-01
       -1   -1    0    0    0  501  0.00000000000E+00  0.00000000000E+00  0.89989108268E+02  0.89989108409E+02  0.50400001928E-02 0. -1.
        1   -1    0    0  501    0  0.00000000000E+00  0.00000000000E+00 -0.13344099314E+04  0.13344099315E+04  0.50400001928E-02 0.  1.
    10030    2    1    2    0    0  0.00000000000E+00  0.00000000000E+00 -0.12444208232E+04  0.14243990399E+04  0.69305803481E+03 0.  0.
        3    1    3    3  502    0  0.25881881703E+03  0.14962185730E+03 -0.26205399615E+03  0.39755023245E+03  0.10100000352E+00 0. -1.
       -3    1    3    3    0  502 -0.25881881703E+03 -0.14962185730E+03 -0.98236682703E+03  0.10268488074E+04  0.10100000352E+00 0.  1.
</event>
<event>
 5   0  0.1948138E-02  0.7031288E+03  0.7818609E-02  0.9711896E-01
        2   -1    0    0  501    0  0.00000000000E+00  0.00000000000E+00  0.19865217905E+04  0.19865217905E+04  0.25500000920E-02 0. -1.
       -2   -1    0    0    0  501  0.00000000000E+00  0.00000000000E+00 -0.62218065305E+02  0.62218065357E+02  0.25500000920E-02 0.  1.
    10030    2    1    2    0    0  0.00000000000E+00  0.00000000000E+00  0.19243037252E+04  0.20487398558E+04  0.70312884323E+03 0.  0.
        3    1    3    3  502    0 -0.16181138995E+03 -0.67106934990E+02  0.74002331597E+02  0.19016472313E+03  0.10100000352E+00 0.  1.
       -3    1    3    3    0  502  0.16181138995E+03  0.67106934990E+02  0.18503013936E+04  0.18585751327E+04  0.10100000352E+00 0. -1.
</event>
<event>
 5   0  0.2006362E-02  0.7066885E+03  0.7818609E-02  0.9705862E-01
       -2   -1    0    0    0  501  0.00000000000E+00  0.00000000000E+00  0.12906206536E+03  0.12906206538E+03  0.25500000920E-02 0. -1.
        2   -1    0    0  501    0  0.00000000000E+00  0.00000000000E+00 -0.96738084040E+03  0.96738084040E+03  0.25500000920E-02 0.  1.
    10030    2    1    2    0    0  0.00000000000E+00  0.00000000000E+00 -0.83831877504E+03  0.10964429058E+04  0.70668852903E+03 0.  0.
        4    1    3    3  502    0  0.10937794830E+03 -0.29725498302E+03 -0.66214229933E+03  0.73400142913E+03  0.12699999809E+01 0.  1.
       -4    1    3    3    0  502 -0.10937794830E+03  0.29725498302E+03 -0.17617647571E+03  0.36244147665E+03  0.12699999809E+01 0. -1.
</event>
<event>
 5   0  0.1223742E-02  0.6933899E+03  0.7818609E-02  0.9728604E-01
        1   -1    0    0  501    0  0.00000000000E+00  0.00000000000E+00  0.28229454797E+03  0.28229454801E+03  0.50400001928E-02 0.  1.
       -1   -1    0    0    0  501  0.00000000000E+00  0.00000000000E+00 -0.42578711505E+03  0.42578711508E+03  0.50400001928E-02 0. -1.
    10030    2    1    2    0    0  0.00000000000E+00  0.00000000000E+00 -0.14349256708E+03  0.70808166309E+03  0.69338987936E+03 0.  0.
        2    1    3    3  502    0  0.23788733871E+03  0.10934177288E+03  0.16033856042E+03  0.30700889755E+03  0.25500000920E-02 0.  1.
       -2    1    3    3    0  502 -0.23788733871E+03 -0.10934177288E+03 -0.30383112750E+03  0.40107276554E+03  0.25500000920E-02 0. -1.
</event>
<event>
 5   0  0.1257442E-02  0.6841067E+03  0.7818609E-02  0.9744805E-01
        1   -1    0    0  501    0  0.00000000000E+00  0.00000000000E+00  0.13093397804E+04  0.13093397804E+04  0.50400001928E-02 0. -1.
       -1   -1    0    0    0  501  0.00000000000E+00  0.00000000000E+00 -0.89358379815E+02  0.89358379957E+02  0.50400001928E-02 0.  1.
    10030    2    1    2    0    0  0.00000000000E+00  0.00000000000E+00  0.12199814006E+04  0.13986981604E+04  0.68410666277E+03 0.  0.
        1    1    3    3  502    0 -0.62083595051E+02 -0.86950049047E+01 -0.77512700132E+02  0.99690493990E+02  0.50400001928E-02 0.  1.
       -1    1    3    3    0  502  0.62083595051E+02  0.86950049047E+01  0.12974941007E+04  0.12990076664E+04  0.50400001928E-02 0. -1.
</event>
<event>
 5   0  0.1223742E-02  0.7031102E+03  0.7818609E-02  0.9711928E-01
        1   -1    0    0  501    0  0.00000000000E+00  0.00000000000E+00  0.11806408175E+04  0.11806408175E+04  0.50400001928E-02 0. -1.
       -1   -1    0    0    0  501  0.00000000000E+00  0.00000000000E+00 -0.10468126237E+03  0.10468126249E+03  0.50400001928E-02 0.  1.
    10030    2    1    2    0    0  0.00000000000E+00  0.00000000000E+00  0.10759595551E+04  0.12853220800E+04  0.70311015143E+03 0.  0.
        2    1    3    3  502    0 -0.21778900048E+03  0.98058424637E+02  0.66415047828E+02  0.24790817243E+03  0.25500000920E-02 0.  1.
       -2    1    3    3    0  502  0.21778900048E+03 -0.98058424637E+02  0.10095445073E+04  0.10374139076E+04  0.25500000920E-02 0. -1.
</event>
<event>
 5   0  0.7947250E-03  0.7049730E+03  0.7818609E-02  0.9708765E-01
       -3   -1    0    0    0  501  0.00000000000E+00  0.00000000000E+00  0.19138494410E+03  0.19138497075E+03  0.10100000352E+00 0.  1.
        3   -1    0    0  501    0  0.00000000000E+00  0.00000000000E+00 -0.64919793889E+03  0.64919794675E+03  0.10100000352E+00 0. -1.
    10030    2    1    2    0    0  0.00000000000E+00  0.00000000000E+00 -0.45781299479E+03  0.84058291750E+03  0.70497298033E+03 0.  0.
        4    1    3    3  502    0  0.49864504088E+02  0.17218688701E+03  0.13297154602E+03  0.22319909896E+03  0.12699999809E+01 0.  1.
       -4    1    3    3    0  502 -0.49864504088E+02 -0.17218688701E+03 -0.59078454081E+03  0.61738381854E+03  0.12699999809E+01 0. -1.
</event>
<event>
 5   0  0.2006362E-02  0.7008923E+03  0.7818609E-02  0.9715707E-01
       -2   -1    0    0    0  501  0.00000000000E+00  0.00000000000E+00  0.30134915122E+03  0.30134915123E+03  0.25500000920E-02 0. -1.
        2   -1    0    0  501    0  0.00000000000E+00  0.00000000000E+00 -0.40754220352E+03  0.40754220353E+03  0.25500000920E-02 0.  1.
    10030    2    1    2    0    0  0.00000000000E+00  0.00000000000E+00 -0.10619305230E+03  0.70889135476E+03  0.70089228024E+03 0.  0.
        4    1    3    3  502    0  0.14768769049E+03 -0.86811258252E+02 -0.36230283394E+03  0.40076527402E+03  0.12699999809E+01 0.  1.
       -4    1    3    3    0  502 -0.14768769049E+03  0.86811258252E+02  0.25610978164E+03  0.30812608074E+03  0.12699999809E+01 0. -1.
</event>
<event>
 5   0  0.2006362E-02  0.6871279E+03  0.7818609E-02  0.9739502E-01
        2   -1    0    0  501    0  0.00000000000E+00  0.00000000000E+00  0.11860918772E+04  0.11860918772E+04  0.25500000920E-02 0.  1.
       -2   -1    0    0    0  501  0.00000000000E+00  0.00000000000E+00 -0.99516905747E+02  0.99516905779E+02  0.25500000920E-02 0. -1.
    10030    2    1    2    0    0  0.00000000000E+00  0.00000000000E+00  0.10865749715E+04  0.12856087830E+04  0.68712791699E+03 0.  0.
        4    1    3    3  502    0  0.24862935392E+03  0.19697202301E+03  0.29634495148E+03  0.43409270513E+03  0.12699999809E+01 0. -1.
       -4    1    3    3    0  502 -0.24862935392E+03 -0.19697202301E+03  0.79023002002E+03  0.85151607790E+03  0.12699999809E+01 0.  1.
</event>
<event>
 5   0  0.1973067E-02  0.7015370E+03  0.7818609E-02  0.9714607E-01
        2   -1    0    0  501    0  0.00000000000E+00  0.00000000000E+00  0.85244810555E+03  0.85244810555E+03  0.25500000920E-02 0. -1.
       -2   -1    0    0    0  501  0.00000000000E+00  0.00000000000E+00 -0.14433552052E+03  0.14433552054E+03  0.25500000920E-02 0.  1.
    10030    2    1    2    0    0  0.00000000000E+00  0.00000000000E+00  0.70811258502E+03  0.99678362609E+03  0.70153700129E+03 0.  0.
        5    1    3    3  502    0  0.31755979855E+02  0.34928093103E+03  0.34937823907E+03  0.49506853563E+03  0.46999998093E+01 0.  1.
       -5    1    3    3    0  502 -0.31755979855E+02 -0.34928093103E+03  0.35873434596E+03  0.50171509047E+03  0.46999998093E+01 0. -1.
</event>
<event>
 5   0  0.7947250E-03  0.7135581E+03  0.7818609E-02  0.9694323E-01
        3   -1    0    0  501    0  0.00000000000E+00  0.00000000000E+00  0.78282273568E+03  0.78282274220E+03  0.10100000352E+00 0.  1.
       -3   -1    0    0    0  501  0.00000000000E+00  0.00000000000E+00 -0.16260550726E+03  0.16260553863E+03  0.10100000352E+00 0. -1.
    10030    2    1    2    0    0  0.00000000000E+00  0.00000000000E+00  0.62021722842E+03  0.94542828083E+03  0.71355814322E+03 0.  0.
        3    1    3    3  502    0  0.17677873877E+03 -0.15968142403E+03 -0.41795535122E+02  0.24185896018E+03  0.10100000352E+00 0. -1.
       -3    1    3    3    0  502 -0.17677873877E+03  0.15968142403E+03  0.66201276355E+03  0.70356932065E+03  0.10100000352E+00 0.  1.
</event>
<event>
 5   0  0.1197259E-02  0.7046167E+03  0.7818609E-02  0.9709369E-01
        1   -1    0    0  501    0  0.00000000000E+00  0.00000000000E+00  0.49971164929E+03  0.49971164931E+03  0.50400001928E-02 0. -1.
       -1   -1    0    0    0  501  0.00000000000E+00  0.00000000000E+00 -0.24838556988E+03  0.24838556993E+03  0.50400001928E-02 0.  1.
    10030    2    1    2    0    0  0.00000000000E+00  0.00000000000E+00  0.25132607941E+03  0.74809721924E+03  0.70461666972E+03 0.  0.
        3    1    3    3  502    0  0.10991818213E+03 -0.27128094153E+03  0.33383851219E+03  0.44398594394E+03  0.10100000352E+00 0. -1.
       -3    1    3    3    0  502 -0.10991818213E+03  0.27128094153E+03 -0.82512432777E+02  0.30411127530E+03  0.10100000352E+00 0.  1.
</event>
<event>
 5   0  0.1223742E-02  0.7037522E+03  0.7818609E-02  0.9710837E-01
       -1   -1    0    0    0  501  0.00000000000E+00  0.00000000000E+00  0.27577803678E+03  0.27577803683E+03  0.50400001928E-02 0. -1.
        1   -1    0    0  501    0  0.00000000000E+00  0.00000000000E+00 -0.44897263009E+03  0.44897263012E+03  0.50400001928E-02 0.  1.
    10030    2    1    2    0    0  0.00000000000E+00  0.00000000000E+00 -0.17319459331E+03  0.72475066695E+03  0.70375220219E+03 0.  0.
        2    1    3    3  502    0  0.66448851512E+01 -0.16227488574E+03 -0.40806427983E+03  0.43919670937E+03  0.25500000920E-02 0.  1.
       -2    1    3    3    0  502 -0.66448851512E+01  0.16227488574E+03  0.23486968652E+03  0.28555395758E+03  0.25500000920E-02 0. -1.
</event>
<event>
 5   0  0.1909053E-02  0.7008142E+03  0.7818609E-02  0.9715841E-01
        2   -1    0    0  501    0  0.00000000000E+00  0.00000000000E+00  0.24105263736E+03  0.24105263738E+03  0.25500000920E-02 0. -1.
       -2   -1    0    0    0  501  0.00000000000E+00  0.00000000000E+00 -0.50937069745E+03  0.50937069746E+03  0.25500000920E-02 0.  1.
    10030    2    1    2    0    0  0.00000000000E+00  0.00000000000E+00 -0.26831806008E+03  0.75042333483E+03  0.70081424079E+03 0.  0.
        1    1    3    3  502    0 -0.25622289986E+03  0.89750858639E+01 -0.38992812832E+03  0.46666333889E+03  0.50400001928E-02 0.  1.
       -1    1    3    3    0  502  0.25622289986E+03 -0.89750858639E+01  0.12161006824E+03  0.28375999595E+03  0.50400001928E-02 0. -1.
</event>
<event>
 5   0  0.1223742E-02  0.6849756E+03  0.7818609E-02  0.9743277E-01
        1   -1    0    0  501    0  0.00000000000E+00  0.00000000000E+00  0.58579956577E+03  0.58579956579E+03  0.50400001928E-02 0.  1.
       -1   -1    0    0    0  501  0.00000000000E+00  0.00000000000E+00 -0.20023552293E+03  0.20023552299E+03  0.50400001928E-02 0. -1.
    10030    2    1    2    0    0  0.00000000000E+00  0.00000000000E+00  0.38556404284E+03  0.78603508879E+03  0.68497556867E+03 0.  0.
        2    1    3    3  502    0  0.33774825248E+03  0.16999435098E+02  0.13061324040E+03  0.36252266332E+03  0.25500000920E-02 0. -1.
       -2    1    3    3    0  502 -0.33774825248E+03 -0.16999435098E+02  0.25495080244E+03  0.42351242546E+03  0.25500000920E-02 0.  1.
</event>
<event>
 5   0  0.1909053E-02  0.7044358E+03  0.7818609E-02  0.9709676E-01
        2   -1    0    0  501    0  0.00000000000E+00  0.00000000000E+00  0.58691410520E+03  0.58691410521E+03  0.25500000920E-02 0.  1.
       -2   -1    0    0    0  501  0.00000000000E+00  0.00000000000E+00 -0.21137240163E+03  0.21137240165E+03  0.25500000920E-02 0. -1.
    10030    2    1    2    0    0  0.00000000000E+00  0.00000000000E+00  0.37554170357E+03  0.79828650686E+03  0.70443578551E+03 0.  0.
        1    1    3    3  502    0  0.26078336233E+03 -0.23410711136E+03  0.14781202475E+03  0.38034523311E+03  0.50400001928E-02 0.  1.
       -1    1    3    3    0  502 -0.26078336233E+03  0.23410711136E+03  0.22772967883E+03  0.41794127375E+03  0.50400001928E-02 0. -1.
</event>
<event>
 5   0  0.7947250E-03  0.6986414E+03  0.7818609E-02  0.9719558E-01
       -3   -1    0    0    0  501  0.00000000000E+00  0.00000000000E+00  0.20577386458E+03  0.20577388936E+03  0.10100000352E+00 0. -1.
        3   -1    0    0  501    0  0.00000000000E+00  0.00000000000E+00 -0.59300510878E+03  0.59300511739E+03  0.10100000352E+00 0.  1.
    10030    2    1    2    0    0  0.00000000000E+00  0.00000000000E+00 -0.38723124421E+03  0.79877900675E+03  0.69864144247E+03 0.  0.
        2    1    3    3  502    0  0.53085245825E+02 -0.24639744411E+03 -0.47013940986E+03  0.53344241348E+03  0.25500000920E-02 0.  1.
       -2    1    3    3    0  502 -0.53085245825E+02  0.24639744411E+03  0.82908165654E+02  0.26533659327E+03  0.25500000920E-02 0. -1.
</event>
<event>
 5   0  0.2026361E-02  0.6889656E+03  0.7818609E-02  0.9736291E-01
        2   -1    0    0  501    0  0.00000000000E+00  0.00000000000E+00  0.41907552987E+03  0.41907552987E+03  0.25500000920E-02 0.  1.
       -2   -1    0    0    0  501  0.00000000000E+00  0.00000000000E+00 -0.28316707725E+03  0.28316707726E+03  0.25500000920E-02 0. -1.
    10030    2    1    2    0    0  0.00000000000E+00  0.00000000000E+00  0.13590845262E+03  0.70224260713E+03  0.68896558098E+03 0.  0.
        2    1    3    3  502    0  0.50296034516E+02  0.23759768951E+02  0.41446764009E+03  0.41818374239E+03  0.25500000920E-02 0.  1.
       -2    1    3    3    0  502 -0.50296034516E+02 -0.23759768951E+02 -0.27855918747E+03  0.28405886474E+03  0.25500000920E-02 0. -1.
</event>
<event>
 5   0  0.1226303E-02  0.7275637E+03  0.7818609E-02  0.9671222E-01
       -1   -1    0    0    0  501  0.00000000000E+00  0.00000000000E+00  0.32931464340E+03  0.32931464343E+03  0.50400001928E-02 0. -1.
        1   -1    0    0  501    0  0.00000000000E+00  0.00000000000E+00 -0.40185655142E+03  0.40185655145E+03  0.50400001928E-02 0.  1.
    10030    2    1    2    0    0  0.00000000000E+00  0.00000000000E+00 -0.72541908028E+02  0.73117119489E+03  0.72756373454E+03 0.  0.
        4    1    3    3  502    0 -0.15248225100E+03  0.10807197792E+03 -0.34991655531E+03  0.39670341297E+03  0.12699999809E+01 0.  1.
       -4    1    3    3    0  502  0.15248225100E+03 -0.10807197792E+03  0.27737464729E+03  0.33446778192E+03  0.12699999809E+01 0. -1.
</event>
<event>
 5   0  0.2006362E-02  0.6994785E+03  0.7818609E-02  0.9718124E-01
        2   -1    0    0  501    0  0.00000000000E+00  0.00000000000E+00  0.63932938668E+03  0.63932938669E+03  0.25500000920E-02 0. -1.
       -2   -1    0    0    0  501  0.00000000000E+00  0.00000000000E+00 -0.19132165607E+03  0.19132165609E+03  0.25500000920E-02 0.  1.
    10030    2    1    2    0    0  0.00000000000E+00  0.00000000000E+00  0.44800773061E+03  0.83065104278E+03  0.69947854019E+03 0.  0.
        4    1    3    3  502    0 -0.13743499390E+01  0.23379181864E+03  0.53288798695E+03  0.58192071869E+03  0.12699999809E+01 0. -1.
       -4    1    3    3    0  502  0.13743499390E+01 -0.23379181864E+03 -0.84880256345E+02  0.24873032409E+03  0.12699999809E+01 0.  1.
</event>
<event>
 5   0  0.1197259E-02  0.7064252E+03  0.7818609E-02  0.9706307E-01
       -1   -1    0    0    0  501  0.00000000000E+00  0.00000000000E+00  0.20860371890E+03  0.20860371896E+03  0.50400001928E-02 0. -1.
        1   -1    0    0  501    0  0.00000000000E+00  0.00000000000E+00 -0.59806770957E+03  0.59806770959E+03  0.50400001928E-02 0.  1.
    10030    2    1    2    0    0  0.00000000000E+00  0.00000000000E+00 -0.38946399068E+03  0.80667142855E+03  0.70642522153E+03 0.  0.
        3    1    3    3  502    0 -0.26204381607E+03  0.13389888240E+02 -0.46474609274E+03  0.53369953304E+03  0.10100000352E+00 0.  1.
       -3    1    3    3    0  502  0.26204381607E+03 -0.13389888240E+02  0.75282102060E+02  0.27297189552E+03  0.10100000352E+00 0. -1.
</event>
<event>
 5   0  0.1973067E-02  0.6962102E+03  0.7818609E-02  0.9723735E-01
        2   -1    0    0  501    0  0.00000000000E+00  0.00000000000E+00  0.64792509815E+03  0.64792509816E+03  0.25500000920E-02 0.  1.
       -2   -1    0    0    0  501  0.00000000000E+00  0.00000000000E+00 -0.18702340687E+03  0.18702340689E+03  0.25500000920E-02 0. -1.
    10030    2    1    2    0    0  0.00000000000E+00  0.00000000000E+00  0.46090169128E+03  0.83494850505E+03  0.69621019604E+03 0.  0.
        5    1    3    3  502    0 -0.34369830585E+03  0.42140587417E+02  0.27286379193E+03  0.44088671276E+03  0.46999998093E+01 0.  1.
       -5    1    3    3    0  502  0.34369830585E+03 -0.42140587417E+02  0.18803789935E+03  0.39406179229E+03  0.46999998093E+01 0. -1.
</event>
<event>
 5   0  0.1973067E-02  0.7033405E+03  0.7818609E-02  0.9711536E-01
       -2   -1    0    0    0  501  0.00000000000E+00  0.00000000000E+00  0.10270245774E+03  0.10270245777E+03  0.25500000920E-02 0.  1.
        2   -1    0    0  501    0  0.00000000000E+00  0.00000000000E+00 -0.12041773322E+04  0.12041773322E+04  0.25500000920E-02 0. -1.
    10030    2    1    2    0    0  0.00000000000E+00  0.00000000000E+00 -0.11014748745E+04  0.13068797900E+04  0.70334051949E+03 0.  0.
        5    1    3    3  502    0  0.19301243455E+02  0.23324114442E+03 -0.63092538109E+02  0.24243912187E+03  0.46999998093E+01 0.  1.
       -5    1    3    3    0  502 -0.19301243455E+02 -0.23324114442E+03 -0.10383823363E+04  0.10644406681E+04  0.46999998093E+01 0. -1.
</event>
<event>
 5   0  0.1909053E-02  0.7001480E+03  0.7818609E-02  0.9716979E-01
       -2   -1    0    0    0  501  0.00000000000E+00  0.00000000000E+00  0.79325223069E+02  0.79325223110E+02  0.25500000920E-02 0.  1.
        2   -1    0    0  501    0  0.00000000000E+00  0.00000000000E+00 -0.15449285568E+04  0.15449285568E+04  0.25500000920E-02 0. -1.
    10030    2    1    2    0    0  0.00000000000E+00  0.00000000000E+00 -0.14656033337E+04  0.16242537799E+04  0.70014799130E+03 0.  0.
        1    1    3    3  502    0 -0.21697557915E+03 -0.47639735676E+02 -0.10513217791E+03  0.24576558184E+03  0.50400001928E-02 0.  1.
       -1    1    3    3    0  502  0.21697557915E+03  0.47639735676E+02 -0.13604711558E+04  0.13784881981E+04  0.50400001928E-02 0. -1.
</event>
<event>
 5   0  0.1223742E-02  0.7158682E+03  0.7818609E-02  0.9690474E-01
        1   -1    0    0  501    0  0.00000000000E+00  0.00000000000E+00  0.10033466500E+04  0.10033466500E+04  0.50400001928E-02 0.  1.
       -1   -1    0    0    0  501  0.00000000000E+00  0.00000000000E+00 -0.12768948912E+03  0.12768948921E+03  0.50400001928E-02 0. -1.
    10030    2    1    2    0    0  0.00000000000E+00  0.00000000000E+00  0.87565716090E+03  0.11310361392E+04  0.71586820354E+03 0.  0.
        2    1    3    3  502    0  0.22382458361E+03  0.14804218828E+02  0.87851919295E+03  0.90670424147E+03  0.25500000920E-02 0.  1.
       -2    1    3    3    0  502 -0.22382458361E+03 -0.14804218828E+02 -0.28620320484E+01  0.22433189777E+03  0.25500000920E-02 0. -1.
</event>
<event>
 5   0  0.1197259E-02  0.6989591E+03  0.7818609E-02  0.9719014E-01
       -1   -1    0    0    0  501  0.00000000000E+00  0.00000000000E+00  0.15471738848E+03  0.15471738856E+03  0.50400001928E-02 0. -1.
        1   -1    0    0  501    0  0.00000000000E+00  0.00000000000E+00 -0.78941327496E+03  0.78941327497E+03  0.50400001928E-02 0.  1.
    10030    2    1    2    0    0  0.00000000000E+00  0.00000000000E+00 -0.63469588648E+03  0.94413066353E+03  0.69895911290E+03 0.  0.
        3    1    3    3  502    0  0.63018711101E+02 -0.82022695155E+02  0.13356716142E+03  0.16893571937E+03  0.10100000352E+00 0. -1.
       -3    1    3    3    0  502 -0.63018711101E+02  0.82022695155E+02 -0.76826304791E+03  0.77519494416E+03  0.10100000352E+00 0.  1.
</event>
<event>
 5   0  0.1257442E-02  0.6976504E+03  0.7818609E-02  0.9721259E-01
       -1   -1    0    0    0  501  0.00000000000E+00  0.00000000000E+00  0.71899258019E+02  0.71899258196E+02  0.50400001928E-02 0.  1.
        1   -1    0    0  501    0  0.00000000000E+00  0.00000000000E+00 -0.16923545324E+04  0.16923545325E+04  0.50400001928E-02 0. -1.
    10030    2    1    2    0    0  0.00000000000E+00  0.00000000000E+00 -0.16204552744E+04  0.17642537906E+04  0.69765044356E+03 0.  0.
        1    1    3    3  502    0 -0.42558429431E+02  0.11266886589E+03  0.17651573020E+02  0.12172539305E+03  0.50400001928E-02 0.  1.
       -1    1    3    3    0  502  0.42558429431E+02 -0.11266886589E+03 -0.16381068474E+04  0.16425283976E+04  0.50400001928E-02 0. -1.
</event>
<event>
 5   0  0.2006362E-02  0.6928308E+03  0.7818609E-02  0.9729572E-01
       -2   -1    0    0    0  501  0.00000000000E+00  0.00000000000E+00  0.92635497005E+02  0.92635497040E+02  0.25500000920E-02 0.  1.
        2   -1    0    0  501    0  0.00000000000E+00  0.00000000000E+00 -0.12954388843E+04  0.12954388843E+04  0.25500000920E-02 0. -1.
    10030    2    1    2    0    0  0.00000000000E+00  0.00000000000E+00 -0.12028033873E+04  0.13880743813E+04  0.69283078716E+03 0.  0.
        4    1    3    3  502    0 -0.15331715633E+03 -0.11317894139E+03 -0.11809811386E+04  0.11962582020E+04  0.12699999809E+01 0. -1.
       -4    1    3    3    0  502  0.15331715633E+03  0.11317894139E+03 -0.21822248623E+02  0.19181617928E+03  0.12699999809E+01 0.  1.
</event>
<event>
 5   0  0.1237686E-02  0.7032756E+03  0.7818609E-02  0.9711647E-01
        1   -1    0    0  501    0  0.00000000000E+00  0.00000000000E+00  0.64234320167E+03  0.64234320169E+03  0.50400001928E-02 0. -1.
       -1   -1    0    0    0  501  0.00000000000E+00  0.00000000000E+00 -0.19249700284E+03  0.19249700290E+03  0.50400001928E-02 0.  1.
    10030    2    1    2    0    0  0.00000000000E+00  0.00000000000E+00  0.44984619883E+03  0.83484020459E+03  0.70327559648E+03 0.  0.
        5    1    3    3  502    0 -0.17063592569E+03  0.28325752470E+03  0.36675538307E+03  0.49384516343E+03  0.46999998093E+01 0. -1.
       -5    1    3    3    0  502  0.17063592569E+03 -0.28325752470E+03  0.83090815766E+02  0.34099504116E+03  0.46999998093E+01 0.  1.
</event>
<event>
 5   0  0.1226303E-02  0.7049810E+03  0.7818609E-02  0.9708752E-01
       -1   -1    0    0    0  501  0.00000000000E+00  0.00000000000E+00  0.33673885616E+03  0.33673885619E+03  0.50400001928E-02 0. -1.
        1   -1    0    0  501    0  0.00000000000E+00  0.00000000000E+00 -0.36897900194E+03  0.36897900197E+03  0.50400001928E-02 0.  1.
    10030    2    1    2    0    0  0.00000000000E+00  0.00000000000E+00 -0.32240145781E+02  0.70571785816E+03  0.70498104112E+03 0.  0.
        4    1    3    3  502    0 -0.54623183111E+02 -0.16107047893E+03  0.29294289354E+03  0.33873963909E+03  0.12699999809E+01 0. -1.
       -4    1    3    3    0  502  0.54623183111E+02  0.16107047893E+03 -0.32518303932E+03  0.36697821908E+03  0.12699999809E+01 0.  1.
</event>
<event>
 5   0  0.1223742E-02  0.6658726E+03  0.7818609E-02  0.9777443E-01
       -1   -1    0    0    0  501  0.00000000000E+00  0.00000000000E+00  0.13355944561E+03  0.13355944570E+03  0.50400001928E-02 0.  1.
        1   -1    0    0  501    0  0.00000000000E+00  0.00000000000E+00 -0.82994183518E+03  0.82994183519E+03  0.50400001928E-02 0. -1.
    10030    2    1    2    0    0  0.00000000000E+00  0.00000000000E+00 -0.69638238957E+03  0.96350128089E+03  0.66587257473E+03 0.  0.
        2    1    3    3  502    0  0.32613859712E+03 -0.10420064583E+01 -0.25135078860E+03  0.41175804698E+03  0.25500000920E-02 0.  1.
       -2    1    3    3    0  502 -0.32613859712E+03  0.10420064583E+01 -0.44503160097E+03  0.55174323392E+03  0.25500000920E-02 0. -1.
</event>
<event>
 5   0  0.1948138E-02  0.7077262E+03  0.7818609E-02  0.9704110E-01
        2   -1    0    0  501    0  0.00000000000E+00  0.00000000000E+00  0.14611258014E+04  0.14611258014E+04  0.25500000920E-02 0.  1.
       -2   -1    0    0    0  501  0.00000000000E+00  0.00000000000E+00 -0.85700411139E+02  0.85700411177E+02  0.25500000920E-02 0. -1.
    10030    2    1    2    0    0  0.00000000000E+00  0.00000000000E+00  0.13754253902E+04  0.15468262125E+04  0.70772616719E+03 0.  0.
        3    1    3    3  502    0  0.14861969719E+03  0.25893009509E+03  0.27252121854E+03  0.40422819458E+03  0.10100000352E+00 0. -1.
       -3    1    3    3    0  502 -0.14861969719E+03 -0.25893009509E+03  0.11029041717E+04  0.11425980179E+04  0.10100000352E+00 0.  1.
</event>
<event>
 5   0  0.2006362E-02  0.6857642E+03  0.7818609E-02  0.9741892E-01
       -2   -1    0    0    0  501  0.00000000000E+00  0.00000000000E+00  0.41529590726E+03  0.41529590726E+03  0.25500000920E-02 0. -1.
        2   -1    0    0  501    0  0.00000000000E+00  0.00000000000E+00 -0.28309488970E+03  0.28309488971E+03  0.25500000920E-02 0.  1.
    10030    2    1    2    0    0  0.00000000000E+00  0.00000000000E+00  0.13220101755E+03  0.69839079698E+03  0.68576424248E+03 0.  0.
        4    1    3    3  502    0 -0.13036563414E+03  0.56111960688E+02 -0.25177271248E+03  0.28902398231E+03  0.12699999809E+01 0.  1.
       -4    1    3    3    0  502  0.13036563414E+03 -0.56111960688E+02  0.38397373003E+03  0.40936681467E+03  0.12699999809E+01 0. -1.
</event>
<event>
 5   0  0.1909053E-02  0.6987565E+03  0.7818609E-02  0.9719361E-01
        2   -1    0    0  501    0  0.00000000000E+00  0.00000000000E+00  0.54621068602E+03  0.54621068603E+03  0.25500000920E-02 0.  1.
       -2   -1    0    0    0  501  0.00000000000E+00  0.00000000000E+00 -0.22347631769E+03  0.22347631771E+03  0.25500000920E-02 0. -1.
    10030    2    1    2    0    0  0.00000000000E+00  0.00000000000E+00  0.32273436833E+03  0.76968700374E+03  0.69875647490E+03 0.  0.
        1    1    3    3  502    0 -0.93473978850E+02 -0.12002326605E+03  0.50781286842E+03  0.53011025124E+03  0.50400001928E-02 0.  1.
       -1    1    3    3    0  502  0.93473978850E+02  0.12002326605E+03 -0.18507850009E+03  0.23957675249E+03  0.50400001928E-02 0. -1.
</event>
<event>
 5   0  0.1948138E-02  0.6991328E+03  0.7818609E-02  0.9718716E-01
        2   -1    0    0  501    0  0.00000000000E+00  0.00000000000E+00  0.10653304058E+04  0.10653304058E+04  0.25500000920E-02 0. -1.
       -2   -1    0    0    0  501  0.00000000000E+00  0.00000000000E+00 -0.11470307197E+03  0.11470307200E+03  0.25500000920E-02 0.  1.
    10030    2    1    2    0    0  0.00000000000E+00  0.00000000000E+00  0.95062733381E+03  0.11800334778E+04  0.69913280634E+03 0.  0.
        3    1    3    3  502    0  0.17140811170E+03 -0.27947807737E+03  0.27061720853E+03  0.42511459660E+03  0.10100000352E+00 0.  1.
       -3    1    3    3    0  502 -0.17140811170E+03  0.27947807737E+03  0.68001012527E+03  0.75491888118E+03  0.10100000352E+00 0. -1.
</event>
<event>
 5   0  0.1237686E-02  0.7358872E+03  0.7818609E-02  0.9657755E-01
        1   -1    0    0  501    0  0.00000000000E+00  0.00000000000E+00  0.24711357599E+03  0.24711357604E+03  0.50400001928E-02 0. -1.
       -1   -1    0    0    0  501  0.00000000000E+00  0.00000000000E+00 -0.54785537379E+03  0.54785537382E+03  0.50400001928E-02 0.  1.
    10030    2    1    2    0    0  0.00000000000E+00  0.00000000000E+00 -0.30074179781E+03  0.79496894986E+03  0.73588722117E+03 0.  0.
        5    1    3    3  502    0 -0.32500133263E+03 -0.32998629921E+02 -0.33320960117E+03  0.46665351611E+03  0.46999998093E+01 0.  1.
       -5    1    3    3    0  502  0.32500133263E+03  0.32998629921E+02  0.32467803361E+02  0.32831543375E+03  0.46999998093E+01 0. -1.
</event>
<event>
 5   0  0.1226303E-02  0.7005032E+03  0.7818609E-02  0.9716372E-01
       -1   -1    0    0    0  501  0.00000000000E+00  0.00000000000E+00  0.27506872279E+03  0.27506872284E+03  0.50400001928E-02 0.  1.
        1   -1    0    0  501    0  0.00000000000E+00  0.00000000000E+00 -0.44598370855E+03  0.44598370858E+03  0.50400001928E-02 0. -1.
    10030    2    1    2    0    0  0.00000000000E+00  0.00000000000E+00 -0.17091498576E+03  0.72105243142E+03  0.70050315952E+03 0.  0.
        4    1    3    3  502    0 -0.29992432330E+02 -0.16810669327E+02 -0.44424005230E+03  0.44557040024E+03  0.12699999809E+01 0. -1.
       -4    1    3    3    0  502  0.29992432330E+02  0.16810669327E+02  0.27332506654E+03  0.27548203118E+03  0.12699999809E+01 0.  1.
</event>
<event>
 5   0  0.1197259E-02  0.7173125E+03  0.7818609E-02  0.9688075E-01
        1   -1    0    0  501    0  0.00000000000E+00  0.00000000000E+00  0.13450637963E+04  0.13450637963E+04  0.50400001928E-02 0.  1.
       -1   -1    0    0    0  501  0.00000000000E+00  0.00000000000E+00 -0.95634350563E+02  0.95634350696E+02  0.50400001928E-02 0. -1.
    10030    2    1    2    0    0  0.00000000000E+00  0.00000000000E+00  0.12494294458E+04  0.14406981470E+04  0.71731249182E+03 0.  0.
        3    1    3    3  502    0 -0.25628617792E+03  0.22660728826E+03  0.40838856804E+03  0.53274262153E+03  0.10100000352E+00 0. -1.
       -3    1    3    3    0  502  0.25628617792E+03 -0.22660728826E+03  0.84104087773E+03  0.90795552551E+03  0.10100000352E+00 0.  1.
</event>
<event>
 5   0  0.1257442E-02  0.7025679E+03  0.7818609E-02  0.9712851E-01
       -1   -1    0    0    0  501  0.00000000000E+00  0.00000000000E+00  0.16317238064E+03  0.16317238072E+03  0.50400001928E-02 0.  1.
        1   -1    0    0  501    0  0.00000000000E+00  0.00000000000E+00 -0.75625806134E+03  0.75625806136E+03  0.50400001928E-02 0. -1.
    10030    2    1    2    0    0  0.00000000000E+00  0.00000000000E+00 -0.59308568070E+03  0.91943044207E+03  0.70256794202E+03 0.  0.
        1    1    3    3  502    0 -0.27573415704E+03 -0.11472530923E+03 -0.53859114721E+03  0.61585034368E+03  0.50400001928E-02 0. -1.
       -1    1    3    3    0  502  0.27573415704E+03  0.11472530923E+03 -0.54494533491E+02  0.30358009839E+03  0.50400001928E-02 0.  1.
</event>
<event>
 5   0  0.2006362E-02  0.7120267E+03  0.7818609E-02  0.9696883E-01
       -2   -1    0    0    0  501  0.00000000000E+00  0.00000000000E+00  0.93324522996E+02  0.93324523031E+02  0.25500000920E-02 0.  1.
        2   -1    0    0  501    0  0.00000000000E+00  0.00000000000E+00 -0.13581157553E+04  0.13581157553E+04  0.25500000920E-02 0. -1.
    10030    2    1    2    0    0  0.00000000000E+00  0.00000000000E+00 -0.12647912323E+04  0.14514402784E+04  0.71202669912E+03 0.  0.
        4    1    3    3  502    0 -0.87806607033E+02  0.19727887302E+03 -0.55417099313E+02  0.22293860539E+03  0.12699999809E+01 0.  1.
       -4    1    3    3    0  502  0.87806607033E+02 -0.19727887302E+03 -0.12093741330E+04  0.12285016730E+04  0.12699999809E+01 0. -1.
</event>
<event>
 5   0  0.1909053E-02  0.7078543E+03  0.7818609E-02  0.9703894E-01
       -2   -1    0    0    0  501  0.00000000000E+00  0.00000000000E+00  0.21597980536E+03  0.21597980538E+03  0.25500000920E-02 0.  1.
        2   -1    0    0  501    0  0.00000000000E+00  0.00000000000E+00 -0.57998205974E+03  0.57998205975E+03  0.25500000920E-02 0. -1.
    10030    2    1    2    0    0  0.00000000000E+00  0.00000000000E+00 -0.36400225438E+03  0.79596186513E+03  0.70785425727E+03 0.  0.
        1    1    3    3  502    0  0.17864933356E+03 -0.51893362410E+02  0.15656730782E+03  0.24314980433E+03  0.50400001928E-02 0.  1.
       -1    1    3    3    0  502 -0.17864933356E+03  0.51893362410E+02 -0.52056956220E+03  0.55281206079E+03  0.50400001928E-02 0. -1.
</event>
<event>
 5   0  0.2026361E-02  0.7020257E+03  0.7818609E-02  0.9713774E-01
       -2   -1    0    0    0  501  0.00000000000E+00  0.00000000000E+00  0.21616767695E+03  0.21616767696E+03  0.25500000920E-02 0.  1.
        2   -1    0    0  501    0  0.00000000000E+00  0.00000000000E+00 -0.56997429801E+03  0.56997429802E+03  0.25500000920E-02 0. -1.
    10030    2    1    2    0    0  0.00000000000E+00  0.00000000000E+00 -0.35380662106E+03  0.78614197498E+03  0.70202569733E+03 0.  0.
        2    1    3    3  502    0 -0.11231728178E+02  0.34678937025E+03 -0.11742623763E+03  0.36630307169E+03  0.25500000920E-02 0.  1.
       -2    1    3    3    0  502  0.11231728178E+02 -0.34678937025E+03 -0.23638038343E+03  0.41983890329E+03  0.25500000920E-02 0. -1.
</event>
<event>
 5   0  0.1197259E-02  0.6877053E+03  0.7818609E-02  0.9738492E-01
       -1   -1    0    0    0  501  0.00000000000E+00  0.00000000000E+00  0.14375799705E+03  0.14375799714E+03  0.50400001928E-02 0. -1.
        1   -1    0    0  501    0  0.00000000000E+00  0.00000000000E+00 -0.82245611029E+03  0.82245611031E+03  0.50400001928E-02 0.  1.
    10030    2    1    2    0    0  0.00000000000E+00  0.00000000000E+00 -0.67869811324E+03  0.96621410745E+03  0.68770529481E+03 0.  0.
        3    1    3    3  502    0  0.11985732533E+03  0.28881573998E+03 -0.54028774320E+03  0.62425248558E+03  0.10100000352E+00 0.  1.
       -3    1    3    3    0  502 -0.11985732533E+03 -0.28881573998E+03 -0.13841037004E+03  0.34196162187E+03  0.10100000352E+00 0. -1.
</event>
<event>
 5   0  0.1948138E-02  0.7022304E+03  0.7818609E-02  0.9713426E-01
        2   -1    0    0  501    0  0.00000000000E+00  0.00000000000E+00  0.17216404095E+04  0.17216404095E+04  0.25500000920E-02 0. -1.
       -2   -1    0    0    0  501  0.00000000000E+00  0.00000000000E+00 -0.71607212520E+02  0.71607212565E+02  0.25500000920E-02 0.  1.
    10030    2    1    2    0    0  0.00000000000E+00  0.00000000000E+00  0.16500331970E+04  0.17932476221E+04  0.70223036314E+03 0.  0.
        3    1    3    3  502    0 -0.24843529530E+03  0.15039290041E+03  0.32107583574E+03  0.43292935098E+03  0.10100000352E+00 0.  1.
       -3    1    3    3    0  502  0.24843529530E+03 -0.15039290041E+03  0.13289573612E+04  0.13603182711E+04  0.10100000352E+00 0. -1.
</event>
<event>
 5   0  0.1973067E-02  0.6969640E+03  0.7818609E-02  0.9722438E-01
       -2   -1    0    0    0  501  0.00000000000E+00  0.00000000000E+00  0.90889778318E+02  0.90889778354E+02  0.25500000920E-02 0.  1.
        2   -1    0    0  501    0  0.00000000000E+00  0.00000000000E+00 -0.13361207424E+04  0.13361207425E+04  0.25500000920E-02 0. -1.
    10030    2    1    2    0    0  0.00000000000E+00  0.00000000000E+00 -0.12452309641E+04  0.14270105208E+04  0.69696403957E+03 0.  0.
        5    1    3    3  502    0 -0.27586488242E+03 -0.20026619553E+03 -0.47483370038E+03  0.58454864249E+03  0.46999998093E+01 0. -1.
       -5    1    3    3    0  502  0.27586488242E+03  0.20026619553E+03 -0.77039726375E+03  0.84246187832E+03  0.46999998093E+01 0.  1.
</event>
<event>
 5   0  0.1909053E-02  0.6948537E+03  0.7818609E-02  0.9726074E-01
       -2   -1    0    0    0  501  0.00000000000E+00  0.00000000000E+00  0.61401017140E+03  0.61401017140E+03  0.25500000920E-02 0.  1.
        2   -1    0    0  501    0  0.00000000000E+00  0.00000000000E+00 -0.19658535631E+03  0.19658535632E+03  0.25500000920E-02 0. -1.
    10030    2    1    2    0    0  0.00000000000E+00  0.00000000000E+00  0.41742481509E+03  0.81059552773E+03  0.69485367763E+03 0.  0.
        1    1    3    3  502    0  0.58859190409E+02 -0.10618507309E+03 -0.17103390792E+03  0.20974334727E+03  0.50400001928E-02 0. -1.
       -1    1    3    3    0  502 -0.58859190409E+02  0.10618507309E+03  0.58845872301E+03  0.60085218045E+03  0.50400001928E-02 0.  1.
</event>
<event>
 5   0  0.1257442E-02  0.7030450E+03  0.7818609E-02  0.9712039E-01
        1   -1    0    0  501    0  0.00000000000E+00  0.00000000000E+00  0.13212752108E+04  0.13212752109E+04  0.50400001928E-02 0. -1.
       -1   -1    0    0    0  501  0.00000000000E+00  0.00000000000E+00 -0.93521820962E+02  0.93521821098E+02  0.50400001928E-02 0.  1.
    10030    2    1    2    0    0  0.00000000000E+00  0.00000000000E+00  0.12277533899E+04  0.14147970320E+04  0.70304498807E+03 0.  0.
        1    1    3    3  502    0  0.22194433702E+03 -0.12117139397E+03  0.12248270712E+03  0.28096940940E+03  0.50400001928E-02 0.  1.
       -1    1    3    3    0  502 -0.22194433702E+03  0.12117139397E+03  0.11052706828E+04  0.11338276225E+04  0.50400001928E-02 0. -1.
</event>
<event>
 5   0  0.1226303E-02  0.6956377E+03  0.7818609E-02  0.9724721E-01
        1   -1    0    0  501    0  0.00000000000E+00  0.00000000000E+00  0.16248539133E+03  0.16248539141E+03  0.50400001928E-02 0. -1.
       -1   -1    0    0    0  501  0.00000000000E+00  0.00000000000E+00 -0.74454671940E+03  0.74454671942E+03  0.50400001928E-02 0.  1.
    10030    2    1    2    0    0  0.00000000000E+00  0.00000000000E+00 -0.58206132808E+03  0.90703211083E+03  0.69563773649E+03 0.  0.
        4    1    3    3  502    0 -0.24375277323E+03 -0.13670537204E+03 -0.56100925951E+03  0.62676692267E+03  0.12699999809E+01 0. -1.
       -4    1    3    3    0  502  0.24375277323E+03  0.13670537204E+03 -0.21052068564E+02  0.28026518815E+03  0.12699999809E+01 0.  1.
</event>
<event>
 5   0  0.1197259E-02  0.7025048E+03  0.7818609E-02  0.9712958E-01
       -1   -1    0    0    0  501  0.00000000000E+00  0.00000000000E+00  0.97361502506E+03  0.97361502508E+03  0.50400001928E-02 0.  1.
        1   -1    0    0  501    0  0.00000000000E+00  0.00000000000E+00 -0.12672178202E+03  0.12672178212E+03  0.50400001928E-02 0. -1.
    10030    2    1    2    0    0  0.00000000000E+00  0.00000000000E+00  0.84689324304E+03  0.11003368072E+04  0.70250475027E+03 0.  0.
        3    1    3    3  502    0  0.23212489479E+01  0.24833430147E+02 -0.12533299982E+03  0.12779068234E+03  0.10100000352E+00 0. -1.
       -3    1    3    3    0  502 -0.23212489479E+01 -0.24833430147E+02  0.97222624286E+03  0.97254612485E+03  0.10100000352E+00 0.  1.
</event>
<event>
 5   0  0.2006362E-02  0.6552063E+03  0.7818609E-02  0.9797059E-01
       -2   -1    0    0    0  501  0.00000000000E+00  0.00000000000E+00  0.58318707698E+03  0.58318707699E+03  0.25500000920E-02 0.  1.
        2   -1    0    0  501    0  0.00000000000E+00  0.00000000000E+00 -0.18402982495E+03  0.18402982497E+03  0.25500000920E-02 0. -1.
    10030    2    1    2    0    0  0.00000000000E+00  0.00000000000E+00  0.39915725203E+03  0.76721690196E+03  0.65520627500E+03 0.  0.
        4    1    3    3  502    0 -0.57958869575E+02  0.32237878708E+03  0.19266207086E+03  0.38000999904E+03  0.12699999809E+01 0. -1.
       -4    1    3    3    0  502  0.57958869575E+02 -0.32237878708E+03  0.20649518117E+03  0.38720690292E+03  0.12699999809E+01 0.  1.
</event>
<event>
 5   0  0.1973067E-02  0.7059662E+03  0.7818609E-02  0.9707083E-01
        2   -1    0    0  501    0  0.00000000000E+00  0.00000000000E+00  0.34974840746E+03  0.34974840747E+03  0.25500000920E-02 0.  1.
       -2   -1    0    0    0  501  0.00000000000E+00  0.00000000000E+00 -0.35624767842E+03  0.35624767843E+03  0.25500000920E-02 0. -1.
    10030    2    1    2    0    0  0.00000000000E+00  0.00000000000E+00 -0.64992709627E+01  0.70599608590E+03  0.70596616972E+03 0.  0.
        5    1    3    3  502    0  0.42750042647E+02  0.19358438776E+03 -0.29527654190E+03  0.35568638929E+03  0.46999998093E+01 0. -1.
       -5    1    3    3    0  502 -0.42750042647E+02 -0.19358438776E+03  0.28877727094E+03  0.35030969661E+03  0.46999998093E+01 0.  1.
</event>
<event>
 5   0  0.2026361E-02  0.6661715E+03  0.7818609E-02  0.9776899E-01
       -2   -1    0    0    0  501  0.00000000000E+00  0.00000000000E+00  0.20813667366E+03  0.20813667368E+03  0.25500000920E-02 0.  1.
        2   -1    0    0  501    0  0.00000000000E+00  0.00000000000E+00 -0.53304450433E+03  0.53304450433E+03  0.25500000920E-02 0. -1.
    10030    2    1    2    0    0  0.00000000000E+00  0.00000000000E+00 -0.32490783067E+03  0.74118117801E+03  0.66617147958E+03 0.  0.
        2    1    3    3  502    0  0.80409497206E+02  0.14990612234E+03  0.15616238127E+03  0.23092038040E+03  0.25500000920E-02 0.  1.
       -2    1    3    3    0  502 -0.80409497206E+02 -0.14990612234E+03 -0.48107021194E+03  0.51026079761E+03  0.25500000920E-02 0. -1.
</event>
<event>
 5   0  0.1948138E-02  0.6963374E+03  0.7818609E-02  0.9723516E-01
       -2   -1    0    0    0  501  0.00000000000E+00  0.00000000000E+00  0.20136801657E+03  0.20136801658E+03  0.25500000920E-02 0.  1.
        2   -1    0    0  501    0  0.00000000000E+00  0.00000000000E+00 -0.60198948636E+03  0.60198948636E+03  0.25500000920E-02 0. -1.
    10030    2    1    2    0    0  0.00000000000E+00  0.00000000000E+00 -0.40062146979E+03  0.80335750295E+03  0.69633735752E+03 0.  0.
        3    1    3    3  502    0  0.29159643225E+02 -0.12012370748E+03  0.17519975359E+03  0.21441770858E+03  0.10100000352E+00 0.  1.
       -3    1    3    3    0  502 -0.29159643225E+02  0.12012370748E+03 -0.57582122338E+03  0.58893979437E+03  0.10100000352E+00 0. -1.
</event>
<event>
 5   0  0.2026361E-02  0.6978241E+03  0.7818609E-02  0.9720960E-01
        2   -1    0    0  501    0  0.00000000000E+00  0.00000000000E+00  0.37294788693E+03  0.37294788694E+03  0.25500000920E-02 0. -1.
       -2   -1    0    0    0  501  0.00000000000E+00  0.00000000000E+00 -0.32642531855E+03  0.32642531856E+03  0.25500000920E-02 0.  1.
    10030    2    1    2    0    0  0.00000000000E+00  0.00000000000E+00  0.46522568378E+02  0.69937320550E+03  0.69782414060E+03 0.  0.
        2    1    3    3  502    0 -0.22154460798E+03  0.13423072747E+03  0.25753160782E+03  0.36527035269E+03  0.25500000920E-02 0. -1.
       -2    1    3    3    0  502  0.22154460798E+03 -0.13423072747E+03 -0.21100903944E+03  0.33410285281E+03  0.25500000920E-02 0.  1.
</event>
<event>
 5   0  0.1948138E-02  0.7023315E+03  0.7818609E-02  0.9713253E-01
       -2   -1    0    0    0  501  0.00000000000E+00  0.00000000000E+00  0.12456402401E+03  0.12456402404E+03  0.25500000920E-02 0. -1.
        2   -1    0    0  501    0  0.00000000000E+00  0.00000000000E+00 -0.98999186996E+03  0.98999186997E+03  0.25500000920E-02 0.  1.
    10030    2    1    2    0    0  0.00000000000E+00  0.00000000000E+00 -0.86542784595E+03  0.11145558940E+04  0.70233146329E+03 0.  0.
        3    1    3    3  502    0 -0.58729000631E+02 -0.13627015717E+03  0.72367836802E+02  0.16509320172E+03  0.10100000352E+00 0. -1.
       -3    1    3    3    0  502  0.58729000631E+02  0.13627015717E+03 -0.93779568275E+03  0.94946269228E+03  0.10100000352E+00 0.  1.
</event>
<event>
 5   0  0.1948138E-02  0.7020699E+03  0.7818609E-02  0.9713699E-01
        2   -1    0    0  501    0  0.00000000000E+00  0.00000000000E+00  0.96740661959E+03  0.96740661959E+03  0.25500000920E-02 0. -1.
       -2   -1    0    0    0  501  0.00000000000E+00  0.00000000000E+00 -0.12737718114E+03  0.12737718116E+03  0.25500000920E-02 0.  1.
    10030    2    1    2    0    0  0.00000000000E+00  0.00000000000E+00  0.84002943845E+03  0.10947838008E+04  0.70206987752E+03 0.  0.
        3    1    3    3  502    0  0.23854078647E+03 -0.60869464984E+02  0.81022626355E+03  0.84680186993E+03  0.10100000352E+00 0. -1.
       -3    1    3    3    0  502 -0.23854078647E+03  0.60869464984E+02  0.29803174907E+02  0.24798193082E+03  0.10100000352E+00 0.  1.
</event>
<event>
 5   0  0.2006362E-02  0.6989645E+03  0.7818609E-02  0.9719005E-01
       -2   -1    0    0    0  501  0.00000000000E+00  0.00000000000E+00  0.38224929077E+03  0.38224929078E+03  0.25500000920E-02 0.  1.
        2   -1    0    0  501    0  0.00000000000E+00  0.00000000000E+00 -0.31952404976E+03  0.31952404977E+03  0.25500000920E-02 0. -1.
    10030    2    1    2    0    0  0.00000000000E+00  0.00000000000E+00  0.62725241009E+02  0.70177334055E+03  0.69896449527E+03 0.  0.
        4    1    3    3  502    0 -0.99463150179E+02 -0.21563739417E+03 -0.22607335200E+03  0.32787677165E+03  0.12699999809E+01 0. -1.
       -4    1    3    3    0  502  0.99463150179E+02  0.21563739417E+03  0.28879859301E+03  0.37389656889E+03  0.12699999809E+01 0.  1.
</event>
<event>
 5   0  0.1197259E-02  0.6618394E+03  0.7818609E-02  0.9784814E-01
       -1   -1    0    0    0  501  0.00000000000E+00  0.00000000000E+00  0.16619469166E+03  0.16619469173E+03  0.50400001928E-02 0.  1.
        1   -1    0    0  501    0  0.00000000000E+00  0.00000000000E+00 -0.65891306111E+03  0.65891306113E+03  0.50400001928E-02 0. -1.
    10030    2    1    2    0    0  0.00000000000E+00  0.00000000000E+00 -0.49271836945E+03  0.82510775286E+03  0.66183941575E+03 0.  0.
        3    1    3    3  502    0 -0.14130540834E+03  0.23121073802E+03 -0.48317170473E+03  0.55396798667E+03  0.10100000352E+00 0. -1.
       -3    1    3    3    0  502  0.14130540834E+03 -0.23121073802E+03 -0.95466647248E+01  0.27113976619E+03  0.10100000352E+00 0.  1.
</event>
<event>
 5   0  0.1223742E-02  0.7045481E+03  0.7818609E-02  0.9709486E-01
       -1   -1    0    0    0  501  0.00000000000E+00  0.00000000000E+00  0.91664394639E+02  0.91664394777E+02  0.50400001928E-02 0. -1.
        1   -1    0    0  501    0  0.00000000000E+00  0.00000000000E+00 -0.13538191926E+04  0.13538191927E+04  0.50400001928E-02 0.  1.
    10030    2    1    2    0    0  0.00000000000E+00  0.00000000000E+00 -0.12621547980E+04  0.14454835874E+04  0.70454812994E+03 0.  0.
        2    1    3    3  502    0  0.25411830253E+03  0.23642482813E+03 -0.50756546441E+03  0.61489471595E+03  0.25500000920E-02 0. -1.
       -2    1    3    3    0  502 -0.25411830253E+03 -0.23642482813E+03 -0.75458933360E+03  0.83058887148E+03  0.25500000920E-02 0.  1.
</event>
<event>
 5   0  0.1223742E-02  0.6997196E+03  0.7818609E-02  0.9717712E-01
        1   -1    0    0  501    0  0.00000000000E+00  0.00000000000E+00  0.11531902690E+04  0.11531902690E+04  0.50400001928E-02 0. -1.
       -1   -1    0    0    0  501  0.00000000000E+00  0.00000000000E+00 -0.10614197475E+03  0.10614197487E+03  0.50400001928E-02 0.  1.
    10030    2    1    2    0    0  0.00000000000E+00  0.00000000000E+00  0.10470482942E+04  0.12593322439E+04  0.69971963670E+03 0.  0.
        2    1    3    3  502    0  0.33347830105E+03 -0.30410648234E+02  0.70590819248E+03  0.78130593305E+03  0.25500000920E-02 0. -1.
       -2    1    3    3    0  502 -0.33347830105E+03  0.30410648234E+02  0.34114010174E+03  0.47802631081E+03  0.25500000920E-02 0.  1.
</event>
<event>
 5   0  0.1197259E-02  0.7020219E+03  0.7818609E-02  0.9713781E-01
       -1   -1    0    0    0  501  0.00000000000E+00  0.00000000000E+00  0.53214497642E+03  0.53214497644E+03  0.50400001928E-02 0. -1.
        1   -1    0    0  501    0  0.00000000000E+00  0.00000000000E+00 -0.23153219030E+03  0.23153219036E+03  0.50400001928E-02 0.  1.
    10030    2    1    2    0    0  0.00000000000E+00  0.00000000000E+00  0.30061278611E+03  0.76367716680E+03  0.70202191412E+03 0.  0.
        3    1    3    3  502    0 -0.87669346686E+01  0.35003901749E+03  0.17705249376E+03  0.39236688017E+03  0.10100000352E+00 0. -1.
       -3    1    3    3    0  502  0.87669346686E+01 -0.35003901749E+03  0.12356029235E+03  0.37131028663E+03  0.10100000352E+00 0.  1.
</event>
<event>
 5   0  0.1909053E-02  0.7025151E+03  0.7818609E-02  0.9712941E-01
        2   -1    0    0  501    0  0.00000000000E+00  0.00000000000E+00  0.13616938647E+04  0.13616938647E+04  0.25500000920E-02 0. -1.
       -2   -1    0    0    0  501  0.00000000000E+00  0.00000000000E+00 -0.90609119876E+02  0.90609119912E+02  0.25500000920E-02 0.  1.
    10030    2    1    2    0    0  0.00000000000E+00  0.00000000000E+00  0.12710847448E+04  0.14523029846E+04  0.70251514617E+03 0.  0.
        1    1    3    3  502    0  0.13455835353E+03  0.18654191611E+03  0.86724224112E+02  0.24581482470E+03  0.50400001928E-02 0.  1.
       -1    1    3    3    0  502 -0.13455835353E+03 -0.18654191611E+03  0.11843605207E+04  0.12064881599E+04  0.50400001928E-02 0. -1.
</event>
<event>
 5   0  0.1197259E-02  0.7075669E+03  0.7818609E-02  0.9704379E-01
       -1   -1    0    0    0  501  0.00000000000E+00  0.00000000000E+00  0.25696656879E+03  0.25696656884E+03  0.50400001928E-02 0. -1.
        1   -1    0    0  501    0  0.00000000000E+00  0.00000000000E+00 -0.48707785611E+03  0.48707785614E+03  0.50400001928E-02 0.  1.
    10030    2    1    2    0    0  0.00000000000E+00  0.00000000000E+00 -0.23011128732E+03  0.74404442498E+03  0.70756688856E+03 0.  0.
        3    1    3    3  502    0  0.19559932581E+03 -0.20720723916E+02  0.19416951374E+03  0.27638787044E+03  0.10100000352E+00 0. -1.
       -3    1    3    3    0  502 -0.19559932581E+03  0.20720723916E+02 -0.42428080106E+03  0.46765655454E+03  0.10100000352E+00 0.  1.
</event>
<event>
 5   0  0.1948138E-02  0.6784894E+03  0.7818609E-02  0.9754742E-01
        2   -1    0    0  501    0  0.00000000000E+00  0.00000000000E+00  0.17637944441E+03  0.17637944443E+03  0.25500000920E-02 0. -1.
       -2   -1    0    0    0  501  0.00000000000E+00  0.00000000000E+00 -0.65249641186E+03  0.65249641187E+03  0.25500000920E-02 0.  1.
    10030    2    1    2    0    0  0.00000000000E+00  0.00000000000E+00 -0.47611696745E+03  0.82887585630E+03  0.67848936503E+03 0.  0.
        3    1    3    3  502    0 -0.31879986231E+03 -0.33574284233E+02 -0.37369101356E+03  0.49234700018E+03  0.10100000352E+00 0.  1.
       -3    1    3    3    0  502  0.31879986231E+03  0.33574284233E+02 -0.10242595388E+03  0.33652885612E+03  0.10100000352E+00 0. -1.
</event>
<event>
 5   0  0.1257442E-02  0.6998225E+03  0.7818609E-02  0.9717536E-01
        1   -1    0    0  501    0  0.00000000000E+00  0.00000000000E+00  0.56703890546E+03  0.56703890548E+03  0.50400001928E-02 0.  1.
       -1   -1    0    0    0  501  0.00000000000E+00  0.00000000000E+00 -0.21592501442E+03  0.21592501448E+03  0.50400001928E-02 0. -1.
    10030    2    1    2    0    0  0.00000000000E+00  0.00000000000E+00  0.35111389104E+03  0.78296391996E+03  0.69982250284E+03 0.  0.
        1    1    3    3  502    0  0.84413179711E+02 -0.33827880394E+03  0.20874130356E+03  0.40636321922E+03  0.50400001928E-02 0.  1.
       -1    1    3    3    0  502 -0.84413179711E+02  0.33827880394E+03  0.14237258748E+03  0.37660070074E+03  0.50400001928E-02 0. -1.
</event>
<event>
 5   0  0.2006362E-02  0.6683680E+03  0.7818609E-02  0.9772911E-01
        2   -1    0    0  501    0  0.00000000000E+00  0.00000000000E+00  0.10843321466E+04  0.10843321466E+04  0.25500000920E-02 0.  1.
       -2   -1    0    0    0  501  0.00000000000E+00  0.00000000000E+00 -0.10299329092E+03  0.10299329095E+03  0.25500000920E-02 0. -1.
    10030    2    1    2    0    0  0.00000000000E+00  0.00000000000E+00  0.98133885573E+03  0.11873254376E+04  0.66836797125E+03 0.  0.
        4    1    3    3  502    0 -0.12505877345E+03 -0.23405973413E+03  0.85148512556E+03  0.89188126335E+03  0.12699999809E+01 0.  1.
       -4    1    3    3    0  502  0.12505877345E+03  0.23405973413E+03  0.12985373017E+03  0.29544417425E+03  0.12699999809E+01 0. -1.
</event>
<event>
 5   0  0.2006362E-02  0.6974274E+03  0.7818609E-02  0.9721642E-01
        2   -1    0    0  501    0  0.00000000000E+00  0.00000000000E+00  0.59730382179E+03  0.59730382179E+03  0.25500000920E-02 0.  1.
       -2   -1    0    0    0  501  0.00000000000E+00  0.00000000000E+00 -0.20358357153E+03  0.20358357154E+03  0.25500000920E-02 0. -1.
    10030    2    1    2    0    0  0.00000000000E+00  0.00000000000E+00  0.39372025026E+03  0.80088739334E+03  0.69742740220E+03 0.  0.
        4    1    3    3  502    0  0.28555588550E+03 -0.12527840623E+03  0.17619702985E+02  0.31232820821E+03  0.12699999809E+01 0. -1.
       -4    1    3    3    0  502 -0.28555588550E+03  0.12527840623E+03  0.37610054728E+03  0.48855918513E+03  0.12699999809E+01 0.  1.
</event>
<event>
 5   0  0.1237686E-02  0.6887560E+03  0.7818609E-02  0.9736656E-01
       -1   -1    0    0    0  501  0.00000000000E+00  0.00000000000E+00  0.14823654323E+03  0.14823654332E+03  0.50400001928E-02 0. -1.
        1   -1    0    0  501    0  0.00000000000E+00  0.00000000000E+00 -0.80004712215E+03  0.80004712217E+03  0.50400001928E-02 0.  1.
    10030    2    1    2    0    0  0.00000000000E+00  0.00000000000E+00 -0.65181057892E+03  0.94828366548E+03  0.68875603767E+03 0.  0.
        5    1    3    3  502    0  0.14275849252E+03  0.43265793995E+02  0.10139784490E+03  0.18043150796E+03  0.46999998093E+01 0. -1.
       -5    1    3    3    0  502 -0.14275849252E+03 -0.43265793995E+02 -0.75320842381E+03  0.76785215753E+03  0.46999998093E+01 0.  1.
</event>
<event>
 5   0  0.1197259E-02  0.7147151E+03  0.7818609E-02  0.9692393E-01
        1   -1    0    0  501    0  0.00000000000E+00  0.00000000000E+00  0.14141965532E+03  0.14141965541E+03  0.50400001928E-02 0.  1.
       -1   -1    0    0    0  501  0.00000000000E+00  0.00000000000E+00 -0.90301747206E+03  0.90301747207E+03  0.50400001928E-02 0. -1.
    10030    2    1    2    0    0  0.00000000000E+00  0.00000000000E+00 -0.76159781674E+03  0.10444371275E+04  0.71471510324E+03 0.  0.
        3    1    3    3  502    0  0.29061262950E+03  0.19610140180E+03 -0.27962913921E+03  0.44844612375E+03  0.10100000352E+00 0.  1.
       -3    1    3    3    0  502 -0.29061262950E+03 -0.19610140180E+03 -0.48196867752E+03  0.59599100373E+03  0.10100000352E+00 0. -1.
</event>
<event>
 5   0  0.1223742E-02  0.7042745E+03  0.7818609E-02  0.9709950E-01
       -1   -1    0    0    0  501  0.00000000000E+00  0.00000000000E+00  0.23245169166E+03  0.23245169172E+03  0.50400001928E-02 0. -1.
        1   -1    0    0  501    0  0.00000000000E+00  0.00000000000E+00 -0.53344700087E+03  0.53344700089E+03  0.50400001928E-02 0.  1.
    10030    2    1    2    0    0  0.00000000000E+00  0.00000000000E+00 -0.30099530920E+03  0.76589869261E+03  0.70427454247E+03 0.  0.
        2    1    3    3  502    0 -0.23874527242E+03 -0.17222079242E+03 -0.36064521531E+03  0.46553654827E+03  0.25500000920E-02 0.  1.
       -2    1    3    3    0  502  0.23874527242E+03  0.17222079242E+03  0.59649906105E+02  0.30036214434E+03  0.25500000920E-02 0. -1.
</event>
<event>
 5   0  0.2006362E-02  0.6994900E+03  0.7818609E-02  0.9718105E-01
        2   -1    0    0  501    0  0.00000000000E+00  0.00000000000E+00  0.17008992757E+03  0.17008992759E+03  0.25500000920E-02 0.  1.
       -2   -1    0    0    0  501  0.00000000000E+00  0.00000000000E+00 -0.71915828178E+03  0.71915828179E+03  0.25500000920E-02 0. -1.
    10030    2    1    2    0    0  0.00000000000E+00  0.00000000000E+00 -0.54906835421E+03  0.88924820937E+03  0.69949004301E+03 0.  0.
        4    1    3    3  502    0 -0.22391428087E+03  0.99170042427E+02 -0.59196680027E+03  0.64062360869E+03  0.12699999809E+01 0. -1.
       -4    1    3    3    0  502  0.22391428087E+03 -0.99170042427E+02  0.42898446053E+02  0.24862460068E+03  0.12699999809E+01 0.  1.
</event>
<event>
 5   0  0.1197259E-02  0.6947144E+03  0.7818609E-02  0.9726314E-01
        1   -1    0    0  501    0  0.00000000000E+00  0.00000000000E+00  0.53587806237E+03  0.53587806239E+03  0.50400001928E-02 0.  1.
       -1   -1    0    0    0  501  0.00000000000E+00  0.00000000000E+00 -0.22515760773E+03  0.22515760778E+03  0.50400001928E-02 0. -1.
    10030    2    1    2    0    0  0.00000000000E+00  0.00000000000E+00  0.31072045464E+03  0.76103567017E+03  0.69471439480E+03 0.  0.
        3    1    3    3  502    0  0.29421115074E+03 -0.17971946504E+03  0.10891294048E+03  0.36155404318E+03  0.10100000352E+00 0. -1.
       -3    1    3    3    0  502 -0.29421115074E+03  0.17971946504E+03  0.20180751416E+03  0.39948162699E+03  0.10100000352E+00 0.  1.
</event>
<event>
 5   0  0.2026361E-02  0.6963709E+03  0.7818609E-02  0.9723459E-01
       -2   -1    0    0    0  501  0.00000000000E+00  0.00000000000E+00  0.33311983719E+03  0.33311983720E+03  0.25500000920E-02 0. -1.
        2   -1    0    0  501    0  0.00000000000E+00  0.00000000000E+00 -0.36393243523E+03  0.36393243524E+03  0.25500000920E-02 0.  1.
    10030    2    1    2    0    0  0.00000000000E+00  0.00000000000E+00 -0.30812598044E+02  0.69705227244E+03  0.69637091719E+03 0.  0.
        2    1    3    3  502    0 -0.28954889990E+03 -0.17604278337E+03  0.64693785319E+02  0.34498538067E+03  0.25500000920E-02 0. -1.
       -2    1    3    3    0  502  0.28954889990E+03  0.17604278337E+03 -0.95506383363E+02  0.35206689177E+03  0.25500000920E-02 0.  1.
</event>
<event>
 5   0  0.2006362E-02  0.6861737E+03  0.7818609E-02  0.9741174E-01
       -2   -1    0    0    0  501  0.00000000000E+00  0.00000000000E+00  0.27896730001E+03  0.27896730002E+03  0.25500000920E-02 0.  1.
        2   -1    0    0  501    0  0.00000000000E+00  0.00000000000E+00 -0.42194405215E+03  0.42194405216E+03  0.25500000920E-02 0. -1.
    10030    2    1    2    0    0  0.00000000000E+00  0.00000000000E+00 -0.14297675215E+03  0.70091135218E+03  0.68617371850E+03 0.  0.
        4    1    3    3  502    0 -0.31314533765E+02  0.63082692432E+02  0.27150159606E+03  0.28049020602E+03  0.12699999809E+01 0.  1.
       -4    1    3    3    0  502  0.31314533765E+02 -0.63082692432E+02 -0.41447834821E+03  0.42042114616E+03  0.12699999809E+01 0. -1.
</event>
<event>
 5   0  0.1237686E-02  0.6971938E+03  0.7818609E-02  0.9722043E-01
       -1   -1    0    0    0  501  0.00000000000E+00  0.00000000000E+00  0.81793389307E+02  0.81793389463E+02  0.50400001928E-02 0. -1.
        1   -1    0    0  501    0  0.00000000000E+00  0.00000000000E+00 -0.14856921975E+04  0.14856921976E+04  0.50400001928E-02 0.  1.
    10030    2    1    2    0    0  0.00000000000E+00  0.00000000000E+00 -0.14038988082E+04  0.15674855870E+04  0.69719380500E+03 0.  0.
        5    1    3    3  502    0 -0.58580255707E+02 -0.75047544564E+02  0.51924538898E+02  0.10854505075E+03  0.46999998093E+01 0. -1.
       -5    1    3    3    0  502  0.58580255707E+02  0.75047544564E+02 -0.14558233471E+04  0.14589405363E+04  0.46999998093E+01 0.  1.
</event>
<event>
 5   0  0.7947250E-03  0.6977016E+03  0.7818609E-02  0.9721171E-01
       -4   -1    0    0    0  501  0.00000000000E+00  0.00000000000E+00  0.11363581408E+03  0.11364291065E+03  0.12699999809E+01 0.  1.
        4   -1    0    0  501    0  0.00000000000E+00  0.00000000000E+00 -0.10708969501E+04  0.10708977032E+04  0.12699999809E+01 0. -1.
    10030    2    1    2    0    0  0.00000000000E+00  0.00000000000E+00 -0.95726113607E+03  0.11845406139E+04  0.69770164344E+03 0.  0.
        2    1    3    3  502    0  0.10816165013E+03 -0.22552572688E+03 -0.65767012100E+02  0.25862346361E+03  0.25500000920E-02 0.  1.
       -2    1    3    3    0  502 -0.10816165013E+03  0.22552572688E+03 -0.89149412397E+03  0.92591715025E+03  0.25500000920E-02 0. -1.
</event>
<event>
 5   0  0.2026361E-02  0.7009783E+03  0.7818609E-02  0.9715561E-01
       -2   -1    0    0    0  501  0.00000000000E+00  0.00000000000E+00  0.21725131416E+03  0.21725131418E+03  0.25500000920E-02 0.  1.
        2   -1    0    0  501    0  0.00000000000E+00  0.00000000000E+00 -0.56544021228E+03  0.56544021228E+03  0.25500000920E-02 0. -1.
    10030    2    1    2    0    0  0.00000000000E+00  0.00000000000E+00 -0.34818889812E+03  0.78269152646E+03  0.70097825703E+03 0.  0.
        2    1    3    3  502    0  0.28428203086E+03 -0.16934949275E+03 -0.30309145504E+03  0.44873149421E+03  0.25500000920E-02 0. -1.
       -2    1    3    3    0  502 -0.28428203086E+03  0.16934949275E+03 -0.45097443074E+02  0.33396003226E+03  0.25500000920E-02 0.  1.
</event>
<event>
 5   0  0.1948138E-02  0.7035854E+03  0.7818609E-02  0.9711120E-01
        2   -1    0    0  501    0  0.00000000000E+00  0.00000000000E+00  0.21173790526E+03  0.21173790528E+03  0.25500000920E-02 0. -1.
       -2   -1    0    0    0  501  0.00000000000E+00  0.00000000000E+00 -0.58448716677E+03  0.58448716678E+03  0.25500000920E-02 0.  1.
    10030    2    1    2    0    0  0.00000000000E+00  0.00000000000E+00 -0.37274926151E+03  0.79622507205E+03  0.70358535617E+03 0.  0.
        3    1    3    3  502    0  0.27728231336E+03  0.66038048296E+02  0.46956477901E+02  0.28887960493E+03  0.10100000352E+00 0. -1.
       -3    1    3    3    0  502 -0.27728231336E+03 -0.66038048296E+02 -0.41970573941E+03  0.50734546713E+03  0.10100000352E+00 0.  1.
</event>
<event>
 5   0  0.1973067E-02  0.7092901E+03  0.7818609E-02  0.9701475E-01
        2   -1    0    0  501    0  0.00000000000E+00  0.00000000000E+00  0.20875441683E+04  0.20875441683E+04  0.25500000920E-02 0. -1.
       -2   -1    0    0    0  501  0.00000000000E+00  0.00000000000E+00 -0.60249324926E+02  0.60249324980E+02  0.25500000920E-02 0.  1.
    10030    2    1    2    0    0  0.00000000000E+00  0.00000000000E+00  0.20272948434E+04  0.21477934933E+04  0.70929014360E+03 0.  0.
        5    1    3    3  502    0 -0.59004302681E+02 -0.31495481220E+03  0.14736079754E+04  0.15080519210E+04  0.46999998093E+01 0. -1.
       -5    1    3    3    0  502  0.59004302681E+02  0.31495481220E+03  0.55368686802E+03  0.63974157227E+03  0.46999998093E+01 0.  1.
</event>
<event>
 5   0  0.1223742E-02  0.7006257E+03  0.7818609E-02  0.9716163E-01
       -1   -1    0    0    0  501  0.00000000000E+00  0.00000000000E+00  0.24644799604E+03  0.24644799609E+03  0.50400001928E-02 0. -1.
        1   -1    0    0  501    0  0.00000000000E+00  0.00000000000E+00 -0.49795125877E+03  0.49795125880E+03  0.50400001928E-02 0.  1.
    10030    2    1    2    0    0  0.00000000000E+00  0.00000000000E+00 -0.25150326273E+03  0.74439925489E+03  0.70062569144E+03 0.  0.
        2    1    3    3  502    0 -0.13370844981E+03 -0.32337752151E+03 -0.14314900095E+03  0.37807751513E+03  0.25500000920E-02 0. -1.
       -2    1    3    3    0  502  0.13370844981E+03  0.32337752151E+03 -0.10835426178E+03  0.36632173976E+03  0.25500000920E-02 0.  1.
</event>
<event>
 5   0  0.2026361E-02  0.6991843E+03  0.7818609E-02  0.9718628E-01
       -2   -1    0    0    0  501  0.00000000000E+00  0.00000000000E+00  0.93174484511E+02  0.93174484546E+02  0.25500000920E-02 0. -1.
        2   -1    0    0  501    0  0.00000000000E+00  0.00000000000E+00 -0.13116752763E+04  0.13116752763E+04  0.25500000920E-02 0.  1.
    10030    2    1    2    0    0  0.00000000000E+00  0.00000000000E+00 -0.12185007918E+04  0.14048497609E+04  0.69918428970E+03 0.  0.
        2    1    3    3  502    0  0.10621241625E+00 -0.32919134170E+03 -0.84569385825E+03  0.90750484991E+03  0.25500000920E-02 0.  1.
       -2    1    3    3    0  502 -0.10621241625E+00  0.32919134170E+03 -0.37280693355E+03  0.49734491094E+03  0.25500000920E-02 0. -1.
</event>
<event>
 5   0  0.7947250E-03  0.7000774E+03  0.7818609E-02  0.9717100E-01
        4   -1    0    0  501    0  0.00000000000E+00  0.00000000000E+00  0.10424172759E+04  0.10424180496E+04  0.12699999809E+01 0.  1.
       -4   -1    0    0    0  501  0.00000000000E+00  0.00000000000E+00 -0.11753706105E+03  0.11754392209E+03  0.12699999809E+01 0. -1.
    10030    2    1    2    0    0  0.00000000000E+00  0.00000000000E+00  0.92488021489E+03  0.11599619717E+04  0.70007739845E+03 0.  0.
        1    1    3    3  502    0  0.26437975926E+03 -0.10416764462E+03  0.80111226841E+03  0.85001671861E+03  0.50400001928E-02 0.  1.
       -1    1    3    3    0  502 -0.26437975926E+03  0.10416764462E+03  0.12376794648E+03  0.30994525306E+03  0.50400001928E-02 0. -1.
</event>
<event>
 5   0  0.1973067E-02  0.6835429E+03  0.7818609E-02  0.9745797E-01
        2   -1    0    0  501    0  0.00000000000E+00  0.00000000000E+00  0.53675991868E+03  0.53675991869E+03  0.25500000920E-02 0.  1.
       -2   -1    0    0    0  501  0.00000000000E+00  0.00000000000E+00 -0.21761632716E+03  0.21761632718E+03  0.25500000920E-02 0. -1.
    10030    2    1    2    0    0  0.00000000000E+00  0.00000000000E+00  0.31914359152E+03  0.75437624586E+03  0.68354289428E+03 0.  0.
        5    1    3    3  502    0 -0.26657596191E+03  0.20854972592E+03  0.21168706277E+03  0.39923581276E+03  0.46999998093E+01 0. -1.
       -5    1    3    3    0  502  0.26657596191E+03 -0.20854972592E+03  0.10745652875E+03  0.35514043310E+03  0.46999998093E+01 0.  1.
</event>
<event>
 5   0  0.1226303E-02  0.6955653E+03  0.7818609E-02  0.9724846E-01
        1   -1    0    0  501    0  0.00000000000E+00  0.00000000000E+00  0.35265631585E+03  0.35265631588E+03  0.50400001928E-02 0. -1.
       -1   -1    0    0    0  501  0.00000000000E+00  0.00000000000E+00 -0.34297637258E+03  0.34297637261E+03  0.50400001928E-02 0.  1.
    10030    2    1    2    0    0  0.00000000000E+00  0.00000000000E+00  0.96799432688E+01  0.69563268849E+03  0.69556533554E+03 0.  0.
        4    1    3    3  502    0  0.18148400024E+02 -0.31244691833E+03 -0.14682803469E+03  0.34570583719E+03  0.12699999809E+01 0.  1.
       -4    1    3    3    0  502 -0.18148400024E+02  0.31244691833E+03  0.15650797795E+03  0.34992685130E+03  0.12699999809E+01 0. -1.
</event>
<event>
 5   0  0.1223742E-02  0.6925961E+03  0.7818609E-02  0.9729978E-01
       -1   -1    0    0    0  501  0.00000000000E+00  0.00000000000E+00  0.57157473076E+03  0.57157473079E+03  0.50400001928E-02 0. -1.
        1   -1    0    0  501    0  0.00000000000E+00  0.00000000000E+00 -0.20981040609E+03  0.20981040615E+03  0.50400001928E-02 0.  1.
    10030    2    1    2    0    0  0.00000000000E+00  0.00000000000E+00  0.36176432468E+03  0.78138513693E+03  0.69259606237E+03 0.  0.
        2    1    3    3  502    0  0.24052404066E+03 -0.15633240278E+02  0.46140686022E+03  0.52056940268E+03  0.25500000920E-02 0. -1.
       -2    1    3    3    0  502 -0.24052404066E+03  0.15633240278E+02 -0.99642535545E+02  0.26081573425E+03  0.25500000920E-02 0.  1.
</event>
<event>
 5   0  0.1257442E-02  0.6981755E+03  0.7818609E-02  0.9720357E-01
        1   -1    0    0  501    0  0.00000000000E+00  0.00000000000E+00  0.49566991664E+03  0.49566991667E+03  0.50400001928E-02 0. -1.
       -1   -1    0    0    0  501  0.00000000000E+00  0.00000000000E+00 -0.24585365685E+03  0.24585365690E+03  0.50400001928E-02 0.  1.
    10030    2    1    2    0    0  0.00000000000E+00  0.00000000000E+00  0.24981625980E+03  0.74152357357E+03  0.69817551268E+03 0.  0.
        1    1    3    3  502    0  0.46238878361E+02  0.28874047260E+03 -0.77594877114E+02  0.30253935177E+03  0.50400001928E-02 0.  1.
       -1    1    3    3    0  502 -0.46238878361E+02 -0.28874047260E+03  0.32741113691E+03  0.43898422180E+03  0.50400001928E-02 0. -1.
</event>
<event>
 5   0  0.1973067E-02  0.6891512E+03  0.7818609E-02  0.9735967E-01
       -2   -1    0    0    0  501  0.00000000000E+00  0.00000000000E+00  0.52235962748E+02  0.52235962811E+02  0.25500000920E-02 0. -1.
        2   -1    0    0  501    0  0.00000000000E+00  0.00000000000E+00 -0.22730001955E+04  0.22730001955E+04  0.25500000920E-02 0.  1.
    10030    2    1    2    0    0  0.00000000000E+00  0.00000000000E+00 -0.22207642327E+04  0.23252361583E+04  0.68915122756E+03 0.  0.
        5    1    3    3  502    0  0.16987330457E+03 -0.20630408561E+03 -0.37663545761E+03  0.46183836271E+03  0.46999998093E+01 0. -1.
       -5    1    3    3    0  502 -0.16987330457E+03  0.20630408561E+03 -0.18441287751E+04  0.18633977956E+04  0.46999998093E+01 0.  1.
</event>
<event>
 5   0  0.1237686E-02  0.6992957E+03  0.7818609E-02  0.9718437E-01
       -1   -1    0    0    0  501  0.00000000000E+00  0.00000000000E+00  0.40279012642E+03  0.40279012645E+03  0.50400001928E-02 0. -1.
        1   -1    0    0  501    0  0.00000000000E+00  0.00000000000E+00 -0.30351688947E+03  0.30351688951E+03  0.50400001928E-02 0.  1.
    10030    2    1    2    0    0  0.00000000000E+00  0.00000000000E+00  0.99273236949E+02  0.70630701595E+03  0.69929566366E+03 0.  0.
        5    1    3    3  502    0 -0.13140689455E+02 -0.18197569253E+03  0.35086108687E+03  0.39549136864E+03  0.46999998093E+01 0. -1.
       -5    1    3    3    0  502  0.13140689455E+02  0.18197569253E+03 -0.25158784992E+03  0.31081564732E+03  0.46999998093E+01 0.  1.
</event>
<event>
 5   0  0.1197259E-02  0.6852328E+03  0.7818609E-02  0.9742825E-01
        1   -1    0    0  501    0  0.00000000000E+00  0.00000000000E+00  0.12236052258E+04  0.12236052258E+04  0.50400001928E-02 0.  1.
       -1   -1    0    0    0  501  0.00000000000E+00  0.00000000000E+00 -0.95934548200E+02  0.95934548333E+02  0.50400001928E-02 0. -1.
    10030    2    1    2    0    0  0.00000000000E+00  0.00000000000E+00  0.11276706776E+04  0.13195397742E+04  0.68523284980E+03 0.  0.
        3    1    3    3  502    0 -0.32639647447E+03 -0.27259553618E+02  0.37022766428E+03  0.49431394418E+03  0.10100000352E+00 0. -1.
       -3    1    3    3    0  502  0.32639647447E+03  0.27259553618E+02  0.75744301335E+03  0.82522583000E+03  0.10100000352E+00 0.  1.
</event>
<event>
 5   0  0.1909053E-02  0.7007204E+03  0.7818609E-02  0.9716001E-01
        2   -1    0    0  501    0  0.00000000000E+00  0.00000000000E+00  0.12152827815E+04  0.12152827815E+04  0.25500000920E-02 0.  1.
       -2   -1    0    0    0  501  0.00000000000E+00  0.00000000000E+00 -0.10100716806E+03  0.10100716809E+03  0.25500000920E-02 0. -1.
    10030    2    1    2    0    0  0.00000000000E+00  0.00000000000E+00  0.11142756134E+04  0.13162899496E+04  0.70072040692E+03 0.  0.
        1    1    3    3  502    0  0.20252243784E+03 -0.16539119813E+03  0.99520136478E+03  0.10289778145E+04  0.50400001928E-02 0.  1.
       -1    1    3    3    0  502 -0.20252243784E+03  0.16539119813E+03  0.11907424865E+03  0.28731213508E+03  0.50400001928E-02 0. -1.
</event>
<event>
 5   0  0.1257442E-02  0.6978212E+03  0.7818609E-02  0.9720966E-01
        1   -1    0    0  501    0  0.00000000000E+00  0.00000000000E+00  0.14685208716E+04  0.14685208716E+04  0.50400001928E-02 0.  1.
       -1   -1    0    0    0  501  0.00000000000E+00  0.00000000000E+00 -0.82898782404E+02  0.82898782557E+02  0.50400001928E-02 0. -1.
    10030    2    1    2    0    0  0.00000000000E+00  0.00000000000E+00  0.13856220892E+04  0.15514196542E+04  0.69782115851E+03 0.  0.
        1    1    3    3  502    0 -0.17712981586E+03  0.72820798821E+02  0.44400954861E+02  0.19659421463E+03  0.50400001928E-02 0. -1.
       -1    1    3    3    0  502  0.17712981586E+03 -0.72820798821E+02  0.13412211343E+04  0.13548254395E+04  0.50400001928E-02 0.  1.
</event>
<event>
 5   0  0.1948138E-02  0.7039138E+03  0.7818609E-02  0.9710562E-01
       -2   -1    0    0    0  501  0.00000000000E+00  0.00000000000E+00  0.11014889425E+03  0.11014889428E+03  0.25500000920E-02 0. -1.
        2   -1    0    0  501    0  0.00000000000E+00  0.00000000000E+00 -0.11246020596E+04  0.11246020596E+04  0.25500000920E-02 0.  1.
    10030    2    1    2    0    0  0.00000000000E+00  0.00000000000E+00 -0.10144531654E+04  0.12347509539E+04  0.70391383948E+03 0.  0.
        3    1    3    3  502    0 -0.98243005771E+02 -0.11504418042E+03  0.50205802914E+02  0.15939725367E+03  0.10100000352E+00 0. -1.
       -3    1    3    3    0  502  0.98243005771E+02  0.11504418042E+03 -0.10646589683E+04  0.10753537002E+04  0.10100000352E+00 0.  1.
</event>
<event>
 5   0  0.1257442E-02  0.6941421E+03  0.7818609E-02  0.9727303E-01
        1   -1    0    0  501    0  0.00000000000E+00  0.00000000000E+00  0.80685319063E+03  0.80685319065E+03  0.50400001928E-02 0. -1.
       -1   -1    0    0    0  501  0.00000000000E+00  0.00000000000E+00 -0.14929397123E+03  0.14929397131E+03  0.50400001928E-02 0.  1.
    10030    2    1    2    0    0  0.00000000000E+00  0.00000000000E+00  0.65755921940E+03  0.95614716196E+03  0.69414210959E+03 0.  0.
        1    1    3    3  502    0  0.32411406533E+02  0.19322500311E+03 -0.65835431613E+02  0.20668987682E+03  0.50400001928E-02 0.  1.
       -1    1    3    3    0  502 -0.32411406533E+02 -0.19322500311E+03  0.72339465102E+03  0.74945728514E+03  0.50400001928E-02 0. -1.
</event>
<event>
 5   0  0.1226303E-02  0.6950924E+03  0.7818609E-02  0.9725662E-01
        1   -1    0    0  501    0  0.00000000000E+00  0.00000000000E+00  0.14764364488E+04  0.14764364488E+04  0.50400001928E-02 0. -1.
       -1   -1    0    0    0  501  0.00000000000E+00  0.00000000000E+00 -0.81810746849E+02  0.81810747005E+02  0.50400001928E-02 0.  1.
    10030    2    1    2    0    0  0.00000000000E+00  0.00000000000E+00  0.13946257019E+04  0.15582471958E+04  0.69509242170E+03 0.  0.
        4    1    3    3  502    0 -0.18022134626E+03 -0.28462177516E+03  0.50580795684E+03  0.60772739830E+03  0.12699999809E+01 0.  1.
       -4    1    3    3    0  502  0.18022134626E+03  0.28462177516E+03  0.88881774507E+03  0.95051979748E+03  0.12699999809E+01 0. -1.
</event>
<event>
 5   0  0.1909053E-02  0.7028355E+03  0.7818609E-02  0.9712395E-01
        2   -1    0    0  501    0  0.00000000000E+00  0.00000000000E+00  0.13758843509E+03  0.13758843511E+03  0.25500000920E-02 0.  1.
       -2   -1    0    0    0  501  0.00000000000E+00  0.00000000000E+00 -0.89756402946E+03  0.89756402946E+03  0.25500000920E-02 0. -1.
    10030    2    1    2    0    0  0.00000000000E+00  0.00000000000E+00 -0.75997559437E+03  0.10351524646E+04  0.70283548636E+03 0.  0.
        1    1    3    3  502    0 -0.25970453159E+03 -0.19461031652E+03 -0.18143061856E+03  0.37180194782E+03  0.50400001928E-02 0.  1.
       -1    1    3    3    0  502  0.25970453159E+03  0.19461031652E+03 -0.57854497581E+03  0.66335051676E+03  0.50400001928E-02 0. -1.
</event>
<event>
 5   0  0.1257442E-02  0.7023955E+03  0.7818609E-02  0.9713144E-01
        1   -1    0    0  501    0  0.00000000000E+00  0.00000000000E+00  0.28187529512E+03  0.28187529516E+03  0.50400001928E-02 0. -1.
       -1   -1    0    0    0  501  0.00000000000E+00  0.00000000000E+00 -0.43756887112E+03  0.43756887115E+03  0.50400001928E-02 0.  1.
    10030    2    1    2    0    0  0.00000000000E+00  0.00000000000E+00 -0.15569357600E+03  0.71944416631E+03  0.70239548606E+03 0.  0.
        1    1    3    3  502    0 -0.36635246548E+02 -0.78732188023E+02  0.27070531340E+03  0.28429257016E+03  0.50400001928E-02 0. -1.
       -1    1    3    3    0  502  0.36635246548E+02  0.78732188023E+02 -0.42639888941E+03  0.43515159615E+03  0.50400001928E-02 0.  1.
</event>
<event>
 5   0  0.1257442E-02  0.7112611E+03  0.7818609E-02  0.9698166E-01
       -1   -1    0    0    0  501  0.00000000000E+00  0.00000000000E+00  0.13028691206E+03  0.13028691216E+03  0.50400001928E-02 0. -1.
        1   -1    0    0  501    0  0.00000000000E+00  0.00000000000E+00 -0.97072741734E+03  0.97072741735E+03  0.50400001928E-02 0.  1.
    10030    2    1    2    0    0  0.00000000000E+00  0.00000000000E+00 -0.84044050528E+03  0.11010143295E+04  0.71126107083E+03 0.  0.
        1    1    3    3  502    0  0.13908000814E+03 -0.32492214564E+03 -0.35916979398E+03  0.50390533865E+03  0.50400001928E-02 0. -1.
       -1    1    3    3    0  502 -0.13908000814E+03  0.32492214564E+03 -0.48127071130E+03  0.59710899086E+03  0.50400001928E-02 0.  1.
</event>
<event>
 5   0  0.1948138E-02  0.7024786E+03  0.7818609E-02  0.9713003E-01
       -2   -1    0    0    0  501  0.00000000000E+00  0.00000000000E+00  0.92094550441E+02  0.92094550476E+02  0.25500000920E-02 0.  1.
        2   -1    0    0  501    0  0.00000000000E+00  0.00000000000E+00 -0.13395912762E+04  0.13395912762E+04  0.25500000920E-02 0. -1.
    10030    2    1    2    0    0  0.00000000000E+00  0.00000000000E+00 -0.12474967258E+04  0.14316858267E+04  0.70247862995E+03 0.  0.
        3    1    3    3  502    0 -0.33765514957E+03  0.13518578000E+02 -0.42852822834E+03  0.54573821990E+03  0.10100000352E+00 0. -1.
       -3    1    3    3    0  502  0.33765514957E+03 -0.13518578000E+02 -0.81896849741E+03  0.88594760677E+03  0.10100000352E+00 0.  1.
</event>
<event>
 5   0  0.1973067E-02  0.7046363E+03  0.7818609E-02  0.9709336E-01
        2   -1    0    0  501    0  0.00000000000E+00  0.00000000000E+00  0.52440635070E+03  0.52440635071E+03  0.25500000920E-02 0.  1.
       -2   -1    0    0    0  501  0.00000000000E+00  0.00000000000E+00 -0.23670207029E+03  0.23670207031E+03  0.25500000920E-02 0. -1.
    10030    2    1    2    0    0  0.00000000000E+00  0.00000000000E+00  0.28770428041E+03  0.76110842101E+03  0.70463627182E+03 0.  0.
        5    1    3    3  502    0  0.25782128505E+03 -0.79957993653E+02 -0.10065403663E+03  0.28812917392E+03  0.46999998093E+01 0. -1.
       -5    1    3    3    0  502 -0.25782128505E+03  0.79957993653E+02  0.38835831704E+03  0.47297924710E+03  0.46999998093E+01 0.  1.
</event>
<event>
 5   0  0.2026361E-02  0.6973781E+03  0.7818609E-02  0.9721727E-01
       -2   -1    0    0    0  501  0.00000000000E+00  0.00000000000E+00  0.68306571321E+02  0.68306571369E+02  0.25500000920E-02 0. -1.
        2   -1    0    0  501    0  0.00000000000E+00  0.00000000000E+00 -0.17799759800E+04  0.17799759800E+04  0.25500000920E-02 0.  1.
    10030    2    1    2    0    0  0.00000000000E+00  0.00000000000E+00 -0.17116694087E+04  0.18482825514E+04  0.69737810769E+03 0.  0.
        2    1    3    3  502    0 -0.11189721592E+03  0.32844275970E+03 -0.76446850370E+03  0.83952827617E+03  0.25500000920E-02 0. -1.
       -2    1    3    3    0  502  0.11189721592E+03 -0.32844275970E+03 -0.94720090496E+03  0.10087542752E+04  0.25500000920E-02 0.  1.
</event>
<event>
 5   0  0.2026361E-02  0.6851541E+03  0.7818609E-02  0.9742963E-01
        2   -1    0    0  501    0  0.00000000000E+00  0.00000000000E+00  0.98393454005E+03  0.98393454005E+03  0.25500000920E-02 0. -1.
       -2   -1    0    0    0  501  0.00000000000E+00  0.00000000000E+00 -0.11927526213E+03  0.11927526216E+03  0.25500000920E-02 0.  1.
    10030    2    1    2    0    0  0.00000000000E+00  0.00000000000E+00  0.86465927791E+03  0.11032098022E+04  0.68515414383E+03 0.  0.
        2    1    3    3  502    0  0.22074564102E+03  0.10529681141E+03  0.46081811698E+02  0.24887665599E+03  0.25500000920E-02 0.  1.
       -2    1    3    3    0  502 -0.22074564102E+03 -0.10529681141E+03  0.81857746622E+03  0.85433314622E+03  0.25500000920E-02 0. -1.
</event>
<event>
 5   0  0.1948138E-02  0.7028887E+03  0.7818609E-02  0.9712305E-01
        2   -1    0    0  501    0  0.00000000000E+00  0.00000000000E+00  0.14926255334E+04  0.14926255334E+04  0.25500000920E-02 0. -1.
       -2   -1    0    0    0  501  0.00000000000E+00  0.00000000000E+00 -0.82748899235E+02  0.82748899274E+02  0.25500000920E-02 0.  1.
    10030    2    1    2    0    0  0.00000000000E+00  0.00000000000E+00  0.14098766341E+04  0.15753744326E+04  0.70288866797E+03 0.  0.
        3    1    3    3  502    0  0.14938003314E+03 -0.24286037435E+03  0.24442331276E+03  0.37555069133E+03  0.10100000352E+00 0.  1.
       -3    1    3    3    0  502 -0.14938003314E+03  0.24286037435E+03  0.11654533214E+04  0.11998237413E+04  0.10100000352E+00 0. -1.
</event>
<event>
 5   0  0.1223742E-02  0.6586475E+03  0.7818609E-02  0.9790687E-01
        1   -1    0    0  501    0  0.00000000000E+00  0.00000000000E+00  0.38243205584E+03  0.38243205587E+03  0.50400001928E-02 0. -1.
       -1   -1    0    0    0  501  0.00000000000E+00  0.00000000000E+00 -0.28359062867E+03  0.28359062872E+03  0.50400001928E-02 0.  1.
    10030    2    1    2    0    0  0.00000000000E+00  0.00000000000E+00  0.98841427167E+02  0.66602268459E+03  0.65864754510E+03 0.  0.
        2    1    3    3  502    0 -0.16984962760E+03  0.67051957950E+02 -0.22770878819E+03  0.29188380100E+03  0.25500000920E-02 0.  1.
       -2    1    3    3    0  502  0.16984962760E+03 -0.67051957950E+02  0.32655021536E+03  0.37413888359E+03  0.25500000920E-02 0. -1.
</event>
<event>
 5   0  0.1909053E-02  0.6994217E+03  0.7818609E-02  0.9718222E-01
       -2   -1    0    0    0  501  0.00000000000E+00  0.00000000000E+00  0.16934062924E+03  0.16934062926E+03  0.25500000920E-02 0.  1.
        2   -1    0    0  501    0  0.00000000000E+00  0.00000000000E+00 -0.72219918076E+03  0.72219918076E+03  0.25500000920E-02 0. -1.
    10030    2    1    2    0    0  0.00000000000E+00  0.00000000000E+00 -0.55285855152E+03  0.89153981002E+03  0.69942165742E+03 0.  0.
        1    1    3    3  502    0  0.83898691424E+02 -0.33466837248E+03 -0.20369695626E+03  0.40066739320E+03  0.50400001928E-02 0.  1.
       -1    1    3    3    0  502 -0.83898691424E+02  0.33466837248E+03 -0.34916159526E+03  0.49087241682E+03  0.50400001928E-02 0. -1.
</event>
<event>
 5   0  0.1257442E-02  0.7016397E+03  0.7818609E-02  0.9714432E-01
       -1   -1    0    0    0  501  0.00000000000E+00  0.00000000000E+00  0.43832802456E+03  0.43832802459E+03  0.50400001928E-02 0. -1.
        1   -1    0    0  501    0  0.00000000000E+00  0.00000000000E+00 -0.28078189107E+03  0.28078189111E+03  0.50400001928E-02 0.  1.
    10030    2    1    2    0    0  0.00000000000E+00  0.00000000000E+00  0.15754613349E+03  0.71910991570E+03  0.70163971287E+03 0.  0.
        1    1    3    3  502    0 -0.13452593776E+03  0.12366458969E+03  0.38570325090E+03  0.42679873062E+03  0.50400001928E-02 0. -1.
       -1    1    3    3    0  502  0.13452593776E+03 -0.12366458969E+03 -0.22815711741E+03  0.29231118508E+03  0.50400001928E-02 0.  1.
</event>
<event>
 5   0  0.1197259E-02  0.6956767E+03  0.7818609E-02  0.9724654E-01
        1   -1    0    0  501    0  0.00000000000E+00  0.00000000000E+00  0.10612424770E+04  0.10612424771E+04  0.50400001928E-02 0.  1.
       -1   -1    0    0    0  501  0.00000000000E+00  0.00000000000E+00 -0.11400931848E+03  0.11400931860E+03  0.50400001928E-02 0. -1.
    10030    2    1    2    0    0  0.00000000000E+00  0.00000000000E+00  0.94723315856E+03  0.11752517956E+04  0.69567673995E+03 0.  0.
        3    1    3    3  502    0 -0.11078195030E+03 -0.17921800174E+03  0.60567121802E+01  0.21078051765E+03  0.10100000352E+00 0. -1.
       -3    1    3    3    0  502  0.11078195030E+03  0.17921800174E+03  0.94117644638E+03  0.96447127799E+03  0.10100000352E+00 0.  1.
</event>
<event>
 5   0  0.1226303E-02  0.6927670E+03  0.7818609E-02  0.9729682E-01
        1   -1    0    0  501    0  0.00000000000E+00  0.00000000000E+00  0.11552471180E+04  0.11552471180E+04  0.50400001928E-02 0. -1.
       -1   -1    0    0    0  501  0.00000000000E+00  0.00000000000E+00 -0.10385789026E+03  0.10385789038E+03  0.50400001928E-02 0.  1.
    10030    2    1    2    0    0  0.00000000000E+00  0.00000000000E+00  0.10513892278E+04  0.12591050084E+04  0.69276699832E+03 0.  0.
        4    1    3    3  502    0  0.24743699657E+03  0.38494615957E+02  0.96065507020E+03  0.99275711003E+03  0.12699999809E+01 0. -1.
       -4    1    3    3    0  502 -0.24743699657E+03 -0.38494615957E+02  0.90734157576E+02  0.26634789839E+03  0.12699999809E+01 0.  1.
</event>
<event>
 5   0  0.2006362E-02  0.6971259E+03  0.7818609E-02  0.9722160E-01
       -2   -1    0    0    0  501  0.00000000000E+00  0.00000000000E+00  0.24910086646E+03  0.24910086648E+03  0.25500000920E-02 0. -1.
        2   -1    0    0  501    0  0.00000000000E+00  0.00000000000E+00 -0.48773870267E+03  0.48773870268E+03  0.25500000920E-02 0.  1.
    10030    2    1    2    0    0  0.00000000000E+00  0.00000000000E+00 -0.23863783621E+03  0.73683956916E+03  0.69712590958E+03 0.  0.
        4    1    3    3  502    0 -0.33179878890E+02 -0.20297666913E+03  0.17812705701E+03  0.27208692345E+03  0.12699999809E+01 0. -1.
       -4    1    3    3    0  502  0.33179878890E+02  0.20297666913E+03 -0.41676489321E+03  0.46475264570E+03  0.12699999809E+01 0.  1.
</event>
<event>
 5   0  0.1197259E-02  0.6996212E+03  0.7818609E-02  0.9717880E-01
       -1   -1    0    0    0  501  0.00000000000E+00  0.00000000000E+00  0.18456770308E+03  0.18456770315E+03  0.50400001928E-02 0.  1.
        1   -1    0    0  501    0  0.00000000000E+00  0.00000000000E+00 -0.66299493160E+03  0.66299493162E+03  0.50400001928E-02 0. -1.
    10030    2    1    2    0    0  0.00000000000E+00  0.00000000000E+00 -0.47842722852E+03  0.84756263477E+03  0.69962118812E+03 0.  0.
        3    1    3    3  502    0  0.20706740691E+03 -0.25740252967E+03 -0.37858130261E+03  0.50245077985E+03  0.10100000352E+00 0. -1.
       -3    1    3    3    0  502 -0.20706740691E+03  0.25740252967E+03 -0.99845925906E+02  0.34511185492E+03  0.10100000352E+00 0.  1.
</event>
<event>
 5   0  0.1973067E-02  0.7253072E+03  0.7818609E-02  0.9674906E-01
       -2   -1    0    0    0  501  0.00000000000E+00  0.00000000000E+00  0.30853637730E+03  0.30853637731E+03  0.25500000920E-02 0. -1.
        2   -1    0    0  501    0  0.00000000000E+00  0.00000000000E+00 -0.42626302698E+03  0.42626302698E+03  0.25500000920E-02 0.  1.
    10030    2    1    2    0    0  0.00000000000E+00  0.00000000000E+00 -0.11772664967E+03  0.73479940430E+03  0.72530724560E+03 0.  0.
        5    1    3    3  502    0  0.30389471039E+03  0.19307264855E+03 -0.10263194078E+03  0.37441213641E+03  0.46999998093E+01 0.  1.
       -5    1    3    3    0  502 -0.30389471039E+03 -0.19307264855E+03 -0.15094708895E+02  0.36038726789E+03  0.46999998093E+01 0. -1.
</event>
<event>
 5   0  0.1197259E-02  0.7029305E+03  0.7818609E-02  0.9712234E-01
       -1   -1    0    0    0  501  0.00000000000E+00  0.00000000000E+00  0.18399041535E+03  0.18399041542E+03  0.50400001928E-02 0. -1.
        1   -1    0    0  501    0  0.00000000000E+00  0.00000000000E+00 -0.67138178542E+03  0.67138178544E+03  0.50400001928E-02 0.  1.
    10030    2    1    2    0    0  0.00000000000E+00  0.00000000000E+00 -0.48739137007E+03  0.85537220086E+03  0.70293047621E+03 0.  0.
        3    1    3    3  502    0  0.14227455709E+03  0.18825701074E+03  0.73262409794E+02  0.24708327053E+03  0.10100000352E+00 0. -1.
       -3    1    3    3    0  502 -0.14227455709E+03 -0.18825701074E+03 -0.56065377986E+03  0.60828893033E+03  0.10100000352E+00 0.  1.
</event>
<event>
 5   0  0.1909053E-02  0.7031867E+03  0.7818609E-02  0.9711798E-01
       -2   -1    0    0    0  501  0.00000000000E+00  0.00000000000E+00  0.10542017515E+04  0.10542017515E+04  0.25500000920E-02 0.  1.
        2   -1    0    0  501    0  0.00000000000E+00  0.00000000000E+00 -0.11726206365E+03  0.11726206368E+03  0.25500000920E-02 0. -1.
    10030    2    1    2    0    0  0.00000000000E+00  0.00000000000E+00  0.93693968780E+03  0.11714638151E+04  0.70318666909E+03 0.  0.
        1    1    3    3  502    0  0.31320383440E+03  0.29301039357E+02  0.20684536023E+03  0.37648399151E+03  0.50400001928E-02 0. -1.
       -1    1    3    3    0  502 -0.31320383440E+03 -0.29301039357E+02  0.73009432757E+03  0.79497982362E+03  0.50400001928E-02 0.  1.
</event>
<event>
 5   0  0.1197259E-02  0.7330059E+03  0.7818609E-02  0.9662395E-01
       -1   -1    0    0    0  501  0.00000000000E+00  0.00000000000E+00  0.19878453086E+04  0.19878453086E+04  0.50400001928E-02 0. -1.
        1   -1    0    0  501    0  0.00000000000E+00  0.00000000000E+00 -0.67572867310E+02  0.67572867498E+02  0.50400001928E-02 0.  1.
    10030    2    1    2    0    0  0.00000000000E+00  0.00000000000E+00  0.19202724413E+04  0.20554181761E+04  0.73300588667E+03 0.  0.
        3    1    3    3  502    0  0.30683696182E+03  0.72479581145E+02  0.14841508885E+04  0.15172692843E+04  0.10100000352E+00 0.  1.
       -3    1    3    3    0  502 -0.30683696182E+03 -0.72479581145E+02  0.43612155280E+03  0.53814889188E+03  0.10100000352E+00 0. -1.
</event>
<event>
 5   0  0.1973067E-02  0.7016090E+03  0.7818609E-02  0.9714485E-01
        2   -1    0    0  501    0  0.00000000000E+00  0.00000000000E+00  0.15457487337E+03  0.15457487339E+03  0.25500000920E-02 0. -1.
       -2   -1    0    0    0  501  0.00000000000E+00  0.00000000000E+00 -0.79614352877E+03  0.79614352877E+03  0.25500000920E-02 0.  1.
    10030    2    1    2    0    0  0.00000000000E+00  0.00000000000E+00 -0.64156865540E+03  0.95071840216E+03  0.70160896561E+03 0.  0.
        5    1    3    3  502    0  0.89667619150E+02 -0.22643048593E+03 -0.66286689133E+03  0.70620510654E+03  0.46999998093E+01 0.  1.
       -5    1    3    3    0  502 -0.89667619150E+02  0.22643048593E+03  0.21298235937E+02  0.24451329562E+03  0.46999998093E+01 0. -1.
</event>
<event>
 5   0  0.1948138E-02  0.6981046E+03  0.7818609E-02  0.9720479E-01
       -2   -1    0    0    0  501  0.00000000000E+00  0.00000000000E+00  0.13111876939E+03  0.13111876942E+03  0.25500000920E-02 0. -1.
        2   -1    0    0  501    0  0.00000000000E+00  0.00000000000E+00 -0.92921493665E+03  0.92921493665E+03  0.25500000920E-02 0.  1.
    10030    2    1    2    0    0  0.00000000000E+00  0.00000000000E+00 -0.79809616726E+03  0.10603337061E+04  0.69810463116E+03 0.  0.
        3    1    3    3  502    0  0.22818786221E+03 -0.60718791349E+02 -0.78949362867E+03  0.82404895000E+03  0.10100000352E+00 0.  1.
       -3    1    3    3    0  502 -0.22818786221E+03  0.60718791349E+02 -0.86025385891E+01  0.23628475608E+03  0.10100000352E+00 0. -1.
</event>
<event>
 5   0  0.7947250E-03  0.6962519E+03  0.7818609E-02  0.9723663E-01
        3   -1    0    0  501    0  0.00000000000E+00  0.00000000000E+00  0.16608525664E+03  0.16608528735E+03  0.10100000352E+00 0.  1.
       -3   -1    0    0    0  501  0.00000000000E+00  0.00000000000E+00 -0.72969550024E+03  0.72969550723E+03  0.10100000352E+00 0. -1.
    10030    2    1    2    0    0  0.00000000000E+00  0.00000000000E+00 -0.56361024360E+03  0.89578079458E+03  0.69625191221E+03 0.  0.
        3    1    3    3  502    0 -0.31731396169E+03 -0.12257304921E+03 -0.37704100151E+03  0.50781121462E+03  0.10100000352E+00 0. -1.
       -3    1    3    3    0  502  0.31731396169E+03  0.12257304921E+03 -0.18656924209E+03  0.38796957996E+03  0.10100000352E+00 0.  1.
</event>
<event>
 5   0  0.1948138E-02  0.6970854E+03  0.7818609E-02  0.9722230E-01
       -2   -1    0    0    0  501  0.00000000000E+00  0.00000000000E+00  0.71680598503E+02  0.71680598549E+02  0.25500000920E-02 0.  1.
        2   -1    0    0  501    0  0.00000000000E+00  0.00000000000E+00 -0.16947682352E+04  0.16947682352E+04  0.25500000920E-02 0. -1.
    10030    2    1    2    0    0  0.00000000000E+00  0.00000000000E+00 -0.16230876367E+04  0.17664488338E+04  0.69708536483E+03 0.  0.
        3    1    3    3  502    0  0.28550694101E+03 -0.12907226125E+03 -0.42467047509E+03  0.52774888404E+03  0.10100000352E+00 0.  1.
       -3    1    3    3    0  502 -0.28550694101E+03  0.12907226125E+03 -0.11984171616E+04  0.12386999497E+04  0.10100000352E+00 0. -1.
</event>
<event>
 5   0  0.1226303E-02  0.6986605E+03  0.7818609E-02  0.9719526E-01
        1   -1    0    0  501    0  0.00000000000E+00  0.00000000000E+00  0.44104609762E+03  0.44104609765E+03  0.50400001928E-02 0.  1.
       -1   -1    0    0    0  501  0.00000000000E+00  0.00000000000E+00 -0.27668679080E+03  0.27668679085E+03  0.50400001928E-02 0. -1.
    10030    2    1    2    0    0  0.00000000000E+00  0.00000000000E+00  0.16435930682E+03  0.71773288849E+03  0.69866051662E+03 0.  0.
        4    1    3    3  502    0 -0.41821698022E+02 -0.30276605607E+03  0.25595312778E+03  0.39866020074E+03  0.12699999809E+01 0.  1.
       -4    1    3    3    0  502  0.41821698022E+02  0.30276605607E+03 -0.91593820959E+02  0.31907268776E+03  0.12699999809E+01 0. -1.
</event>
<event>
 5   0  0.1226303E-02  0.7068462E+03  0.7818609E-02  0.9705595E-01
       -1   -1    0    0    0  501  0.00000000000E+00  0.00000000000E+00  0.10303877472E+03  0.10303877485E+03  0.50400001928E-02 0.  1.
        1   -1    0    0  501    0  0.00000000000E+00  0.00000000000E+00 -0.12122416051E+04  0.12122416051E+04  0.50400001928E-02 0. -1.
    10030    2    1    2    0    0  0.00000000000E+00  0.00000000000E+00 -0.11092028304E+04  0.13152803800E+04  0.70684620604E+03 0.  0.
        4    1    3    3  502    0 -0.40102572610E+02  0.28124090828E+03 -0.94581368257E+03  0.98755749193E+03  0.12699999809E+01 0. -1.
       -4    1    3    3    0  502  0.40102572610E+02 -0.28124090828E+03 -0.16338914782E+03  0.32772288805E+03  0.12699999809E+01 0.  1.
</event>
<event>
 5   0  0.1257442E-02  0.6432562E+03  0.7818609E-02  0.9819516E-01
        1   -1    0    0  501    0  0.00000000000E+00  0.00000000000E+00  0.28615539486E+03  0.28615539490E+03  0.50400001928E-02 0. -1.
       -1   -1    0    0    0  501  0.00000000000E+00  0.00000000000E+00 -0.36149814439E+03  0.36149814443E+03  0.50400001928E-02 0.  1.
    10030    2    1    2    0    0  0.00000000000E+00  0.00000000000E+00 -0.75342749535E+02  0.64765353933E+03  0.64325622974E+03 0.  0.
        1    1    3    3  502    0  0.49109909732E+02  0.57680133447E+02 -0.35238754328E+03  0.36043829113E+03  0.50400001928E-02 0.  1.
       -1    1    3    3    0  502 -0.49109909732E+02 -0.57680133447E+02  0.27704479375E+03  0.28721524820E+03  0.50400001928E-02 0. -1.
</event>
<event>
 5   0  0.1237686E-02  0.6967648E+03  0.7818609E-02  0.9722781E-01
       -1   -1    0    0    0  501  0.00000000000E+00  0.00000000000E+00  0.12881361959E+03  0.12881361969E+03  0.50400001928E-02 0. -1.
        1   -1    0    0  501    0  0.00000000000E+00  0.00000000000E+00 -0.94221636736E+03  0.94221636737E+03  0.50400001928E-02 0.  1.
    10030    2    1    2    0    0  0.00000000000E+00  0.00000000000E+00 -0.81340274777E+03  0.10710299871E+04  0.69676481190E+03 0.  0.
        5    1    3    3  502    0 -0.21348166741E+03 -0.22950736779E+03 -0.17307445434E+03  0.35808506103E+03  0.46999998093E+01 0. -1.
       -5    1    3    3    0  502  0.21348166741E+03  0.22950736779E+03 -0.64032829343E+03  0.71294492603E+03  0.46999998093E+01 0.  1.
</event>
<event>
 5   0  0.1197259E-02  0.6996485E+03  0.7818609E-02  0.9717834E-01
       -1   -1    0    0    0  501  0.00000000000E+00  0.00000000000E+00  0.32266781984E+03  0.32266781988E+03  0.50400001928E-02 0. -1.
        1   -1    0    0  501    0  0.00000000000E+00  0.00000000000E+00 -0.37926617212E+03  0.37926617215E+03  0.50400001928E-02 0.  1.
    10030    2    1    2    0    0  0.00000000000E+00  0.00000000000E+00 -0.56598352273E+02  0.70193399203E+03  0.69964845150E+03 0.  0.
        3    1    3    3  502    0  0.28774407200E+03 -0.19418298491E+03  0.15123802737E+02  0.34746571373E+03  0.10100000352E+00 0.  1.
       -3    1    3    3    0  502 -0.28774407200E+03  0.19418298491E+03 -0.71722155010E+02  0.35446827831E+03  0.10100000352E+00 0. -1.
</event>
<event>
 5   0  0.1223742E-02  0.6887809E+03  0.7818609E-02  0.9736613E-01
        1   -1    0    0  501    0  0.00000000000E+00  0.00000000000E+00  0.22718798969E+03  0.22718798975E+03  0.50400001928E-02 0.  1.
       -1   -1    0    0    0  501  0.00000000000E+00  0.00000000000E+00 -0.52205566795E+03  0.52205566797E+03  0.50400001928E-02 0. -1.
    10030    2    1    2    0    0  0.00000000000E+00  0.00000000000E+00 -0.29486767825E+03  0.74924365772E+03  0.68878088748E+03 0.  0.
        2    1    3    3  502    0  0.91965909473E+02  0.32308993972E+03 -0.64877396595E+02  0.34213142833E+03  0.25500000920E-02 0.  1.
       -2    1    3    3    0  502 -0.91965909473E+02 -0.32308993972E+03 -0.22999028166E+03  0.40711222939E+03  0.25500000920E-02 0. -1.
</event>
<event>
 5   0  0.7947250E-03  0.7023455E+03  0.7818609E-02  0.9713230E-01
       -4   -1    0    0    0  501  0.00000000000E+00  0.00000000000E+00  0.11104613309E+03  0.11105339515E+03  0.12699999809E+01 0.  1.
        4   -1    0    0  501    0  0.00000000000E+00  0.00000000000E+00 -0.11105061551E+04  0.11105068813E+04  0.12699999809E+01 0. -1.
    10030    2    1    2    0    0  0.00000000000E+00  0.00000000000E+00 -0.99946002203E+03  0.12215602765E+04  0.70234548009E+03 0.  0.
        5    1    3    3  502    0  0.34756223041E+03 -0.98725996993E+01 -0.58499326029E+03  0.68054109121E+03  0.46999998093E+01 0. -1.
       -5    1    3    3    0  502 -0.34756223041E+03  0.98725996993E+01 -0.41446676174E+03  0.54101918526E+03  0.46999998093E+01 0.  1.
</event>
<event>
 5   0  0.2026361E-02  0.7009849E+03  0.7818609E-02  0.9715549E-01
        2   -1    0    0  501    0  0.00000000000E+00  0.00000000000E+00  0.57049486358E+03  0.57049486359E+03  0.25500000920E-02 0.  1.
       -2   -1    0    0    0  501  0.00000000000E+00  0.00000000000E+00 -0.21533053572E+03  0.21533053574E+03  0.25500000920E-02 0. -1.
    10030    2    1    2    0    0  0.00000000000E+00  0.00000000000E+00  0.35516432786E+03  0.78582539933E+03  0.70098492027E+03 0.  0.
        2    1    3    3  502    0 -0.14384193007E+03  0.17428921133E+02 -0.18018410186E+03  0.23121543787E+03  0.25500000920E-02 0. -1.
       -2    1    3    3    0  502  0.14384193007E+03 -0.17428921133E+02  0.53534842972E+03  0.55460996146E+03  0.25500000920E-02 0.  1.
</event>
<event>
 5   0  0.1197259E-02  0.6980508E+03  0.7818609E-02  0.9720571E-01
       -1   -1    0    0    0  501  0.00000000000E+00  0.00000000000E+00  0.42076450277E+03  0.42076450280E+03  0.50400001928E-02 0.  1.
        1   -1    0    0  501    0  0.00000000000E+00  0.00000000000E+00 -0.28951756448E+03  0.28951756452E+03  0.50400001928E-02 0. -1.
    10030    2    1    2    0    0  0.00000000000E+00  0.00000000000E+00  0.13124693828E+03  0.71028206732E+03  0.69805075485E+03 0.  0.
        3    1    3    3  502    0 -0.29630595244E+03 -0.95944118672E+02  0.22591537730E+03  0.38476000216E+03  0.10100000352E+00 0.  1.
       -3    1    3    3    0  502  0.29630595244E+03  0.95944118672E+02 -0.94668439015E+02  0.32552206516E+03  0.10100000352E+00 0. -1.
</event>
<event>
 5   0  0.1257442E-02  0.6986429E+03  0.7818609E-02  0.9719556E-01
        1   -1    0    0  501    0  0.00000000000E+00  0.00000000000E+00  0.18149553378E+03  0.18149553385E+03  0.50400001928E-02 0.  1.
       -1   -1    0    0    0  501  0.00000000000E+00  0.00000000000E+00 -0.67233324485E+03  0.67233324487E+03  0.50400001928E-02 0. -1.
    10030    2    1    2    0    0  0.00000000000E+00  0.00000000000E+00 -0.49083771107E+03  0.85382877872E+03  0.69864291649E+03 0.  0.
        1    1    3    3  502    0 -0.15255884634E+03 -0.13016142907E+03 -0.59497490228E+03  0.62786251169E+03  0.50400001928E-02 0. -1.
       -1    1    3    3    0  502  0.15255884634E+03  0.13016142907E+03  0.10413719121E+03  0.22596626703E+03  0.50400001928E-02 0.  1.
</event>
<event>
 5   0  0.2026361E-02  0.7017483E+03  0.7818609E-02  0.9714247E-01
        2   -1    0    0  501    0  0.00000000000E+00  0.00000000000E+00  0.65243548015E+03  0.65243548015E+03  0.25500000920E-02 0.  1.
       -2   -1    0    0    0  501  0.00000000000E+00  0.00000000000E+00 -0.18869707201E+03  0.18869707203E+03  0.25500000920E-02 0. -1.
    10030    2    1    2    0    0  0.00000000000E+00  0.00000000000E+00  0.46373840814E+03  0.84113255218E+03  0.70174828760E+03 0.  0.
        2    1    3    3  502    0  0.18362640111E+03  0.26680720222E+03  0.70130736410E+02  0.33139562239E+03  0.25500000920E-02 0. -1.
       -2    1    3    3    0  502 -0.18362640111E+03 -0.26680720222E+03  0.39360767173E+03  0.50973692979E+03  0.25500000920E-02 0.  1.
</event>
<event>
 5   0  0.1223742E-02  0.7001081E+03  0.7818609E-02  0.9717047E-01
        1   -1    0    0  501    0  0.00000000000E+00  0.00000000000E+00  0.43746484556E+03  0.43746484559E+03  0.50400001928E-02 0.  1.
       -1   -1    0    0    0  501  0.00000000000E+00  0.00000000000E+00 -0.28010898973E+03  0.28010898978E+03  0.50400001928E-02 0. -1.
    10030    2    1    2    0    0  0.00000000000E+00  0.00000000000E+00  0.15735585583E+03  0.71757383537E+03  0.70010809440E+03 0.  0.
        2    1    3    3  502    0 -0.55459798359E+02 -0.28193317017E+03  0.28360518200E+03  0.40372515520E+03  0.25500000920E-02 0.  1.
       -2    1    3    3    0  502  0.55459798359E+02  0.28193317017E+03 -0.12624932617E+03  0.31384868017E+03  0.25500000920E-02 0. -1.
</event>
<event>
 5   0  0.1197259E-02  0.7023790E+03  0.7818609E-02  0.9713172E-01
        1   -1    0    0  501    0  0.00000000000E+00  0.00000000000E+00  0.44780599705E+03  0.44780599708E+03  0.50400001928E-02 0.  1.
       -1   -1    0    0    0  501  0.00000000000E+00  0.00000000000E+00 -0.27541851886E+03  0.27541851891E+03  0.50400001928E-02 0. -1.
    10030    2    1    2    0    0  0.00000000000E+00  0.00000000000E+00  0.17238747819E+03  0.72322451599E+03  0.70237899875E+03 0.  0.
        3    1    3    3  502    0 -0.14646943842E+03  0.97754132363E+02  0.39906164505E+03  0.43618731473E+03  0.10100000352E+00 0.  1.
       -3    1    3    3    0  502  0.14646943842E+03 -0.97754132363E+02 -0.22667416686E+03  0.28703720126E+03  0.10100000352E+00 0. -1.
</event>
<event>
 5   0  0.1909053E-02  0.6929554E+03  0.7818609E-02  0.9729356E-01
        2   -1    0    0  501    0  0.00000000000E+00  0.00000000000E+00  0.14055475830E+04  0.14055475830E+04  0.25500000920E-02 0. -1.
       -2   -1    0    0    0  501  0.00000000000E+00  0.00000000000E+00 -0.85409283460E+02  0.85409283498E+02  0.25500000920E-02 0.  1.
    10030    2    1    2    0    0  0.00000000000E+00  0.00000000000E+00  0.13201382996E+04  0.14909568665E+04  0.69295544435E+03 0.  0.
        1    1    3    3  502    0 -0.61092918065E+02  0.21329666492E+03  0.87491141736E+02  0.23850054887E+03  0.50400001928E-02 0.  1.
       -1    1    3    3    0  502  0.61092918065E+02 -0.21329666492E+03  0.12326471578E+04  0.12524563176E+04  0.50400001928E-02 0. -1.
</event>
<event>
 5   0  0.2026361E-02  0.6994440E+03  0.7818609E-02  0.9718184E-01
        2   -1    0    0  501    0  0.00000000000E+00  0.00000000000E+00  0.16692725013E+04  0.16692725013E+04  0.25500000920E-02 0.  1.
       -2   -1    0    0    0  501  0.00000000000E+00  0.00000000000E+00 -0.73268722948E+02  0.73268722992E+02  0.25500000920E-02 0. -1.
    10030    2    1    2    0    0  0.00000000000E+00  0.00000000000E+00  0.15960037783E+04  0.17425412243E+04  0.69944396334E+03 0.  0.
        2    1    3    3  502    0 -0.21431025534E+03 -0.93457592713E+02  0.15005534049E+03  0.27781254903E+03  0.25500000920E-02 0.  1.
       -2    1    3    3    0  502  0.21431025534E+03  0.93457592713E+02  0.14459484379E+04  0.14647286753E+04  0.25500000920E-02 0. -1.
</event>
<event>
 5   0  0.2006362E-02  0.6962789E+03  0.7818609E-02  0.9723617E-01
       -2   -1    0    0    0  501  0.00000000000E+00  0.00000000000E+00  0.28823122248E+03  0.28823122249E+03  0.25500000920E-02 0. -1.
        2   -1    0    0  501    0  0.00000000000E+00  0.00000000000E+00 -0.42049949674E+03  0.42049949674E+03  0.25500000920E-02 0.  1.
    10030    2    1    2    0    0  0.00000000000E+00  0.00000000000E+00 -0.13226827426E+03  0.70873071923E+03  0.69627892113E+03 0.  0.
        4    1    3    3  502    0  0.22876015847E+03 -0.25186191419E+03  0.88986916804E+01  0.34036220932E+03  0.12699999809E+01 0.  1.
       -4    1    3    3    0  502 -0.22876015847E+03  0.25186191419E+03 -0.14116696594E+03  0.36836850991E+03  0.12699999809E+01 0. -1.
</event>
<event>
 5   0  0.1973067E-02  0.7051345E+03  0.7818609E-02  0.9708492E-01
        2   -1    0    0  501    0  0.00000000000E+00  0.00000000000E+00  0.71949637562E+03  0.71949637562E+03  0.25500000920E-02 0.  1.
       -2   -1    0    0    0  501  0.00000000000E+00  0.00000000000E+00 -0.17276484187E+03  0.17276484189E+03  0.25500000920E-02 0. -1.
    10030    2    1    2    0    0  0.00000000000E+00  0.00000000000E+00  0.54673153374E+03  0.89226121752E+03  0.70513453347E+03 0.  0.
        5    1    3    3  502    0  0.20332051406E+03 -0.16176507748E+03  0.57487205172E+03  0.63087806871E+03  0.46999998093E+01 0.  1.
       -5    1    3    3    0  502 -0.20332051406E+03  0.16176507748E+03 -0.28140517974E+02  0.26138314881E+03  0.46999998093E+01 0. -1.
</event>
<event>
 5   0  0.2006362E-02  0.6839935E+03  0.7818609E-02  0.9745004E-01
        2   -1    0    0  501    0  0.00000000000E+00  0.00000000000E+00  0.86899241039E+03  0.86899241040E+03  0.25500000920E-02 0. -1.
       -2   -1    0    0    0  501  0.00000000000E+00  0.00000000000E+00 -0.13459471708E+03  0.13459471710E+03  0.25500000920E-02 0.  1.
    10030    2    1    2    0    0  0.00000000000E+00  0.00000000000E+00  0.73439769332E+03  0.10035871275E+04  0.68399353106E+03 0.  0.
        4    1    3    3  502    0 -0.71071692563E+02 -0.22530479875E+03  0.73001760339E+03  0.76729443630E+03  0.12699999809E+01 0. -1.
       -4    1    3    3    0  502  0.71071692563E+02  0.22530479875E+03  0.43800899305E+01  0.23629269120E+03  0.12699999809E+01 0.  1.
</event>
<event>
 5   0  0.1909053E-02  0.6999271E+03  0.7818609E-02  0.9717357E-01
       -2   -1    0    0    0  501  0.00000000000E+00  0.00000000000E+00  0.21662708912E+03  0.21662708914E+03  0.25500000920E-02 0.  1.
        2   -1    0    0  501    0  0.00000000000E+00  0.00000000000E+00 -0.56537019946E+03  0.56537019947E+03  0.25500000920E-02 0. -1.
    10030    2    1    2    0    0  0.00000000000E+00  0.00000000000E+00 -0.34874311033E+03  0.78199728861E+03  0.69992714077E+03 0.  0.
        1    1    3    3  502    0  0.43017398116E+02 -0.90770392623E+02 -0.54891835026E+03  0.55803325707E+03  0.50400001928E-02 0. -1.
       -1    1    3    3    0  502 -0.43017398116E+02  0.90770392623E+02  0.20017523993E+03  0.22396403154E+03  0.50400001928E-02 0.  1.
</event>
<event>
 5   0  0.1223742E-02  0.7015138E+03  0.7818609E-02  0.9714647E-01
       -1   -1    0    0    0  501  0.00000000000E+00  0.00000000000E+00  0.61627448197E+03  0.61627448199E+03  0.50400001928E-02 0. -1.
        1   -1    0    0  501    0  0.00000000000E+00  0.00000000000E+00 -0.19963572130E+03  0.19963572137E+03  0.50400001928E-02 0.  1.
    10030    2    1    2    0    0  0.00000000000E+00  0.00000000000E+00  0.41663876066E+03  0.81591020336E+03  0.70151379392E+03 0.  0.
        2    1    3    3  502    0 -0.15295849690E+03 -0.38544580504E+02  0.57269372661E+03  0.59402027825E+03  0.25500000920E-02 0. -1.
       -2    1    3    3    0  502  0.15295849690E+03  0.38544580504E+02 -0.15605496595E+03  0.22188992511E+03  0.25500000920E-02 0.  1.
</event>
<event>
 5   0  0.2026361E-02  0.6985410E+03  0.7818609E-02  0.9719731E-01
        2   -1    0    0  501    0  0.00000000000E+00  0.00000000000E+00  0.55295039768E+03  0.55295039769E+03  0.25500000920E-02 0. -1.
       -2   -1    0    0    0  501  0.00000000000E+00  0.00000000000E+00 -0.22061630054E+03  0.22061630055E+03  0.25500000920E-02 0.  1.
    10030    2    1    2    0    0  0.00000000000E+00  0.00000000000E+00  0.33233409714E+03  0.77356669824E+03  0.69854096838E+03 0.  0.
        2    1    3    3  502    0  0.21957835253E+03  0.20307913450E+03 -0.33577608292E+02  0.30097050280E+03  0.25500000920E-02 0.  1.
       -2    1    3    3    0  502 -0.21957835253E+03 -0.20307913450E+03  0.36591170543E+03  0.47259619544E+03  0.25500000920E-02 0. -1.
</event>
<event>
 5   0  0.1948138E-02  0.7023290E+03  0.7818609E-02  0.9713258E-01
        2   -1    0    0  501    0  0.00000000000E+00  0.00000000000E+00  0.80871901300E+03  0.80871901300E+03  0.25500000920E-02 0. -1.
       -2   -1    0    0    0  501  0.00000000000E+00  0.00000000000E+00 -0.15248373493E+03  0.15248373496E+03  0.25500000920E-02 0.  1.
    10030    2    1    2    0    0  0.00000000000E+00  0.00000000000E+00  0.65623527806E+03  0.96120274796E+03  0.70232897029E+03 0.  0.
        3    1    3    3  502    0 -0.18748885845E+03 -0.22960546246E+03  0.70452018997E+02  0.30468711430E+03  0.10100000352E+00 0.  1.
       -3    1    3    3    0  502  0.18748885845E+03  0.22960546246E+03  0.58578325907E+03  0.65651563366E+03  0.10100000352E+00 0. -1.
</event>
<event>
 5   0  0.1973067E-02  0.7072569E+03  0.7818609E-02  0.9704902E-01
       -2   -1    0    0    0  501  0.00000000000E+00  0.00000000000E+00  0.71389667997E+03  0.71389667997E+03  0.25500000920E-02 0.  1.
        2   -1    0    0  501    0  0.00000000000E+00  0.00000000000E+00 -0.17516970935E+03  0.17516970937E+03  0.25500000920E-02 0. -1.
    10030    2    1    2    0    0  0.00000000000E+00  0.00000000000E+00  0.53872697061E+03  0.88906638934E+03  0.70725688105E+03 0.  0.
        5    1    3    3  502    0 -0.32493013966E+02 -0.12760104980E+03  0.68188924354E+03  0.69450187496E+03  0.46999998093E+01 0.  1.
       -5    1    3    3    0  502  0.32493013966E+02  0.12760104980E+03 -0.14316227293E+03  0.19456451438E+03  0.46999998093E+01 0. -1.
</event>
<event>
 5   0  0.1909053E-02  0.6828909E+03  0.7818609E-02  0.9746947E-01
       -2   -1    0    0    0  501  0.00000000000E+00  0.00000000000E+00  0.29383318173E+03  0.29383318174E+03  0.25500000920E-02 0. -1.
        2   -1    0    0  501    0  0.00000000000E+00  0.00000000000E+00 -0.39677275145E+03  0.39677275146E+03  0.25500000920E-02 0.  1.
    10030    2    1    2    0    0  0.00000000000E+00  0.00000000000E+00 -0.10293956972E+03  0.69060593320E+03  0.68289091366E+03 0.  0.
        1    1    3    3  502    0 -0.12658276386E+03  0.15268844324E+03 -0.33254510525E+03  0.38719917853E+03  0.50400001928E-02 0.  1.
       -1    1    3    3    0  502  0.12658276386E+03 -0.15268844324E+03  0.22960553553E+03  0.30340675467E+03  0.50400001928E-02 0. -1.
</event>
<event>
 5   0  0.1257442E-02  0.7009071E+03  0.7818609E-02  0.9715682E-01
        1   -1    0    0  501    0  0.00000000000E+00  0.00000000000E+00  0.48563612400E+03  0.48563612403E+03  0.50400001928E-02 0.  1.
       -1   -1    0    0    0  501  0.00000000000E+00  0.00000000000E+00 -0.25290067373E+03  0.25290067378E+03  0.50400001928E-02 0. -1.
    10030    2    1    2    0    0  0.00000000000E+00  0.00000000000E+00  0.23273545027E+03  0.73853679780E+03  0.70090713500E+03 0.  0.
        1    1    3    3  502    0 -0.78766707974E+02  0.85149754588E+02  0.46482290206E+03  0.47907724355E+03  0.50400001928E-02 0.  1.
       -1    1    3    3    0  502  0.78766707974E+02 -0.85149754588E+02 -0.23208745178E+03  0.25945955425E+03  0.50400001928E-02 0. -1.
</event>
<event>
 5   0  0.2026361E-02  0.6872775E+03  0.7818609E-02  0.9739240E-01
       -2   -1    0    0    0  501  0.00000000000E+00  0.00000000000E+00  0.20475723298E+03  0.20475723299E+03  0.25500000920E-02 0. -1.
        2   -1    0    0  501    0  0.00000000000E+00  0.00000000000E+00 -0.57672006393E+03  0.57672006393E+03  0.25500000920E-02 0.  1.
    10030    2    1    2    0    0  0.00000000000E+00  0.00000000000E+00 -0.37196283095E+03  0.78147729692E+03  0.68727754074E+03 0.  0.
        2    1    3    3  502    0  0.25750211820E+03  0.16689523859E+03 -0.10099386172E+02  0.30702338534E+03  0.25500000920E-02 0. -1.
       -2    1    3    3    0  502 -0.25750211820E+03 -0.16689523859E+03 -0.36186344478E+03  0.47445391158E+03  0.25500000920E-02 0.  1.
</event>
<event>
 5   0  0.1197259E-02  0.6981155E+03  0.7818609E-02  0.9720460E-01
       -1   -1    0    0    0  501  0.00000000000E+00  0.00000000000E+00  0.36524723032E+03  0.36524723035E+03  0.50400001928E-02 0.  1.
        1   -1    0    0  501    0  0.00000000000E+00  0.00000000000E+00 -0.33358583810E+03  0.33358583814E+03  0.50400001928E-02 0. -1.
    10030    2    1    2    0    0  0.00000000000E+00  0.00000000000E+00  0.31661392216E+02  0.69883306850E+03  0.69811547316E+03 0.  0.
        3    1    3    3  502    0 -0.24342212283E+03 -0.84409406552E+02  0.25157651955E+03  0.36009725518E+03  0.10100000352E+00 0.  1.
       -3    1    3    3    0  502  0.24342212283E+03  0.84409406552E+02 -0.21991512733E+03  0.33873581332E+03  0.10100000352E+00 0. -1.
</event>
<event>
 5   0  0.1973067E-02  0.7014589E+03  0.7818609E-02  0.9714741E-01
        2   -1    0    0  501    0  0.00000000000E+00  0.00000000000E+00  0.63286129638E+03  0.63286129638E+03  0.25500000920E-02 0.  1.
       -2   -1    0    0    0  501  0.00000000000E+00  0.00000000000E+00 -0.19437297176E+03  0.19437297177E+03  0.25500000920E-02 0. -1.
    10030    2    1    2    0    0  0.00000000000E+00  0.00000000000E+00  0.43848832462E+03  0.82723426815E+03  0.70145885380E+03 0.  0.
        5    1    3    3  502    0 -0.11243266502E+03 -0.64771602334E+02  0.60347444017E+03  0.61728433851E+03  0.46999998093E+01 0.  1.
       -5    1    3    3    0  502  0.11243266502E+03  0.64771602334E+02 -0.16498611555E+03  0.20994992964E+03  0.46999998093E+01 0. -1.
</event>
<event>
 5   0  0.1223742E-02  0.6889229E+03  0.7818609E-02  0.9736365E-01
        1   -1    0    0  501    0  0.00000000000E+00  0.00000000000E+00  0.12306752763E+04  0.12306752763E+04  0.50400001928E-02 0.  1.
       -1   -1    0    0    0  501  0.00000000000E+00  0.00000000000E+00 -0.96413470281E+02  0.96413470412E+02  0.50400001928E-02 0. -1.
    10030    2    1    2    0    0  0.00000000000E+00  0.00000000000E+00  0.11342618060E+04  0.13270887467E+04  0.68892285277E+03 0.  0.
        2    1    3    3  502    0  0.20191026201E+03  0.74511778755E+02  0.49046686685E+02  0.22073816290E+03  0.25500000920E-02 0. -1.
       -2    1    3    3    0  502 -0.20191026201E+03 -0.74511778755E+02  0.10852151193E+04  0.11063505838E+04  0.25500000920E-02 0.  1.
</event>
<event>
 5   0  0.2006362E-02  0.6971838E+03  0.7818609E-02  0.9722060E-01
       -2   -1    0    0    0  501  0.00000000000E+00  0.00000000000E+00  0.77447035515E+02  0.77447035557E+02  0.25500000920E-02 0.  1.
        2   -1    0    0  501    0  0.00000000000E+00  0.00000000000E+00 -0.15690247060E+04  0.15690247060E+04  0.25500000920E-02 0. -1.
    10030    2    1    2    0    0  0.00000000000E+00  0.00000000000E+00 -0.14915776705E+04  0.16464717415E+04  0.69718379833E+03 0.  0.
        4    1    3    3  502    0 -0.34626761240E+03  0.26234016445E+02 -0.67395507162E+03  0.75815996628E+03  0.12699999809E+01 0. -1.
       -4    1    3    3    0  502  0.34626761240E+03 -0.26234016445E+02 -0.81762259885E+03  0.88831177526E+03  0.12699999809E+01 0.  1.
</event>
<event>
 5   0  0.1257442E-02  0.7175785E+03  0.7818609E-02  0.9687634E-01
       -1   -1    0    0    0  501  0.00000000000E+00  0.00000000000E+00  0.88321050585E+03  0.88321050586E+03  0.50400001928E-02 0. -1.
        1   -1    0    0  501    0  0.00000000000E+00  0.00000000000E+00 -0.14575204266E+03  0.14575204274E+03  0.50400001928E-02 0.  1.
    10030    2    1    2    0    0  0.00000000000E+00  0.00000000000E+00  0.73745846319E+03  0.10289625486E+04  0.71757852636E+03 0.  0.
        1    1    3    3  502    0 -0.97893901457E+02  0.34082769219E+03  0.29041205433E+03  0.45835127689E+03  0.50400001928E-02 0.  1.
       -1    1    3    3    0  502  0.97893901457E+02 -0.34082769219E+03  0.44704640887E+03  0.57061127172E+03  0.50400001928E-02 0. -1.
</event>
<event>
 5   0  0.1909053E-02  0.7112625E+03  0.7818609E-02  0.9698163E-01
       -2   -1    0    0    0  501  0.00000000000E+00  0.00000000000E+00  0.87854873764E+02  0.87854873801E+02  0.25500000920E-02 0.  1.
        2   -1    0    0  501    0  0.00000000000E+00  0.00000000000E+00 -0.14395740053E+04  0.14395740053E+04  0.25500000920E-02 0. -1.
    10030    2    1    2    0    0  0.00000000000E+00  0.00000000000E+00 -0.13517191315E+04  0.15274288791E+04  0.71126251846E+03 0.  0.
        1    1    3    3  502    0 -0.28888188820E+03 -0.18135972859E+03 -0.45972461893E+03  0.57244285458E+03  0.50400001928E-02 0. -1.
       -1    1    3    3    0  502  0.28888188820E+03  0.18135972859E+03 -0.89199451261E+03  0.95498602452E+03  0.50400001928E-02 0.  1.
</event>
<event>
 5   0  0.1226303E-02  0.6980870E+03  0.7818609E-02  0.9720509E-01
        1   -1    0    0  501    0  0.00000000000E+00  0.00000000000E+00  0.32414946842E+03  0.32414946846E+03  0.50400001928E-02 0. -1.
       -1   -1    0    0    0  501  0.00000000000E+00  0.00000000000E+00 -0.37584932720E+03  0.37584932723E+03  0.50400001928E-02 0.  1.
    10030    2    1    2    0    0  0.00000000000E+00  0.00000000000E+00 -0.51699858777E+02  0.69999879570E+03  0.69808698497E+03 0.  0.
        4    1    3    3  502    0 -0.30127717694E+03 -0.15938672904E+03  0.49573615772E+02  0.34442883593E+03  0.12699999809E+01 0.  1.
       -4    1    3    3    0  502  0.30127717694E+03  0.15938672904E+03 -0.10127347455E+03  0.35556995977E+03  0.12699999809E+01 0. -1.
</event>
<event>
 5   0  0.7947250E-03  0.6605821E+03  0.7818609E-02  0.9787123E-01
        3   -1    0    0  501    0  0.00000000000E+00  0.00000000000E+00  0.58195037930E+03  0.58195038806E+03  0.10100000352E+00 0. -1.
       -3   -1    0    0    0  501  0.00000000000E+00  0.00000000000E+00 -0.18745954353E+03  0.18745957074E+03  0.10100000352E+00 0.  1.
    10030    2    1    2    0    0  0.00000000000E+00  0.00000000000E+00  0.39449083577E+03  0.76940995881E+03  0.66058206546E+03 0.  0.
        4    1    3    3  502    0  0.48444485564E+02 -0.20118417538E+03 -0.10259140299E+03  0.23097304923E+03  0.12699999809E+01 0.  1.
       -4    1    3    3    0  502 -0.48444485564E+02  0.20118417538E+03  0.49708223876E+03  0.53843690957E+03  0.12699999809E+01 0. -1.
</event>
<event>
 5   0  0.1948138E-02  0.6989620E+03  0.7818609E-02  0.9719009E-01
        2   -1    0    0  501    0  0.00000000000E+00  0.00000000000E+00  0.92536865664E+03  0.92536865664E+03  0.25500000920E-02 0. -1.
       -2   -1    0    0    0  501  0.00000000000E+00  0.00000000000E+00 -0.13198735822E+03  0.13198735825E+03  0.25500000920E-02 0.  1.
    10030    2    1    2    0    0  0.00000000000E+00  0.00000000000E+00  0.79338129841E+03  0.10573560149E+04  0.69896198577E+03 0.  0.
        3    1    3    3  502    0 -0.81804117220E+02  0.31367821793E+03  0.19915621309E+03  0.38045912450E+03  0.10100000352E+00 0.  1.
       -3    1    3    3    0  502  0.81804117220E+02 -0.31367821793E+03  0.59422508532E+03  0.67689689039E+03  0.10100000352E+00 0. -1.
</event>
<event>
 5   0  0.1197259E-02  0.6951837E+03  0.7818609E-02  0.9725504E-01
       -1   -1    0    0    0  501  0.00000000000E+00  0.00000000000E+00  0.50571292853E+03  0.50571292856E+03  0.50400001928E-02 0. -1.
        1   -1    0    0  501    0  0.00000000000E+00  0.00000000000E+00 -0.23891040069E+03  0.23891040074E+03  0.50400001928E-02 0.  1.
    10030    2    1    2    0    0  0.00000000000E+00  0.00000000000E+00  0.26680252784E+03  0.74462332930E+03  0.69518365464E+03 0.  0.
        3    1    3    3  502    0  0.25965578011E+03  0.16977678198E+03 -0.34510830851E+02  0.31214786159E+03  0.10100000352E+00 0.  1.
       -3    1    3    3    0  502 -0.25965578011E+03 -0.16977678198E+03  0.30131335869E+03  0.43247546771E+03  0.10100000352E+00 0. -1.
</event>
<event>
 5   0  0.1909053E-02  0.6989505E+03  0.7818609E-02  0.9719029E-01
       -2   -1    0    0    0  501  0.00000000000E+00  0.00000000000E+00  0.12691261908E+04  0.12691261908E+04  0.25500000920E-02 0. -1.
        2   -1    0    0  501    0  0.00000000000E+00  0.00000000000E+00 -0.96233877725E+02  0.96233877759E+02  0.25500000920E-02 0.  1.
    10030    2    1    2    0    0  0.00000000000E+00  0.00000000000E+00  0.11728923131E+04  0.13653600686E+04  0.69895045515E+03 0.  0.
        1    1    3    3  502    0 -0.18285044810E+03  0.59215915113E+02  0.11566111214E+04  0.11724717895E+04  0.50400001928E-02 0. -1.
       -1    1    3    3    0  502  0.18285044810E+03 -0.59215915113E+02  0.16281191662E+02  0.19288827906E+03  0.50400001928E-02 0.  1.
</event>
<event>
 5   0  0.1226303E-02  0.7014032E+03  0.7818609E-02  0.9714836E-01
       -1   -1    0    0    0  501  0.00000000000E+00  0.00000000000E+00  0.28952729903E+03  0.28952729907E+03  0.50400001928E-02 0. -1.
        1   -1    0    0  501    0  0.00000000000E+00  0.00000000000E+00 -0.42480137740E+03  0.42480137743E+03  0.50400001928E-02 0.  1.
    10030    2    1    2    0    0  0.00000000000E+00  0.00000000000E+00 -0.13527407837E+03  0.71432867650E+03  0.70140315211E+03 0.  0.
        4    1    3    3  502    0  0.95213077609E+02  0.20845923802E+02  0.27545368627E+03  0.29219245176E+03  0.12699999809E+01 0. -1.
       -4    1    3    3    0  502 -0.95213077609E+02 -0.20845923802E+02 -0.41072776464E+03  0.42213622473E+03  0.12699999809E+01 0.  1.
</event>
<event>
 5   0  0.1948138E-02  0.7014006E+03  0.7818609E-02  0.9714840E-01
        2   -1    0    0  501    0  0.00000000000E+00  0.00000000000E+00  0.75491168285E+03  0.75491168285E+03  0.25500000920E-02 0. -1.
       -2   -1    0    0    0  501  0.00000000000E+00  0.00000000000E+00 -0.16292063898E+03  0.16292063900E+03  0.25500000920E-02 0.  1.
    10030    2    1    2    0    0  0.00000000000E+00  0.00000000000E+00  0.59199104387E+03  0.91783232185E+03  0.70140058098E+03 0.  0.
        3    1    3    3  502    0  0.33437984740E+03  0.99055538077E+02  0.34440913275E+03  0.49014237003E+03  0.10100000352E+00 0.  1.
       -3    1    3    3    0  502 -0.33437984740E+03 -0.99055538077E+02  0.24758191113E+03  0.42768995182E+03  0.10100000352E+00 0. -1.
</event>
<event>
 5   0  0.1226303E-02  0.7039858E+03  0.7818609E-02  0.9710440E-01
        1   -1    0    0  501    0  0.00000000000E+00  0.00000000000E+00  0.12446981296E+04  0.12446981296E+04  0.50400001928E-02 0.  1.
       -1   -1    0    0    0  501  0.00000000000E+00  0.00000000000E+00 -0.99541410423E+02  0.99541410551E+02  0.50400001928E-02 0. -1.
    10030    2    1    2    0    0  0.00000000000E+00  0.00000000000E+00  0.11451567191E+04  0.13442395401E+04  0.70398581651E+03 0.  0.
        4    1    3    3  502    0 -0.27939362840E+03 -0.84387642092E+02  0.94828959950E+03  0.99218791121E+03  0.12699999809E+01 0.  1.
       -4    1    3    3    0  502  0.27939362840E+03  0.84387642092E+02  0.19686711964E+03  0.35205162891E+03  0.12699999809E+01 0. -1.
</event>
<event>
 5   0  0.1237686E-02  0.7052372E+03  0.7818609E-02  0.9708318E-01
        1   -1    0    0  501    0  0.00000000000E+00  0.00000000000E+00  0.23081335893E+03  0.23081335898E+03  0.50400001928E-02 0.  1.
       -1   -1    0    0    0  501  0.00000000000E+00  0.00000000000E+00 -0.53870307330E+03  0.53870307332E+03  0.50400001928E-02 0. -1.
    10030    2    1    2    0    0  0.00000000000E+00  0.00000000000E+00 -0.30788971437E+03  0.76951643230E+03  0.70523716817E+03 0.  0.
        5    1    3    3  502    0 -0.17881863520E+03  0.42788100525E+02  0.17432652749E+03  0.25341419461E+03  0.46999998093E+01 0.  1.
       -5    1    3    3    0  502  0.17881863520E+03 -0.42788100525E+02 -0.48221624186E+03  0.51610223770E+03  0.46999998093E+01 0. -1.
</event>
<event>
 5   0  0.1226303E-02  0.7057968E+03  0.7818609E-02  0.9707370E-01
        1   -1    0    0  501    0  0.00000000000E+00  0.00000000000E+00  0.54726653748E+03  0.54726653750E+03  0.50400001928E-02 0.  1.
       -1   -1    0    0    0  501  0.00000000000E+00  0.00000000000E+00 -0.22756241157E+03  0.22756241162E+03  0.50400001928E-02 0. -1.
    10030    2    1    2    0    0  0.00000000000E+00  0.00000000000E+00  0.31970412591E+03  0.77482894912E+03  0.70579683498E+03 0.  0.
        4    1    3    3  502    0  0.12029451760E+03  0.70199680563E+02 -0.19611002433E+03  0.24054006041E+03  0.12699999809E+01 0. -1.
       -4    1    3    3    0  502 -0.12029451760E+03 -0.70199680563E+02  0.51581415024E+03  0.53428888872E+03  0.12699999809E+01 0.  1.
</event>
<event>
 5   0  0.1197259E-02  0.7012323E+03  0.7818609E-02  0.9715127E-01
        1   -1    0    0  501    0  0.00000000000E+00  0.00000000000E+00  0.59314812166E+03  0.59314812168E+03  0.50400001928E-02 0. -1.
       -1   -1    0    0    0  501  0.00000000000E+00  0.00000000000E+00 -0.20725294178E+03  0.20725294184E+03  0.50400001928E-02 0.  1.
    10030    2    1    2    0    0  0.00000000000E+00  0.00000000000E+00  0.38589517988E+03  0.80040106353E+03  0.70123232430E+03 0.  0.
        3    1    3    3  502    0 -0.88851028597E+02 -0.33884829978E+03  0.17605582089E+03  0.39205654926E+03  0.10100000352E+00 0. -1.
       -3    1    3    3    0  502  0.88851028597E+02  0.33884829978E+03  0.20983935898E+03  0.40834451426E+03  0.10100000352E+00 0.  1.
</event>
<event>
 5   0  0.2026361E-02  0.6958804E+03  0.7818609E-02  0.9724303E-01
       -2   -1    0    0    0  501  0.00000000000E+00  0.00000000000E+00  0.77075089195E+02  0.77075089237E+02  0.25500000920E-02 0.  1.
        2   -1    0    0  501    0  0.00000000000E+00  0.00000000000E+00 -0.15707071668E+04  0.15707071668E+04  0.25500000920E-02 0. -1.
    10030    2    1    2    0    0  0.00000000000E+00  0.00000000000E+00 -0.14936320776E+04  0.16477822560E+04  0.69588043518E+03 0.  0.
        2    1    3    3  502    0  0.29027225902E+03 -0.18627877950E+03 -0.63818529333E+03  0.72542279857E+03  0.25500000920E-02 0.  1.
       -2    1    3    3    0  502 -0.29027225902E+03  0.18627877950E+03 -0.85544678425E+03  0.92235945745E+03  0.25500000920E-02 0. -1.
</event>
<event>
 5   0  0.2006362E-02  0.6977181E+03  0.7818609E-02  0.9721143E-01
        2   -1    0    0  501    0  0.00000000000E+00  0.00000000000E+00  0.37253441716E+03  0.37253441717E+03  0.25500000920E-02 0.  1.
       -2   -1    0    0    0  501  0.00000000000E+00  0.00000000000E+00 -0.32668829736E+03  0.32668829737E+03  0.25500000920E-02 0. -1.
    10030    2    1    2    0    0  0.00000000000E+00  0.00000000000E+00  0.45846119803E+02  0.69922271454E+03  0.69771809338E+03 0.  0.
        4    1    3    3  502    0 -0.95914112853E+02  0.60507663276E+02  0.35354408043E+03  0.37128927276E+03  0.12699999809E+01 0.  1.
       -4    1    3    3    0  502  0.95914112853E+02 -0.60507663276E+02 -0.30769796063E+03  0.32793344178E+03  0.12699999809E+01 0. -1.
</event>
<event>
 5   0  0.1948138E-02  0.7010592E+03  0.7818609E-02  0.9715422E-01
        2   -1    0    0  501    0  0.00000000000E+00  0.00000000000E+00  0.49887577319E+03  0.49887577319E+03  0.25500000920E-02 0.  1.
       -2   -1    0    0    0  501  0.00000000000E+00  0.00000000000E+00 -0.24629581510E+03  0.24629581511E+03  0.25500000920E-02 0. -1.
    10030    2    1    2    0    0  0.00000000000E+00  0.00000000000E+00  0.25257995809E+03  0.74517158830E+03  0.70105924199E+03 0.  0.
        3    1    3    3  502    0  0.21769534924E+01 -0.35050451513E+03  0.13010033546E+03  0.37387733516E+03  0.10100000352E+00 0. -1.
       -3    1    3    3    0  502 -0.21769534924E+01  0.35050451513E+03  0.12247962263E+03  0.37129425314E+03  0.10100000352E+00 0.  1.
</event>
<event>
 5   0  0.1973067E-02  0.6964162E+03  0.7818609E-02  0.9723381E-01
        2   -1    0    0  501    0  0.00000000000E+00  0.00000000000E+00  0.12449066898E+04  0.12449066898E+04  0.25500000920E-02 0.  1.
       -2   -1    0    0    0  501  0.00000000000E+00  0.00000000000E+00 -0.97395945093E+02  0.97395945126E+02  0.25500000920E-02 0. -1.
    10030    2    1    2    0    0  0.00000000000E+00  0.00000000000E+00  0.11475107447E+04  0.13423026349E+04  0.69641615038E+03 0.  0.
        5    1    3    3  502    0 -0.20163799127E+03  0.23405288009E+03  0.26423328391E+03  0.40654636701E+03  0.46999998093E+01 0. -1.
       -5    1    3    3    0  502  0.20163799127E+03 -0.23405288009E+03  0.88327746078E+03  0.93575626791E+03  0.46999998093E+01 0.  1.
</event>
<event>
 5   0  0.1223742E-02  0.6976213E+03  0.7818609E-02  0.9721309E-01
        1   -1    0    0  501    0  0.00000000000E+00  0.00000000000E+00  0.85016880285E+03  0.85016880286E+03  0.50400001928E-02 0.  1.
       -1   -1    0    0    0  501  0.00000000000E+00  0.00000000000E+00 -0.14311140999E+03  0.14311141007E+03  0.50400001928E-02 0. -1.
    10030    2    1    2    0    0  0.00000000000E+00  0.00000000000E+00  0.70705739286E+03  0.99328021294E+03  0.69762126158E+03 0.  0.
        2    1    3    3  502    0  0.16280190209E+03 -0.29405057357E+02 -0.83698655024E+02  0.18540383378E+03  0.25500000920E-02 0. -1.
       -2    1    3    3    0  502 -0.16280190209E+03  0.29405057357E+02  0.79075604789E+03  0.80787637916E+03  0.25500000920E-02 0.  1.
</event>
<event>
 5   0  0.1226303E-02  0.7034846E+03  0.7818609E-02  0.9711292E-01
       -1   -1    0    0    0  501  0.00000000000E+00  0.00000000000E+00  0.13818154779E+03  0.13818154788E+03  0.50400001928E-02 0.  1.
        1   -1    0    0  501    0  0.00000000000E+00  0.00000000000E+00 -0.89536305497E+03  0.89536305498E+03  0.50400001928E-02 0. -1.
    10030    2    1    2    0    0  0.00000000000E+00  0.00000000000E+00 -0.75718150717E+03  0.10335446029E+04  0.70348462051E+03 0.  0.
        4    1    3    3  502    0  0.13452301966E+03 -0.32493520394E+03 -0.38807923117E+03  0.52372362190E+03  0.12699999809E+01 0. -1.
       -4    1    3    3    0  502 -0.13452301966E+03  0.32493520394E+03 -0.36910227601E+03  0.50982098096E+03  0.12699999809E+01 0.  1.
</event>
<event>
 5   0  0.1948138E-02  0.7034492E+03  0.7818609E-02  0.9711352E-01
       -2   -1    0    0    0  501  0.00000000000E+00  0.00000000000E+00  0.10659037144E+03  0.10659037147E+03  0.25500000920E-02 0. -1.
        2   -1    0    0  501    0  0.00000000000E+00  0.00000000000E+00 -0.11606131357E+04  0.11606131357E+04  0.25500000920E-02 0.  1.
    10030    2    1    2    0    0  0.00000000000E+00  0.00000000000E+00 -0.10540227643E+04  0.12672035072E+04  0.70344917444E+03 0.  0.
        3    1    3    3  502    0  0.11923120029E+03  0.33009164893E+03 -0.48539912809E+03  0.59898989939E+03  0.10100000352E+00 0. -1.
       -3    1    3    3    0  502 -0.11923120029E+03 -0.33009164893E+03 -0.56862363618E+03  0.66821360779E+03  0.10100000352E+00 0.  1.
</event>
<event>
 5   0  0.1909053E-02  0.6986727E+03  0.7818609E-02  0.9719505E-01
        2   -1    0    0  501    0  0.00000000000E+00  0.00000000000E+00  0.42405524137E+03  0.42405524138E+03  0.25500000920E-02 0. -1.
       -2   -1    0    0    0  501  0.00000000000E+00  0.00000000000E+00 -0.28778302794E+03  0.28778302795E+03  0.25500000920E-02 0.  1.
    10030    2    1    2    0    0  0.00000000000E+00  0.00000000000E+00  0.13627221344E+03  0.71183826933E+03  0.69867274566E+03 0.  0.
        1    1    3    3  502    0 -0.26585825789E+03  0.19846685755E+03 -0.43315301294E+02  0.33458320667E+03  0.50400001928E-02 0.  1.
       -1    1    3    3    0  502  0.26585825789E+03 -0.19846685755E+03  0.17958751473E+03  0.37725506266E+03  0.50400001928E-02 0. -1.
</event>
<event>
 5   0  0.7947250E-03  0.6977259E+03  0.7818609E-02  0.9721129E-01
       -3   -1    0    0    0  501  0.00000000000E+00  0.00000000000E+00  0.36182143766E+03  0.36182145176E+03  0.10100000352E+00 0.  1.
        3   -1    0    0  501    0  0.00000000000E+00  0.00000000000E+00 -0.33636858224E+03  0.33636859741E+03  0.10100000352E+00 0. -1.
    10030    2    1    2    0    0  0.00000000000E+00  0.00000000000E+00  0.25452855420E+02  0.69819004916E+03  0.69772594685E+03 0.  0.
        4    1    3    3  502    0  0.20727864556E+03  0.12885417499E+03  0.26216302223E+03  0.35818835610E+03  0.12699999809E+01 0.  1.
       -4    1    3    3    0  502 -0.20727864556E+03 -0.12885417499E+03 -0.23671016681E+03  0.34000169307E+03  0.12699999809E+01 0. -1.
</event>
<event>
 5   0  0.1948138E-02  0.6985613E+03  0.7818609E-02  0.9719696E-01
        2   -1    0    0  501    0  0.00000000000E+00  0.00000000000E+00  0.83246348541E+03  0.83246348541E+03  0.25500000920E-02 0. -1.
       -2   -1    0    0    0  501  0.00000000000E+00  0.00000000000E+00 -0.14654934112E+03  0.14654934114E+03  0.25500000920E-02 0.  1.
    10030    2    1    2    0    0  0.00000000000E+00  0.00000000000E+00  0.68591414429E+03  0.97901282655E+03  0.69856130813E+03 0.  0.
        3    1    3    3  502    0  0.25722942229E+03  0.18942676583E+02  0.67303576871E+03  0.72076553528E+03  0.10100000352E+00 0. -1.
       -3    1    3    3    0  502 -0.25722942229E+03 -0.18942676583E+02  0.12878375579E+02  0.25824729127E+03  0.10100000352E+00 0.  1.
</event>
<event>
 5   0  0.1197259E-02  0.7007191E+03  0.7818609E-02  0.9716003E-01
       -1   -1    0    0    0  501  0.00000000000E+00  0.00000000000E+00  0.12640783635E+03  0.12640783645E+03  0.50400001928E-02 0.  1.
        1   -1    0    0  501    0  0.00000000000E+00  0.00000000000E+00 -0.97107755329E+03  0.97107755331E+03  0.50400001928E-02 0. -1.
    10030    2    1    2    0    0  0.00000000000E+00  0.00000000000E+00 -0.84466971694E+03  0.10974853898E+04  0.70071909495E+03 0.  0.
        3    1    3    3  502    0  0.27067404076E+03  0.55297022936E+02 -0.84851555821E+02  0.28900171939E+03  0.10100000352E+00 0.  1.
       -3    1    3    3    0  502 -0.27067404076E+03 -0.55297022936E+02 -0.75981816112E+03  0.80848367037E+03  0.10100000352E+00 0. -1.
</event>
<event>
 5   0  0.7947250E-03  0.6958521E+03  0.7818609E-02  0.9724352E-01
       -3   -1    0    0    0  501  0.00000000000E+00  0.00000000000E+00  0.91342576545E+02  0.91342632384E+02  0.10100000352E+00 0. -1.
        3   -1    0    0  501    0  0.00000000000E+00  0.00000000000E+00 -0.13252582573E+04  0.13252582612E+04  0.10100000352E+00 0.  1.
    10030    2    1    2    0    0  0.00000000000E+00  0.00000000000E+00 -0.12339156808E+04  0.14166008936E+04  0.69585212823E+03 0.  0.
        4    1    3    3  502    0  0.97733826315E+01  0.23826058107E+03 -0.10118895601E+03  0.25904524937E+03  0.12699999809E+01 0. -1.
       -4    1    3    3    0  502 -0.97733826315E+01 -0.23826058107E+03 -0.11327267248E+04  0.11575556442E+04  0.12699999809E+01 0.  1.
</event>
<event>
 5   0  0.2026361E-02  0.7012959E+03  0.7818609E-02  0.9715019E-01
       -2   -1    0    0    0  501  0.00000000000E+00  0.00000000000E+00  0.18543474093E+03  0.18543474095E+03  0.25500000920E-02 0.  1.
        2   -1    0    0  501    0  0.00000000000E+00  0.00000000000E+00 -0.66305794575E+03  0.66305794575E+03  0.25500000920E-02 0. -1.
    10030    2    1    2    0    0  0.00000000000E+00  0.00000000000E+00 -0.47762320482E+03  0.84849268670E+03  0.70129588164E+03 0.  0.
        2    1    3    3  502    0  0.88646354894E+02  0.30653370288E+03 -0.62927627065E+02  0.32523987070E+03  0.25500000920E-02 0.  1.
       -2    1    3    3    0  502 -0.88646354894E+02 -0.30653370288E+03 -0.41469557775E+03  0.52325281600E+03  0.25500000920E-02 0. -1.
</event>
<event>
 5   0  0.1257442E-02  0.6987052E+03  0.7818609E-02  0.9719449E-01
        1   -1    0    0  501    0  0.00000000000E+00  0.00000000000E+00  0.12100788615E+03  0.12100788626E+03  0.50400001928E-02 0. -1.
       -1   -1    0    0    0  501  0.00000000000E+00  0.00000000000E+00 -0.10085890002E+04  0.10085890003E+04  0.50400001928E-02 0.  1.
    10030    2    1    2    0    0  0.00000000000E+00  0.00000000000E+00 -0.88758111409E+03  0.11295968865E+04  0.69870515379E+03 0.  0.
        1    1    3    3  502    0  0.30198694579E+03  0.17049120405E+03 -0.37550803664E+03  0.51114543106E+03  0.50400001928E-02 0. -1.
       -1    1    3    3    0  502 -0.30198694579E+03 -0.17049120405E+03 -0.51207307745E+03  0.61845145546E+03  0.50400001928E-02 0.  1.
</event>
<event>
 5   0  0.1948138E-02  0.6404498E+03  0.7818609E-02  0.9824866E-01
       -2   -1    0    0    0  501  0.00000000000E+00  0.00000000000E+00  0.19031907671E+03  0.19031907673E+03  0.25500000920E-02 0. -1.
        2   -1    0    0  501    0  0.00000000000E+00  0.00000000000E+00 -0.53880040734E+03  0.53880040735E+03  0.25500000920E-02 0.  1.
    10030    2    1    2    0    0  0.00000000000E+00  0.00000000000E+00 -0.34848133063E+03  0.72911948407E+03  0.64044982962E+03 0.  0.
        3    1    3    3  502    0 -0.19493855904E+03  0.19430590508E+02  0.11413859906E+03  0.22672939739E+03  0.10100000352E+00 0. -1.
       -3    1    3    3    0  502  0.19493855904E+03 -0.19430590508E+02 -0.46261992969E+03  0.50239008668E+03  0.10100000352E+00 0.  1.
</event>
<event>
 5   0  0.2026361E-02  0.6951101E+03  0.7818609E-02  0.9725631E-01
        2   -1    0    0  501    0  0.00000000000E+00  0.00000000000E+00  0.78364822144E+03  0.78364822144E+03  0.25500000920E-02 0. -1.
       -2   -1    0    0    0  501  0.00000000000E+00  0.00000000000E+00 -0.15414378513E+03  0.15414378515E+03  0.25500000920E-02 0.  1.
    10030    2    1    2    0    0  0.00000000000E+00  0.00000000000E+00  0.62950443631E+03  0.93779200659E+03  0.69511007207E+03 0.  0.
        2    1    3    3  502    0 -0.19877477343E+03  0.16476123454E+03  0.84641208270E+00  0.25818286423E+03  0.25500000920E-02 0.  1.
       -2    1    3    3    0  502  0.19877477343E+03 -0.16476123454E+03  0.62865802422E+03  0.67960914236E+03  0.25500000920E-02 0. -1.
</event>
<event>
 5   0  0.1257442E-02  0.6984940E+03  0.7818609E-02  0.9719811E-01
       -1   -1    0    0    0  501  0.00000000000E+00  0.00000000000E+00  0.39548185160E+03  0.39548185163E+03  0.50400001928E-02 0. -1.
        1   -1    0    0  501    0  0.00000000000E+00  0.00000000000E+00 -0.30841736294E+03  0.30841736298E+03  0.50400001928E-02 0.  1.
    10030    2    1    2    0    0  0.00000000000E+00  0.00000000000E+00  0.87064488659E+02  0.70389921462E+03  0.69849400796E+03 0.  0.
        1    1    3    3  502    0  0.10808015210E+03  0.21286797337E+03 -0.21335087448E+03  0.32017602819E+03  0.50400001928E-02 0.  1.
       -1    1    3    3    0  502 -0.10808015210E+03 -0.21286797337E+03  0.30041536314E+03  0.38372318642E+03  0.50400001928E-02 0. -1.
</event>
<event>
 5   0  0.1973067E-02  0.7022120E+03  0.7818609E-02  0.9713457E-01
       -2   -1    0    0    0  501  0.00000000000E+00  0.00000000000E+00  0.14550618174E+03  0.14550618176E+03  0.25500000920E-02 0.  1.
        2   -1    0    0  501    0  0.00000000000E+00  0.00000000000E+00 -0.84721786089E+03  0.84721786089E+03  0.25500000920E-02 0. -1.
    10030    2    1    2    0    0  0.00000000000E+00  0.00000000000E+00 -0.70171167915E+03  0.99272404266E+03  0.70221203651E+03 0.  0.
        5    1    3    3  502    0 -0.19586175936E+03 -0.18819796795E+03 -0.36410922464E+02  0.27409514624E+03  0.46999998093E+01 0.  1.
       -5    1    3    3    0  502  0.19586175936E+03  0.18819796795E+03 -0.66530075668E+03  0.71862889641E+03  0.46999998093E+01 0. -1.
</event>
<event>
 5   0  0.2026361E-02  0.6985933E+03  0.7818609E-02  0.9719641E-01
        2   -1    0    0  501    0  0.00000000000E+00  0.00000000000E+00  0.29622947835E+03  0.29622947836E+03  0.25500000920E-02 0. -1.
       -2   -1    0    0    0  501  0.00000000000E+00  0.00000000000E+00 -0.41187033253E+03  0.41187033254E+03  0.25500000920E-02 0.  1.
    10030    2    1    2    0    0  0.00000000000E+00  0.00000000000E+00 -0.11564085418E+03  0.70809981090E+03  0.69859325436E+03 0.  0.
        2    1    3    3  502    0  0.78015276495E+02  0.18799648101E+03  0.22990697567E+03  0.30706070687E+03  0.25500000920E-02 0. -1.
       -2    1    3    3    0  502 -0.78015276495E+02 -0.18799648101E+03 -0.34554782985E+03  0.40103910403E+03  0.25500000920E-02 0.  1.
</event>
<event>
 5   0  0.1973067E-02  0.7005144E+03  0.7818609E-02  0.9716353E-01
       -2   -1    0    0    0  501  0.00000000000E+00  0.00000000000E+00  0.16911051139E+03  0.16911051141E+03  0.25500000920E-02 0.  1.
        2   -1    0    0  501    0  0.00000000000E+00  0.00000000000E+00 -0.72544349823E+03  0.72544349823E+03  0.25500000920E-02 0. -1.
    10030    2    1    2    0    0  0.00000000000E+00  0.00000000000E+00 -0.55633298683E+03  0.89455400965E+03  0.70051444235E+03 0.  0.
        5    1    3    3  502    0  0.18481817373E+03 -0.22312852286E+02  0.10065687093E+03  0.21168258403E+03  0.46999998093E+01 0.  1.
       -5    1    3    3    0  502 -0.18481817373E+03  0.22312852286E+02 -0.65698985777E+03  0.68287142562E+03  0.46999998093E+01 0. -1.
</event>
<event>
 5   0  0.1226303E-02  0.6996552E+03  0.7818609E-02  0.9717822E-01
        1   -1    0    0  501    0  0.00000000000E+00  0.00000000000E+00  0.31186140027E+03  0.31186140031E+03  0.50400001928E-02 0.  1.
       -1   -1    0    0    0  501  0.00000000000E+00  0.00000000000E+00 -0.39241586488E+03  0.39241586491E+03  0.50400001928E-02 0. -1.
    10030    2    1    2    0    0  0.00000000000E+00  0.00000000000E+00 -0.80554464605E+02  0.70427726522E+03  0.69965523262E+03 0.  0.
        4    1    3    3  502    0 -0.10084700983E+03 -0.18888691256E+03  0.23818970108E+03  0.32028788882E+03  0.12699999809E+01 0.  1.
       -4    1    3    3    0  502  0.10084700983E+03  0.18888691256E+03 -0.31874416568E+03  0.38398937640E+03  0.12699999809E+01 0. -1.
</event>
<event>
 5   0  0.2006362E-02  0.6971714E+03  0.7818609E-02  0.9722082E-01
       -2   -1    0    0    0  501  0.00000000000E+00  0.00000000000E+00  0.90018277317E+02  0.90018277353E+02  0.25500000920E-02 0.  1.
        2   -1    0    0  501    0  0.00000000000E+00  0.00000000000E+00 -0.13498589475E+04  0.13498589475E+04  0.25500000920E-02 0. -1.
    10030    2    1    2    0    0  0.00000000000E+00  0.00000000000E+00 -0.12598406702E+04  0.14398772249E+04  0.69717136230E+03 0.  0.
        4    1    3    3  502    0 -0.51905072601E+02 -0.25956106642E+03 -0.10983608736E+04  0.11298071983E+04  0.12699999809E+01 0. -1.
       -4    1    3    3    0  502  0.51905072601E+02  0.25956106642E+03 -0.16147979657E+03  0.31007002655E+03  0.12699999809E+01 0.  1.
</event>
<event>
 5   0  0.1948138E-02  0.7010511E+03  0.7818609E-02  0.9715436E-01
       -2   -1    0    0    0  501  0.00000000000E+00  0.00000000000E+00  0.18445941887E+03  0.18445941889E+03  0.25500000920E-02 0. -1.
        2   -1    0    0  501    0  0.00000000000E+00  0.00000000000E+00 -0.66609863379E+03  0.66609863379E+03  0.25500000920E-02 0.  1.
    10030    2    1    2    0    0  0.00000000000E+00  0.00000000000E+00 -0.48163921491E+03  0.85055805269E+03  0.70105111629E+03 0.  0.
        3    1    3    3  502    0 -0.25116562829E+03 -0.12474855482E+03 -0.49595599075E+03  0.56975321826E+03  0.10100000352E+00 0.  1.
       -3    1    3    3    0  502  0.25116562829E+03  0.12474855482E+03  0.14316775834E+02  0.28080483442E+03  0.10100000352E+00 0. -1.
</event>
<event>
 5   0  0.1973067E-02  0.7081352E+03  0.7818609E-02  0.9703420E-01
        2   -1    0    0  501    0  0.00000000000E+00  0.00000000000E+00  0.10687470583E+04  0.10687470583E+04  0.25500000920E-02 0.  1.
       -2   -1    0    0    0  501  0.00000000000E+00  0.00000000000E+00 -0.11729983101E+03  0.11729983104E+03  0.25500000920E-02 0. -1.
    10030    2    1    2    0    0  0.00000000000E+00  0.00000000000E+00  0.95144722725E+03  0.11860468893E+04  0.70813515476E+03 0.  0.
        5    1    3    3  502    0  0.19802840638E+02  0.19956354051E+03 -0.12941927898E+02  0.20101577723E+03  0.46999998093E+01 0. -1.
       -5    1    3    3    0  502 -0.19802840638E+02 -0.19956354051E+03  0.96438915515E+03  0.98503111208E+03  0.46999998093E+01 0.  1.
</event>
<event>
 5   0  0.1948138E-02  0.7044184E+03  0.7818609E-02  0.9709706E-01
       -2   -1    0    0    0  501  0.00000000000E+00  0.00000000000E+00  0.18457387534E+03  0.18457387535E+03  0.25500000920E-02 0. -1.
        2   -1    0    0  501    0  0.00000000000E+00  0.00000000000E+00 -0.67209573680E+03  0.67209573680E+03  0.25500000920E-02 0.  1.
    10030    2    1    2    0    0  0.00000000000E+00  0.00000000000E+00 -0.48752186146E+03  0.85666961215E+03  0.70441838348E+03 0.  0.
        3    1    3    3  502    0 -0.13502260031E+03  0.14319458616E+03  0.11145847412E+03  0.22618309785E+03  0.10100000352E+00 0. -1.
       -3    1    3    3    0  502  0.13502260031E+03 -0.14319458616E+03 -0.59898033558E+03  0.63048651430E+03  0.10100000352E+00 0.  1.
</event>
<event>
 5   0  0.1197259E-02  0.6795508E+03  0.7818609E-02  0.9752856E-01
        1   -1    0    0  501    0  0.00000000000E+00  0.00000000000E+00  0.13923117656E+04  0.13923117656E+04  0.50400001928E-02 0. -1.
       -1   -1    0    0    0  501  0.00000000000E+00  0.00000000000E+00 -0.82917733672E+02  0.82917733825E+02  0.50400001928E-02 0.  1.
    10030    2    1    2    0    0  0.00000000000E+00  0.00000000000E+00  0.13093940319E+04  0.14752294994E+04  0.67955084074E+03 0.  0.
        3    1    3    3  502    0  0.19303016431E+03  0.24806854003E+03  0.93480633172E+03  0.98623604320E+03  0.10100000352E+00 0. -1.
       -3    1    3    3    0  502 -0.19303016431E+03 -0.24806854003E+03  0.37458770022E+03  0.48899345624E+03  0.10100000352E+00 0.  1.
</event>
<event>
 5   0  0.1197259E-02  0.7066532E+03  0.7818609E-02  0.9705921E-01
       -1   -1    0    0    0  501  0.00000000000E+00  0.00000000000E+00  0.15374621587E+03  0.15374621596E+03  0.50400001928E-02 0. -1.
        1   -1    0    0  501    0  0.00000000000E+00  0.00000000000E+00 -0.81198545562E+03  0.81198545564E+03  0.50400001928E-02 0.  1.
    10030    2    1    2    0    0  0.00000000000E+00  0.00000000000E+00 -0.65823923975E+03  0.96573167159E+03  0.70665321394E+03 0.  0.
        3    1    3    3  502    0  0.34696132092E+03  0.48628092262E+02 -0.39163937373E+03  0.52547907554E+03  0.10100000352E+00 0. -1.
       -3    1    3    3    0  502 -0.34696132092E+03 -0.48628092262E+02 -0.26659986601E+03  0.44025259605E+03  0.10100000352E+00 0.  1.
</event>
<event>
 5   0  0.2006362E-02  0.6968775E+03  0.7818609E-02  0.9722587E-01
        2   -1    0    0  501    0  0.00000000000E+00  0.00000000000E+00  0.17054722788E+04  0.17054722788E+04  0.25500000920E-02 0. -1.
       -2   -1    0    0    0  501  0.00000000000E+00  0.00000000000E+00 -0.71188243171E+02  0.71188243217E+02  0.25500000920E-02 0.  1.
    10030    2    1    2    0    0  0.00000000000E+00  0.00000000000E+00  0.16342840356E+04  0.17766605220E+04  0.69687753686E+03 0.  0.
        4    1    3    3  502    0 -0.26316027316E+03 -0.27977691407E+02  0.23929786350E+03  0.35679288244E+03  0.12699999809E+01 0.  1.
       -4    1    3    3    0  502  0.26316027316E+03  0.27977691407E+02  0.13949861721E+04  0.14198676395E+04  0.12699999809E+01 0. -1.
</event>
<event>
 5   0  0.1237686E-02  0.6773510E+03  0.7818609E-02  0.9756769E-01
        1   -1    0    0  501    0  0.00000000000E+00  0.00000000000E+00  0.27899916689E+03  0.27899916694E+03  0.50400001928E-02 0.  1.
       -1   -1    0    0    0  501  0.00000000000E+00  0.00000000000E+00 -0.41111626047E+03  0.41111626050E+03  0.50400001928E-02 0. -1.
    10030    2    1    2    0    0  0.00000000000E+00  0.00000000000E+00 -0.13211709358E+03  0.69011542744E+03  0.67735099969E+03 0.  0.
        5    1    3    3  502    0  0.10354270423E+03 -0.13351090860E+03  0.23295586196E+03  0.28781379038E+03  0.46999998093E+01 0.  1.
       -5    1    3    3    0  502 -0.10354270423E+03  0.13351090860E+03 -0.36507295554E+03  0.40230163706E+03  0.46999998093E+01 0. -1.
</event>
<event>
 5   0  0.7947250E-03  0.6963462E+03  0.7818609E-02  0.9723501E-01
       -3   -1    0    0    0  501  0.00000000000E+00  0.00000000000E+00  0.14462666247E+03  0.14462669773E+03  0.10100000352E+00 0.  1.
        3   -1    0    0  501    0  0.00000000000E+00  0.00000000000E+00 -0.83818894906E+03  0.83818895514E+03  0.10100000352E+00 0. -1.
    10030    2    1    2    0    0  0.00000000000E+00  0.00000000000E+00 -0.69356228659E+03  0.98281565288E+03  0.69634615111E+03 0.  0.
        2    1    3    3  502    0  0.65069552597E+01 -0.33697486072E+03 -0.22349569755E+03  0.40440663206E+03  0.25500000920E-02 0.  1.
       -2    1    3    3    0  502 -0.65069552597E+01  0.33697486072E+03 -0.47006658904E+03  0.57840902082E+03  0.25500000920E-02 0. -1.
</event>
<event>
 5   0  0.1197259E-02  0.7051653E+03  0.7818609E-02  0.9708439E-01
       -1   -1    0    0    0  501  0.00000000000E+00  0.00000000000E+00  0.56349202188E+03  0.56349202190E+03  0.50400001928E-02 0. -1.
        1   -1    0    0  501    0  0.00000000000E+00  0.00000000000E+00 -0.22061451897E+03  0.22061451903E+03  0.50400001928E-02 0.  1.
    10030    2    1    2    0    0  0.00000000000E+00  0.00000000000E+00  0.34287750291E+03  0.78410654093E+03  0.70516528951E+03 0.  0.
        3    1    3    3  502    0 -0.34542227151E+03 -0.11551652600E+02  0.24899278018E+03  0.42596643191E+03  0.10100000352E+00 0. -1.
       -3    1    3    3    0  502  0.34542227151E+03  0.11551652600E+02  0.93884722732E+02  0.35814010903E+03  0.10100000352E+00 0.  1.
</event>
<event>
 5   0  0.1237686E-02  0.6873560E+03  0.7818609E-02  0.9739103E-01
       -1   -1    0    0    0  501  0.00000000000E+00  0.00000000000E+00  0.34459302809E+03  0.34459302813E+03  0.50400001928E-02 0. -1.
        1   -1    0    0  501    0  0.00000000000E+00  0.00000000000E+00 -0.34276543655E+03  0.34276543659E+03  0.50400001928E-02 0.  1.
    10030    2    1    2    0    0  0.00000000000E+00  0.00000000000E+00  0.18275915392E+01  0.68735846472E+03  0.68735603506E+03 0.  0.
        5    1    3    3  502    0  0.81581637773E+01  0.48277827668E+02 -0.33922735636E+03  0.34277484386E+03  0.46999998093E+01 0.  1.
       -5    1    3    3    0  502 -0.81581637773E+01 -0.48277827668E+02  0.34105494790E+03  0.34458362086E+03  0.46999998093E+01 0. -1.
</event>
<event>
 5   0  0.1197259E-02  0.6949573E+03  0.7818609E-02  0.9725895E-01
        1   -1    0    0  501    0  0.00000000000E+00  0.00000000000E+00  0.66145191846E+03  0.66145191848E+03  0.50400001928E-02 0.  1.
       -1   -1    0    0    0  501  0.00000000000E+00  0.00000000000E+00 -0.18253995990E+03  0.18253995997E+03  0.50400001928E-02 0. -1.
    10030    2    1    2    0    0  0.00000000000E+00  0.00000000000E+00  0.47891195855E+03  0.84399187845E+03  0.69495728419E+03 0.  0.
        3    1    3    3  502    0  0.21186186348E+03 -0.14475345894E+02  0.57347740246E+03  0.61153195025E+03  0.10100000352E+00 0.  1.
       -3    1    3    3    0  502 -0.21186186348E+03  0.14475345894E+02 -0.94565443910E+02  0.23245992820E+03  0.10100000352E+00 0. -1.
</event>
<event>
 5   0  0.1909053E-02  0.7034843E+03  0.7818609E-02  0.9711292E-01
       -2   -1    0    0    0  501  0.00000000000E+00  0.00000000000E+00  0.10269746299E+03  0.10269746302E+03  0.25500000920E-02 0. -1.
        2   -1    0    0  501    0  0.00000000000E+00  0.00000000000E+00 -0.12047281617E+04  0.12047281617E+04  0.25500000920E-02 0.  1.
    10030    2    1    2    0    0  0.00000000000E+00  0.00000000000E+00 -0.11020306987E+04  0.13074256247E+04  0.70348425942E+03 0.  0.
        1    1    3    3  502    0  0.33892998402E+03  0.62099997399E+02 -0.41969706095E+03  0.54302446238E+03  0.50400001928E-02 0. -1.
       -1    1    3    3    0  502 -0.33892998402E+03 -0.62099997399E+02 -0.68233363771E+03  0.76440116230E+03  0.50400001928E-02 0.  1.
</event>
<event>
 5   0  0.1223742E-02  0.6987504E+03  0.7818609E-02  0.9719372E-01
       -1   -1    0    0    0  501  0.00000000000E+00  0.00000000000E+00  0.73435478582E+02  0.73435478755E+02  0.50400001928E-02 0.  1.
        1   -1    0    0  501    0  0.00000000000E+00  0.00000000000E+00 -0.16621806563E+04  0.16621806563E+04  0.50400001928E-02 0. -1.
    10030    2    1    2    0    0  0.00000000000E+00  0.00000000000E+00 -0.15887451777E+04  0.17356161351E+04  0.69875040506E+03 0.  0.
        2    1    3    3  502    0 -0.21896317653E+03 -0.39225892454E+02 -0.12519935898E+03  0.25526147929E+03  0.25500000920E-02 0.  1.
       -2    1    3    3    0  502  0.21896317653E+03  0.39225892454E+02 -0.14635458187E+04  0.14803546558E+04  0.25500000920E-02 0. -1.
</event>
<event>
 5   0  0.1197259E-02  0.7002322E+03  0.7818609E-02  0.9716835E-01
       -1   -1    0    0    0  501  0.00000000000E+00  0.00000000000E+00  0.15319205236E+04  0.15319205237E+04  0.50400001928E-02 0. -1.
        1   -1    0    0  501    0  0.00000000000E+00  0.00000000000E+00 -0.80018048120E+02  0.80018048278E+02  0.50400001928E-02 0.  1.
    10030    2    1    2    0    0  0.00000000000E+00  0.00000000000E+00  0.14519024755E+04  0.16119385719E+04  0.70023221951E+03 0.  0.
        3    1    3    3  502    0  0.28000438987E+03 -0.20933316226E+03  0.68236794403E+03  0.76671301828E+03  0.10100000352E+00 0.  1.
       -3    1    3    3    0  502 -0.28000438987E+03  0.20933316226E+03  0.76953453150E+03  0.84522555365E+03  0.10100000352E+00 0. -1.
</event>
<event>
 5   0  0.1223742E-02  0.7023004E+03  0.7818609E-02  0.9713306E-01
        1   -1    0    0  501    0  0.00000000000E+00  0.00000000000E+00  0.11381607317E+04  0.11381607317E+04  0.50400001928E-02 0.  1.
       -1   -1    0    0    0  501  0.00000000000E+00  0.00000000000E+00 -0.10833834487E+03  0.10833834499E+03  0.50400001928E-02 0. -1.
    10030    2    1    2    0    0  0.00000000000E+00  0.00000000000E+00  0.10298223868E+04  0.12464990767E+04  0.70230036294E+03 0.  0.
        2    1    3    3  502    0 -0.65340607145E+02 -0.21245492489E+03  0.99740436297E+03  0.10218717891E+04  0.25500000920E-02 0.  1.
       -2    1    3    3    0  502  0.65340607145E+02  0.21245492489E+03  0.32418023831E+02  0.22462728758E+03  0.25500000920E-02 0. -1.
</event>
<event>
 5   0  0.1197259E-02  0.7038190E+03  0.7818609E-02  0.9710723E-01
        1   -1    0    0  501    0  0.00000000000E+00  0.00000000000E+00  0.71752257295E+03  0.71752257297E+03  0.50400001928E-02 0.  1.
       -1   -1    0    0    0  501  0.00000000000E+00  0.00000000000E+00 -0.17259428168E+03  0.17259428175E+03  0.50400001928E-02 0. -1.
    10030    2    1    2    0    0  0.00000000000E+00  0.00000000000E+00  0.54492829127E+03  0.89011685472E+03  0.70381899123E+03 0.  0.
        3    1    3    3  502    0  0.11142935041E+03  0.30899192341E+03  0.43217560578E+03  0.54283355948E+03  0.10100000352E+00 0.  1.
       -3    1    3    3    0  502 -0.11142935041E+03 -0.30899192341E+03  0.11275268550E+03  0.34728329524E+03  0.10100000352E+00 0. -1.
</event>
<event>
 5   0  0.1973067E-02  0.6988320E+03  0.7818609E-02  0.9719232E-01
       -2   -1    0    0    0  501  0.00000000000E+00  0.00000000000E+00  0.14107089142E+03  0.14107089145E+03  0.25500000920E-02 0. -1.
        2   -1    0    0  501    0  0.00000000000E+00  0.00000000000E+00 -0.86546242966E+03  0.86546242967E+03  0.25500000920E-02 0.  1.
    10030    2    1    2    0    0  0.00000000000E+00  0.00000000000E+00 -0.72439153824E+03  0.10065333211E+04  0.69883204408E+03 0.  0.
        5    1    3    3  502    0  0.16178737023E+03  0.30905903403E+03 -0.39015506461E+03  0.52338867405E+03  0.46999998093E+01 0.  1.
       -5    1    3    3    0  502 -0.16178737023E+03 -0.30905903403E+03 -0.33423647363E+03  0.48314464706E+03  0.46999998093E+01 0. -1.
</event>
<event>
 5   0  0.1909053E-02  0.6995972E+03  0.7818609E-02  0.9717921E-01
       -2   -1    0    0    0  501  0.00000000000E+00  0.00000000000E+00  0.13507873687E+03  0.13507873689E+03  0.25500000920E-02 0. -1.
        2   -1    0    0  501    0  0.00000000000E+00  0.00000000000E+00 -0.90583514226E+03  0.90583514227E+03  0.25500000920E-02 0.  1.
    10030    2    1    2    0    0  0.00000000000E+00  0.00000000000E+00 -0.77075640540E+03  0.10409138792E+04  0.69959721795E+03 0.  0.
        1    1    3    3  502    0 -0.54218863582E+02 -0.32869465548E+03 -0.54409492578E+03  0.63798052478E+03  0.50400001928E-02 0. -1.
       -1    1    3    3    0  502  0.54218863582E+02  0.32869465548E+03 -0.22666147961E+03  0.40293335438E+03  0.50400001928E-02 0.  1.
</event>
<event>
 5   0  0.1257442E-02  0.7000649E+03  0.7818609E-02  0.9717121E-01
        1   -1    0    0  501    0  0.00000000000E+00  0.00000000000E+00  0.13419813524E+03  0.13419813533E+03  0.50400001928E-02 0.  1.
       -1   -1    0    0    0  501  0.00000000000E+00  0.00000000000E+00 -0.91299870924E+03  0.91299870926E+03  0.50400001928E-02 0. -1.
    10030    2    1    2    0    0  0.00000000000E+00  0.00000000000E+00 -0.77880057401E+03  0.10471968446E+04  0.70006492360E+03 0.  0.
        1    1    3    3  502    0 -0.54828537563E+02 -0.59967137353E+02  0.11989555007E+03  0.14483497176E+03  0.50400001928E-02 0.  1.
       -1    1    3    3    0  502  0.54828537563E+02  0.59967137353E+02 -0.89869612407E+03  0.90236187283E+03  0.50400001928E-02 0. -1.
</event>
<event>
 5   0  0.2026361E-02  0.6924696E+03  0.7818609E-02  0.9730197E-01
       -2   -1    0    0    0  501  0.00000000000E+00  0.00000000000E+00  0.14564104677E+03  0.14564104679E+03  0.25500000920E-02 0.  1.
        2   -1    0    0  501    0  0.00000000000E+00  0.00000000000E+00 -0.82310964938E+03  0.82310964938E+03  0.25500000920E-02 0. -1.
    10030    2    1    2    0    0  0.00000000000E+00  0.00000000000E+00 -0.67746860261E+03  0.96875069617E+03  0.69246964108E+03 0.  0.
        2    1    3    3  502    0  0.34362335897E+03 -0.10616366500E+02 -0.28124270465E+03  0.44417021399E+03  0.25500000920E-02 0. -1.
       -2    1    3    3    0  502 -0.34362335897E+03  0.10616366500E+02 -0.39622589796E+03  0.52458048219E+03  0.25500000920E-02 0.  1.
</event>
<event>
 5   0  0.1973067E-02  0.6975189E+03  0.7818609E-02  0.9721485E-01
        2   -1    0    0  501    0  0.00000000000E+00  0.00000000000E+00  0.10996227530E+04  0.10996227530E+04  0.25500000920E-02 0.  1.
       -2   -1    0    0    0  501  0.00000000000E+00  0.00000000000E+00 -0.11061353793E+03  0.11061353796E+03  0.25500000920E-02 0. -1.
    10030    2    1    2    0    0  0.00000000000E+00  0.00000000000E+00  0.98900921506E+03  0.12102362910E+04  0.69751892626E+03 0.  0.
        5    1    3    3  502    0 -0.16207030251E+03 -0.30097195824E+03  0.61421322936E+03  0.70294443858E+03  0.46999998093E+01 0. -1.
       -5    1    3    3    0  502  0.16207030251E+03  0.30097195824E+03  0.37479598570E+03  0.50729185239E+03  0.46999998093E+01 0.  1.
</event>
<event>
 5   0  0.1223742E-02  0.6963030E+03  0.7818609E-02  0.9723576E-01
       -1   -1    0    0    0  501  0.00000000000E+00  0.00000000000E+00  0.23489908964E+03  0.23489908969E+03  0.50400001928E-02 0. -1.
        1   -1    0    0  501    0  0.00000000000E+00  0.00000000000E+00 -0.51600654812E+03  0.51600654815E+03  0.50400001928E-02 0.  1.
    10030    2    1    2    0    0  0.00000000000E+00  0.00000000000E+00 -0.28110745848E+03  0.75090563784E+03  0.69630300425E+03 0.  0.
        2    1    3    3  502    0 -0.33166781286E+03  0.10524957527E+03 -0.15277640808E+03  0.38002847532E+03  0.25500000920E-02 0.  1.
       -2    1    3    3    0  502  0.33166781286E+03 -0.10524957527E+03 -0.12833105040E+03  0.37087716252E+03  0.25500000920E-02 0. -1.
</event>
<event>
 5   0  0.2026361E-02  0.6946602E+03  0.7818609E-02  0.9726408E-01
       -2   -1    0    0    0  501  0.00000000000E+00  0.00000000000E+00  0.61016856362E+02  0.61016856415E+02  0.25500000920E-02 0.  1.
        2   -1    0    0  501    0  0.00000000000E+00  0.00000000000E+00 -0.19771288505E+04  0.19771288505E+04  0.25500000920E-02 0. -1.
    10030    2    1    2    0    0  0.00000000000E+00  0.00000000000E+00 -0.19161119942E+04  0.20381457070E+04  0.69466016767E+03 0.  0.
        2    1    3    3  502    0 -0.50128172258E+02  0.25431229576E+03 -0.27972890428E+03  0.38136050834E+03  0.25500000920E-02 0.  1.
       -2    1    3    3    0  502  0.50128172258E+02 -0.25431229576E+03 -0.16363830899E+04  0.16567851986E+04  0.25500000920E-02 0. -1.
</event>
<event>
 5   0  0.1948138E-02  0.6996307E+03  0.7818609E-02  0.9717864E-01
       -2   -1    0    0    0  501  0.00000000000E+00  0.00000000000E+00  0.62829674506E+02  0.62829674558E+02  0.25500000920E-02 0.  1.
        2   -1    0    0  501    0  0.00000000000E+00  0.00000000000E+00 -0.19476589013E+04  0.19476589013E+04  0.25500000920E-02 0. -1.
    10030    2    1    2    0    0  0.00000000000E+00  0.00000000000E+00 -0.18848292268E+04  0.20104885759E+04  0.69963068793E+03 0.  0.
        3    1    3    3  502    0 -0.79491270687E+02 -0.86941939124E+02  0.41137265206E+01  0.11787576443E+03  0.10100000352E+00 0.  1.
       -3    1    3    3    0  502  0.79491270687E+02  0.86941939124E+02 -0.18889429533E+04  0.18926128114E+04  0.10100000352E+00 0. -1.
</event>
<event>
 5   0  0.1237686E-02  0.7017426E+03  0.7818609E-02  0.9714257E-01
        1   -1    0    0  501    0  0.00000000000E+00  0.00000000000E+00  0.53376595032E+03  0.53376595034E+03  0.50400001928E-02 0. -1.
       -1   -1    0    0    0  501  0.00000000000E+00  0.00000000000E+00 -0.23064539003E+03  0.23064539009E+03  0.50400001928E-02 0.  1.
    10030    2    1    2    0    0  0.00000000000E+00  0.00000000000E+00  0.30312056028E+03  0.76441134043E+03  0.70174256199E+03 0.  0.
        5    1    3    3  502    0  0.30609287811E+03  0.12769498063E+03  0.26932666860E+02  0.33278569177E+03  0.46999998093E+01 0.  1.
       -5    1    3    3    0  502 -0.30609287811E+03 -0.12769498063E+03  0.27618789342E+03  0.43162564866E+03  0.46999998093E+01 0. -1.
</event>
<event>
 5   0  0.1237686E-02  0.7008960E+03  0.7818609E-02  0.9715701E-01
       -1   -1    0    0    0  501  0.00000000000E+00  0.00000000000E+00  0.10384513745E+03  0.10384513757E+03  0.50400001928E-02 0.  1.
        1   -1    0    0  501    0  0.00000000000E+00  0.00000000000E+00 -0.11826630077E+04  0.11826630077E+04  0.50400001928E-02 0. -1.
    10030    2    1    2    0    0  0.00000000000E+00  0.00000000000E+00 -0.10788178703E+04  0.12865081453E+04  0.70089600564E+03 0.  0.
        5    1    3    3  502    0  0.18378752726E+03  0.20907581179E+03 -0.93008214275E+03  0.97085809083E+03  0.46999998093E+01 0. -1.
       -5    1    3    3    0  502 -0.18378752726E+03 -0.20907581179E+03 -0.14873572751E+03  0.31565005448E+03  0.46999998093E+01 0.  1.
</event>
<event>
 5   0  0.1909053E-02  0.6958927E+03  0.7818609E-02  0.9724282E-01
       -2   -1    0    0    0  501  0.00000000000E+00  0.00000000000E+00  0.22907386483E+03  0.22907386484E+03  0.25500000920E-02 0. -1.
        2   -1    0    0  501    0  0.00000000000E+00  0.00000000000E+00 -0.52850497979E+03  0.52850497980E+03  0.25500000920E-02 0.  1.
    10030    2    1    2    0    0  0.00000000000E+00  0.00000000000E+00 -0.29943111496E+03  0.75757884464E+03  0.69589274550E+03 0.  0.
        1    1    3    3  502    0 -0.25694942236E+03 -0.14483497524E+03 -0.35064764861E+03  0.45820732120E+03  0.50400001928E-02 0.  1.
       -1    1    3    3    0  502  0.25694942236E+03  0.14483497524E+03  0.51216533645E+02  0.29937152344E+03  0.50400001928E-02 0. -1.
</event>
<event>
 5   0  0.1226303E-02  0.7020121E+03  0.7818609E-02  0.9713797E-01
       -1   -1    0    0    0  501  0.00000000000E+00  0.00000000000E+00  0.57628336083E+02  0.57628336304E+02  0.50400001928E-02 0.  1.
        1   -1    0    0  501    0  0.00000000000E+00  0.00000000000E+00 -0.21379280381E+04  0.21379280381E+04  0.50400001928E-02 0. -1.
    10030    2    1    2    0    0  0.00000000000E+00  0.00000000000E+00 -0.20802997020E+04  0.21955563744E+04  0.70201206755E+03 0.  0.
        4    1    3    3  502    0  0.35003930738E+03 -0.84913764714E+01 -0.96328647768E+03  0.10249497896E+04  0.12699999809E+01 0. -1.
       -4    1    3    3    0  502 -0.35003930738E+03  0.84913764714E+01 -0.11170132243E+04  0.11706065848E+04  0.12699999809E+01 0.  1.
</event>
<event>
 5   0  0.1223742E-02  0.7000776E+03  0.7818609E-02  0.9717099E-01
       -1   -1    0    0    0  501  0.00000000000E+00  0.00000000000E+00  0.21722019432E+03  0.21722019438E+03  0.50400001928E-02 0. -1.
        1   -1    0    0  501    0  0.00000000000E+00  0.00000000000E+00 -0.56406898746E+03  0.56406898748E+03  0.50400001928E-02 0.  1.
    10030    2    1    2    0    0  0.00000000000E+00  0.00000000000E+00 -0.34684879314E+03  0.78128918185E+03  0.70007763882E+03 0.  0.
        2    1    3    3  502    0 -0.21466047474E+03 -0.25735872192E+03 -0.28621556481E+03  0.44071757477E+03  0.25500000920E-02 0.  1.
       -2    1    3    3    0  502  0.21466047474E+03  0.25735872192E+03 -0.60633228322E+02  0.34057160708E+03  0.25500000920E-02 0. -1.
</event>
<event>
 5   0  0.2006362E-02  0.6960338E+03  0.7818609E-02  0.9724039E-01
        2   -1    0    0  501    0  0.00000000000E+00  0.00000000000E+00  0.65622849313E+03  0.65622849313E+03  0.25500000920E-02 0. -1.
       -2   -1    0    0    0  501  0.00000000000E+00  0.00000000000E+00 -0.18456338776E+03  0.18456338778E+03  0.25500000920E-02 0.  1.
    10030    2    1    2    0    0  0.00000000000E+00  0.00000000000E+00  0.47166510536E+03  0.84079188091E+03  0.69603377460E+03 0.  0.
        4    1    3    3  502    0 -0.12782474245E+03 -0.25719827527E+03 -0.15708562764E+01  0.28721803229E+03  0.12699999809E+01 0.  1.
       -4    1    3    3    0  502  0.12782474245E+03  0.25719827527E+03  0.47323596164E+03  0.55357384862E+03  0.12699999809E+01 0. -1.
</event>
<event>
 5   0  0.2026361E-02  0.6983956E+03  0.7818609E-02  0.9719980E-01
       -2   -1    0    0    0  501  0.00000000000E+00  0.00000000000E+00  0.16398854973E+03  0.16398854975E+03  0.25500000920E-02 0.  1.
        2   -1    0    0  501    0  0.00000000000E+00  0.00000000000E+00 -0.74358295183E+03  0.74358295184E+03  0.25500000920E-02 0. -1.
    10030    2    1    2    0    0  0.00000000000E+00  0.00000000000E+00 -0.57959440210E+03  0.90757150159E+03  0.69839556095E+03 0.  0.
        2    1    3    3  502    0  0.17951390594E+02 -0.34662555809E+03 -0.33957976994E+03  0.48557795471E+03  0.25500000920E-02 0.  1.
       -2    1    3    3    0  502 -0.17951390594E+02  0.34662555809E+03 -0.24001463217E+03  0.42199354688E+03  0.25500000920E-02 0. -1.
</event>
<event>
 5   0  0.1948138E-02  0.6940289E+03  0.7818609E-02  0.9727498E-01
       -2   -1    0    0    0  501  0.00000000000E+00  0.00000000000E+00  0.60269097633E+03  0.60269097634E+03  0.25500000920E-02 0. -1.
        2   -1    0    0  501    0  0.00000000000E+00  0.00000000000E+00 -0.19980227754E+03  0.19980227755E+03  0.25500000920E-02 0.  1.
    10030    2    1    2    0    0  0.00000000000E+00  0.00000000000E+00  0.40288869880E+03  0.80249325389E+03  0.69402890352E+03 0.  0.
        3    1    3    3  502    0 -0.75641290698E+02  0.11838235287E+03  0.56833950556E+03  0.58544495054E+03  0.10100000352E+00 0. -1.
       -3    1    3    3    0  502  0.75641290698E+02 -0.11838235287E+03 -0.16545080676E+03  0.21704830335E+03  0.10100000352E+00 0.  1.
</event>
<event>
 5   0  0.7947250E-03  0.6991318E+03  0.7818609E-02  0.9718718E-01
        4   -1    0    0  501    0  0.00000000000E+00  0.00000000000E+00  0.21996444785E+03  0.21996811410E+03  0.12699999809E+01 0.  1.
       -4   -1    0    0    0  501  0.00000000000E+00  0.00000000000E+00 -0.55551863422E+03  0.55552008592E+03  0.12699999809E+01 0. -1.
    10030    2    1    2    0    0  0.00000000000E+00  0.00000000000E+00 -0.33555418637E+03  0.77548820002E+03  0.69913184478E+03 0.  0.
        2    1    3    3  502    0  0.21134689332E+03  0.64451931696E+02  0.13268486670E+03  0.25773403863E+03  0.25500000920E-02 0.  1.
       -2    1    3    3    0  502 -0.21134689332E+03 -0.64451931696E+02 -0.46823905306E+03  0.51775416139E+03  0.25500000920E-02 0. -1.
</event>
<event>
 5   0  0.2006362E-02  0.6961569E+03  0.7818609E-02  0.9723827E-01
       -2   -1    0    0    0  501  0.00000000000E+00  0.00000000000E+00  0.55569901266E+02  0.55569901324E+02  0.25500000920E-02 0.  1.
        2   -1    0    0  501    0  0.00000000000E+00  0.00000000000E+00 -0.21802918522E+04  0.21802918522E+04  0.25500000920E-02 0. -1.
    10030    2    1    2    0    0  0.00000000000E+00  0.00000000000E+00 -0.21247219509E+04  0.22358617535E+04  0.69615688756E+03 0.  0.
        4    1    3    3  502    0  0.86679454952E+02  0.59934291797E+01 -0.21448955723E+04  0.21466550441E+04  0.12699999809E+01 0. -1.
       -4    1    3    3    0  502 -0.86679454952E+02 -0.59934291797E+01  0.20173621436E+02  0.89206709422E+02  0.12699999809E+01 0.  1.
</event>
<event>
 5   0  0.1948138E-02  0.6895256E+03  0.7818609E-02  0.9735314E-01
       -2   -1    0    0    0  501  0.00000000000E+00  0.00000000000E+00  0.17018112705E+03  0.17018112707E+03  0.25500000920E-02 0.  1.
        2   -1    0    0  501    0  0.00000000000E+00  0.00000000000E+00 -0.69844046009E+03  0.69844046009E+03  0.25500000920E-02 0. -1.
    10030    2    1    2    0    0  0.00000000000E+00  0.00000000000E+00 -0.52825933303E+03  0.86862158716E+03  0.68952558963E+03 0.  0.
        3    1    3    3  502    0 -0.46100812495E+02 -0.30357346855E+03 -0.46162845879E+03  0.55442130180E+03  0.10100000352E+00 0. -1.
       -3    1    3    3    0  502  0.46100812495E+02  0.30357346855E+03 -0.66630874245E+02  0.31420028537E+03  0.10100000352E+00 0.  1.
</event>
<event>
 5   0  0.1197259E-02  0.6996433E+03  0.7818609E-02  0.9717842E-01
       -1   -1    0    0    0  501  0.00000000000E+00  0.00000000000E+00  0.11178985355E+03  0.11178985367E+03  0.50400001928E-02 0. -1.
        1   -1    0    0  501    0  0.00000000000E+00  0.00000000000E+00 -0.10946895539E+04  0.10946895539E+04  0.50400001928E-02 0.  1.
    10030    2    1    2    0    0  0.00000000000E+00  0.00000000000E+00 -0.98289970037E+03  0.12064794076E+04  0.69964329482E+03 0.  0.
        3    1    3    3  502    0  0.24609271202E+03  0.39769802279E+02 -0.91466048446E+03  0.94802271709E+03  0.10100000352E+00 0.  1.
       -3    1    3    3    0  502 -0.24609271202E+03 -0.39769802279E+02 -0.68239215911E+02  0.25845669052E+03  0.10100000352E+00 0. -1.
</event>
<event>
 5   0  0.1948138E-02  0.7009620E+03  0.7818609E-02  0.9715588E-01
        2   -1    0    0  501    0  0.00000000000E+00  0.00000000000E+00  0.57155193088E+03  0.57155193088E+03  0.25500000920E-02 0. -1.
       -2   -1    0    0    0  501  0.00000000000E+00  0.00000000000E+00 -0.21491825488E+03  0.21491825490E+03  0.25500000920E-02 0.  1.
    10030    2    1    2    0    0  0.00000000000E+00  0.00000000000E+00  0.35663367600E+03  0.78647018578E+03  0.70096203482E+03 0.  0.
        3    1    3    3  502    0  0.33420909603E+03 -0.85582751195E+02  0.10900014716E+03  0.36180266645E+03  0.10100000352E+00 0. -1.
       -3    1    3    3    0  502 -0.33420909603E+03  0.85582751195E+02  0.24763352883E+03  0.42466751933E+03  0.10100000352E+00 0.  1.
</event>
<event>
 5   0  0.1223742E-02  0.6935390E+03  0.7818609E-02  0.9728346E-01
       -1   -1    0    0    0  501  0.00000000000E+00  0.00000000000E+00  0.40039897613E+03  0.40039897616E+03  0.50400001928E-02 0.  1.
        1   -1    0    0  501    0  0.00000000000E+00  0.00000000000E+00 -0.30032315749E+03  0.30032315753E+03  0.50400001928E-02 0. -1.
    10030    2    1    2    0    0  0.00000000000E+00  0.00000000000E+00  0.10007581864E+03  0.70072213369E+03  0.69353899614E+03 0.  0.
        2    1    3    3  502    0  0.15685234718E+03 -0.12022014950E+03 -0.23785813188E+03  0.30924429513E+03  0.25500000920E-02 0. -1.
       -2    1    3    3    0  502 -0.15685234718E+03  0.12022014950E+03  0.33793395052E+03  0.39147783856E+03  0.25500000920E-02 0.  1.
</event>
<event>
 5   0  0.1257442E-02  0.6904695E+03  0.7818609E-02  0.9733671E-01
        1   -1    0    0  501    0  0.00000000000E+00  0.00000000000E+00  0.11472999992E+04  0.11472999992E+04  0.50400001928E-02 0.  1.
       -1   -1    0    0    0  501  0.00000000000E+00  0.00000000000E+00 -0.10388481146E+03  0.10388481159E+03  0.50400001928E-02 0. -1.
    10030    2    1    2    0    0  0.00000000000E+00  0.00000000000E+00  0.10434151877E+04  0.12511848108E+04  0.69046953356E+03 0.  0.
        1    1    3    3  502    0  0.60052740654E+02 -0.60911885055E+02 -0.84378953861E+02  0.12015155963E+03  0.50400001928E-02 0. -1.
       -1    1    3    3    0  502 -0.60052740654E+02  0.60911885055E+02  0.11277941416E+04  0.11310332512E+04  0.50400001928E-02 0.  1.
</event>
<event>
 5   0  0.2006362E-02  0.6989966E+03  0.7818609E-02  0.9718950E-01
        2   -1    0    0  501    0  0.00000000000E+00  0.00000000000E+00  0.21586556922E+03  0.21586556924E+03  0.25500000920E-02 0.  1.
       -2   -1    0    0    0  501  0.00000000000E+00  0.00000000000E+00 -0.56585714083E+03  0.56585714084E+03  0.25500000920E-02 0. -1.
    10030    2    1    2    0    0  0.00000000000E+00  0.00000000000E+00 -0.34999157161E+03  0.78172271008E+03  0.69899663465E+03 0.  0.
        4    1    3    3  502    0 -0.46835306502E+01 -0.29282672400E+02  0.21445343764E+03  0.21649780641E+03  0.12699999809E+01 0.  1.
       -4    1    3    3    0  502  0.46835306502E+01  0.29282672400E+02 -0.56444500925E+03  0.56522490367E+03  0.12699999809E+01 0. -1.
</event>
<event>
 5   0  0.2006362E-02  0.6985241E+03  0.7818609E-02  0.9719759E-01
        2   -1    0    0  501    0  0.00000000000E+00  0.00000000000E+00  0.52761678581E+03  0.52761678582E+03  0.25500000920E-02 0.  1.
       -2   -1    0    0    0  501  0.00000000000E+00  0.00000000000E+00 -0.23119809604E+03  0.23119809605E+03  0.25500000920E-02 0. -1.
    10030    2    1    2    0    0  0.00000000000E+00  0.00000000000E+00  0.29641868977E+03  0.75881488187E+03  0.69852414798E+03 0.  0.
        4    1    3    3  502    0  0.14744605009E+03 -0.25552657699E+03 -0.54870540580E+02  0.30007758723E+03  0.12699999809E+01 0. -1.
       -4    1    3    3    0  502 -0.14744605009E+03  0.25552657699E+03  0.35128923035E+03  0.45873729464E+03  0.12699999809E+01 0.  1.
</event>
<event>
 5   0  0.2006362E-02  0.7014219E+03  0.7818609E-02  0.9714804E-01
       -2   -1    0    0    0  501  0.00000000000E+00  0.00000000000E+00  0.19416501715E+03  0.19416501717E+03  0.25500000920E-02 0.  1.
        2   -1    0    0  501    0  0.00000000000E+00  0.00000000000E+00 -0.63347228018E+03  0.63347228019E+03  0.25500000920E-02 0. -1.
    10030    2    1    2    0    0  0.00000000000E+00  0.00000000000E+00 -0.43930726303E+03  0.82763729736E+03  0.70142185924E+03 0.  0.
        4    1    3    3  502    0  0.30979890264E+03 -0.15943226221E+03 -0.26688872537E+03  0.43889088728E+03  0.12699999809E+01 0. -1.
       -4    1    3    3    0  502 -0.30979890264E+03  0.15943226221E+03 -0.17241853767E+03  0.38874641007E+03  0.12699999809E+01 0.  1.
</event>
<event>
 5   0  0.7947250E-03  0.6580687E+03  0.7818609E-02  0.9791756E-01
       -3   -1    0    0    0  501  0.00000000000E+00  0.00000000000E+00  0.27343136673E+03  0.27343138539E+03  0.10100000352E+00 0. -1.
        3   -1    0    0  501    0  0.00000000000E+00  0.00000000000E+00 -0.39594427605E+03  0.39594428893E+03  0.10100000352E+00 0.  1.
    10030    2    1    2    0    0  0.00000000000E+00  0.00000000000E+00 -0.12251290932E+03  0.66937567432E+03  0.65806867455E+03 0.  0.
        2    1    3    3  502    0  0.13548923361E+03 -0.25234825135E+03  0.10347248088E+03  0.30453821877E+03  0.25500000920E-02 0.  1.
       -2    1    3    3    0  502 -0.13548923361E+03  0.25234825135E+03 -0.22598539020E+03  0.36483745555E+03  0.25500000920E-02 0. -1.
</event>
<event>
 5   0  0.1257442E-02  0.6993490E+03  0.7818609E-02  0.9718346E-01
        1   -1    0    0  501    0  0.00000000000E+00  0.00000000000E+00  0.71385694049E+03  0.71385694051E+03  0.50400001928E-02 0.  1.
       -1   -1    0    0    0  501  0.00000000000E+00  0.00000000000E+00 -0.17128397538E+03  0.17128397546E+03  0.50400001928E-02 0. -1.
    10030    2    1    2    0    0  0.00000000000E+00  0.00000000000E+00  0.54257296511E+03  0.88514091597E+03  0.69934899632E+03 0.  0.
        1    1    3    3  502    0  0.23292197700E+03 -0.24776621980E+02  0.59988595126E+03  0.64399509541E+03  0.50400001928E-02 0.  1.
       -1    1    3    3    0  502 -0.23292197700E+03  0.24776621980E+02 -0.57312986155E+02  0.24114582056E+03  0.50400001928E-02 0. -1.
</event>
<event>
 5   0  0.7947250E-03  0.6667298E+03  0.7818609E-02  0.9775884E-01
        3   -1    0    0  501    0  0.00000000000E+00  0.00000000000E+00  0.50570231234E+03  0.50570232243E+03  0.10100000352E+00 0.  1.
       -3   -1    0    0    0  501  0.00000000000E+00  0.00000000000E+00 -0.21975804058E+03  0.21975806379E+03  0.10100000352E+00 0. -1.
    10030    2    1    2    0    0  0.00000000000E+00  0.00000000000E+00  0.28594427176E+03  0.72546038622E+03  0.66672981441E+03 0.  0.
        4    1    3    3  502    0  0.28468093037E+03 -0.11533762973E+03  0.28393952154E+03  0.41829327719E+03  0.12699999809E+01 0.  1.
       -4    1    3    3    0  502 -0.28468093037E+03  0.11533762973E+03  0.20047502200E+01  0.30716710903E+03  0.12699999809E+01 0. -1.
</event>
<event>
 5   0  0.1948138E-02  0.7005658E+03  0.7818609E-02  0.9716265E-01
       -2   -1    0    0    0  501  0.00000000000E+00  0.00000000000E+00  0.92524227569E+02  0.92524227604E+02  0.25500000920E-02 0. -1.
        2   -1    0    0  501    0  0.00000000000E+00  0.00000000000E+00 -0.13261188560E+04  0.13261188560E+04  0.25500000920E-02 0.  1.
    10030    2    1    2    0    0  0.00000000000E+00  0.00000000000E+00 -0.12335946284E+04  0.14186430836E+04  0.70056583657E+03 0.  0.
        3    1    3    3  502    0 -0.19079146854E+03 -0.51581009617E+01 -0.12115746301E+04  0.12265158315E+04  0.10100000352E+00 0.  1.
       -3    1    3    3    0  502  0.19079146854E+03  0.51581009617E+01 -0.22019998348E+02  0.19212725210E+03  0.10100000352E+00 0. -1.
</event>
<event>
 5   0  0.7947250E-03  0.6896183E+03  0.7818609E-02  0.9735153E-01
        3   -1    0    0  501    0  0.00000000000E+00  0.00000000000E+00  0.25365559121E+03  0.25365561132E+03  0.10100000352E+00 0.  1.
       -3   -1    0    0    0  501  0.00000000000E+00  0.00000000000E+00 -0.46871950459E+03  0.46871951547E+03  0.10100000352E+00 0. -1.
    10030    2    1    2    0    0  0.00000000000E+00  0.00000000000E+00 -0.21506391338E+03  0.72237512679E+03  0.68961825452E+03 0.  0.
        1    1    3    3  502    0 -0.32894775908E+03 -0.89992398830E+02 -0.54242364907E+02  0.34532230485E+03  0.50400001928E-02 0. -1.
       -1    1    3    3    0  502  0.32894775908E+03  0.89992398830E+02 -0.16082154847E+03  0.37705282194E+03  0.50400001928E-02 0.  1.
</event>
<event>
 5   0  0.1909053E-02  0.6974037E+03  0.7818609E-02  0.9721682E-01
        2   -1    0    0  501    0  0.00000000000E+00  0.00000000000E+00  0.11144041877E+04  0.11144041877E+04  0.25500000920E-02 0. -1.
       -2   -1    0    0    0  501  0.00000000000E+00  0.00000000000E+00 -0.10911031361E+03  0.10911031364E+03  0.25500000920E-02 0.  1.
    10030    2    1    2    0    0  0.00000000000E+00  0.00000000000E+00  0.10052938741E+04  0.12235145014E+04  0.69740372937E+03 0.  0.
        1    1    3    3  502    0 -0.81498335602E+02 -0.30601736805E+03  0.75871730620E+03  0.82215604298E+03  0.50400001928E-02 0. -1.
       -1    1    3    3    0  502  0.81498335602E+02  0.30601736805E+03  0.24657656793E+03  0.40135845840E+03  0.50400001928E-02 0.  1.
</event>
<event>
 5   0  0.7947250E-03  0.7015292E+03  0.7818609E-02  0.9714621E-01
        4   -1    0    0  501    0  0.00000000000E+00  0.00000000000E+00  0.34544516254E+03  0.34544749706E+03  0.12699999809E+01 0. -1.
       -4   -1    0    0    0  501  0.00000000000E+00  0.00000000000E+00 -0.35616131956E+03  0.35616358384E+03  0.12699999809E+01 0.  1.
    10030    2    1    2    0    0  0.00000000000E+00  0.00000000000E+00 -0.10716157020E+02  0.70161108090E+03  0.70152923874E+03 0.  0.
        2    1    3    3  502    0 -0.68797464306E+02  0.28606964314E+03 -0.19634340650E+03  0.35372258212E+03  0.25500000920E-02 0.  1.
       -2    1    3    3    0  502  0.68797464306E+02 -0.28606964314E+03  0.18562724948E+03  0.34788849877E+03  0.25500000920E-02 0. -1.
</event>
<event>
 5   0  0.1257442E-02  0.6966398E+03  0.7818609E-02  0.9722996E-01
       -1   -1    0    0    0  501  0.00000000000E+00  0.00000000000E+00  0.83890067983E+03  0.83890067984E+03  0.50400001928E-02 0. -1.
        1   -1    0    0  501    0  0.00000000000E+00  0.00000000000E+00 -0.14462589199E+03  0.14462589208E+03  0.50400001928E-02 0.  1.
    10030    2    1    2    0    0  0.00000000000E+00  0.00000000000E+00  0.69427478784E+03  0.98352657192E+03  0.69663981845E+03 0.  0.
        1    1    3    3  502    0  0.13882899123E+03 -0.17810297874E+03  0.72155489256E+03  0.75606588525E+03  0.50400001928E-02 0. -1.
       -1    1    3    3    0  502 -0.13882899123E+03  0.17810297874E+03 -0.27280104725E+02  0.22746068667E+03  0.50400001928E-02 0.  1.
</event>
<event>
 5   0  0.7947250E-03  0.6958461E+03  0.7818609E-02  0.9724362E-01
       -4   -1    0    0    0  501  0.00000000000E+00  0.00000000000E+00  0.16957751732E+04  0.16957756487E+04  0.12699999809E+01 0. -1.
        4   -1    0    0  501    0  0.00000000000E+00  0.00000000000E+00 -0.71377413176E+02  0.71388710673E+02  0.12699999809E+01 0.  1.
    10030    2    1    2    0    0  0.00000000000E+00  0.00000000000E+00  0.16243977600E+04  0.17671643594E+04  0.69584609684E+03 0.  0.
        5    1    3    3  502    0 -0.12611728322E+03 -0.27154518010E+03  0.12621152127E+04  0.12971504361E+04  0.46999998093E+01 0. -1.
       -5    1    3    3    0  502  0.12611728322E+03  0.27154518010E+03  0.36228254736E+03  0.47001392329E+03  0.46999998093E+01 0.  1.
</event>
<event>
 5   0  0.1948138E-02  0.6998230E+03  0.7818609E-02  0.9717535E-01
        2   -1    0    0  501    0  0.00000000000E+00  0.00000000000E+00  0.51636422039E+03  0.51636422040E+03  0.25500000920E-02 0. -1.
       -2   -1    0    0    0  501  0.00000000000E+00  0.00000000000E+00 -0.23711568141E+03  0.23711568142E+03  0.25500000920E-02 0.  1.
    10030    2    1    2    0    0  0.00000000000E+00  0.00000000000E+00  0.27924853898E+03  0.75347990182E+03  0.69982298899E+03 0.  0.
        3    1    3    3  502    0  0.64823225985E+02  0.15195268805E+03 -0.19248392238E+03  0.25365673775E+03  0.10100000352E+00 0.  1.
       -3    1    3    3    0  502 -0.64823225985E+02 -0.15195268805E+03  0.47173246136E+03  0.49982316407E+03  0.10100000352E+00 0. -1.
</event>
<event>
 5   0  0.1223742E-02  0.6965332E+03  0.7818609E-02  0.9723179E-01
       -1   -1    0    0    0  501  0.00000000000E+00  0.00000000000E+00  0.48951799419E+03  0.48951799421E+03  0.50400001928E-02 0.  1.
        1   -1    0    0  501    0  0.00000000000E+00  0.00000000000E+00 -0.24777356239E+03  0.24777356245E+03  0.50400001928E-02 0. -1.
    10030    2    1    2    0    0  0.00000000000E+00  0.00000000000E+00  0.24174443179E+03  0.73729155666E+03  0.69653317883E+03 0.  0.
        2    1    3    3  502    0  0.12829084954E+03  0.23243349307E+03 -0.11771868139E+03  0.29041618194E+03  0.25500000920E-02 0. -1.
       -2    1    3    3    0  502 -0.12829084954E+03 -0.23243349307E+03  0.35946311319E+03  0.44687537472E+03  0.25500000920E-02 0.  1.
</event>
<event>
 5   0  0.2006362E-02  0.7123774E+03  0.7818609E-02  0.9696296E-01
       -2   -1    0    0    0  501  0.00000000000E+00  0.00000000000E+00  0.11942013506E+03  0.11942013508E+03  0.25500000920E-02 0.  1.
        2   -1    0    0  501    0  0.00000000000E+00  0.00000000000E+00 -0.10623870430E+04  0.10623870430E+04  0.25500000920E-02 0. -1.
    10030    2    1    2    0    0  0.00000000000E+00  0.00000000000E+00 -0.94296690793E+03  0.11818071781E+04  0.71237743977E+03 0.  0.
        4    1    3    3  502    0 -0.22259018339E+03 -0.11461267478E+03 -0.51185031670E+02  0.25554642500E+03  0.12699999809E+01 0.  1.
       -4    1    3    3    0  502  0.22259018339E+03  0.11461267478E+03 -0.89178187626E+03  0.92626075308E+03  0.12699999809E+01 0. -1.
</event>
<event>
 5   0  0.1197259E-02  0.6939683E+03  0.7818609E-02  0.9727603E-01
        1   -1    0    0  501    0  0.00000000000E+00  0.00000000000E+00  0.29950392867E+03  0.29950392871E+03  0.50400001928E-02 0. -1.
       -1   -1    0    0    0  501  0.00000000000E+00  0.00000000000E+00 -0.40199144147E+03  0.40199144150E+03  0.50400001928E-02 0.  1.
    10030    2    1    2    0    0  0.00000000000E+00  0.00000000000E+00 -0.10248751280E+03  0.70149537021E+03  0.69396834521E+03 0.  0.
        3    1    3    3  502    0  0.22170975550E+03 -0.11003765451E+03 -0.29705719957E+03  0.38666069248E+03  0.10100000352E+00 0.  1.
       -3    1    3    3    0  502 -0.22170975550E+03  0.11003765451E+03  0.19456968676E+03  0.31483467773E+03  0.10100000352E+00 0. -1.
</event>
<event>
 5   0  0.1257442E-02  0.6983328E+03  0.7818609E-02  0.9720088E-01
        1   -1    0    0  501    0  0.00000000000E+00  0.00000000000E+00  0.10072086765E+04  0.10072086766E+04  0.50400001928E-02 0.  1.
       -1   -1    0    0    0  501  0.00000000000E+00  0.00000000000E+00 -0.12104459453E+03  0.12104459464E+03  0.50400001928E-02 0. -1.
    10030    2    1    2    0    0  0.00000000000E+00  0.00000000000E+00  0.88616408201E+03  0.11282532712E+04  0.69833277433E+03 0.  0.
        1    1    3    3  502    0  0.26733001956E+03 -0.17013770310E+03  0.68000862018E+03  0.75021590287E+03  0.50400001928E-02 0.  1.
       -1    1    3    3    0  502 -0.26733001956E+03  0.17013770310E+03  0.20615546183E+03  0.37803736832E+03  0.50400001928E-02 0. -1.
</event>
<event>
 5   0  0.2006362E-02  0.6993745E+03  0.7818609E-02  0.9718303E-01
       -2   -1    0    0    0  501  0.00000000000E+00  0.00000000000E+00  0.40655889527E+03  0.40655889528E+03  0.25500000920E-02 0. -1.
        2   -1    0    0  501    0  0.00000000000E+00  0.00000000000E+00 -0.30077109929E+03  0.30077109930E+03  0.25500000920E-02 0.  1.
    10030    2    1    2    0    0  0.00000000000E+00  0.00000000000E+00  0.10578779598E+03  0.70732999458E+03  0.69937448013E+03 0.  0.
        4    1    3    3  502    0 -0.32662698826E+03  0.10958423367E+03  0.11345542272E+03  0.36272253800E+03  0.12699999809E+01 0. -1.
       -4    1    3    3    0  502  0.32662698826E+03 -0.10958423367E+03 -0.76676267390E+01  0.34460745658E+03  0.12699999809E+01 0.  1.
</event>
<event>
 5   0  0.1973067E-02  0.7018917E+03  0.7818609E-02  0.9714003E-01
        2   -1    0    0  501    0  0.00000000000E+00  0.00000000000E+00  0.10677142999E+04  0.10677142999E+04  0.25500000920E-02 0. -1.
       -2   -1    0    0    0  501  0.00000000000E+00  0.00000000000E+00 -0.11535202160E+03  0.11535202163E+03  0.25500000920E-02 0.  1.
    10030    2    1    2    0    0  0.00000000000E+00  0.00000000000E+00  0.95236227828E+03  0.11830663215E+04  0.70189173811E+03 0.  0.
        5    1    3    3  502    0  0.10756902049E+03  0.30728188611E+03  0.25546128044E+03  0.41385481452E+03  0.46999998093E+01 0.  1.
       -5    1    3    3    0  502 -0.10756902049E+03 -0.30728188611E+03  0.69690099785E+03  0.76921150700E+03  0.46999998093E+01 0. -1.
</event>
<event>
 5   0  0.7947250E-03  0.7026557E+03  0.7818609E-02  0.9712701E-01
        4   -1    0    0  501    0  0.00000000000E+00  0.00000000000E+00  0.42010465378E+03  0.42010657341E+03  0.12699999809E+01 0.  1.
       -4   -1    0    0    0  501  0.00000000000E+00  0.00000000000E+00 -0.29380675983E+03  0.29380950465E+03  0.12699999809E+01 0. -1.
    10030    2    1    2    0    0  0.00000000000E+00  0.00000000000E+00  0.12629789395E+03  0.71391607806E+03  0.70265568275E+03 0.  0.
        3    1    3    3  502    0 -0.33654480566E+03  0.95383504843E+02  0.29901110745E+02  0.35107621087E+03  0.10100000352E+00 0. -1.
       -3    1    3    3    0  502  0.33654480566E+03 -0.95383504843E+02  0.96396783202E+02  0.36283986719E+03  0.10100000352E+00 0.  1.
</event>
<event>
 5   0  0.1223742E-02  0.6989566E+03  0.7818609E-02  0.9719018E-01
       -1   -1    0    0    0  501  0.00000000000E+00  0.00000000000E+00  0.32053973609E+03  0.32053973613E+03  0.50400001928E-02 0. -1.
        1   -1    0    0  501    0  0.00000000000E+00  0.00000000000E+00 -0.38102941936E+03  0.38102941940E+03  0.50400001928E-02 0.  1.
    10030    2    1    2    0    0  0.00000000000E+00  0.00000000000E+00 -0.60489683276E+02  0.70156915552E+03  0.69895656388E+03 0.  0.
        2    1    3    3  502    0  0.12909286141E+03  0.28383985729E+03 -0.18864802474E+03  0.36444218842E+03  0.25500000920E-02 0.  1.
       -2    1    3    3    0  502 -0.12909286141E+03 -0.28383985729E+03  0.12815834146E+03  0.33712696710E+03  0.25500000920E-02 0. -1.
</event>
<event>
 5   0  0.1257442E-02  0.6932838E+03  0.7818609E-02  0.9728787E-01
        1   -1    0    0  501    0  0.00000000000E+00  0.00000000000E+00  0.73650346470E+03  0.73650346472E+03  0.50400001928E-02 0. -1.
       -1   -1    0    0    0  501  0.00000000000E+00  0.00000000000E+00 -0.16315009683E+03  0.16315009691E+03  0.50400001928E-02 0.  1.
    10030    2    1    2    0    0  0.00000000000E+00  0.00000000000E+00  0.57335336787E+03  0.89965356163E+03  0.69328381382E+03 0.  0.
        1    1    3    3  502    0 -0.32518482415E+03 -0.11045878838E+03  0.22561310448E+03  0.41091067974E+03  0.50400001928E-02 0. -1.
       -1    1    3    3    0  502  0.32518482415E+03  0.11045878838E+03  0.34774026338E+03  0.48874288189E+03  0.50400001928E-02 0.  1.
</event>
<event>
 5   0  0.1237686E-02  0.6998526E+03  0.7818609E-02  0.9717484E-01
        1   -1    0    0  501    0  0.00000000000E+00  0.00000000000E+00  0.60673418773E+03  0.60673418775E+03  0.50400001928E-02 0. -1.
       -1   -1    0    0    0  501  0.00000000000E+00  0.00000000000E+00 -0.20181557852E+03  0.20181557858E+03  0.50400001928E-02 0.  1.
    10030    2    1    2    0    0  0.00000000000E+00  0.00000000000E+00  0.40491860921E+03  0.80854976634E+03  0.69985258774E+03 0.  0.
        5    1    3    3  502    0 -0.14505657299E+03 -0.31148944280E+03  0.12618021287E+03  0.36607460778E+03  0.46999998093E+01 0.  1.
       -5    1    3    3    0  502  0.14505657299E+03  0.31148944280E+03  0.27873839635E+03  0.44247515856E+03  0.46999998093E+01 0. -1.
</event>
<event>
 5   0  0.1197259E-02  0.6987759E+03  0.7818609E-02  0.9719328E-01
        1   -1    0    0  501    0  0.00000000000E+00  0.00000000000E+00  0.60324491386E+03  0.60324491388E+03  0.50400001928E-02 0. -1.
       -1   -1    0    0    0  501  0.00000000000E+00  0.00000000000E+00 -0.20235883706E+03  0.20235883713E+03  0.50400001928E-02 0.  1.
    10030    2    1    2    0    0  0.00000000000E+00  0.00000000000E+00  0.40088607680E+03  0.80560375101E+03  0.69877589903E+03 0.  0.
        3    1    3    3  502    0  0.16763988167E+03 -0.30647942460E+03  0.20765764858E+03  0.40639202360E+03  0.10100000352E+00 0. -1.
       -3    1    3    3    0  502 -0.16763988167E+03  0.30647942460E+03  0.19322842822E+03  0.39921172741E+03  0.10100000352E+00 0.  1.
</event>
<event>
 5   0  0.1909053E-02  0.6838879E+03  0.7818609E-02  0.9745190E-01
        2   -1    0    0  501    0  0.00000000000E+00  0.00000000000E+00  0.14124810801E+03  0.14124810804E+03  0.25500000920E-02 0. -1.
       -2   -1    0    0    0  501  0.00000000000E+00  0.00000000000E+00 -0.82780344354E+03  0.82780344355E+03  0.25500000920E-02 0.  1.
    10030    2    1    2    0    0  0.00000000000E+00  0.00000000000E+00 -0.68655533553E+03  0.96905155158E+03  0.68388791544E+03 0.  0.
        1    1    3    3  502    0  0.27879342929E+03  0.19781707324E+03 -0.33156729394E+03  0.47622918969E+03  0.50400001928E-02 0. -1.
       -1    1    3    3    0  502 -0.27879342929E+03 -0.19781707324E+03 -0.35498804159E+03  0.49282236189E+03  0.50400001928E-02 0.  1.
</event>
<event>
 5   0  0.1197259E-02  0.7530644E+03  0.7818609E-02  0.9630555E-01
        1   -1    0    0  501    0  0.00000000000E+00  0.00000000000E+00  0.23301703801E+03  0.23301703806E+03  0.50400001928E-02 0. -1.
       -1   -1    0    0    0  501  0.00000000000E+00  0.00000000000E+00 -0.60843834381E+03  0.60843834383E+03  0.50400001928E-02 0.  1.
    10030    2    1    2    0    0  0.00000000000E+00  0.00000000000E+00 -0.37542130580E+03  0.84145538189E+03  0.75306440818E+03 0.  0.
        3    1    3    3  502    0  0.76353979962E+02  0.48833184465E+02 -0.59606786732E+03  0.60291916772E+03  0.10100000352E+00 0.  1.
       -3    1    3    3    0  502 -0.76353979962E+02 -0.48833184465E+02  0.22064656151E+03  0.23853621417E+03  0.10100000352E+00 0. -1.
</event>
<event>
 5   0  0.1257442E-02  0.6994089E+03  0.7818609E-02  0.9718244E-01
       -1   -1    0    0    0  501  0.00000000000E+00  0.00000000000E+00  0.33066596487E+03  0.33066596490E+03  0.50400001928E-02 0. -1.
        1   -1    0    0  501    0  0.00000000000E+00  0.00000000000E+00 -0.36983907734E+03  0.36983907738E+03  0.50400001928E-02 0.  1.
    10030    2    1    2    0    0  0.00000000000E+00  0.00000000000E+00 -0.39173112476E+02  0.70050504228E+03  0.69940888007E+03 0.  0.
        1    1    3    3  502    0  0.23497367470E+03 -0.12404355788E+03 -0.24730551986E+03  0.36298684857E+03  0.50400001928E-02 0.  1.
       -1    1    3    3    0  502 -0.23497367470E+03  0.12404355788E+03  0.20813240739E+03  0.33751819371E+03  0.50400001928E-02 0. -1.
</event>
<event>
 5   0  0.1257442E-02  0.7051743E+03  0.7818609E-02  0.9708424E-01
       -1   -1    0    0    0  501  0.00000000000E+00  0.00000000000E+00  0.28244678624E+03  0.28244678628E+03  0.50400001928E-02 0.  1.
        1   -1    0    0  501    0  0.00000000000E+00  0.00000000000E+00 -0.44014557048E+03  0.44014557051E+03  0.50400001928E-02 0. -1.
    10030    2    1    2    0    0  0.00000000000E+00  0.00000000000E+00 -0.15769878424E+03  0.72259235679E+03  0.70517431004E+03 0.  0.
        1    1    3    3  502    0  0.31345362441E+03  0.20724733056E+02  0.85214741401E+02  0.32549077006E+03  0.50400001928E-02 0. -1.
       -1    1    3    3    0  502 -0.31345362441E+03 -0.20724733056E+02 -0.24291352564E+03  0.39710158673E+03  0.50400001928E-02 0.  1.
</event>
<event>
 5   0  0.1223742E-02  0.6555098E+03  0.7818609E-02  0.9796495E-01
       -1   -1    0    0    0  501  0.00000000000E+00  0.00000000000E+00  0.16419574464E+03  0.16419574472E+03  0.50400001928E-02 0.  1.
        1   -1    0    0  501    0  0.00000000000E+00  0.00000000000E+00 -0.65423903785E+03  0.65423903787E+03  0.50400001928E-02 0. -1.
    10030    2    1    2    0    0  0.00000000000E+00  0.00000000000E+00 -0.49004329321E+03  0.81843478259E+03  0.65550977425E+03 0.  0.
        2    1    3    3  502    0  0.10233946664E+03  0.11246544128E+03  0.11749033225E+03  0.19216092239E+03  0.25500000920E-02 0.  1.
       -2    1    3    3    0  502 -0.10233946664E+03 -0.11246544128E+03 -0.60753362545E+03  0.62627386021E+03  0.25500000920E-02 0. -1.
</event>
<event>
 5   0  0.1197259E-02  0.7009674E+03  0.7818609E-02  0.9715579E-01
        1   -1    0    0  501    0  0.00000000000E+00  0.00000000000E+00  0.72970999004E+03  0.72970999006E+03  0.50400001928E-02 0.  1.
       -1   -1    0    0    0  501  0.00000000000E+00  0.00000000000E+00 -0.16833925635E+03  0.16833925643E+03  0.50400001928E-02 0. -1.
    10030    2    1    2    0    0  0.00000000000E+00  0.00000000000E+00  0.56137073369E+03  0.89804924648E+03  0.70096743753E+03 0.  0.
        3    1    3    3  502    0 -0.32293302470E+03 -0.13617914731E+03  0.28438263394E+03  0.45133578552E+03  0.10100000352E+00 0. -1.
       -3    1    3    3    0  502  0.32293302470E+03  0.13617914731E+03  0.27698809975E+03  0.44671346096E+03  0.10100000352E+00 0.  1.
</event>
<event>
 5   0  0.1909053E-02  0.6823909E+03  0.7818609E-02  0.9747829E-01
       -2   -1    0    0    0  501  0.00000000000E+00  0.00000000000E+00  0.89024718342E+02  0.89024718378E+02  0.25500000920E-02 0. -1.
        2   -1    0    0  501    0  0.00000000000E+00  0.00000000000E+00 -0.13076630463E+04  0.13076630463E+04  0.25500000920E-02 0.  1.
    10030    2    1    2    0    0  0.00000000000E+00  0.00000000000E+00 -0.12186383279E+04  0.13966877647E+04  0.68239089797E+03 0.  0.
        1    1    3    3  502    0 -0.33438502517E+03  0.45739378195E+02 -0.71183894226E+03  0.78779446274E+03  0.50400001928E-02 0. -1.
       -1    1    3    3    0  502  0.33438502517E+03 -0.45739378195E+02 -0.50679938568E+03  0.60889330193E+03  0.50400001928E-02 0.  1.
</event>
<event>
 5   0  0.1948138E-02  0.6995129E+03  0.7818609E-02  0.9718065E-01
       -2   -1    0    0    0  501  0.00000000000E+00  0.00000000000E+00  0.20426501760E+03  0.20426501762E+03  0.25500000920E-02 0. -1.
        2   -1    0    0  501    0  0.00000000000E+00  0.00000000000E+00 -0.59887684092E+03  0.59887684093E+03  0.25500000920E-02 0.  1.
    10030    2    1    2    0    0  0.00000000000E+00  0.00000000000E+00 -0.39461182332E+03  0.80314185854E+03  0.69951294044E+03 0.  0.
        3    1    3    3  502    0 -0.93096396030E+02 -0.19260890345E+03  0.12038887689E+03  0.24547631356E+03  0.10100000352E+00 0. -1.
       -3    1    3    3    0  502  0.93096396030E+02  0.19260890345E+03 -0.51500070021E+03  0.55766554498E+03  0.10100000352E+00 0.  1.
</event>
<event>
 5   0  0.1197259E-02  0.6853954E+03  0.7818609E-02  0.9742539E-01
       -1   -1    0    0    0  501  0.00000000000E+00  0.00000000000E+00  0.48795145322E+03  0.48795145325E+03  0.50400001928E-02 0. -1.
        1   -1    0    0  501    0  0.00000000000E+00  0.00000000000E+00 -0.24068318219E+03  0.24068318224E+03  0.50400001928E-02 0.  1.
    10030    2    1    2    0    0  0.00000000000E+00  0.00000000000E+00  0.24726827104E+03  0.72863463549E+03  0.68539538529E+03 0.  0.
        3    1    3    3  502    0  0.18732118393E+03  0.34572457398E+02  0.42648736562E+03  0.46709309992E+03  0.10100000352E+00 0. -1.
       -3    1    3    3    0  502 -0.18732118393E+03 -0.34572457398E+02 -0.17921909459E+03  0.26154153556E+03  0.10100000352E+00 0.  1.
</event>
<event>
 5   0  0.1973067E-02  0.6936358E+03  0.7818609E-02  0.9728178E-01
       -2   -1    0    0    0  501  0.00000000000E+00  0.00000000000E+00  0.26460366991E+03  0.26460366992E+03  0.25500000920E-02 0.  1.
        2   -1    0    0  501    0  0.00000000000E+00  0.00000000000E+00 -0.45457665553E+03  0.45457665554E+03  0.25500000920E-02 0. -1.
    10030    2    1    2    0    0  0.00000000000E+00  0.00000000000E+00 -0.18997298562E+03  0.71918032546E+03  0.69363578718E+03 0.  0.
        5    1    3    3  502    0 -0.26429742788E+03  0.12781860998E+03 -0.28636418540E+03  0.41014298009E+03  0.46999998093E+01 0.  1.
       -5    1    3    3    0  502  0.26429742788E+03 -0.12781860998E+03  0.96391199776E+02  0.30903734537E+03  0.46999998093E+01 0. -1.
</event>
<event>
 5   0  0.1223742E-02  0.7064908E+03  0.7818609E-02  0.9706196E-01
        1   -1    0    0  501    0  0.00000000000E+00  0.00000000000E+00  0.22485434558E+03  0.22485434564E+03  0.50400001928E-02 0.  1.
       -1   -1    0    0    0  501  0.00000000000E+00  0.00000000000E+00 -0.55494724176E+03  0.55494724178E+03  0.50400001928E-02 0. -1.
    10030    2    1    2    0    0  0.00000000000E+00  0.00000000000E+00 -0.33009289618E+03  0.77980158742E+03  0.70649076118E+03 0.  0.
        2    1    3    3  502    0  0.27242207013E+03 -0.17256075931E+02  0.82430799786E+02  0.28514275935E+03  0.25500000920E-02 0.  1.
       -2    1    3    3    0  502 -0.27242207013E+03  0.17256075931E+02 -0.41252369596E+03  0.49465882807E+03  0.25500000920E-02 0. -1.
</event>
<event>
 5   0  0.1223742E-02  0.7166658E+03  0.7818609E-02  0.9689148E-01
       -1   -1    0    0    0  501  0.00000000000E+00  0.00000000000E+00  0.79854447073E+03  0.79854447074E+03  0.50400001928E-02 0. -1.
        1   -1    0    0  501    0  0.00000000000E+00  0.00000000000E+00 -0.16079562896E+03  0.16079562904E+03  0.50400001928E-02 0.  1.
    10030    2    1    2    0    0  0.00000000000E+00  0.00000000000E+00  0.63774884176E+03  0.95934009978E+03  0.71666578116E+03 0.  0.
        2    1    3    3  502    0 -0.31363957012E+03 -0.79705331137E+02  0.11288524467E+03  0.34273283797E+03  0.25500000920E-02 0.  1.
       -2    1    3    3    0  502  0.31363957012E+03  0.79705331137E+02  0.52486359709E+03  0.61660726181E+03  0.25500000920E-02 0. -1.
</event>
<event>
 5   0  0.1257442E-02  0.6989542E+03  0.7818609E-02  0.9719022E-01
        1   -1    0    0  501    0  0.00000000000E+00  0.00000000000E+00  0.48490375360E+03  0.48490375362E+03  0.50400001928E-02 0.  1.
       -1   -1    0    0    0  501  0.00000000000E+00  0.00000000000E+00 -0.25187315383E+03  0.25187315388E+03  0.50400001928E-02 0. -1.
    10030    2    1    2    0    0  0.00000000000E+00  0.00000000000E+00  0.23303059977E+03  0.73677690750E+03  0.69895418376E+03 0.  0.
        1    1    3    3  502    0  0.17403669999E+03  0.30098453400E+03  0.79190532289E+02  0.35658323444E+03  0.50400001928E-02 0. -1.
       -1    1    3    3    0  502 -0.17403669999E+03 -0.30098453400E+03  0.15384006748E+03  0.38019367306E+03  0.50400001928E-02 0.  1.
</event>
<event>
 5   0  0.1197259E-02  0.6987873E+03  0.7818609E-02  0.9719308E-01
       -1   -1    0    0    0  501  0.00000000000E+00  0.00000000000E+00  0.12024865533E+03  0.12024865543E+03  0.50400001928E-02 0.  1.
        1   -1    0    0  501    0  0.00000000000E+00  0.00000000000E+00 -0.10151956138E+04  0.10151956138E+04  0.50400001928E-02 0. -1.
    10030    2    1    2    0    0  0.00000000000E+00  0.00000000000E+00 -0.89494695845E+03  0.11354442692E+04  0.69878725666E+03 0.  0.
        3    1    3    3  502    0 -0.29083932699E+03  0.19360039136E+03 -0.45185512767E+03  0.57117571049E+03  0.10100000352E+00 0. -1.
       -3    1    3    3    0  502  0.29083932699E+03 -0.19360039136E+03 -0.44309183079E+03  0.56426855873E+03  0.10100000352E+00 0.  1.
</event>
<event>
 5   0  0.1973067E-02  0.7015195E+03  0.7818609E-02  0.9714637E-01
       -2   -1    0    0    0  501  0.00000000000E+00  0.00000000000E+00  0.22953219225E+03  0.22953219227E+03  0.25500000920E-02 0. -1.
        2   -1    0    0  501    0  0.00000000000E+00  0.00000000000E+00 -0.53601377153E+03  0.53601377154E+03  0.25500000920E-02 0.  1.
    10030    2    1    2    0    0  0.00000000000E+00  0.00000000000E+00 -0.30648157928E+03  0.76554596380E+03  0.70151953947E+03 0.  0.
        5    1    3    3  502    0  0.36848928461E+01 -0.32169303497E+03 -0.30566849281E+03  0.44379646762E+03  0.46999998093E+01 0.  1.
       -5    1    3    3    0  502 -0.36848928461E+01  0.32169303497E+03 -0.81308647273E+00  0.32174949618E+03  0.46999998093E+01 0. -1.
</event>
<event>
 5   0  0.2006362E-02  0.6970142E+03  0.7818609E-02  0.9722352E-01
        2   -1    0    0  501    0  0.00000000000E+00  0.00000000000E+00  0.50920937871E+03  0.50920937872E+03  0.25500000920E-02 0.  1.
       -2   -1    0    0    0  501  0.00000000000E+00  0.00000000000E+00 -0.23852113545E+03  0.23852113547E+03  0.25500000920E-02 0. -1.
    10030    2    1    2    0    0  0.00000000000E+00  0.00000000000E+00  0.27068824326E+03  0.74773051418E+03  0.69701420129E+03 0.  0.
        4    1    3    3  502    0  0.31720479078E+03  0.86084706370E+02  0.11041895380E+02  0.32886622252E+03  0.12699999809E+01 0. -1.
       -4    1    3    3    0  502 -0.31720479078E+03 -0.86084706370E+02  0.25964634788E+03  0.41886429166E+03  0.12699999809E+01 0.  1.
</event>
<event>
 5   0  0.1237686E-02  0.7411803E+03  0.7818609E-02  0.9649290E-01
       -1   -1    0    0    0  501  0.00000000000E+00  0.00000000000E+00  0.49325319161E+03  0.49325319163E+03  0.50400001928E-02 0.  1.
        1   -1    0    0  501    0  0.00000000000E+00  0.00000000000E+00 -0.27843112763E+03  0.27843112768E+03  0.50400001928E-02 0. -1.
    10030    2    1    2    0    0  0.00000000000E+00  0.00000000000E+00  0.21482206398E+03  0.77168431931E+03  0.74118025439E+03 0.  0.
        5    1    3    3  502    0  0.18112265821E+02  0.27702820565E+03  0.36295551187E+03  0.45698082508E+03  0.46999998093E+01 0.  1.
       -5    1    3    3    0  502 -0.18112265821E+02 -0.27702820565E+03 -0.14813344789E+03  0.31470349423E+03  0.46999998093E+01 0. -1.
</event>
<event>
 5   0  0.1237686E-02  0.7033230E+03  0.7818609E-02  0.9711566E-01
       -1   -1    0    0    0  501  0.00000000000E+00  0.00000000000E+00  0.12329531553E+03  0.12329531563E+03  0.50400001928E-02 0. -1.
        1   -1    0    0  501    0  0.00000000000E+00  0.00000000000E+00 -0.10030049238E+04  0.10030049238E+04  0.50400001928E-02 0.  1.
    10030    2    1    2    0    0  0.00000000000E+00  0.00000000000E+00 -0.87970960831E+03  0.11263002395E+04  0.70332299445E+03 0.  0.
        5    1    3    3  502    0 -0.28637318764E+03 -0.14405592525E+03 -0.67126658930E+03  0.74389692573E+03  0.46999998093E+01 0.  1.
       -5    1    3    3    0  502  0.28637318764E+03  0.14405592525E+03 -0.20844301901E+03  0.38240331375E+03  0.46999998093E+01 0. -1.
</event>
<event>
 5   0  0.1909053E-02  0.7001847E+03  0.7818609E-02  0.9716916E-01
       -2   -1    0    0    0  501  0.00000000000E+00  0.00000000000E+00  0.10898097244E+03  0.10898097247E+03  0.25500000920E-02 0. -1.
        2   -1    0    0  501    0  0.00000000000E+00  0.00000000000E+00 -0.11246428048E+04  0.11246428048E+04  0.25500000920E-02 0.  1.
    10030    2    1    2    0    0  0.00000000000E+00  0.00000000000E+00 -0.10156618324E+04  0.12336237773E+04  0.70018473717E+03 0.  0.
        1    1    3    3  502    0  0.32312237280E+03  0.11341577787E+02 -0.74439209356E+03  0.81157642165E+03  0.50400001928E-02 0.  1.
       -1    1    3    3    0  502 -0.32312237280E+03 -0.11341577787E+02 -0.27126973882E+03  0.42204735566E+03  0.50400001928E-02 0. -1.
</event>
<event>
 5   0  0.2006362E-02  0.6988976E+03  0.7818609E-02  0.9719119E-01
        2   -1    0    0  501    0  0.00000000000E+00  0.00000000000E+00  0.31400222750E+03  0.31400222751E+03  0.25500000920E-02 0. -1.
       -2   -1    0    0    0  501  0.00000000000E+00  0.00000000000E+00 -0.38889675658E+03  0.38889675659E+03  0.25500000920E-02 0.  1.
    10030    2    1    2    0    0  0.00000000000E+00  0.00000000000E+00 -0.74894529084E+02  0.70289898410E+03  0.69889755427E+03 0.  0.
        4    1    3    3  502    0 -0.19399927340E+03 -0.17120740389E+03  0.19877006965E+03  0.32628031923E+03  0.12699999809E+01 0. -1.
       -4    1    3    3    0  502  0.19399927340E+03  0.17120740389E+03 -0.27366459874E+03  0.37661866487E+03  0.12699999809E+01 0.  1.
</event>
<event>
 5   0  0.2006362E-02  0.6995056E+03  0.7818609E-02  0.9718078E-01
       -2   -1    0    0    0  501  0.00000000000E+00  0.00000000000E+00  0.16044585352E+03  0.16044585354E+03  0.25500000920E-02 0.  1.
        2   -1    0    0  501    0  0.00000000000E+00  0.00000000000E+00 -0.76241935326E+03  0.76241935327E+03  0.25500000920E-02 0. -1.
    10030    2    1    2    0    0  0.00000000000E+00  0.00000000000E+00 -0.60197349975E+03  0.92286520680E+03  0.69950560794E+03 0.  0.
        4    1    3    3  502    0  0.18731891587E+03  0.72843037932E+02 -0.67862067741E+03  0.70775851894E+03  0.12699999809E+01 0. -1.
       -4    1    3    3    0  502 -0.18731891587E+03 -0.72843037932E+02  0.76647177668E+02  0.21510668786E+03  0.12699999809E+01 0.  1.
</event>
<event>
 5   0  0.1226303E-02  0.7029701E+03  0.7818609E-02  0.9712166E-01
       -1   -1    0    0    0  501  0.00000000000E+00  0.00000000000E+00  0.67612936077E+02  0.67612936264E+02  0.50400001928E-02 0.  1.
        1   -1    0    0  501    0  0.00000000000E+00  0.00000000000E+00 -0.18271909146E+04  0.18271909146E+04  0.50400001928E-02 0. -1.
    10030    2    1    2    0    0  0.00000000000E+00  0.00000000000E+00 -0.17595779785E+04  0.18948038508E+04  0.70297010659E+03 0.  0.
        4    1    3    3  502    0 -0.15073897387E+03 -0.10452042741E+03 -0.71640367282E+02  0.19692819278E+03  0.12699999809E+01 0.  1.
       -4    1    3    3    0  502  0.15073897387E+03  0.10452042741E+03 -0.16879376112E+04  0.16978756581E+04  0.12699999809E+01 0. -1.
</event>
<event>
 5   0  0.1197259E-02  0.6995275E+03  0.7818609E-02  0.9718041E-01
        1   -1    0    0  501    0  0.00000000000E+00  0.00000000000E+00  0.73726656166E+03  0.73726656168E+03  0.50400001928E-02 0.  1.
       -1   -1    0    0    0  501  0.00000000000E+00  0.00000000000E+00 -0.16593003456E+03  0.16593003464E+03  0.50400001928E-02 0. -1.
    10030    2    1    2    0    0  0.00000000000E+00  0.00000000000E+00  0.57133652710E+03  0.90319659631E+03  0.69952745793E+03 0.  0.
        3    1    3    3  502    0 -0.12300685749E+03  0.16433485168E+03  0.65131303192E+03  0.68289479879E+03  0.10100000352E+00 0.  1.
       -3    1    3    3    0  502  0.12300685749E+03 -0.16433485168E+03 -0.79976504821E+02  0.22030179752E+03  0.10100000352E+00 0. -1.
</event>
<event>
 5   0  0.1257442E-02  0.7011235E+03  0.7818609E-02  0.9715313E-01
        1   -1    0    0  501    0  0.00000000000E+00  0.00000000000E+00  0.91291262921E+03  0.91291262922E+03  0.50400001928E-02 0.  1.
       -1   -1    0    0    0  501  0.00000000000E+00  0.00000000000E+00 -0.13461698636E+03  0.13461698646E+03  0.50400001928E-02 0. -1.
    10030    2    1    2    0    0  0.00000000000E+00  0.00000000000E+00  0.77829564284E+03  0.10475296157E+04  0.70112351840E+03 0.  0.
        1    1    3    3  502    0 -0.20058986673E+03 -0.41798190450E+02  0.81413254045E+03  0.83952080189E+03  0.50400001928E-02 0.  1.
       -1    1    3    3    0  502  0.20058986673E+03  0.41798190450E+02 -0.35836897607E+02  0.20800881379E+03  0.50400001928E-02 0. -1.
</event>
<event>
 5   0  0.2006362E-02  0.6992127E+03  0.7818609E-02  0.9718580E-01
       -2   -1    0    0    0  501  0.00000000000E+00  0.00000000000E+00  0.78437418686E+02  0.78437418728E+02  0.25500000920E-02 0. -1.
        2   -1    0    0  501    0  0.00000000000E+00  0.00000000000E+00 -0.15582434390E+04  0.15582434390E+04  0.25500000920E-02 0.  1.
    10030    2    1    2    0    0  0.00000000000E+00  0.00000000000E+00 -0.14798060203E+04  0.16366808577E+04  0.69921268030E+03 0.  0.
        4    1    3    3  502    0  0.34760922630E+03  0.34185140127E+01 -0.65297580990E+03  0.73974514643E+03  0.12699999809E+01 0. -1.
       -4    1    3    3    0  502 -0.34760922630E+03 -0.34185140127E+01 -0.82683021036E+03  0.89693571125E+03  0.12699999809E+01 0.  1.
</event>
<event>
 5   0  0.1226303E-02  0.7005917E+03  0.7818609E-02  0.9716221E-01
       -1   -1    0    0    0  501  0.00000000000E+00  0.00000000000E+00  0.61584324825E+02  0.61584325031E+02  0.50400001928E-02 0.  1.
        1   -1    0    0  501    0  0.00000000000E+00  0.00000000000E+00 -0.19925066732E+04  0.19925066732E+04  0.50400001928E-02 0. -1.
    10030    2    1    2    0    0  0.00000000000E+00  0.00000000000E+00 -0.19309223484E+04  0.20540909983E+04  0.70059168821E+03 0.  0.
        4    1    3    3  502    0 -0.14664972632E+03 -0.49600880342E+02 -0.18867577308E+04  0.18930987130E+04  0.12699999809E+01 0. -1.
       -4    1    3    3    0  502  0.14664972632E+03  0.49600880342E+02 -0.44164617590E+02  0.16099228524E+03  0.12699999809E+01 0.  1.
</event>
<event>
 5   0  0.7947250E-03  0.6984644E+03  0.7818609E-02  0.9719862E-01
        3   -1    0    0  501    0  0.00000000000E+00  0.00000000000E+00  0.42972079769E+03  0.42972080956E+03  0.10100000352E+00 0.  1.
       -3   -1    0    0    0  501  0.00000000000E+00  0.00000000000E+00 -0.28381948516E+03  0.28381950313E+03  0.10100000352E+00 0. -1.
    10030    2    1    2    0    0  0.00000000000E+00  0.00000000000E+00  0.14590131254E+03  0.71354031269E+03  0.69846444780E+03 0.  0.
        5    1    3    3  502    0 -0.14332755079E+03 -0.18600525068E+02 -0.25179794466E+03  0.29036711467E+03  0.46999998093E+01 0. -1.
       -5    1    3    3    0  502  0.14332755079E+03  0.18600525068E+02  0.39769925720E+03  0.42317319802E+03  0.46999998093E+01 0.  1.
</event>
<event>
 5   0  0.1909053E-02  0.6968151E+03  0.7818609E-02  0.9722694E-01
        2   -1    0    0  501    0  0.00000000000E+00  0.00000000000E+00  0.14084119032E+04  0.14084119033E+04  0.25500000920E-02 0.  1.
       -2   -1    0    0    0  501  0.00000000000E+00  0.00000000000E+00 -0.86187734044E+02  0.86187734082E+02  0.25500000920E-02 0. -1.
    10030    2    1    2    0    0  0.00000000000E+00  0.00000000000E+00  0.13222241692E+04  0.14945996373E+04  0.69681512777E+03 0.  0.
        1    1    3    3  502    0 -0.55733967111E+02 -0.83620012512E+02 -0.54427900760E+02  0.11428463584E+03  0.50400001928E-02 0. -1.
       -1    1    3    3    0  502  0.55733967111E+02  0.83620012512E+02  0.13766520700E+04  0.13803150015E+04  0.50400001928E-02 0.  1.
</event>
<event>
 5   0  0.1237686E-02  0.7010623E+03  0.7818609E-02  0.9715417E-01
       -1   -1    0    0    0  501  0.00000000000E+00  0.00000000000E+00  0.17029025222E+03  0.17029025230E+03  0.50400001928E-02 0. -1.
        1   -1    0    0  501    0  0.00000000000E+00  0.00000000000E+00 -0.72154495776E+03  0.72154495778E+03  0.50400001928E-02 0.  1.
    10030    2    1    2    0    0  0.00000000000E+00  0.00000000000E+00 -0.55125470554E+03  0.89183521008E+03  0.70106225940E+03 0.  0.
        5    1    3    3  502    0 -0.85348564330E+02 -0.26862821874E+03 -0.54065753362E+03  0.60973613637E+03  0.46999998093E+01 0.  1.
       -5    1    3    3    0  502  0.85348564330E+02  0.26862821874E+03 -0.10597171914E+02  0.28209907371E+03  0.46999998093E+01 0. -1.
</event>
<event>
 5   0  0.1948138E-02  0.7011841E+03  0.7818609E-02  0.9715209E-01
        2   -1    0    0  501    0  0.00000000000E+00  0.00000000000E+00  0.25295571295E+03  0.25295571297E+03  0.25500000920E-02 0. -1.
       -2   -1    0    0    0  501  0.00000000000E+00  0.00000000000E+00 -0.48591421700E+03  0.48591421701E+03  0.25500000920E-02 0.  1.
    10030    2    1    2    0    0  0.00000000000E+00  0.00000000000E+00 -0.23295850405E+03  0.73886992997E+03  0.70118407627E+03 0.  0.
        3    1    3    3  502    0 -0.21589887769E+03 -0.14018551535E+02  0.17422084240E+03  0.27778005202E+03  0.10100000352E+00 0. -1.
       -3    1    3    3    0  502  0.21589887769E+03  0.14018551535E+02 -0.40717934645E+03  0.46108987795E+03  0.10100000352E+00 0.  1.
</event>
<event>
 5   0  0.1909053E-02  0.6982971E+03  0.7818609E-02  0.9720149E-01
       -2   -1    0    0    0  501  0.00000000000E+00  0.00000000000E+00  0.10953242886E+03  0.10953242889E+03  0.25500000920E-02 0. -1.
        2   -1    0    0  501    0  0.00000000000E+00  0.00000000000E+00 -0.11129554894E+04  0.11129554894E+04  0.25500000920E-02 0.  1.
    10030    2    1    2    0    0  0.00000000000E+00  0.00000000000E+00 -0.10034230606E+04  0.12224879183E+04  0.69829712297E+03 0.  0.
        1    1    3    3  502    0  0.18021080312E+03  0.16957752706E+03 -0.70491067144E+02  0.25729644735E+03  0.50400001928E-02 0. -1.
       -1    1    3    3    0  502 -0.18021080312E+03 -0.16957752706E+03 -0.93293199343E+03  0.96519147097E+03  0.50400001928E-02 0.  1.
</event>
<event>
 5   0  0.1237686E-02  0.7008387E+03  0.7818609E-02  0.9715799E-01
       -1   -1    0    0    0  501  0.00000000000E+00  0.00000000000E+00  0.10804650327E+03  0.10804650339E+03  0.50400001928E-02 0.  1.
        1   -1    0    0  501    0  0.00000000000E+00  0.00000000000E+00 -0.11364894400E+04  0.11364894400E+04  0.50400001928E-02 0. -1.
    10030    2    1    2    0    0  0.00000000000E+00  0.00000000000E+00 -0.10284429367E+04  0.12445359434E+04  0.70083866925E+03 0.  0.
        5    1    3    3  502    0  0.23219029529E+01  0.15758411644E+03 -0.10699401162E+04  0.10814953015E+04  0.46999998093E+01 0. -1.
       -5    1    3    3    0  502 -0.23219029529E+01 -0.15758411644E+03  0.41497179502E+02  0.16304064184E+03  0.46999998093E+01 0.  1.
</event>
<event>
 5   0  0.1223742E-02  0.6982249E+03  0.7818609E-02  0.9720273E-01
        1   -1    0    0  501    0  0.00000000000E+00  0.00000000000E+00  0.61061462477E+03  0.61061462479E+03  0.50400001928E-02 0. -1.
       -1   -1    0    0    0  501  0.00000000000E+00  0.00000000000E+00 -0.19960136284E+03  0.19960136291E+03  0.50400001928E-02 0.  1.
    10030    2    1    2    0    0  0.00000000000E+00  0.00000000000E+00  0.41101326193E+03  0.81021598770E+03  0.69822492454E+03 0.  0.
        2    1    3    3  502    0  0.10915799299E+03  0.32639755957E+03  0.13755987186E+03  0.37063938360E+03  0.25500000920E-02 0.  1.
       -2    1    3    3    0  502 -0.10915799299E+03 -0.32639755957E+03  0.27345339007E+03  0.43957660410E+03  0.25500000920E-02 0. -1.
</event>
<event>
 5   0  0.2026361E-02  0.7004478E+03  0.7818609E-02  0.9716467E-01
       -2   -1    0    0    0  501  0.00000000000E+00  0.00000000000E+00  0.20566017333E+04  0.20566017333E+04  0.25500000920E-02 0. -1.
        2   -1    0    0  501    0  0.00000000000E+00  0.00000000000E+00 -0.59640509463E+02  0.59640509518E+02  0.25500000920E-02 0.  1.
    10030    2    1    2    0    0  0.00000000000E+00  0.00000000000E+00  0.19969612238E+04  0.21162422428E+04  0.70044778590E+03 0.  0.
        2    1    3    3  502    0 -0.89650550372E+02  0.17567055380E+03  0.18728731011E+04  0.18832288808E+04  0.25500000920E-02 0. -1.
       -2    1    3    3    0  502  0.89650550372E+02 -0.17567055380E+03  0.12408812267E+03  0.23301336195E+03  0.25500000920E-02 0.  1.
</event>
<event>
 5   0  0.2026361E-02  0.7101969E+03  0.7818609E-02  0.9699951E-01
       -2   -1    0    0    0  501  0.00000000000E+00  0.00000000000E+00  0.11204203215E+03  0.11204203218E+03  0.25500000920E-02 0.  1.
        2   -1    0    0  501    0  0.00000000000E+00  0.00000000000E+00 -0.11254251148E+04  0.11254251148E+04  0.25500000920E-02 0. -1.
    10030    2    1    2    0    0  0.00000000000E+00  0.00000000000E+00 -0.10133830827E+04  0.12374671470E+04  0.71019692175E+03 0.  0.
        2    1    3    3  502    0  0.23183710797E+03 -0.45728300320E+02 -0.44848151983E+02  0.24052209633E+03  0.25500000920E-02 0.  1.
       -2    1    3    3    0  502 -0.23183710797E+03  0.45728300320E+02 -0.96853493071E+03  0.99694505069E+03  0.25500000920E-02 0. -1.
</event>
<event>
 5   0  0.1257442E-02  0.7011997E+03  0.7818609E-02  0.9715183E-01
       -1   -1    0    0    0  501  0.00000000000E+00  0.00000000000E+00  0.56415228878E+03  0.56415228880E+03  0.50400001928E-02 0. -1.
        1   -1    0    0  501    0  0.00000000000E+00  0.00000000000E+00 -0.21788490029E+03  0.21788490035E+03  0.50400001928E-02 0.  1.
    10030    2    1    2    0    0  0.00000000000E+00  0.00000000000E+00  0.34626738848E+03  0.78203718915E+03  0.70119972967E+03 0.  0.
        1    1    3    3  502    0  0.41869623300E+02 -0.34226132257E+03  0.10238221406E+03  0.35969152904E+03  0.50400001928E-02 0.  1.
       -1    1    3    3    0  502 -0.41869623300E+02  0.34226132257E+03  0.24388517442E+03  0.42234566011E+03  0.50400001928E-02 0. -1.
</event>
<event>
 5   0  0.1223742E-02  0.7068613E+03  0.7818609E-02  0.9705570E-01
       -1   -1    0    0    0  501  0.00000000000E+00  0.00000000000E+00  0.31245519588E+03  0.31245519592E+03  0.50400001928E-02 0.  1.
        1   -1    0    0  501    0  0.00000000000E+00  0.00000000000E+00 -0.39977964063E+03  0.39977964066E+03  0.50400001928E-02 0. -1.
    10030    2    1    2    0    0  0.00000000000E+00  0.00000000000E+00 -0.87324444745E+02  0.71223483658E+03  0.70686130449E+03 0.  0.
        2    1    3    3  502    0 -0.13069238106E+03  0.21874974799E+03 -0.29043477386E+03  0.38637327623E+03  0.25500000920E-02 0. -1.
       -2    1    3    3    0  502  0.13069238106E+03 -0.21874974799E+03  0.20311032912E+03  0.32586156035E+03  0.25500000920E-02 0.  1.
</event>
<event>
 5   0  0.1909053E-02  0.6971146E+03  0.7818609E-02  0.9722179E-01
        2   -1    0    0  501    0  0.00000000000E+00  0.00000000000E+00  0.79441768867E+03  0.79441768868E+03  0.25500000920E-02 0.  1.
       -2   -1    0    0    0  501  0.00000000000E+00  0.00000000000E+00 -0.15293240545E+03  0.15293240547E+03  0.25500000920E-02 0. -1.
    10030    2    1    2    0    0  0.00000000000E+00  0.00000000000E+00  0.64148528323E+03  0.94735009415E+03  0.69711464788E+03 0.  0.
        1    1    3    3  502    0 -0.43899925605E+01  0.44355865786E+02 -0.14904352958E+03  0.15556570509E+03  0.50400001928E-02 0. -1.
       -1    1    3    3    0  502  0.43899925605E+01 -0.44355865786E+02  0.79052881280E+03  0.79178438906E+03  0.50400001928E-02 0.  1.
</event>
<event>
 5   0  0.1226303E-02  0.6983236E+03  0.7818609E-02  0.9720103E-01
       -1   -1    0    0    0  501  0.00000000000E+00  0.00000000000E+00  0.35994286208E+03  0.35994286211E+03  0.50400001928E-02 0.  1.
        1   -1    0    0  501    0  0.00000000000E+00  0.00000000000E+00 -0.33870365415E+03  0.33870365419E+03  0.50400001928E-02 0. -1.
    10030    2    1    2    0    0  0.00000000000E+00  0.00000000000E+00  0.21239207925E+02  0.69864651631E+03  0.69832360034E+03 0.  0.
        4    1    3    3  502    0  0.21068525422E+03 -0.22796297158E+03 -0.14931975453E+03  0.34446102065E+03  0.12699999809E+01 0. -1.
       -4    1    3    3    0  502 -0.21068525422E+03  0.22796297158E+03  0.17055896245E+03  0.35418549565E+03  0.12699999809E+01 0.  1.
</event>
<event>
 5   0  0.1909053E-02  0.6851091E+03  0.7818609E-02  0.9743042E-01
       -2   -1    0    0    0  501  0.00000000000E+00  0.00000000000E+00  0.80679008968E+02  0.80679009008E+02  0.25500000920E-02 0.  1.
        2   -1    0    0  501    0  0.00000000000E+00  0.00000000000E+00 -0.14544505393E+04  0.14544505393E+04  0.25500000920E-02 0. -1.
    10030    2    1    2    0    0  0.00000000000E+00  0.00000000000E+00 -0.13737715304E+04  0.15351295484E+04  0.68510912456E+03 0.  0.
        1    1    3    3  502    0  0.39153302792E+01  0.33956860530E+03 -0.58614205988E+03  0.67741027590E+03  0.50400001928E-02 0.  1.
       -1    1    3    3    0  502 -0.39153302792E+01 -0.33956860530E+03 -0.78762947050E+03  0.85771927246E+03  0.50400001928E-02 0. -1.
</event>
<event>
 5   0  0.1257442E-02  0.7105468E+03  0.7818609E-02  0.9699364E-01
       -1   -1    0    0    0  501  0.00000000000E+00  0.00000000000E+00  0.80215389898E+02  0.80215390056E+02  0.50400001928E-02 0. -1.
        1   -1    0    0  501    0  0.00000000000E+00  0.00000000000E+00 -0.15735032606E+04  0.15735032606E+04  0.50400001928E-02 0.  1.
    10030    2    1    2    0    0  0.00000000000E+00  0.00000000000E+00 -0.14932878707E+04  0.16537186507E+04  0.71054676888E+03 0.  0.
        1    1    3    3  502    0 -0.20956128291E+03 -0.20453392027E+03 -0.12148433277E+04  0.12496376942E+04  0.50400001928E-02 0.  1.
       -1    1    3    3    0  502  0.20956128291E+03  0.20453392027E+03 -0.27844454298E+03  0.40408095646E+03  0.50400001928E-02 0. -1.
</event>
<event>
 5   0  0.2006362E-02  0.6976853E+03  0.7818609E-02  0.9721199E-01
       -2   -1    0    0    0  501  0.00000000000E+00  0.00000000000E+00  0.80288090382E+02  0.80288090423E+02  0.25500000920E-02 0.  1.
        2   -1    0    0  501    0  0.00000000000E+00  0.00000000000E+00 -0.15156818544E+04  0.15156818544E+04  0.25500000920E-02 0. -1.
    10030    2    1    2    0    0  0.00000000000E+00  0.00000000000E+00 -0.14353937640E+04  0.15959699449E+04  0.69768532091E+03 0.  0.
        4    1    3    3  502    0 -0.19047632190E+03  0.28782383602E+03 -0.83356833268E+03  0.90219818661E+03  0.12699999809E+01 0.  1.
       -4    1    3    3    0  502  0.19047632190E+03 -0.28782383602E+03 -0.60182543137E+03  0.69377175824E+03  0.12699999809E+01 0. -1.
</event>
<event>
 5   0  0.1237686E-02  0.7029605E+03  0.7818609E-02  0.9712183E-01
       -1   -1    0    0    0  501  0.00000000000E+00  0.00000000000E+00  0.74589046710E+02  0.74589046880E+02  0.50400001928E-02 0.  1.
        1   -1    0    0  501    0  0.00000000000E+00  0.00000000000E+00 -0.16562533030E+04  0.16562533030E+04  0.50400001928E-02 0. -1.
    10030    2    1    2    0    0  0.00000000000E+00  0.00000000000E+00 -0.15816642563E+04  0.17308423499E+04  0.70296046869E+03 0.  0.
        5    1    3    3  502    0  0.12284240562E+03  0.27948895500E+03 -0.36215192990E+03  0.47368812832E+03  0.46999998093E+01 0. -1.
       -5    1    3    3    0  502 -0.12284240562E+03 -0.27948895500E+03 -0.12195123264E+04  0.12571542216E+04  0.46999998093E+01 0.  1.
</event>
<event>
 5   0  0.1948138E-02  0.6921524E+03  0.7818609E-02  0.9730748E-01
       -2   -1    0    0    0  501  0.00000000000E+00  0.00000000000E+00  0.86229362847E+02  0.86229362884E+02  0.25500000920E-02 0.  1.
        2   -1    0    0  501    0  0.00000000000E+00  0.00000000000E+00 -0.13889552718E+04  0.13889552718E+04  0.25500000920E-02 0. -1.
    10030    2    1    2    0    0  0.00000000000E+00  0.00000000000E+00 -0.13027259090E+04  0.14751846347E+04  0.69215237670E+03 0.  0.
        3    1    3    3  502    0  0.19091864730E+03  0.30083298290E+02 -0.12632124287E+04  0.12779125889E+04  0.10100000352E+00 0. -1.
       -3    1    3    3    0  502 -0.19091864730E+03 -0.30083298290E+02 -0.39513480285E+02  0.19727204579E+03  0.10100000352E+00 0.  1.
</event>
<event>
 5   0  0.2026361E-02  0.6963342E+03  0.7818609E-02  0.9723522E-01
        2   -1    0    0  501    0  0.00000000000E+00  0.00000000000E+00  0.62940525652E+03  0.62940525652E+03  0.25500000920E-02 0.  1.
       -2   -1    0    0    0  501  0.00000000000E+00  0.00000000000E+00 -0.19259506155E+03  0.19259506157E+03  0.25500000920E-02 0. -1.
    10030    2    1    2    0    0  0.00000000000E+00  0.00000000000E+00  0.43681019497E+03  0.82200031809E+03  0.69633424195E+03 0.  0.
        2    1    3    3  502    0  0.15561317682E+03  0.28084519865E+03  0.37735615019E+03  0.49546659877E+03  0.25500000920E-02 0.  1.
       -2    1    3    3    0  502 -0.15561317682E+03 -0.28084519865E+03  0.59454044781E+02  0.32653371932E+03  0.25500000920E-02 0. -1.
</event>
<event>
 5   0  0.1909053E-02  0.6973764E+03  0.7818609E-02  0.9721729E-01
        2   -1    0    0  501    0  0.00000000000E+00  0.00000000000E+00  0.70426441411E+03  0.70426441412E+03  0.25500000920E-02 0.  1.
       -2   -1    0    0    0  501  0.00000000000E+00  0.00000000000E+00 -0.17263893183E+03  0.17263893185E+03  0.25500000920E-02 0. -1.
    10030    2    1    2    0    0  0.00000000000E+00  0.00000000000E+00  0.53162548229E+03  0.87690334596E+03  0.69737638671E+03 0.  0.
        1    1    3    3  502    0  0.54959834081E+02  0.28419224374E+03  0.21347657091E+02  0.29024392716E+03  0.50400001928E-02 0. -1.
       -1    1    3    3    0  502 -0.54959834081E+02 -0.28419224374E+03  0.51027782519E+03  0.58665941881E+03  0.50400001928E-02 0.  1.
</event>
<event>
 5   0  0.1223742E-02  0.7120259E+03  0.7818609E-02  0.9696885E-01
        1   -1    0    0  501    0  0.00000000000E+00  0.00000000000E+00  0.63494544486E+03  0.63494544488E+03  0.50400001928E-02 0.  1.
       -1   -1    0    0    0  501  0.00000000000E+00  0.00000000000E+00 -0.19961591024E+03  0.19961591030E+03  0.50400001928E-02 0. -1.
    10030    2    1    2    0    0  0.00000000000E+00  0.00000000000E+00  0.43532953462E+03  0.83456135518E+03  0.71202587864E+03 0.  0.
        2    1    3    3  502    0  0.10775096892E+03  0.14698542116E+03  0.57612294105E+03  0.60426205288E+03  0.25500000920E-02 0.  1.
       -2    1    3    3    0  502 -0.10775096892E+03 -0.14698542116E+03 -0.14079340644E+03  0.23029930230E+03  0.25500000920E-02 0. -1.
</event>
<event>
 5   0  0.2026361E-02  0.6922945E+03  0.7818609E-02  0.9730501E-01
       -2   -1    0    0    0  501  0.00000000000E+00  0.00000000000E+00  0.14607416168E+03  0.14607416170E+03  0.25500000920E-02 0. -1.
        2   -1    0    0  501    0  0.00000000000E+00  0.00000000000E+00 -0.82025395067E+03  0.82025395067E+03  0.25500000920E-02 0.  1.
    10030    2    1    2    0    0  0.00000000000E+00  0.00000000000E+00 -0.67417978899E+03  0.96632811237E+03  0.69229446977E+03 0.  0.
        2    1    3    3  502    0 -0.10140091379E+03  0.78610368475E+02  0.11165752236E+03  0.17008567740E+03  0.25500000920E-02 0. -1.
       -2    1    3    3    0  502  0.10140091379E+03 -0.78610368475E+02 -0.78583731135E+03  0.79624243498E+03  0.25500000920E-02 0.  1.
</event>
<event>
 5   0  0.1197259E-02  0.7085866E+03  0.7818609E-02  0.9702660E-01
        1   -1    0    0  501    0  0.00000000000E+00  0.00000000000E+00  0.45528019126E+03  0.45528019129E+03  0.50400001928E-02 0. -1.
       -1   -1    0    0    0  501  0.00000000000E+00  0.00000000000E+00 -0.27570654736E+03  0.27570654741E+03  0.50400001928E-02 0.  1.
    10030    2    1    2    0    0  0.00000000000E+00  0.00000000000E+00  0.17957364390E+03  0.73098673869E+03  0.70858656392E+03 0.  0.
        3    1    3    3  502    0 -0.44561823672E+02 -0.20842652619E+02  0.45173956198E+03  0.45441040300E+03  0.10100000352E+00 0. -1.
       -3    1    3    3    0  502  0.44561823672E+02  0.20842652619E+02 -0.27216591808E+03  0.27657633569E+03  0.10100000352E+00 0.  1.
</event>
<event>
 5   0  0.1223742E-02  0.6984360E+03  0.7818609E-02  0.9719911E-01
        1   -1    0    0  501    0  0.00000000000E+00  0.00000000000E+00  0.50394477561E+03  0.50394477564E+03  0.50400001928E-02 0. -1.
       -1   -1    0    0    0  501  0.00000000000E+00  0.00000000000E+00 -0.24199714194E+03  0.24199714199E+03  0.50400001928E-02 0.  1.
    10030    2    1    2    0    0  0.00000000000E+00  0.00000000000E+00  0.26194763367E+03  0.74594191763E+03  0.69843595390E+03 0.  0.
        2    1    3    3  502    0  0.60681067758E+02 -0.22280653775E+03 -0.14881470110E+03  0.27471942144E+03  0.25500000920E-02 0.  1.
       -2    1    3    3    0  502 -0.60681067758E+02  0.22280653775E+03  0.41076233477E+03  0.47122249619E+03  0.25500000920E-02 0. -1.
</event>
<event>
 5   0  0.1223742E-02  0.7014144E+03  0.7818609E-02  0.9714816E-01
        1   -1    0    0  501    0  0.00000000000E+00  0.00000000000E+00  0.18891958735E+04  0.18891958735E+04  0.50400001928E-02 0.  1.
       -1   -1    0    0    0  501  0.00000000000E+00  0.00000000000E+00 -0.65104710693E+02  0.65104710889E+02  0.50400001928E-02 0. -1.
    10030    2    1    2    0    0  0.00000000000E+00  0.00000000000E+00  0.18240911628E+04  0.19543005844E+04  0.70141443095E+03 0.  0.
        2    1    3    3  502    0  0.58927925467E+02 -0.14654135971E+02 -0.50346423330E+02  0.78879696054E+02  0.25500000920E-02 0. -1.
       -2    1    3    3    0  502 -0.58927925467E+02  0.14654135971E+02  0.18744375862E+04  0.18754208884E+04  0.25500000920E-02 0.  1.
</event>
<event>
 5   0  0.1237686E-02  0.7360818E+03  0.7818609E-02  0.9657442E-01
        1   -1    0    0  501    0  0.00000000000E+00  0.00000000000E+00  0.20770464330E+04  0.20770464330E+04  0.50400001928E-02 0. -1.
       -1   -1    0    0    0  501  0.00000000000E+00  0.00000000000E+00 -0.65214767804E+02  0.65214767999E+02  0.50400001928E-02 0.  1.
    10030    2    1    2    0    0  0.00000000000E+00  0.00000000000E+00  0.20118316652E+04  0.21422612010E+04  0.73608179182E+03 0.  0.
        5    1    3    3  502    0  0.42775331192E+02  0.56194188053E+02  0.20570525962E+04  0.20582699019E+04  0.46999998093E+01 0. -1.
       -5    1    3    3    0  502 -0.42775331192E+02 -0.56194188053E+02 -0.45220930961E+02  0.83991299101E+02  0.46999998093E+01 0.  1.
</event>
<event>
 5   0  0.1909053E-02  0.6994140E+03  0.7818609E-02  0.9718235E-01
        2   -1    0    0  501    0  0.00000000000E+00  0.00000000000E+00  0.22019677528E+03  0.22019677529E+03  0.25500000920E-02 0. -1.
       -2   -1    0    0    0  501  0.00000000000E+00  0.00000000000E+00 -0.55538954606E+03  0.55538954607E+03  0.25500000920E-02 0.  1.
    10030    2    1    2    0    0  0.00000000000E+00  0.00000000000E+00 -0.33519277079E+03  0.77558632136E+03  0.69941400350E+03 0.  0.
        1    1    3    3  502    0  0.29929092121E+02  0.34765914605E+03 -0.14201074166E+03  0.37673556132E+03  0.50400001928E-02 0.  1.
       -1    1    3    3    0  502 -0.29929092121E+02 -0.34765914605E+03 -0.19318202912E+03  0.39885076005E+03  0.50400001928E-02 0. -1.
</event>
<event>
 5   0  0.2006362E-02  0.6986744E+03  0.7818609E-02  0.9719502E-01
        2   -1    0    0  501    0  0.00000000000E+00  0.00000000000E+00  0.17477497645E+04  0.17477497645E+04  0.25500000920E-02 0. -1.
       -2   -1    0    0    0  501  0.00000000000E+00  0.00000000000E+00 -0.69824911181E+02  0.69824911228E+02  0.25500000920E-02 0.  1.
    10030    2    1    2    0    0  0.00000000000E+00  0.00000000000E+00  0.16779248533E+04  0.18175746757E+04  0.69867437943E+03 0.  0.
        4    1    3    3  502    0  0.49222018848E+02  0.20082923139E+03  0.15714468055E+04  0.15849927012E+04  0.12699999809E+01 0. -1.
       -4    1    3    3    0  502 -0.49222018848E+02 -0.20082923139E+03  0.10647804778E+03  0.23258197453E+03  0.12699999809E+01 0.  1.
</event>
<event>
 5   0  0.1948138E-02  0.7861835E+03  0.7818609E-02  0.9580234E-01
        2   -1    0    0  501    0  0.00000000000E+00  0.00000000000E+00  0.63943629606E+03  0.63943629607E+03  0.25500000920E-02 0.  1.
       -2   -1    0    0    0  501  0.00000000000E+00  0.00000000000E+00 -0.24165207859E+03  0.24165207861E+03  0.25500000920E-02 0. -1.
    10030    2    1    2    0    0  0.00000000000E+00  0.00000000000E+00  0.39778421747E+03  0.88108837467E+03  0.78618346480E+03 0.  0.
        3    1    3    3  502    0  0.43641038764E+02  0.85887037840E+02  0.62600103744E+03  0.63337069131E+03  0.10100000352E+00 0.  1.
       -3    1    3    3    0  502 -0.43641038764E+02 -0.85887037840E+02 -0.22821681997E+03  0.24771768337E+03  0.10100000352E+00 0. -1.
</event>
<event>
 5   0  0.7947250E-03  0.6977457E+03  0.7818609E-02  0.9721095E-01
       -4   -1    0    0    0  501  0.00000000000E+00  0.00000000000E+00  0.43001705543E+03  0.43001893082E+03  0.12699999809E+01 0.  1.
        4   -1    0    0  501    0  0.00000000000E+00  0.00000000000E+00 -0.28303667369E+03  0.28303952295E+03  0.12699999809E+01 0. -1.
    10030    2    1    2    0    0  0.00000000000E+00  0.00000000000E+00  0.14698038174E+03  0.71305845377E+03  0.69774574587E+03 0.  0.
        5    1    3    3  502    0  0.32291937889E+03  0.18514416892E+02 -0.60031196129E+02  0.32900690480E+03  0.46999998093E+01 0. -1.
       -5    1    3    3    0  502 -0.32291937889E+03 -0.18514416892E+02  0.20701157787E+03  0.38405154897E+03  0.46999998093E+01 0.  1.
</event>
<event>
 5   0  0.7947250E-03  0.6987600E+03  0.7818609E-02  0.9719355E-01
        4   -1    0    0  501    0  0.00000000000E+00  0.00000000000E+00  0.50904424961E+03  0.50904583385E+03  0.12699999809E+01 0.  1.
       -4   -1    0    0    0  501  0.00000000000E+00  0.00000000000E+00 -0.23979160773E+03  0.23979497084E+03  0.12699999809E+01 0. -1.
    10030    2    1    2    0    0  0.00000000000E+00  0.00000000000E+00  0.26925264187E+03  0.74884080469E+03  0.69876002004E+03 0.  0.
        2    1    3    3  502    0 -0.59009883194E+02 -0.67945888991E+02  0.49641262193E+03  0.50450401521E+03  0.25500000920E-02 0.  1.
       -2    1    3    3    0  502  0.59009883194E+02  0.67945888991E+02 -0.22715998006E+03  0.24433678948E+03  0.25500000920E-02 0. -1.
</event>
<event>
 5   0  0.1237686E-02  0.7004482E+03  0.7818609E-02  0.9716466E-01
       -1   -1    0    0    0  501  0.00000000000E+00  0.00000000000E+00  0.73079315284E+03  0.73079315286E+03  0.50400001928E-02 0.  1.
        1   -1    0    0  501    0  0.00000000000E+00  0.00000000000E+00 -0.16784082377E+03  0.16784082385E+03  0.50400001928E-02 0. -1.
    10030    2    1    2    0    0  0.00000000000E+00  0.00000000000E+00  0.56295232907E+03  0.89863397671E+03  0.70044821314E+03 0.  0.
        5    1    3    3  502    0 -0.19348063436E+03 -0.27269914991E+03  0.41502076193E+03  0.53297645827E+03  0.46999998093E+01 0.  1.
       -5    1    3    3    0  502  0.19348063436E+03  0.27269914991E+03  0.14793156714E+03  0.36565751844E+03  0.46999998093E+01 0. -1.
</event>
<event>
 5   0  0.1237686E-02  0.6964306E+03  0.7818609E-02  0.9723356E-01
       -1   -1    0    0    0  501  0.00000000000E+00  0.00000000000E+00  0.17862184805E+03  0.17862184812E+03  0.50400001928E-02 0. -1.
        1   -1    0    0  501    0  0.00000000000E+00  0.00000000000E+00 -0.67883005171E+03  0.67883005173E+03  0.50400001928E-02 0.  1.
    10030    2    1    2    0    0  0.00000000000E+00  0.00000000000E+00 -0.50020820366E+03  0.85745189985E+03  0.69643055185E+03 0.  0.
        5    1    3    3  502    0  0.83487270051E+02 -0.32121359087E+03 -0.37972358366E+03  0.50434153626E+03  0.46999998093E+01 0.  1.
       -5    1    3    3    0  502 -0.83487270051E+02  0.32121359087E+03 -0.12048462000E+03  0.35311036359E+03  0.46999998093E+01 0. -1.
</event>
<event>
 5   0  0.1226303E-02  0.6994309E+03  0.7818609E-02  0.9718206E-01
        1   -1    0    0  501    0  0.00000000000E+00  0.00000000000E+00  0.18362184020E+04  0.18362184020E+04  0.50400001928E-02 0. -1.
       -1   -1    0    0    0  501  0.00000000000E+00  0.00000000000E+00 -0.66604768938E+02  0.66604769129E+02  0.50400001928E-02 0.  1.
    10030    2    1    2    0    0  0.00000000000E+00  0.00000000000E+00  0.17696136330E+04  0.19028231711E+04  0.69943091888E+03 0.  0.
        4    1    3    3  502    0 -0.19536069424E+03 -0.15996454129E+03  0.22654616496E+03  0.33923330185E+03  0.12699999809E+01 0.  1.
       -4    1    3    3    0  502  0.19536069424E+03  0.15996454129E+03  0.15430674681E+04  0.15635898693E+04  0.12699999809E+01 0. -1.
</event>
<event>
 5   0  0.1257442E-02  0.6988488E+03  0.7818609E-02  0.9719203E-01
       -1   -1    0    0    0  501  0.00000000000E+00  0.00000000000E+00  0.49240113148E+03  0.49240113150E+03  0.50400001928E-02 0.  1.
        1   -1    0    0  501    0  0.00000000000E+00  0.00000000000E+00 -0.24796333557E+03  0.24796333562E+03  0.50400001928E-02 0. -1.
    10030    2    1    2    0    0  0.00000000000E+00  0.00000000000E+00  0.24443779591E+03  0.74036446713E+03  0.69884884497E+03 0.  0.
        1    1    3    3  502    0 -0.42197813033E+02 -0.13855164061E+03 -0.21466581678E+03  0.25895680231E+03  0.50400001928E-02 0. -1.
       -1    1    3    3    0  502  0.42197813033E+02  0.13855164061E+03  0.45910361269E+03  0.48140766482E+03  0.50400001928E-02 0.  1.
</event>
<event>
 5   0  0.2006362E-02  0.7015471E+03  0.7818609E-02  0.9714590E-01
       -2   -1    0    0    0  501  0.00000000000E+00  0.00000000000E+00  0.50702060249E+02  0.50702060313E+02  0.25500000920E-02 0. -1.
        2   -1    0    0  501    0  0.00000000000E+00  0.00000000000E+00 -0.24267666683E+04  0.24267666683E+04  0.25500000920E-02 0.  1.
    10030    2    1    2    0    0  0.00000000000E+00  0.00000000000E+00 -0.23760646081E+04  0.24774687286E+04  0.70154706159E+03 0.  0.
        4    1    3    3  502    0  0.14569472469E+03  0.13655149351E+03 -0.16961118792E+03  0.26199776937E+03  0.12699999809E+01 0. -1.
       -4    1    3    3    0  502 -0.14569472469E+03 -0.13655149351E+03 -0.22064534201E+04  0.22154709593E+04  0.12699999809E+01 0.  1.
</event>
<event>
 5   0  0.1973067E-02  0.6995926E+03  0.7818609E-02  0.9717929E-01
       -2   -1    0    0    0  501  0.00000000000E+00  0.00000000000E+00  0.43488096421E+03  0.43488096421E+03  0.25500000920E-02 0. -1.
        2   -1    0    0  501    0  0.00000000000E+00  0.00000000000E+00 -0.28135852285E+03  0.28135852287E+03  0.25500000920E-02 0.  1.
    10030    2    1    2    0    0  0.00000000000E+00  0.00000000000E+00  0.15352244135E+03  0.71623948708E+03  0.69959264065E+03 0.  0.
        5    1    3    3  502    0  0.13886177193E+03  0.87746534731E+02  0.39290232034E+03  0.42588304661E+03  0.46999998093E+01 0. -1.
       -5    1    3    3    0  502 -0.13886177193E+03 -0.87746534731E+02 -0.23937987899E+03  0.29035644047E+03  0.46999998093E+01 0.  1.
</event>
<event>
 5   0  0.1237686E-02  0.6144043E+03  0.7818609E-02  0.9875964E-01
       -1   -1    0    0    0  501  0.00000000000E+00  0.00000000000E+00  0.32316904158E+03  0.32316904162E+03  0.50400001928E-02 0.  1.
        1   -1    0    0  501    0  0.00000000000E+00  0.00000000000E+00 -0.29202415372E+03  0.29202415376E+03  0.50400001928E-02 0. -1.
    10030    2    1    2    0    0  0.00000000000E+00  0.00000000000E+00  0.31144887863E+02  0.61519319538E+03  0.61440431607E+03 0.  0.
        5    1    3    3  502    0 -0.73240373418E+02  0.24988020037E+03  0.17871355974E+03  0.31585581089E+03  0.46999998093E+01 0.  1.
       -5    1    3    3    0  502  0.73240373418E+02 -0.24988020037E+03 -0.14756867188E+03  0.29933738449E+03  0.46999998093E+01 0. -1.
</event>
<event>
 5   0  0.1909053E-02  0.7039520E+03  0.7818609E-02  0.9710498E-01
        2   -1    0    0  501    0  0.00000000000E+00  0.00000000000E+00  0.73075854677E+03  0.73075854678E+03  0.25500000920E-02 0. -1.
       -2   -1    0    0    0  501  0.00000000000E+00  0.00000000000E+00 -0.16953219891E+03  0.16953219893E+03  0.25500000920E-02 0.  1.
    10030    2    1    2    0    0  0.00000000000E+00  0.00000000000E+00  0.56122634786E+03  0.90029074571E+03  0.70395199643E+03 0.  0.
        1    1    3    3  502    0 -0.23668886990E+03  0.43083266539E+02 -0.47967753965E+02  0.24531346159E+03  0.50400001928E-02 0.  1.
       -1    1    3    3    0  502  0.23668886990E+03 -0.43083266539E+02  0.60919410183E+03  0.65497728412E+03  0.50400001928E-02 0. -1.
</event>
<event>
 5   0  0.2026361E-02  0.7021534E+03  0.7818609E-02  0.9713557E-01
       -2   -1    0    0    0  501  0.00000000000E+00  0.00000000000E+00  0.32844092894E+03  0.32844092895E+03  0.25500000920E-02 0. -1.
        2   -1    0    0  501    0  0.00000000000E+00  0.00000000000E+00 -0.37527247132E+03  0.37527247133E+03  0.25500000920E-02 0.  1.
    10030    2    1    2    0    0  0.00000000000E+00  0.00000000000E+00 -0.46831542383E+02  0.70371340028E+03  0.70215337098E+03 0.  0.
        2    1    3    3  502    0  0.11228382791E+03 -0.18062782242E+03  0.25652680459E+03  0.33322675420E+03  0.25500000920E-02 0. -1.
       -2    1    3    3    0  502 -0.11228382791E+03  0.18062782242E+03 -0.30335834697E+03  0.37048664608E+03  0.25500000920E-02 0.  1.
</event>
<event>
 5   0  0.2026361E-02  0.7107698E+03  0.7818609E-02  0.9698990E-01
       -2   -1    0    0    0  501  0.00000000000E+00  0.00000000000E+00  0.11737649075E+03  0.11737649077E+03  0.25500000920E-02 0.  1.
        2   -1    0    0  501    0  0.00000000000E+00  0.00000000000E+00 -0.10760111763E+04  0.10760111763E+04  0.25500000920E-02 0. -1.
    10030    2    1    2    0    0  0.00000000000E+00  0.00000000000E+00 -0.95863468559E+03  0.11933876671E+04  0.71076976835E+03 0.  0.
        2    1    3    3  502    0  0.15873237013E+03 -0.30916266465E+01  0.54524866601E+02  0.16786448274E+03  0.25500000920E-02 0.  1.
       -2    1    3    3    0  502 -0.15873237013E+03  0.30916266465E+01 -0.10131595522E+04  0.10255231844E+04  0.25500000920E-02 0. -1.
</event>
<event>
 5   0  0.1226303E-02  0.7002210E+03  0.7818609E-02  0.9716854E-01
        1   -1    0    0  501    0  0.00000000000E+00  0.00000000000E+00  0.17044582605E+03  0.17044582613E+03  0.50400001928E-02 0. -1.
       -1   -1    0    0    0  501  0.00000000000E+00  0.00000000000E+00 -0.71915733753E+03  0.71915733755E+03  0.50400001928E-02 0.  1.
    10030    2    1    2    0    0  0.00000000000E+00  0.00000000000E+00 -0.54871151148E+03  0.88960316368E+03  0.70022101225E+03 0.  0.
        4    1    3    3  502    0 -0.20208237394E+03 -0.28265279577E+03 -0.21977228814E+03  0.41113423640E+03  0.12699999809E+01 0.  1.
       -4    1    3    3    0  502  0.20208237394E+03  0.28265279577E+03 -0.32893922334E+03  0.47846892727E+03  0.12699999809E+01 0. -1.
</event>
<event>
 5   0  0.1257442E-02  0.6993421E+03  0.7818609E-02  0.9718358E-01
       -1   -1    0    0    0  501  0.00000000000E+00  0.00000000000E+00  0.23648274628E+03  0.23648274633E+03  0.50400001928E-02 0. -1.
        1   -1    0    0  501    0  0.00000000000E+00  0.00000000000E+00 -0.51703487369E+03  0.51703487371E+03  0.50400001928E-02 0.  1.
    10030    2    1    2    0    0  0.00000000000E+00  0.00000000000E+00 -0.28055212741E+03  0.75351762005E+03  0.69934205331E+03 0.  0.
        1    1    3    3  502    0  0.31860122212E+03 -0.14018503878E+03 -0.10435838252E+03  0.36338582232E+03  0.50400001928E-02 0. -1.
       -1    1    3    3    0  502 -0.31860122212E+03  0.14018503878E+03 -0.17619374490E+03  0.39013179773E+03  0.50400001928E-02 0.  1.
</event>
<event>
 5   0  0.1973067E-02  0.7024542E+03  0.7818609E-02  0.9713044E-01
       -2   -1    0    0    0  501  0.00000000000E+00  0.00000000000E+00  0.73177349296E+03  0.73177349297E+03  0.25500000920E-02 0.  1.
        2   -1    0    0  501    0  0.00000000000E+00  0.00000000000E+00 -0.16857742465E+03  0.16857742467E+03  0.25500000920E-02 0. -1.
    10030    2    1    2    0    0  0.00000000000E+00  0.00000000000E+00  0.56319606831E+03  0.90035091764E+03  0.70245424302E+03 0.  0.
        5    1    3    3  502    0  0.16040624549E+03 -0.40932002522E+02 -0.11538993983E+03  0.20184776599E+03  0.46999998093E+01 0. -1.
       -5    1    3    3    0  502 -0.16040624549E+03  0.40932002522E+02  0.67858600814E+03  0.69850315165E+03  0.46999998093E+01 0.  1.
</event>
<event>
 5   0  0.1237686E-02  0.7116050E+03  0.7818609E-02  0.9697589E-01
       -1   -1    0    0    0  501  0.00000000000E+00  0.00000000000E+00  0.95504199581E+03  0.95504199583E+03  0.50400001928E-02 0.  1.
        1   -1    0    0  501    0  0.00000000000E+00  0.00000000000E+00 -0.13255481686E+03  0.13255481696E+03  0.50400001928E-02 0. -1.
    10030    2    1    2    0    0  0.00000000000E+00  0.00000000000E+00  0.82248717895E+03  0.10875968128E+04  0.71160499410E+03 0.  0.
        5    1    3    3  502    0  0.21532882416E+03  0.14483044043E+03  0.39277495919E+02  0.26250175366E+03  0.46999998093E+01 0. -1.
       -5    1    3    3    0  502 -0.21532882416E+03 -0.14483044043E+03  0.78320968303E+03  0.82509505912E+03  0.46999998093E+01 0.  1.
</event>
<event>
 5   0  0.2026361E-02  0.7018226E+03  0.7818609E-02  0.9714120E-01
       -2   -1    0    0    0  501  0.00000000000E+00  0.00000000000E+00  0.80770110171E+02  0.80770110211E+02  0.25500000920E-02 0. -1.
        2   -1    0    0  501    0  0.00000000000E+00  0.00000000000E+00 -0.15245583282E+04  0.15245583282E+04  0.25500000920E-02 0.  1.
    10030    2    1    2    0    0  0.00000000000E+00  0.00000000000E+00 -0.14437882180E+04  0.16053284384E+04  0.70182261054E+03 0.  0.
        2    1    3    3  502    0 -0.23265909941E+03  0.16202401399E+03 -0.11948696319E+04  0.12280453879E+04  0.25500000920E-02 0.  1.
       -2    1    3    3    0  502  0.23265909941E+03 -0.16202401399E+03 -0.24891858619E+03  0.37728305051E+03  0.25500000920E-02 0. -1.
</event>
<event>
 5   0  0.2006362E-02  0.6998975E+03  0.7818609E-02  0.9717408E-01
       -2   -1    0    0    0  501  0.00000000000E+00  0.00000000000E+00  0.19011324057E+03  0.19011324059E+03  0.25500000920E-02 0.  1.
        2   -1    0    0  501    0  0.00000000000E+00  0.00000000000E+00 -0.64416403897E+03  0.64416403897E+03  0.25500000920E-02 0. -1.
    10030    2    1    2    0    0  0.00000000000E+00  0.00000000000E+00 -0.45405079839E+03  0.83427727956E+03  0.69989745797E+03 0.  0.
        4    1    3    3  502    0  0.14712874634E+03 -0.23024754396E+03  0.33588559692E+02  0.27530093306E+03  0.12699999809E+01 0.  1.
       -4    1    3    3    0  502 -0.14712874634E+03  0.23024754396E+03 -0.48763935808E+03  0.55897634650E+03  0.12699999809E+01 0. -1.
</event>
<event>
 5   0  0.1226303E-02  0.6998810E+03  0.7818609E-02  0.9717436E-01
        1   -1    0    0  501    0  0.00000000000E+00  0.00000000000E+00  0.14655273948E+04  0.14655273948E+04  0.50400001928E-02 0. -1.
       -1   -1    0    0    0  501  0.00000000000E+00  0.00000000000E+00 -0.83559241225E+02  0.83559241377E+02  0.50400001928E-02 0.  1.
    10030    2    1    2    0    0  0.00000000000E+00  0.00000000000E+00  0.13819681536E+04  0.15490866362E+04  0.69988101054E+03 0.  0.
        4    1    3    3  502    0  0.21495817540E+03  0.19441973248E+03  0.25697022253E+03  0.38735172352E+03  0.12699999809E+01 0.  1.
       -4    1    3    3    0  502 -0.21495817540E+03 -0.19441973248E+03  0.11249979310E+04  0.11617349126E+04  0.12699999809E+01 0. -1.
</event>
<event>
 5   0  0.1973067E-02  0.7247643E+03  0.7818609E-02  0.9675795E-01
        2   -1    0    0  501    0  0.00000000000E+00  0.00000000000E+00  0.86029779797E+03  0.86029779797E+03  0.25500000920E-02 0.  1.
       -2   -1    0    0    0  501  0.00000000000E+00  0.00000000000E+00 -0.15264576598E+03  0.15264576600E+03  0.25500000920E-02 0. -1.
    10030    2    1    2    0    0  0.00000000000E+00  0.00000000000E+00  0.70765203199E+03  0.10129435640E+04  0.72476428265E+03 0.  0.
        5    1    3    3  502    0 -0.28521160994E+03  0.58585819151E+02  0.65527366000E+03  0.71706598033E+03  0.46999998093E+01 0.  1.
       -5    1    3    3    0  502  0.28521160994E+03 -0.58585819151E+02  0.52378371993E+02  0.29587758365E+03  0.46999998093E+01 0. -1.
</event>
<event>
 5   0  0.1948138E-02  0.6989869E+03  0.7818609E-02  0.9718966E-01
       -2   -1    0    0    0  501  0.00000000000E+00  0.00000000000E+00  0.15002796241E+03  0.15002796243E+03  0.25500000920E-02 0. -1.
        2   -1    0    0  501    0  0.00000000000E+00  0.00000000000E+00 -0.81415269922E+03  0.81415269923E+03  0.25500000920E-02 0.  1.
    10030    2    1    2    0    0  0.00000000000E+00  0.00000000000E+00 -0.66412473681E+03  0.96418066166E+03  0.69898689706E+03 0.  0.
        3    1    3    3  502    0 -0.21291565758E+03 -0.48254720812E+02 -0.70852430094E+03  0.74139617652E+03  0.10100000352E+00 0.  1.
       -3    1    3    3    0  502  0.21291565758E+03  0.48254720812E+02  0.44399564130E+02  0.22278448514E+03  0.10100000352E+00 0. -1.
</event>
<event>
 5   0  0.2006362E-02  0.7140229E+03  0.7818609E-02  0.9693547E-01
        2   -1    0    0  501    0  0.00000000000E+00  0.00000000000E+00  0.79524450438E+03  0.79524450439E+03  0.25500000920E-02 0.  1.
       -2   -1    0    0    0  501  0.00000000000E+00  0.00000000000E+00 -0.16027419113E+03  0.16027419115E+03  0.25500000920E-02 0. -1.
    10030    2    1    2    0    0  0.00000000000E+00  0.00000000000E+00  0.63497031325E+03  0.95551869554E+03  0.71402288396E+03 0.  0.
        4    1    3    3  502    0 -0.85338379775E+02  0.32917005021E+03  0.17199429402E+03  0.38107638486E+03  0.12699999809E+01 0.  1.
       -4    1    3    3    0  502  0.85338379775E+02 -0.32917005021E+03  0.46297601923E+03  0.57444231068E+03  0.12699999809E+01 0. -1.
</event>
<event>
 5   0  0.1223742E-02  0.6995832E+03  0.7818609E-02  0.9717945E-01
        1   -1    0    0  501    0  0.00000000000E+00  0.00000000000E+00  0.93846466574E+03  0.93846466576E+03  0.50400001928E-02 0.  1.
       -1   -1    0    0    0  501  0.00000000000E+00  0.00000000000E+00 -0.13037695320E+03  0.13037695329E+03  0.50400001928E-02 0. -1.
    10030    2    1    2    0    0  0.00000000000E+00  0.00000000000E+00  0.80808771255E+03  0.10688416190E+04  0.69958320123E+03 0.  0.
        2    1    3    3  502    0 -0.43105229934E+01 -0.62039080003E+02 -0.12186302258E+03  0.13681383093E+03  0.25500000920E-02 0. -1.
       -2    1    3    3    0  502  0.43105229934E+01  0.62039080003E+02  0.92995073512E+03  0.93202778812E+03  0.25500000920E-02 0.  1.
</event>
<event>
 5   0  0.1948138E-02  0.6940388E+03  0.7818609E-02  0.9727481E-01
       -2   -1    0    0    0  501  0.00000000000E+00  0.00000000000E+00  0.80669446589E+02  0.80669446629E+02  0.25500000920E-02 0.  1.
        2   -1    0    0  501    0  0.00000000000E+00  0.00000000000E+00 -0.14927889973E+04  0.14927889974E+04  0.25500000920E-02 0. -1.
    10030    2    1    2    0    0  0.00000000000E+00  0.00000000000E+00 -0.14121195508E+04  0.15734584440E+04  0.69403879524E+03 0.  0.
        3    1    3    3  502    0 -0.12378903319E+03 -0.30739182491E+03 -0.93957146106E+03  0.99629714413E+03  0.10100000352E+00 0.  1.
       -3    1    3    3    0  502  0.12378903319E+03  0.30739182491E+03 -0.47254808970E+03  0.57716129985E+03  0.10100000352E+00 0. -1.
</event>
<event>
 5   0  0.1197259E-02  0.6984778E+03  0.7818609E-02  0.9719839E-01
        1   -1    0    0  501    0  0.00000000000E+00  0.00000000000E+00  0.54046008147E+03  0.54046008149E+03  0.50400001928E-02 0. -1.
       -1   -1    0    0    0  501  0.00000000000E+00  0.00000000000E+00 -0.22567405506E+03  0.22567405511E+03  0.50400001928E-02 0.  1.
    10030    2    1    2    0    0  0.00000000000E+00  0.00000000000E+00  0.31478602641E+03  0.76613413660E+03  0.69847782559E+03 0.  0.
        3    1    3    3  502    0 -0.42462649233E+02 -0.33619435936E+03  0.25006383674E+03  0.42114327312E+03  0.10100000352E+00 0. -1.
       -3    1    3    3    0  502  0.42462649233E+02  0.33619435936E+03  0.64722189668E+02  0.34499086348E+03  0.10100000352E+00 0.  1.
</event>
<event>
 5   0  0.2006362E-02  0.6987374E+03  0.7818609E-02  0.9719394E-01
       -2   -1    0    0    0  501  0.00000000000E+00  0.00000000000E+00  0.16291814686E+03  0.16291814688E+03  0.25500000920E-02 0.  1.
        2   -1    0    0  501    0  0.00000000000E+00  0.00000000000E+00 -0.74920132451E+03  0.74920132451E+03  0.25500000920E-02 0. -1.
    10030    2    1    2    0    0  0.00000000000E+00  0.00000000000E+00 -0.58628317765E+03  0.91211947139E+03  0.69873740826E+03 0.  0.
        4    1    3    3  502    0  0.11519743493E+03 -0.15080877527E+03  0.89767667303E+02  0.20993709226E+03  0.12699999809E+01 0.  1.
       -4    1    3    3    0  502 -0.11519743493E+03  0.15080877527E+03 -0.67605084495E+03  0.70218237914E+03  0.12699999809E+01 0. -1.
</event>
<event>
 5   0  0.1257442E-02  0.6996274E+03  0.7818609E-02  0.9717870E-01
        1   -1    0    0  501    0  0.00000000000E+00  0.00000000000E+00  0.31956881385E+03  0.31956881388E+03  0.50400001928E-02 0.  1.
       -1   -1    0    0    0  501  0.00000000000E+00  0.00000000000E+00 -0.38292108882E+03  0.38292108885E+03  0.50400001928E-02 0. -1.
    10030    2    1    2    0    0  0.00000000000E+00  0.00000000000E+00 -0.63352274975E+02  0.70248990274E+03  0.69962743850E+03 0.  0.
        1    1    3    3  502    0  0.28821822191E+02 -0.25281964296E+03 -0.27270235456E+03  0.37298129110E+03  0.50400001928E-02 0. -1.
       -1    1    3    3    0  502 -0.28821822191E+02  0.25281964296E+03  0.20935007958E+03  0.32950861164E+03  0.50400001928E-02 0.  1.
</event>
<event>
 5   0  0.1973067E-02  0.7016588E+03  0.7818609E-02  0.9714400E-01
        2   -1    0    0  501    0  0.00000000000E+00  0.00000000000E+00  0.49991440950E+03  0.49991440950E+03  0.25500000920E-02 0.  1.
       -2   -1    0    0    0  501  0.00000000000E+00  0.00000000000E+00 -0.24620465597E+03  0.24620465599E+03  0.25500000920E-02 0. -1.
    10030    2    1    2    0    0  0.00000000000E+00  0.00000000000E+00  0.25370975352E+03  0.74611906549E+03  0.70165876383E+03 0.  0.
        5    1    3    3  502    0 -0.27453512407E+03  0.20966186055E+03  0.19181187528E+03  0.39514746059E+03  0.46999998093E+01 0. -1.
       -5    1    3    3    0  502  0.27453512407E+03 -0.20966186055E+03  0.61897878248E+02  0.35097160490E+03  0.46999998093E+01 0.  1.
</event>
<event>
 5   0  0.1237686E-02  0.6986374E+03  0.7818609E-02  0.9719565E-01
       -1   -1    0    0    0  501  0.00000000000E+00  0.00000000000E+00  0.42271397647E+03  0.42271397650E+03  0.50400001928E-02 0. -1.
        1   -1    0    0  501    0  0.00000000000E+00  0.00000000000E+00 -0.28866693056E+03  0.28866693060E+03  0.50400001928E-02 0.  1.
    10030    2    1    2    0    0  0.00000000000E+00  0.00000000000E+00  0.13404704590E+03  0.71138090710E+03  0.69863737695E+03 0.  0.
        5    1    3    3  502    0  0.27273509367E+03 -0.18633182364E+03  0.18266210494E+03  0.37748048215E+03  0.46999998093E+01 0. -1.
       -5    1    3    3    0  502 -0.27273509367E+03  0.18633182364E+03 -0.48615059036E+02  0.33390042495E+03  0.46999998093E+01 0.  1.
</event>
<event>
 5   0  0.1237686E-02  0.7298016E+03  0.7818609E-02  0.9667582E-01
        1   -1    0    0  501    0  0.00000000000E+00  0.00000000000E+00  0.35626659819E+03  0.35626659823E+03  0.50400001928E-02 0. -1.
       -1   -1    0    0    0  501  0.00000000000E+00  0.00000000000E+00 -0.37374429174E+03  0.37374429178E+03  0.50400001928E-02 0.  1.
    10030    2    1    2    0    0  0.00000000000E+00  0.00000000000E+00 -0.17477693552E+02  0.73001089000E+03  0.72980163726E+03 0.  0.
        5    1    3    3  502    0 -0.18496255931E+03 -0.59657052760E+02  0.30015449648E+03  0.35761001670E+03  0.46999998093E+01 0. -1.
       -5    1    3    3    0  502  0.18496255931E+03  0.59657052760E+02 -0.31763219003E+03  0.37240087330E+03  0.46999998093E+01 0.  1.
</event>
<event>
 5   0  0.1973067E-02  0.6972928E+03  0.7818609E-02  0.9721873E-01
       -2   -1    0    0    0  501  0.00000000000E+00  0.00000000000E+00  0.12412258602E+03  0.12412258605E+03  0.25500000920E-02 0. -1.
        2   -1    0    0  501    0  0.00000000000E+00  0.00000000000E+00 -0.97930861752E+03  0.97930861752E+03  0.25500000920E-02 0.  1.
    10030    2    1    2    0    0  0.00000000000E+00  0.00000000000E+00 -0.85518603149E+03  0.11034312036E+04  0.69729281694E+03 0.  0.
        5    1    3    3  502    0  0.23015306160E+03  0.20398243673E+03 -0.16779650241E+03  0.35036698257E+03  0.46999998093E+01 0. -1.
       -5    1    3    3    0  502 -0.23015306160E+03 -0.20398243673E+03 -0.68738952908E+03  0.75306422100E+03  0.46999998093E+01 0.  1.
</event>
<event>
 5   0  0.1226303E-02  0.6958732E+03  0.7818609E-02  0.9724316E-01
        1   -1    0    0  501    0  0.00000000000E+00  0.00000000000E+00  0.50485049072E+03  0.50485049075E+03  0.50400001928E-02 0.  1.
       -1   -1    0    0    0  501  0.00000000000E+00  0.00000000000E+00 -0.23979355313E+03  0.23979355318E+03  0.50400001928E-02 0. -1.
    10030    2    1    2    0    0  0.00000000000E+00  0.00000000000E+00  0.26505693760E+03  0.74464404393E+03  0.69587324420E+03 0.  0.
        4    1    3    3  502    0 -0.26516787536E+03  0.11825959434E+03  0.33769197319E+03  0.44535021661E+03  0.12699999809E+01 0.  1.
       -4    1    3    3    0  502  0.26516787536E+03 -0.11825959434E+03 -0.72635035590E+02  0.29929382732E+03  0.12699999809E+01 0. -1.
</event>
<event>
 5   0  0.1226303E-02  0.7210414E+03  0.7818609E-02  0.9681910E-01
        1   -1    0    0  501    0  0.00000000000E+00  0.00000000000E+00  0.68236382983E+03  0.68236382985E+03  0.50400001928E-02 0.  1.
       -1   -1    0    0    0  501  0.00000000000E+00  0.00000000000E+00 -0.19047779438E+03  0.19047779445E+03  0.50400001928E-02 0. -1.
    10030    2    1    2    0    0  0.00000000000E+00  0.00000000000E+00  0.49188603545E+03  0.87284162430E+03  0.72104135058E+03 0.  0.
        4    1    3    3  502    0 -0.20230497561E+02 -0.28256856070E+03  0.51586465042E+03  0.58853395398E+03  0.12699999809E+01 0.  1.
       -4    1    3    3    0  502  0.20230497561E+02  0.28256856070E+03 -0.23978614972E+02  0.28430767032E+03  0.12699999809E+01 0. -1.
</event>
<event>
 5   0  0.1237686E-02  0.6944263E+03  0.7818609E-02  0.9726812E-01
       -1   -1    0    0    0  501  0.00000000000E+00  0.00000000000E+00  0.86821020823E+03  0.86821020824E+03  0.50400001928E-02 0.  1.
        1   -1    0    0  501    0  0.00000000000E+00  0.00000000000E+00 -0.13885688747E+03  0.13885688756E+03  0.50400001928E-02 0. -1.
    10030    2    1    2    0    0  0.00000000000E+00  0.00000000000E+00  0.72935332076E+03  0.10070670958E+04  0.69442628762E+03 0.  0.
        5    1    3    3  502    0 -0.72866956265E+02 -0.22476098164E+03 -0.42249241984E+01  0.23636207852E+03  0.46999998093E+01 0. -1.
       -5    1    3    3    0  502  0.72866956265E+02  0.22476098164E+03  0.73357824496E+03  0.77070501728E+03  0.46999998093E+01 0.  1.
</event>
<event>
 5   0  0.1223742E-02  0.7003708E+03  0.7818609E-02  0.9716598E-01
        1   -1    0    0  501    0  0.00000000000E+00  0.00000000000E+00  0.70710123753E+03  0.70710123755E+03  0.50400001928E-02 0. -1.
       -1   -1    0    0    0  501  0.00000000000E+00  0.00000000000E+00 -0.17342609107E+03  0.17342609114E+03  0.50400001928E-02 0.  1.
    10030    2    1    2    0    0  0.00000000000E+00  0.00000000000E+00  0.53367514646E+03  0.88052732869E+03  0.70037076939E+03 0.  0.
        2    1    3    3  502    0  0.17322080713E+02 -0.18637819865E+03 -0.10525355928E+03  0.21474449739E+03  0.25500000920E-02 0.  1.
       -2    1    3    3    0  502 -0.17322080713E+02  0.18637819865E+03  0.63892870575E+03  0.66578283130E+03  0.25500000920E-02 0. -1.
</event>
<event>
 5   0  0.1226303E-02  0.6987648E+03  0.7818609E-02  0.9719347E-01
       -1   -1    0    0    0  501  0.00000000000E+00  0.00000000000E+00  0.23456057674E+03  0.23456057679E+03  0.50400001928E-02 0.  1.
        1   -1    0    0  501    0  0.00000000000E+00  0.00000000000E+00 -0.52041165245E+03  0.52041165247E+03  0.50400001928E-02 0. -1.
    10030    2    1    2    0    0  0.00000000000E+00  0.00000000000E+00 -0.28585107571E+03  0.75497222927E+03  0.69876478838E+03 0.  0.
        4    1    3    3  502    0 -0.25688391993E+02 -0.70048292824E+02 -0.51170143787E+03  0.51711375076E+03  0.12699999809E+01 0. -1.
       -4    1    3    3    0  502  0.25688391993E+02  0.70048292824E+02  0.22585036216E+03  0.23785847851E+03  0.12699999809E+01 0.  1.
</event>
<event>
 5   0  0.1226303E-02  0.6998109E+03  0.7818609E-02  0.9717556E-01
       -1   -1    0    0    0  501  0.00000000000E+00  0.00000000000E+00  0.98874357656E+02  0.98874357784E+02  0.50400001928E-02 0.  1.
        1   -1    0    0  501    0  0.00000000000E+00  0.00000000000E+00 -0.12382769080E+04  0.12382769081E+04  0.50400001928E-02 0. -1.
    10030    2    1    2    0    0  0.00000000000E+00  0.00000000000E+00 -0.11394025504E+04  0.13371512658E+04  0.69981092868E+03 0.  0.
        4    1    3    3  502    0 -0.16113768184E+03  0.13508996648E+03 -0.35319082279E+02  0.21322218934E+03  0.12699999809E+01 0.  1.
       -4    1    3    3    0  502  0.16113768184E+03 -0.13508996648E+03 -0.11040834681E+04  0.11239290765E+04  0.12699999809E+01 0. -1.
</event>
<event>
 5   0  0.1257442E-02  0.6359742E+03  0.7818609E-02  0.9833459E-01
       -1   -1    0    0    0  501  0.00000000000E+00  0.00000000000E+00  0.82361095853E+02  0.82361096007E+02  0.50400001928E-02 0.  1.
        1   -1    0    0  501    0  0.00000000000E+00  0.00000000000E+00 -0.12277130425E+04  0.12277130425E+04  0.50400001928E-02 0. -1.
    10030    2    1    2    0    0  0.00000000000E+00  0.00000000000E+00 -0.11453519467E+04  0.13100741385E+04  0.63597418715E+03 0.  0.
        1    1    3    3  502    0  0.12620383986E+03 -0.26368440525E+03 -0.83044886543E+03  0.88039888283E+03  0.50400001928E-02 0. -1.
       -1    1    3    3    0  502 -0.12620383986E+03  0.26368440525E+03 -0.31490308123E+03  0.42967525570E+03  0.50400001928E-02 0.  1.
</event>
<event>
 5   0  0.2026361E-02  0.6971186E+03  0.7818609E-02  0.9722172E-01
       -2   -1    0    0    0  501  0.00000000000E+00  0.00000000000E+00  0.85924043403E+02  0.85924043441E+02  0.25500000920E-02 0.  1.
        2   -1    0    0  501    0  0.00000000000E+00  0.00000000000E+00 -0.14139650495E+04  0.14139650495E+04  0.25500000920E-02 0. -1.
    10030    2    1    2    0    0  0.00000000000E+00  0.00000000000E+00 -0.13280410061E+04  0.14998890930E+04  0.69711862496E+03 0.  0.
        2    1    3    3  502    0  0.29599243013E+03  0.18321779096E+03 -0.62593635676E+03  0.71622384793E+03  0.25500000920E-02 0. -1.
       -2    1    3    3    0  502 -0.29599243013E+03 -0.18321779096E+03 -0.70210464937E+03  0.78366524505E+03  0.25500000920E-02 0.  1.
</event>
<event>
 5   0  0.1257442E-02  0.6989727E+03  0.7818609E-02  0.9718991E-01
        1   -1    0    0  501    0  0.00000000000E+00  0.00000000000E+00  0.48338687084E+03  0.48338687086E+03  0.50400001928E-02 0.  1.
       -1   -1    0    0    0  501  0.00000000000E+00  0.00000000000E+00 -0.25267693153E+03  0.25267693158E+03  0.50400001928E-02 0. -1.
    10030    2    1    2    0    0  0.00000000000E+00  0.00000000000E+00  0.23070993931E+03  0.73606380245E+03  0.69897270703E+03 0.  0.
        1    1    3    3  502    0 -0.30883548493E+03 -0.15796976134E+03  0.70591536658E+02  0.35400136627E+03  0.50400001928E-02 0.  1.
       -1    1    3    3    0  502  0.30883548493E+03  0.15796976134E+03  0.16011840265E+03  0.38206243618E+03  0.50400001928E-02 0. -1.
</event>
<event>
 5   0  0.1226303E-02  0.6981249E+03  0.7818609E-02  0.9720444E-01
        1   -1    0    0  501    0  0.00000000000E+00  0.00000000000E+00  0.92494850352E+03  0.92494850354E+03  0.50400001928E-02 0. -1.
       -1   -1    0    0    0  501  0.00000000000E+00  0.00000000000E+00 -0.13173123594E+03  0.13173123604E+03  0.50400001928E-02 0.  1.
    10030    2    1    2    0    0  0.00000000000E+00  0.00000000000E+00  0.79321726758E+03  0.10566797396E+04  0.69812494473E+03 0.  0.
        4    1    3    3  502    0  0.12063823655E+03  0.10296819787E+03 -0.74037161941E+02  0.17504041859E+03  0.12699999809E+01 0.  1.
       -4    1    3    3    0  502 -0.12063823655E+03 -0.10296819787E+03  0.86725442952E+03  0.88163932099E+03  0.12699999809E+01 0. -1.
</event>
<event>
 5   0  0.1973067E-02  0.6957763E+03  0.7818609E-02  0.9724483E-01
       -2   -1    0    0    0  501  0.00000000000E+00  0.00000000000E+00  0.63156316590E+03  0.63156316590E+03  0.25500000920E-02 0. -1.
        2   -1    0    0  501    0  0.00000000000E+00  0.00000000000E+00 -0.19162953740E+03  0.19162953741E+03  0.25500000920E-02 0.  1.
    10030    2    1    2    0    0  0.00000000000E+00  0.00000000000E+00  0.43993362850E+03  0.82319270331E+03  0.69577627820E+03 0.  0.
        5    1    3    3  502    0  0.29928784617E+03  0.10507263065E+03  0.51021231529E+02  0.32130784093E+03  0.46999998093E+01 0.  1.
       -5    1    3    3    0  502 -0.29928784617E+03 -0.10507263065E+03  0.38891239697E+03  0.50188486239E+03  0.46999998093E+01 0. -1.
</event>
<event>
 5   0  0.1973067E-02  0.6987388E+03  0.7818609E-02  0.9719391E-01
       -2   -1    0    0    0  501  0.00000000000E+00  0.00000000000E+00  0.11664992331E+03  0.11664992334E+03  0.25500000920E-02 0. -1.
        2   -1    0    0  501    0  0.00000000000E+00  0.00000000000E+00 -0.10463699864E+04  0.10463699864E+04  0.25500000920E-02 0.  1.
    10030    2    1    2    0    0  0.00000000000E+00  0.00000000000E+00 -0.92972006304E+03  0.11630199097E+04  0.69873880294E+03 0.  0.
        5    1    3    3  502    0 -0.12064133878E+02  0.84145835468E+02  0.99119970020E+02  0.13066339735E+03  0.46999998093E+01 0. -1.
       -5    1    3    3    0  502  0.12064133878E+02 -0.84145835468E+02 -0.10288400331E+04  0.10323565123E+04  0.46999998093E+01 0.  1.
</event>
<event>
 5   0  0.1197259E-02  0.6969507E+03  0.7818609E-02  0.9722461E-01
        1   -1    0    0  501    0  0.00000000000E+00  0.00000000000E+00  0.25773458734E+03  0.25773458739E+03  0.50400001928E-02 0. -1.
       -1   -1    0    0    0  501  0.00000000000E+00  0.00000000000E+00 -0.47116325218E+03  0.47116325221E+03  0.50400001928E-02 0.  1.
    10030    2    1    2    0    0  0.00000000000E+00  0.00000000000E+00 -0.21342866484E+03  0.72889783960E+03  0.69695069093E+03 0.  0.
        3    1    3    3  502    0  0.32505276638E+03  0.98580525678E+02 -0.25315876070E+02  0.34061462792E+03  0.10100000352E+00 0. -1.
       -3    1    3    3    0  502 -0.32505276638E+03 -0.98580525678E+02 -0.18811278877E+03  0.38828321168E+03  0.10100000352E+00 0.  1.
</event>
<event>
 5   0  0.1226303E-02  0.7038456E+03  0.7818609E-02  0.9710678E-01
        1   -1    0    0  501    0  0.00000000000E+00  0.00000000000E+00  0.35992385983E+03  0.35992385986E+03  0.50400001928E-02 0.  1.
       -1   -1    0    0    0  501  0.00000000000E+00  0.00000000000E+00 -0.34409964408E+03  0.34409964412E+03  0.50400001928E-02 0. -1.
    10030    2    1    2    0    0  0.00000000000E+00  0.00000000000E+00  0.15824215742E+02  0.70402350398E+03  0.70384564242E+03 0.  0.
        4    1    3    3  502    0 -0.33711525892E+02 -0.29741431261E+03 -0.17721928919E+03  0.34785058528E+03  0.12699999809E+01 0. -1.
       -4    1    3    3    0  502  0.33711525892E+02  0.29741431261E+03  0.19304350493E+03  0.35617291870E+03  0.12699999809E+01 0.  1.
</event>
<event>
 5   0  0.1223742E-02  0.7034130E+03  0.7818609E-02  0.9711413E-01
        1   -1    0    0  501    0  0.00000000000E+00  0.00000000000E+00  0.97560429284E+03  0.97560429286E+03  0.50400001928E-02 0.  1.
       -1   -1    0    0    0  501  0.00000000000E+00  0.00000000000E+00 -0.12679059519E+03  0.12679059529E+03  0.50400001928E-02 0. -1.
    10030    2    1    2    0    0  0.00000000000E+00  0.00000000000E+00  0.84881369765E+03  0.11023948882E+04  0.70341296270E+03 0.  0.
        2    1    3    3  502    0 -0.25029239333E+03 -0.38880621309E+01  0.37220503569E+02  0.25307462354E+03  0.25500000920E-02 0. -1.
       -2    1    3    3    0  502  0.25029239333E+03  0.38880621309E+01  0.81159319408E+03  0.84932026461E+03  0.25500000920E-02 0.  1.
</event>
<event>
 5   0  0.2006362E-02  0.6904598E+03  0.7818609E-02  0.9733688E-01
       -2   -1    0    0    0  501  0.00000000000E+00  0.00000000000E+00  0.27311140928E+03  0.27311140929E+03  0.25500000920E-02 0. -1.
        2   -1    0    0  501    0  0.00000000000E+00  0.00000000000E+00 -0.43639224510E+03  0.43639224510E+03  0.25500000920E-02 0.  1.
    10030    2    1    2    0    0  0.00000000000E+00  0.00000000000E+00 -0.16328083582E+03  0.70950365439E+03  0.69045984985E+03 0.  0.
        4    1    3    3  502    0  0.17701626739E+03  0.21675118510E+03 -0.28937012890E+03  0.40255747362E+03  0.12699999809E+01 0.  1.
       -4    1    3    3    0  502 -0.17701626739E+03 -0.21675118510E+03  0.12608929308E+03  0.30694618078E+03  0.12699999809E+01 0. -1.
</event>
<event>
 5   0  0.1237686E-02  0.7030590E+03  0.7818609E-02  0.9712015E-01
       -1   -1    0    0    0  501  0.00000000000E+00  0.00000000000E+00  0.80580469045E+02  0.80580469202E+02  0.50400001928E-02 0.  1.
        1   -1    0    0  501    0  0.00000000000E+00  0.00000000000E+00 -0.15335352392E+04  0.15335352392E+04  0.50400001928E-02 0. -1.
    10030    2    1    2    0    0  0.00000000000E+00  0.00000000000E+00 -0.14529547702E+04  0.16141157084E+04  0.70305899896E+03 0.  0.
        5    1    3    3  502    0  0.24483448079E+03  0.24063214617E+03 -0.89985784360E+03  0.96312718861E+03  0.46999998093E+01 0.  1.
       -5    1    3    3    0  502 -0.24483448079E+03 -0.24063214617E+03 -0.55309692656E+03  0.65098851981E+03  0.46999998093E+01 0. -1.
</event>
<event>
 5   0  0.1197259E-02  0.6992640E+03  0.7818609E-02  0.9718492E-01
       -1   -1    0    0    0  501  0.00000000000E+00  0.00000000000E+00  0.33377492391E+03  0.33377492395E+03  0.50400001928E-02 0. -1.
        1   -1    0    0  501    0  0.00000000000E+00  0.00000000000E+00 -0.36624242381E+03  0.36624242385E+03  0.50400001928E-02 0.  1.
    10030    2    1    2    0    0  0.00000000000E+00  0.00000000000E+00 -0.32467499901E+02  0.70001734780E+03  0.69926400499E+03 0.  0.
        3    1    3    3  502    0 -0.31562197608E+03 -0.16115206854E+02 -0.16594618030E+03  0.35695248512E+03  0.10100000352E+00 0.  1.
       -3    1    3    3    0  502  0.31562197608E+03  0.16115206854E+02  0.13347868040E+03  0.34306486267E+03  0.10100000352E+00 0. -1.
</event>
<event>
 5   0  0.2026361E-02  0.7141324E+03  0.7818609E-02  0.9693365E-01
       -2   -1    0    0    0  501  0.00000000000E+00  0.00000000000E+00  0.39074189888E+03  0.39074189889E+03  0.25500000920E-02 0.  1.
        2   -1    0    0  501    0  0.00000000000E+00  0.00000000000E+00 -0.32629280932E+03  0.32629280933E+03  0.25500000920E-02 0. -1.
    10030    2    1    2    0    0  0.00000000000E+00  0.00000000000E+00  0.64449089567E+02  0.71703470822E+03  0.71413240204E+03 0.  0.
        2    1    3    3  502    0 -0.16295247276E+02 -0.25370573982E+03  0.28397073662E+03  0.38114500753E+03  0.25500000920E-02 0.  1.
       -2    1    3    3    0  502  0.16295247276E+02  0.25370573982E+03 -0.21952164705E+03  0.33588970069E+03  0.25500000920E-02 0. -1.
</event>
<event>
 5   0  0.1973067E-02  0.7007946E+03  0.7818609E-02  0.9715874E-01
       -2   -1    0    0    0  501  0.00000000000E+00  0.00000000000E+00  0.21633753511E+03  0.21633753513E+03  0.25500000920E-02 0. -1.
        2   -1    0    0  501    0  0.00000000000E+00  0.00000000000E+00 -0.56753102739E+03  0.56753102740E+03  0.25500000920E-02 0.  1.
    10030    2    1    2    0    0  0.00000000000E+00  0.00000000000E+00 -0.35119349228E+03  0.78386856253E+03  0.70079458781E+03 0.  0.
        5    1    3    3  502    0 -0.32374248568E+03 -0.79873960040E+02 -0.29589664463E+03  0.44583176292E+03  0.46999998093E+01 0.  1.
       -5    1    3    3    0  502  0.32374248568E+03  0.79873960040E+02 -0.55296847650E+02  0.33803679961E+03  0.46999998093E+01 0. -1.
</event>
<event>
 5   0  0.1948138E-02  0.7007822E+03  0.7818609E-02  0.9715895E-01
       -2   -1    0    0    0  501  0.00000000000E+00  0.00000000000E+00  0.81000433014E+03  0.81000433015E+03  0.25500000920E-02 0. -1.
        2   -1    0    0  501    0  0.00000000000E+00  0.00000000000E+00 -0.15157193367E+03  0.15157193369E+03  0.25500000920E-02 0.  1.
    10030    2    1    2    0    0  0.00000000000E+00  0.00000000000E+00  0.65843239648E+03  0.96157626384E+03  0.70078219901E+03 0.  0.
        3    1    3    3  502    0  0.84633177555E+02  0.28044699757E+03  0.59301346543E+03  0.66142140393E+03  0.10100000352E+00 0. -1.
       -3    1    3    3    0  502 -0.84633177555E+02 -0.28044699757E+03  0.65418931042E+02  0.30015485991E+03  0.10100000352E+00 0.  1.
</event>
<event>
 5   0  0.7947250E-03  0.6983298E+03  0.7818609E-02  0.9720093E-01
       -4   -1    0    0    0  501  0.00000000000E+00  0.00000000000E+00  0.24561302316E+03  0.24561630656E+03  0.12699999809E+01 0. -1.
        4   -1    0    0  501    0  0.00000000000E+00  0.00000000000E+00 -0.49636748024E+03  0.49636910494E+03  0.12699999809E+01 0.  1.
    10030    2    1    2    0    0  0.00000000000E+00  0.00000000000E+00 -0.25075445708E+03  0.74198541150E+03  0.69832983119E+03 0.  0.
        1    1    3    3  502    0  0.26411861869E+03  0.17850024329E+03 -0.27674414922E+03  0.42214725600E+03  0.50400001928E-02 0.  1.
       -1    1    3    3    0  502 -0.26411861869E+03 -0.17850024329E+03  0.25989692144E+02  0.31983815550E+03  0.50400001928E-02 0. -1.
</event>
<event>
 5   0  0.1948138E-02  0.6808617E+03  0.7818609E-02  0.9750533E-01
       -2   -1    0    0    0  501  0.00000000000E+00  0.00000000000E+00  0.87435484475E+02  0.87435484512E+02  0.25500000920E-02 0. -1.
        2   -1    0    0  501    0  0.00000000000E+00  0.00000000000E+00 -0.13254705780E+04  0.13254705780E+04  0.25500000920E-02 0.  1.
    10030    2    1    2    0    0  0.00000000000E+00  0.00000000000E+00 -0.12380350935E+04  0.14129060625E+04  0.68086169571E+03 0.  0.
        3    1    3    3  502    0 -0.26490403572E+03 -0.16619753288E+03 -0.89818339386E+03  0.95106739366E+03  0.10100000352E+00 0.  1.
       -3    1    3    3    0  502  0.26490403572E+03  0.16619753288E+03 -0.33985169963E+03  0.46183866882E+03  0.10100000352E+00 0. -1.
</event>
<event>
 5   0  0.1237686E-02  0.6994612E+03  0.7818609E-02  0.9718154E-01
       -1   -1    0    0    0  501  0.00000000000E+00  0.00000000000E+00  0.29542584708E+03  0.29542584713E+03  0.50400001928E-02 0.  1.
        1   -1    0    0  501    0  0.00000000000E+00  0.00000000000E+00 -0.41401759357E+03  0.41401759360E+03  0.50400001928E-02 0. -1.
    10030    2    1    2    0    0  0.00000000000E+00  0.00000000000E+00 -0.11859174648E+03  0.70944344072E+03  0.69946121640E+03 0.  0.
        5    1    3    3  502    0  0.32577008162E+03 -0.11164161809E+03  0.23949337085E+01  0.34440938238E+03  0.46999998093E+01 0. -1.
       -5    1    3    3    0  502 -0.32577008162E+03  0.11164161809E+03 -0.12098668019E+03  0.36503405834E+03  0.46999998093E+01 0.  1.
</event>
<event>
 5   0  0.1197259E-02  0.6985905E+03  0.7818609E-02  0.9719646E-01
        1   -1    0    0  501    0  0.00000000000E+00  0.00000000000E+00  0.91876726648E+03  0.91876726649E+03  0.50400001928E-02 0.  1.
       -1   -1    0    0    0  501  0.00000000000E+00  0.00000000000E+00 -0.13279441483E+03  0.13279441493E+03  0.50400001928E-02 0. -1.
    10030    2    1    2    0    0  0.00000000000E+00  0.00000000000E+00  0.78597285165E+03  0.10515616814E+04  0.69859047110E+03 0.  0.
        3    1    3    3  502    0  0.16354238337E+03  0.78715510274E+01  0.85742519759E+03  0.87291812454E+03  0.10100000352E+00 0.  1.
       -3    1    3    3    0  502 -0.16354238337E+03 -0.78715510274E+01 -0.71452345948E+02  0.17864355688E+03  0.10100000352E+00 0. -1.
</event>
<event>
 5   0  0.7947250E-03  0.6662381E+03  0.7818609E-02  0.9776778E-01
        3   -1    0    0  501    0  0.00000000000E+00  0.00000000000E+00  0.23304603654E+03  0.23304605843E+03  0.10100000352E+00 0.  1.
       -3   -1    0    0    0  501  0.00000000000E+00  0.00000000000E+00 -0.47616463177E+03  0.47616464248E+03  0.10100000352E+00 0. -1.
    10030    2    1    2    0    0  0.00000000000E+00  0.00000000000E+00 -0.24311859523E+03  0.70921070091E+03  0.66623807077E+03 0.  0.
        1    1    3    3  502    0 -0.77247170497E+02 -0.24548521032E+03 -0.34671605208E+03  0.43178945637E+03  0.50400001928E-02 0. -1.
       -1    1    3    3    0  502  0.77247170497E+02  0.24548521032E+03  0.10359745685E+03  0.27742124455E+03  0.50400001928E-02 0.  1.
</event>
<event>
 5   0  0.1226303E-02  0.7002022E+03  0.7818609E-02  0.9716886E-01
        1   -1    0    0  501    0  0.00000000000E+00  0.00000000000E+00  0.71197740390E+03  0.71197740392E+03  0.50400001928E-02 0.  1.
       -1   -1    0    0    0  501  0.00000000000E+00  0.00000000000E+00 -0.17215544202E+03  0.17215544210E+03  0.50400001928E-02 0. -1.
    10030    2    1    2    0    0  0.00000000000E+00  0.00000000000E+00  0.53982196187E+03  0.88413284601E+03  0.70020221285E+03 0.  0.
        4    1    3    3  502    0 -0.35598106568E+02  0.26689138588E+03 -0.12633543847E+02  0.26955418079E+03  0.12699999809E+01 0. -1.
       -4    1    3    3    0  502  0.35598106568E+02 -0.26689138588E+03  0.55245550572E+03  0.61457866523E+03  0.12699999809E+01 0.  1.
</event>
<event>
 5   0  0.2006362E-02  0.6977194E+03  0.7818609E-02  0.9721140E-01
        2   -1    0    0  501    0  0.00000000000E+00  0.00000000000E+00  0.61068074342E+03  0.61068074343E+03  0.25500000920E-02 0. -1.
       -2   -1    0    0    0  501  0.00000000000E+00  0.00000000000E+00 -0.19929083541E+03  0.19929083542E+03  0.25500000920E-02 0.  1.
    10030    2    1    2    0    0  0.00000000000E+00  0.00000000000E+00  0.41138990802E+03  0.80997157885E+03  0.69771935771E+03 0.  0.
        4    1    3    3  502    0 -0.25020660111E+03 -0.21122529555E+02  0.48683989028E+03  0.54778115718E+03  0.12699999809E+01 0. -1.
       -4    1    3    3    0  502  0.25020660111E+03  0.21122529555E+02 -0.75449982259E+02  0.26219042167E+03  0.12699999809E+01 0.  1.
</event>
<event>
 5   0  0.1226303E-02  0.6974566E+03  0.7818609E-02  0.9721592E-01
        1   -1    0    0  501    0  0.00000000000E+00  0.00000000000E+00  0.19554913073E+03  0.19554913080E+03  0.50400001928E-02 0.  1.
       -1   -1    0    0    0  501  0.00000000000E+00  0.00000000000E+00 -0.62189700149E+03  0.62189700151E+03  0.50400001928E-02 0. -1.
    10030    2    1    2    0    0  0.00000000000E+00  0.00000000000E+00 -0.42634787076E+03  0.81744613231E+03  0.69745657379E+03 0.  0.
        4    1    3    3  502    0  0.18605081246E+02 -0.22454976538E+03  0.98775708178E+02  0.24602235591E+03  0.12699999809E+01 0.  1.
       -4    1    3    3    0  502 -0.18605081246E+02  0.22454976538E+03 -0.52512357894E+03  0.57142377640E+03  0.12699999809E+01 0. -1.
</event>
<event>
 5   0  0.1973067E-02  0.7047838E+03  0.7818609E-02  0.9709086E-01
        2   -1    0    0  501    0  0.00000000000E+00  0.00000000000E+00  0.12968139389E+03  0.12968139391E+03  0.25500000920E-02 0.  1.
       -2   -1    0    0    0  501  0.00000000000E+00  0.00000000000E+00 -0.95757791652E+03  0.95757791653E+03  0.25500000920E-02 0. -1.
    10030    2    1    2    0    0  0.00000000000E+00  0.00000000000E+00 -0.82789652264E+03  0.10872593104E+04  0.70478376538E+03 0.  0.
        5    1    3    3  502    0  0.19880894360E+03 -0.63045190494E+01 -0.86263681024E+03  0.88528475610E+03  0.46999998093E+01 0. -1.
       -5    1    3    3    0  502 -0.19880894360E+03  0.63045190494E+01  0.34740287600E+02  0.20197455433E+03  0.46999998093E+01 0.  1.
</event>
<event>
 5   0  0.1197259E-02  0.6981289E+03  0.7818609E-02  0.9720437E-01
        1   -1    0    0  501    0  0.00000000000E+00  0.00000000000E+00  0.62422050017E+03  0.62422050019E+03  0.50400001928E-02 0.  1.
       -1   -1    0    0    0  501  0.00000000000E+00  0.00000000000E+00 -0.19519702441E+03  0.19519702447E+03  0.50400001928E-02 0. -1.
    10030    2    1    2    0    0  0.00000000000E+00  0.00000000000E+00  0.42902347577E+03  0.81941752466E+03  0.69812888277E+03 0.  0.
        3    1    3    3  502    0 -0.10960664281E+03 -0.15946947984E+03 -0.12648137434E+03  0.23117456479E+03  0.10100000352E+00 0. -1.
       -3    1    3    3    0  502  0.10960664281E+03  0.15946947984E+03  0.55550485011E+03  0.58824295988E+03  0.10100000352E+00 0.  1.
</event>
<event>
 5   0  0.2026361E-02  0.7059431E+03  0.7818609E-02  0.9707122E-01
        2   -1    0    0  501    0  0.00000000000E+00  0.00000000000E+00  0.10481207532E+04  0.10481207532E+04  0.25500000920E-02 0.  1.
       -2   -1    0    0    0  501  0.00000000000E+00  0.00000000000E+00 -0.11886886439E+03  0.11886886441E+03  0.25500000920E-02 0. -1.
    10030    2    1    2    0    0  0.00000000000E+00  0.00000000000E+00  0.92925188879E+03  0.11669896176E+04  0.70594312430E+03 0.  0.
        2    1    3    3  502    0 -0.19392706355E+03 -0.23177609550E+03  0.76611067250E+03  0.82356142876E+03  0.25500000920E-02 0.  1.
       -2    1    3    3    0  502  0.19392706355E+03  0.23177609550E+03  0.16314121629E+03  0.34342818883E+03  0.25500000920E-02 0. -1.
</event>
<event>
 5   0  0.2006362E-02  0.7027710E+03  0.7818609E-02  0.9712505E-01
       -2   -1    0    0    0  501  0.00000000000E+00  0.00000000000E+00  0.24861733041E+03  0.24861733043E+03  0.25500000920E-02 0. -1.
        2   -1    0    0  501    0  0.00000000000E+00  0.00000000000E+00 -0.49663376897E+03  0.49663376898E+03  0.25500000920E-02 0.  1.
    10030    2    1    2    0    0  0.00000000000E+00  0.00000000000E+00 -0.24801643856E+03  0.74525109941E+03  0.70277097789E+03 0.  0.
        4    1    3    3  502    0  0.20997953105E+03  0.19072255202E+03  0.95900011592E+02  0.29944101328E+03  0.12699999809E+01 0. -1.
       -4    1    3    3    0  502 -0.20997953105E+03 -0.19072255202E+03 -0.34391645015E+03  0.44581008613E+03  0.12699999809E+01 0.  1.
</event>
<event>
 5   0  0.2026361E-02  0.7032785E+03  0.7818609E-02  0.9711642E-01
        2   -1    0    0  501    0  0.00000000000E+00  0.00000000000E+00  0.28306475656E+03  0.28306475657E+03  0.25500000920E-02 0. -1.
       -2   -1    0    0    0  501  0.00000000000E+00  0.00000000000E+00 -0.43682647173E+03  0.43682647174E+03  0.25500000920E-02 0.  1.
    10030    2    1    2    0    0  0.00000000000E+00  0.00000000000E+00 -0.15376171517E+03  0.71989122831E+03  0.70327854762E+03 0.  0.
        2    1    3    3  502    0  0.30082437832E+03 -0.36266919747E+02 -0.25953233777E+03  0.39895818129E+03  0.25500000920E-02 0.  1.
       -2    1    3    3    0  502 -0.30082437832E+03  0.36266919747E+02  0.10577062260E+03  0.32093304702E+03  0.25500000920E-02 0. -1.
</event>
<event>
 5   0  0.1226303E-02  0.6862943E+03  0.7818609E-02  0.9740962E-01
        1   -1    0    0  501    0  0.00000000000E+00  0.00000000000E+00  0.54554468378E+03  0.54554468381E+03  0.50400001928E-02 0. -1.
       -1   -1    0    0    0  501  0.00000000000E+00  0.00000000000E+00 -0.21583924692E+03  0.21583924698E+03  0.50400001928E-02 0.  1.
    10030    2    1    2    0    0  0.00000000000E+00  0.00000000000E+00  0.32970543687E+03  0.76138393078E+03  0.68629426266E+03 0.  0.
        4    1    3    3  502    0  0.25889636052E+03 -0.59184619897E+01 -0.84915567254E+02  0.27253370460E+03  0.12699999809E+01 0.  1.
       -4    1    3    3    0  502 -0.25889636052E+03  0.59184619897E+01  0.41462100412E+03  0.48885022618E+03  0.12699999809E+01 0. -1.
</event>
<event>
 5   0  0.1973067E-02  0.6912121E+03  0.7818609E-02  0.9732380E-01
       -2   -1    0    0    0  501  0.00000000000E+00  0.00000000000E+00  0.11701912466E+03  0.11701912469E+03  0.25500000920E-02 0. -1.
        2   -1    0    0  501    0  0.00000000000E+00  0.00000000000E+00 -0.10207180527E+04  0.10207180527E+04  0.25500000920E-02 0.  1.
    10030    2    1    2    0    0  0.00000000000E+00  0.00000000000E+00 -0.90369892801E+03  0.11377371774E+04  0.69121207475E+03 0.  0.
        5    1    3    3  502    0 -0.32139990646E+03  0.44192574331E+02 -0.25590899943E+03  0.41323406139E+03  0.46999998093E+01 0. -1.
       -5    1    3    3    0  502  0.32139990646E+03 -0.44192574331E+02 -0.64778992858E+03  0.72450311599E+03  0.46999998093E+01 0.  1.
</event>
<event>
 5   0  0.7947250E-03  0.7017872E+03  0.7818609E-02  0.9714181E-01
        4   -1    0    0  501    0  0.00000000000E+00  0.00000000000E+00  0.37640884573E+03  0.37641098821E+03  0.12699999809E+01 0.  1.
       -4   -1    0    0    0  501  0.00000000000E+00  0.00000000000E+00 -0.32710366707E+03  0.32710613248E+03  0.12699999809E+01 0. -1.
    10030    2    1    2    0    0  0.00000000000E+00  0.00000000000E+00  0.49305178662E+02  0.70351712069E+03  0.70178724587E+03 0.  0.
        5    1    3    3  502    0 -0.32991096711E+03  0.54210473672E+02  0.13133023075E+03  0.35923493869E+03  0.46999998093E+01 0.  1.
       -5    1    3    3    0  502  0.32991096711E+03 -0.54210473672E+02 -0.82025052087E+02  0.34428218200E+03  0.46999998093E+01 0. -1.
</event>
<event>
 5   0  0.1226303E-02  0.6865691E+03  0.7818609E-02  0.9740481E-01
        1   -1    0    0  501    0  0.00000000000E+00  0.00000000000E+00  0.67334923236E+03  0.67334923238E+03  0.50400001928E-02 0.  1.
       -1   -1    0    0    0  501  0.00000000000E+00  0.00000000000E+00 -0.17501212005E+03  0.17501212012E+03  0.50400001928E-02 0. -1.
    10030    2    1    2    0    0  0.00000000000E+00  0.00000000000E+00  0.49833711231E+03  0.84836135250E+03  0.68656908386E+03 0.  0.
        4    1    3    3  502    0  0.26365315085E+03 -0.70067776139E+02 -0.83108361185E+01  0.27293435127E+03  0.12699999809E+01 0. -1.
       -4    1    3    3    0  502 -0.26365315085E+03  0.70067776139E+02  0.50664794843E+03  0.57542700123E+03  0.12699999809E+01 0.  1.
</event>
<event>
 5   0  0.1237686E-02  0.6993648E+03  0.7818609E-02  0.9718319E-01
       -1   -1    0    0    0  501  0.00000000000E+00  0.00000000000E+00  0.80539844322E+03  0.80539844324E+03  0.50400001928E-02 0. -1.
        1   -1    0    0  501    0  0.00000000000E+00  0.00000000000E+00 -0.15182270578E+03  0.15182270586E+03  0.50400001928E-02 0.  1.
    10030    2    1    2    0    0  0.00000000000E+00  0.00000000000E+00  0.65357573744E+03  0.95722114910E+03  0.69936477157E+03 0.  0.
        5    1    3    3  502    0  0.84395590520E+02 -0.21442506857E+03 -0.33143904010E+02  0.23285474894E+03  0.46999998093E+01 0.  1.
       -5    1    3    3    0  502 -0.84395590520E+02  0.21442506857E+03  0.68671964145E+03  0.72436640017E+03  0.46999998093E+01 0. -1.
</event>
<event>
 5   0  0.1223742E-02  0.7073816E+03  0.7818609E-02  0.9704691E-01
       -1   -1    0    0    0  501  0.00000000000E+00  0.00000000000E+00  0.37768030855E+03  0.37768030858E+03  0.50400001928E-02 0. -1.
        1   -1    0    0  501    0  0.00000000000E+00  0.00000000000E+00 -0.33122508262E+03  0.33122508266E+03  0.50400001928E-02 0.  1.
    10030    2    1    2    0    0  0.00000000000E+00  0.00000000000E+00  0.46455225927E+02  0.70890539125E+03  0.70738162665E+03 0.  0.
        2    1    3    3  502    0  0.30395965539E+03 -0.39602707256E+02 -0.15361026405E+03  0.34286434599E+03  0.25500000920E-02 0.  1.
       -2    1    3    3    0  502 -0.30395965539E+03  0.39602707256E+02  0.20006548997E+03  0.36604104525E+03  0.25500000920E-02 0. -1.
</event>
<event>
 5   0  0.1909053E-02  0.7031313E+03  0.7818609E-02  0.9711892E-01
       -2   -1    0    0    0  501  0.00000000000E+00  0.00000000000E+00  0.74735691957E+02  0.74735692000E+02  0.25500000920E-02 0. -1.
        2   -1    0    0  501    0  0.00000000000E+00  0.00000000000E+00 -0.16538070362E+04  0.16538070362E+04  0.25500000920E-02 0.  1.
    10030    2    1    2    0    0  0.00000000000E+00  0.00000000000E+00 -0.15790713442E+04  0.17285427282E+04  0.70313131989E+03 0.  0.
        1    1    3    3  502    0  0.26825928429E+03  0.21604027257E+03 -0.96270491337E+03  0.10224662309E+04  0.50400001928E-02 0.  1.
       -1    1    3    3    0  502 -0.26825928429E+03 -0.21604027257E+03 -0.61636643086E+03  0.70607649734E+03  0.50400001928E-02 0. -1.
</event>
<event>
 5   0  0.1226303E-02  0.7029672E+03  0.7818609E-02  0.9712171E-01
       -1   -1    0    0    0  501  0.00000000000E+00  0.00000000000E+00  0.77206788172E+02  0.77206788336E+02  0.50400001928E-02 0. -1.
        1   -1    0    0  501    0  0.00000000000E+00  0.00000000000E+00 -0.16001277095E+04  0.16001277095E+04  0.50400001928E-02 0.  1.
    10030    2    1    2    0    0  0.00000000000E+00  0.00000000000E+00 -0.15229209213E+04  0.16773344978E+04  0.70296720053E+03 0.  0.
        4    1    3    3  502    0  0.12536353945E+03  0.23344615399E+03 -0.13124635812E+04  0.13389456257E+04  0.12699999809E+01 0.  1.
       -4    1    3    3    0  502 -0.12536353945E+03 -0.23344615399E+03 -0.21045734011E+03  0.33838887207E+03  0.12699999809E+01 0. -1.
</event>
<event>
 5   0  0.1948138E-02  0.7056207E+03  0.7818609E-02  0.9707668E-01
        2   -1    0    0  501    0  0.00000000000E+00  0.00000000000E+00  0.18136773579E+03  0.18136773581E+03  0.25500000920E-02 0.  1.
       -2   -1    0    0    0  501  0.00000000000E+00  0.00000000000E+00 -0.68631355756E+03  0.68631355757E+03  0.25500000920E-02 0. -1.
    10030    2    1    2    0    0  0.00000000000E+00  0.00000000000E+00 -0.50494582177E+03  0.86768129338E+03  0.70562067994E+03 0.  0.
        3    1    3    3  502    0 -0.15124925633E+02 -0.84973468698E+02  0.16818579079E+03  0.18903894885E+03  0.10100000352E+00 0.  1.
       -3    1    3    3    0  502  0.15124925633E+02  0.84973468698E+02 -0.67313161256E+03  0.67864234453E+03  0.10100000352E+00 0. -1.
</event>
<event>
 5   0  0.1909053E-02  0.7013397E+03  0.7818609E-02  0.9714944E-01
       -2   -1    0    0    0  501  0.00000000000E+00  0.00000000000E+00  0.71730133234E+03  0.71730133234E+03  0.25500000920E-02 0.  1.
        2   -1    0    0  501    0  0.00000000000E+00  0.00000000000E+00 -0.17143329238E+03  0.17143329240E+03  0.25500000920E-02 0. -1.
    10030    2    1    2    0    0  0.00000000000E+00  0.00000000000E+00  0.54586803996E+03  0.88873462474E+03  0.70133965820E+03 0.  0.
        1    1    3    3  502    0  0.22835596844E+01 -0.10678389339E+03  0.69618747744E+03  0.70433303082E+03  0.50400001928E-02 0.  1.
       -1    1    3    3    0  502 -0.22835596844E+01  0.10678389339E+03 -0.15031943748E+03  0.18440159392E+03  0.50400001928E-02 0. -1.
</event>
<event>
 5   0  0.1909053E-02  0.6984371E+03  0.7818609E-02  0.9719909E-01
        2   -1    0    0  501    0  0.00000000000E+00  0.00000000000E+00  0.10568526685E+04  0.10568526685E+04  0.25500000920E-02 0. -1.
       -2   -1    0    0    0  501  0.00000000000E+00  0.00000000000E+00 -0.11539320013E+03  0.11539320016E+03  0.25500000920E-02 0.  1.
    10030    2    1    2    0    0  0.00000000000E+00  0.00000000000E+00  0.94145946834E+03  0.11722458686E+04  0.69843714534E+03 0.  0.
        1    1    3    3  502    0  0.43622319969E+02 -0.15370885201E+02  0.10516893767E+04  0.10527059020E+04  0.50400001928E-02 0. -1.
       -1    1    3    3    0  502 -0.43622319969E+02  0.15370885201E+02 -0.11022990836E+03  0.11953996668E+03  0.50400001928E-02 0.  1.
</event>
<event>
 5   0  0.1973067E-02  0.7064286E+03  0.7818609E-02  0.9706301E-01
        2   -1    0    0  501    0  0.00000000000E+00  0.00000000000E+00  0.45439570047E+03  0.45439570047E+03  0.25500000920E-02 0. -1.
       -2   -1    0    0    0  501  0.00000000000E+00  0.00000000000E+00 -0.27456324551E+03  0.27456324552E+03  0.25500000920E-02 0.  1.
    10030    2    1    2    0    0  0.00000000000E+00  0.00000000000E+00  0.17983245496E+03  0.72895894600E+03  0.70642864685E+03 0.  0.
        5    1    3    3  502    0 -0.34161516689E+03  0.40813853296E+02  0.17228416308E+03  0.38479944870E+03  0.46999998093E+01 0. -1.
       -5    1    3    3    0  502  0.34161516689E+03 -0.40813853296E+02  0.75482918741E+01  0.34415949730E+03  0.46999998093E+01 0.  1.
</event>
<event>
 5   0  0.1237686E-02  0.7006352E+03  0.7818609E-02  0.9716147E-01
        1   -1    0    0  501    0  0.00000000000E+00  0.00000000000E+00  0.75996825375E+03  0.75996825376E+03  0.50400001928E-02 0. -1.
       -1   -1    0    0    0  501  0.00000000000E+00  0.00000000000E+00 -0.16148361020E+03  0.16148361027E+03  0.50400001928E-02 0.  1.
    10030    2    1    2    0    0  0.00000000000E+00  0.00000000000E+00  0.59848464355E+03  0.92145186404E+03  0.70063518979E+03 0.  0.
        5    1    3    3  502    0  0.35630447260E+02 -0.29771404324E+03  0.61065914587E+02  0.30602992703E+03  0.46999998093E+01 0. -1.
       -5    1    3    3    0  502 -0.35630447260E+02  0.29771404324E+03  0.53741872896E+03  0.61542193701E+03  0.46999998093E+01 0.  1.
</event>
<event>
 5   0  0.1948138E-02  0.6966715E+03  0.7818609E-02  0.9722941E-01
        2   -1    0    0  501    0  0.00000000000E+00  0.00000000000E+00  0.17119977845E+04  0.17119977845E+04  0.25500000920E-02 0. -1.
       -2   -1    0    0    0  501  0.00000000000E+00  0.00000000000E+00 -0.70874978000E+02  0.70874978046E+02  0.25500000920E-02 0.  1.
    10030    2    1    2    0    0  0.00000000000E+00  0.00000000000E+00  0.16411228065E+04  0.17828727626E+04  0.69667153051E+03 0.  0.
        3    1    3    3  502    0 -0.33015694142E+03  0.10685425702E+03  0.89802981001E+03  0.96274554690E+03  0.10100000352E+00 0. -1.
       -3    1    3    3    0  502  0.33015694142E+03 -0.10685425702E+03  0.74309299651E+03  0.82012721566E+03  0.10100000352E+00 0.  1.
</event>
<event>
 5   0  0.1223742E-02  0.7011605E+03  0.7818609E-02  0.9715250E-01
       -1   -1    0    0    0  501  0.00000000000E+00  0.00000000000E+00  0.21577423150E+03  0.21577423156E+03  0.50400001928E-02 0. -1.
        1   -1    0    0  501    0  0.00000000000E+00  0.00000000000E+00 -0.56960699380E+03  0.56960699382E+03  0.50400001928E-02 0.  1.
    10030    2    1    2    0    0  0.00000000000E+00  0.00000000000E+00 -0.35383276230E+03  0.78538122538E+03  0.70116049910E+03 0.  0.
        2    1    3    3  502    0  0.12647929285E+01  0.22488372453E+02 -0.56879569262E+03  0.56924148351E+03  0.25500000920E-02 0.  1.
       -2    1    3    3    0  502 -0.12647929285E+01 -0.22488372453E+02  0.21496293032E+03  0.21613974187E+03  0.25500000920E-02 0. -1.
</event>
<event>
 5   0  0.1257442E-02  0.6963594E+03  0.7818609E-02  0.9723478E-01
       -1   -1    0    0    0  501  0.00000000000E+00  0.00000000000E+00  0.60608821135E+03  0.60608821137E+03  0.50400001928E-02 0. -1.
        1   -1    0    0  501    0  0.00000000000E+00  0.00000000000E+00 -0.20001891948E+03  0.20001891954E+03  0.50400001928E-02 0.  1.
    10030    2    1    2    0    0  0.00000000000E+00  0.00000000000E+00  0.40606929187E+03  0.80610713091E+03  0.69635941633E+03 0.  0.
        1    1    3    3  502    0  0.19213457504E+03 -0.88764496733E+02 -0.11700471547E+03  0.24183658589E+03  0.50400001928E-02 0.  1.
       -1    1    3    3    0  502 -0.19213457504E+03  0.88764496733E+02  0.52307400734E+03  0.56427054502E+03  0.50400001928E-02 0. -1.
</event>
<event>
 5   0  0.1197259E-02  0.7033350E+03  0.7818609E-02  0.9711546E-01
        1   -1    0    0  501    0  0.00000000000E+00  0.00000000000E+00  0.60359518479E+03  0.60359518481E+03  0.50400001928E-02 0. -1.
       -1   -1    0    0    0  501  0.00000000000E+00  0.00000000000E+00 -0.20488901618E+03  0.20488901624E+03  0.50400001928E-02 0.  1.
    10030    2    1    2    0    0  0.00000000000E+00  0.00000000000E+00  0.39870616861E+03  0.80848420105E+03  0.70333498026E+03 0.  0.
        3    1    3    3  502    0 -0.35074711866E+03 -0.12435536491E+02  0.22484583213E+03  0.41681391801E+03  0.10100000352E+00 0. -1.
       -3    1    3    3    0  502  0.35074711866E+03  0.12435536491E+02  0.17386033649E+03  0.39167028305E+03  0.10100000352E+00 0.  1.
</event>
<event>
 5   0  0.1197259E-02  0.6988205E+03  0.7818609E-02  0.9719251E-01
        1   -1    0    0  501    0  0.00000000000E+00  0.00000000000E+00  0.38818769008E+03  0.38818769011E+03  0.50400001928E-02 0. -1.
       -1   -1    0    0    0  501  0.00000000000E+00  0.00000000000E+00 -0.31450639709E+03  0.31450639713E+03  0.50400001928E-02 0.  1.
    10030    2    1    2    0    0  0.00000000000E+00  0.00000000000E+00  0.73681292989E+02  0.70269408724E+03  0.69882046858E+03 0.  0.
        3    1    3    3  502    0  0.38963619842E+02  0.28852750794E+03 -0.15741719992E+03  0.33097805296E+03  0.10100000352E+00 0.  1.
       -3    1    3    3    0  502 -0.38963619842E+02 -0.28852750794E+03  0.23109849291E+03  0.37171603428E+03  0.10100000352E+00 0. -1.
</event>
<event>
 5   0  0.2026361E-02  0.7025108E+03  0.7818609E-02  0.9712948E-01
       -2   -1    0    0    0  501  0.00000000000E+00  0.00000000000E+00  0.15205761487E+03  0.15205761489E+03  0.25500000920E-02 0. -1.
        2   -1    0    0  501    0  0.00000000000E+00  0.00000000000E+00 -0.81140540031E+03  0.81140540031E+03  0.25500000920E-02 0.  1.
    10030    2    1    2    0    0  0.00000000000E+00  0.00000000000E+00 -0.65934778544E+03  0.96346301520E+03  0.70251083941E+03 0.  0.
        2    1    3    3  502    0 -0.19826763719E+03 -0.19754178826E+03 -0.38590361893E+02  0.28252792801E+03  0.25500000920E-02 0. -1.
       -2    1    3    3    0  502  0.19826763719E+03  0.19754178826E+03 -0.62075742355E+03  0.68093508719E+03  0.25500000920E-02 0.  1.
</event>
<event>
 5   0  0.1237686E-02  0.6762025E+03  0.7818609E-02  0.9758817E-01
       -1   -1    0    0    0  501  0.00000000000E+00  0.00000000000E+00  0.50970659422E+03  0.50970659425E+03  0.50400001928E-02 0.  1.
        1   -1    0    0  501    0  0.00000000000E+00  0.00000000000E+00 -0.22427111272E+03  0.22427111278E+03  0.50400001928E-02 0. -1.
    10030    2    1    2    0    0  0.00000000000E+00  0.00000000000E+00  0.28543548150E+03  0.73397770703E+03  0.67620252906E+03 0.  0.
        5    1    3    3  502    0 -0.28355623412E+03 -0.20464666502E+02  0.34128941168E+03  0.44421109059E+03  0.46999998093E+01 0.  1.
       -5    1    3    3    0  502  0.28355623412E+03  0.20464666502E+02 -0.55853930180E+02  0.28976661643E+03  0.46999998093E+01 0. -1.
</event>
<event>
 5   0  0.1973067E-02  0.6699536E+03  0.7818609E-02  0.9770042E-01
       -2   -1    0    0    0  501  0.00000000000E+00  0.00000000000E+00  0.17528690611E+03  0.17528690613E+03  0.25500000920E-02 0.  1.
        2   -1    0    0  501    0  0.00000000000E+00  0.00000000000E+00 -0.64014731609E+03  0.64014731609E+03  0.25500000920E-02 0. -1.
    10030    2    1    2    0    0  0.00000000000E+00  0.00000000000E+00 -0.46486040997E+03  0.81543422223E+03  0.66995355810E+03 0.  0.
        5    1    3    3  502    0  0.10044948804E+03 -0.27456438229E+02  0.15504325829E+03  0.18682734700E+03  0.46999998093E+01 0.  1.
       -5    1    3    3    0  502 -0.10044948804E+03  0.27456438229E+02 -0.61990366827E+03  0.62860687522E+03  0.46999998093E+01 0. -1.
</event>
<event>
 5   0  0.7947250E-03  0.7066638E+03  0.7818609E-02  0.9705904E-01
       -4   -1    0    0    0  501  0.00000000000E+00  0.00000000000E+00  0.52628377387E+03  0.52628530622E+03  0.12699999809E+01 0.  1.
        4   -1    0    0  501    0  0.00000000000E+00  0.00000000000E+00 -0.23721334532E+03  0.23721674497E+03  0.12699999809E+01 0. -1.
    10030    2    1    2    0    0  0.00000000000E+00  0.00000000000E+00  0.28907042855E+03  0.76350205119E+03  0.70666375986E+03 0.  0.
        1    1    3    3  502    0  0.11473440929E+03  0.15006456595E+03 -0.17807830391E+03  0.25960593402E+03  0.50400001928E-02 0. -1.
       -1    1    3    3    0  502 -0.11473440929E+03 -0.15006456595E+03  0.46714873247E+03  0.50389611717E+03  0.50400001928E-02 0.  1.
</event>
<event>
 5   0  0.1973067E-02  0.6987164E+03  0.7818609E-02  0.9719430E-01
        2   -1    0    0  501    0  0.00000000000E+00  0.00000000000E+00  0.13854343831E+04  0.13854343831E+04  0.25500000920E-02 0. -1.
       -2   -1    0    0    0  501  0.00000000000E+00  0.00000000000E+00 -0.88095939286E+02  0.88095939323E+02  0.25500000920E-02 0.  1.
    10030    2    1    2    0    0  0.00000000000E+00  0.00000000000E+00  0.12973384438E+04  0.14735303224E+04  0.69871637544E+03 0.  0.
        5    1    3    3  502    0 -0.17348577895E+03  0.22986317056E+03  0.10656508104E+04  0.11038877354E+04  0.46999998093E+01 0. -1.
       -5    1    3    3    0  502  0.17348577895E+03 -0.22986317056E+03  0.23168763347E+03  0.36964258708E+03  0.46999998093E+01 0.  1.
</event>
<event>
 5   0  0.1257442E-02  0.6896771E+03  0.7818609E-02  0.9735050E-01
        1   -1    0    0  501    0  0.00000000000E+00  0.00000000000E+00  0.82453390689E+03  0.82453390690E+03  0.50400001928E-02 0.  1.
       -1   -1    0    0    0  501  0.00000000000E+00  0.00000000000E+00 -0.14421922688E+03  0.14421922696E+03  0.50400001928E-02 0. -1.
    10030    2    1    2    0    0  0.00000000000E+00  0.00000000000E+00  0.68031468001E+03  0.96875313387E+03  0.68967714950E+03 0.  0.
        1    1    3    3  502    0 -0.56531008383E+02  0.34008251405E+03  0.35119712929E+03  0.49212934775E+03  0.50400001928E-02 0. -1.
       -1    1    3    3    0  502  0.56531008383E+02 -0.34008251405E+03  0.32911755072E+03  0.47662378611E+03  0.50400001928E-02 0.  1.
</event>
<event>
 5   0  0.1223742E-02  0.6989287E+03  0.7818609E-02  0.9719066E-01
       -1   -1    0    0    0  501  0.00000000000E+00  0.00000000000E+00  0.15287399881E+03  0.15287399890E+03  0.50400001928E-02 0.  1.
        1   -1    0    0  501    0  0.00000000000E+00  0.00000000000E+00 -0.79886274931E+03  0.79886274933E+03  0.50400001928E-02 0. -1.
    10030    2    1    2    0    0  0.00000000000E+00  0.00000000000E+00 -0.64598875050E+03  0.95173674822E+03  0.69892873181E+03 0.  0.
        2    1    3    3  502    0  0.14622157240E+03  0.47048451508E+01  0.10916815043E+03  0.18253922559E+03  0.25500000920E-02 0.  1.
       -2    1    3    3    0  502 -0.14622157240E+03 -0.47048451508E+01 -0.75515690093E+03  0.76919752264E+03  0.25500000920E-02 0. -1.
</event>
<event>
 5   0  0.1909053E-02  0.7050264E+03  0.7818609E-02  0.9708675E-01
       -2   -1    0    0    0  501  0.00000000000E+00  0.00000000000E+00  0.18923744289E+03  0.18923744291E+03  0.25500000920E-02 0.  1.
        2   -1    0    0  501    0  0.00000000000E+00  0.00000000000E+00 -0.65666469151E+03  0.65666469151E+03  0.25500000920E-02 0. -1.
    10030    2    1    2    0    0  0.00000000000E+00  0.00000000000E+00 -0.46742724861E+03  0.84590213442E+03  0.70502637417E+03 0.  0.
        1    1    3    3  502    0  0.30422165248E+03 -0.11709536353E+03 -0.39470111516E+03  0.51190927744E+03  0.50400001928E-02 0.  1.
       -1    1    3    3    0  502 -0.30422165248E+03  0.11709536353E+03 -0.72726133450E+02  0.33399285697E+03  0.50400001928E-02 0. -1.
</event>
<event>
 5   0  0.1909053E-02  0.7025236E+03  0.7818609E-02  0.9712926E-01
        2   -1    0    0  501    0  0.00000000000E+00  0.00000000000E+00  0.63234760320E+03  0.63234760320E+03  0.25500000920E-02 0. -1.
       -2   -1    0    0    0  501  0.00000000000E+00  0.00000000000E+00 -0.19512185737E+03  0.19512185738E+03  0.25500000920E-02 0.  1.
    10030    2    1    2    0    0  0.00000000000E+00  0.00000000000E+00  0.43722574583E+03  0.82746946059E+03  0.70252356216E+03 0.  0.
        1    1    3    3  502    0 -0.15358443671E+02  0.13598630305E+03  0.59965637610E+03  0.61507391900E+03  0.50400001928E-02 0. -1.
       -1    1    3    3    0  502  0.15358443671E+02 -0.13598630305E+03 -0.16243063027E+03  0.21239554159E+03  0.50400001928E-02 0.  1.
</event>
<event>
 5   0  0.1237686E-02  0.7060692E+03  0.7818609E-02  0.9706909E-01
        1   -1    0    0  501    0  0.00000000000E+00  0.00000000000E+00  0.43823884512E+03  0.43823884515E+03  0.50400001928E-02 0.  1.
       -1   -1    0    0    0  501  0.00000000000E+00  0.00000000000E+00 -0.28439615432E+03  0.28439615437E+03  0.50400001928E-02 0. -1.
    10030    2    1    2    0    0  0.00000000000E+00  0.00000000000E+00  0.15384269080E+03  0.72263499952E+03  0.70606923812E+03 0.  0.
        5    1    3    3  502    0 -0.32923007156E+03  0.61080494637E+02 -0.37450632455E+02  0.33696870287E+03  0.46999998093E+01 0. -1.
       -5    1    3    3    0  502  0.32923007156E+03 -0.61080494637E+02  0.19129332326E+03  0.38566629664E+03  0.46999998093E+01 0.  1.
</event>
<event>
 5   0  0.1223742E-02  0.6995225E+03  0.7818609E-02  0.9718049E-01
       -1   -1    0    0    0  501  0.00000000000E+00  0.00000000000E+00  0.27748852005E+03  0.27748852010E+03  0.50400001928E-02 0. -1.
        1   -1    0    0  501    0  0.00000000000E+00  0.00000000000E+00 -0.44085766415E+03  0.44085766418E+03  0.50400001928E-02 0.  1.
    10030    2    1    2    0    0  0.00000000000E+00  0.00000000000E+00 -0.16336914410E+03  0.71834618428E+03  0.69952252517E+03 0.  0.
        2    1    3    3  502    0  0.21114591524E+03 -0.10870345540E+03 -0.34537020937E+03  0.41914152773E+03  0.25500000920E-02 0.  1.
       -2    1    3    3    0  502 -0.21114591524E+03  0.10870345540E+03  0.18200106527E+03  0.29920465655E+03  0.25500000920E-02 0. -1.
</event>
<event>
 5   0  0.1973067E-02  0.7114464E+03  0.7818609E-02  0.9697855E-01
        2   -1    0    0  501    0  0.00000000000E+00  0.00000000000E+00  0.41155719325E+03  0.41155719326E+03  0.25500000920E-02 0.  1.
       -2   -1    0    0    0  501  0.00000000000E+00  0.00000000000E+00 -0.30746397340E+03  0.30746397341E+03  0.25500000920E-02 0. -1.
    10030    2    1    2    0    0  0.00000000000E+00  0.00000000000E+00  0.10409321985E+03  0.71902116667E+03  0.71144644191E+03 0.  0.
        5    1    3    3  502    0 -0.14936104540E+03 -0.24015981944E+03  0.27005479506E+03  0.39107178764E+03  0.46999998093E+01 0.  1.
       -5    1    3    3    0  502  0.14936104540E+03  0.24015981944E+03 -0.16596157521E+03  0.32794937903E+03  0.46999998093E+01 0. -1.
</event>
<event>
 5   0  0.1237686E-02  0.7031896E+03  0.7818609E-02  0.9711793E-01
        1   -1    0    0  501    0  0.00000000000E+00  0.00000000000E+00  0.37564601279E+03  0.37564601283E+03  0.50400001928E-02 0.  1.
       -1   -1    0    0    0  501  0.00000000000E+00  0.00000000000E+00 -0.32908345213E+03  0.32908345217E+03  0.50400001928E-02 0. -1.
    10030    2    1    2    0    0  0.00000000000E+00  0.00000000000E+00  0.46562560663E+02  0.70472946500E+03  0.70318955252E+03 0.  0.
        5    1    3    3  502    0  0.43075258495E+02 -0.22164158848E+03  0.29334556490E+03  0.37020829554E+03  0.46999998093E+01 0.  1.
       -5    1    3    3    0  502 -0.43075258495E+02  0.22164158848E+03 -0.24678300424E+03  0.33452116946E+03  0.46999998093E+01 0. -1.
</event>
<event>
 5   0  0.1223742E-02  0.7090542E+03  0.7818609E-02  0.9701872E-01
        1   -1    0    0  501    0  0.00000000000E+00  0.00000000000E+00  0.28562579443E+03  0.28562579447E+03  0.50400001928E-02 0.  1.
       -1   -1    0    0    0  501  0.00000000000E+00  0.00000000000E+00 -0.44004943624E+03  0.44004943627E+03  0.50400001928E-02 0. -1.
    10030    2    1    2    0    0  0.00000000000E+00  0.00000000000E+00 -0.15442364181E+03  0.72567523074E+03  0.70905421469E+03 0.  0.
        2    1    3    3  502    0  0.28048194620E+02  0.54061534494E+02 -0.43465530396E+03  0.43890156527E+03  0.25500000920E-02 0. -1.
       -2    1    3    3    0  502 -0.28048194620E+02 -0.54061534494E+02  0.28023166215E+03  0.28677366547E+03  0.25500000920E-02 0.  1.
</event>
<event>
 5   0  0.1973067E-02  0.7021722E+03  0.7818609E-02  0.9713525E-01
        2   -1    0    0  501    0  0.00000000000E+00  0.00000000000E+00  0.99343479267E+03  0.99343479267E+03  0.25500000920E-02 0.  1.
       -2   -1    0    0    0  501  0.00000000000E+00  0.00000000000E+00 -0.12407602552E+03  0.12407602555E+03  0.25500000920E-02 0. -1.
    10030    2    1    2    0    0  0.00000000000E+00  0.00000000000E+00  0.86935876715E+03  0.11175108182E+04  0.70217217462E+03 0.  0.
        5    1    3    3  502    0  0.18589137363E+03 -0.16671303313E+03  0.82739930784E+03  0.86426879084E+03  0.46999998093E+01 0.  1.
       -5    1    3    3    0  502 -0.18589137363E+03  0.16671303313E+03  0.41959459308E+02  0.25324202738E+03  0.46999998093E+01 0. -1.
</event>
<event>
 5   0  0.1909053E-02  0.7098401E+03  0.7818609E-02  0.9700551E-01
        2   -1    0    0  501    0  0.00000000000E+00  0.00000000000E+00  0.10926128618E+04  0.10926128618E+04  0.25500000920E-02 0.  1.
       -2   -1    0    0    0  501  0.00000000000E+00  0.00000000000E+00 -0.11529082646E+03  0.11529082649E+03  0.25500000920E-02 0. -1.
    10030    2    1    2    0    0  0.00000000000E+00  0.00000000000E+00  0.97732203531E+03  0.12079036883E+04  0.70984009425E+03 0.  0.
        1    1    3    3  502    0 -0.14661075931E+02  0.35447805978E+03  0.50555785477E+03  0.61762317521E+03  0.50400001928E-02 0.  1.
       -1    1    3    3    0  502  0.14661075931E+02 -0.35447805978E+03  0.47176418054E+03  0.59028051304E+03  0.50400001928E-02 0. -1.
</event>
<event>
 5   0  0.1223742E-02  0.6978141E+03  0.7818609E-02  0.9720978E-01
       -1   -1    0    0    0  501  0.00000000000E+00  0.00000000000E+00  0.58377127206E+03  0.58377127208E+03  0.50400001928E-02 0. -1.
        1   -1    0    0  501    0  0.00000000000E+00  0.00000000000E+00 -0.20853397222E+03  0.20853397228E+03  0.50400001928E-02 0.  1.
    10030    2    1    2    0    0  0.00000000000E+00  0.00000000000E+00  0.37523729984E+03  0.79230524437E+03  0.69781413647E+03 0.  0.
        2    1    3    3  502    0  0.53575912382E+02 -0.27280746253E+03  0.42697714353E+03  0.50951326882E+03  0.25500000920E-02 0. -1.
       -2    1    3    3    0  502 -0.53575912382E+02  0.27280746253E+03 -0.51739843695E+02  0.28279197554E+03  0.25500000920E-02 0.  1.
</event>
<event>
 5   0  0.1237686E-02  0.7746678E+03  0.7818609E-02  0.9597426E-01
       -1   -1    0    0    0  501  0.00000000000E+00  0.00000000000E+00  0.13983293247E+03  0.13983293256E+03  0.50400001928E-02 0. -1.
        1   -1    0    0  501    0  0.00000000000E+00  0.00000000000E+00 -0.10729057112E+04  0.10729057113E+04  0.50400001928E-02 0.  1.
    10030    2    1    2    0    0  0.00000000000E+00  0.00000000000E+00 -0.93307277877E+03  0.12127386438E+04  0.77466780475E+03 0.  0.
        5    1    3    3  502    0 -0.96599667032E+02  0.29724357014E+03 -0.82462170870E+03  0.88187770587E+03  0.46999998093E+01 0.  1.
       -5    1    3    3    0  502  0.96599667032E+02 -0.29724357014E+03 -0.10845107007E+03  0.33086093794E+03  0.46999998093E+01 0. -1.
</event>
<event>
 5   0  0.1197259E-02  0.6839502E+03  0.7818609E-02  0.9745080E-01
        1   -1    0    0  501    0  0.00000000000E+00  0.00000000000E+00  0.47761884139E+03  0.47761884141E+03  0.50400001928E-02 0.  1.
       -1   -1    0    0    0  501  0.00000000000E+00  0.00000000000E+00 -0.24485417263E+03  0.24485417268E+03  0.50400001928E-02 0. -1.
    10030    2    1    2    0    0  0.00000000000E+00  0.00000000000E+00  0.23276466876E+03  0.72247301409E+03  0.68395019195E+03 0.  0.
        3    1    3    3  502    0  0.80958255377E+02  0.26658388813E+03 -0.93094328936E+02  0.29374780477E+03  0.10100000352E+00 0. -1.
       -3    1    3    3    0  502 -0.80958255377E+02 -0.26658388813E+03  0.32585899770E+03  0.42872520932E+03  0.10100000352E+00 0.  1.
</event>
<event>
 5   0  0.1197259E-02  0.7018485E+03  0.7818609E-02  0.9714076E-01
        1   -1    0    0  501    0  0.00000000000E+00  0.00000000000E+00  0.31607660097E+03  0.31607660101E+03  0.50400001928E-02 0.  1.
       -1   -1    0    0    0  501  0.00000000000E+00  0.00000000000E+00 -0.38961390138E+03  0.38961390142E+03  0.50400001928E-02 0. -1.
    10030    2    1    2    0    0  0.00000000000E+00  0.00000000000E+00 -0.73537300418E+02  0.70569050242E+03  0.70184852401E+03 0.  0.
        3    1    3    3  502    0 -0.23395737338E+03 -0.12155469843E+02  0.22593542495E+03  0.32546986720E+03  0.10100000352E+00 0.  1.
       -3    1    3    3    0  502  0.23395737338E+03  0.12155469843E+02 -0.29947272537E+03  0.38022063522E+03  0.10100000352E+00 0. -1.
</event>
<event>
 5   0  0.1237686E-02  0.6829871E+03  0.7818609E-02  0.9746777E-01
        1   -1    0    0  501    0  0.00000000000E+00  0.00000000000E+00  0.66462735439E+03  0.66462735440E+03  0.50400001928E-02 0.  1.
       -1   -1    0    0    0  501  0.00000000000E+00  0.00000000000E+00 -0.17546350692E+03  0.17546350699E+03  0.50400001928E-02 0. -1.
    10030    2    1    2    0    0  0.00000000000E+00  0.00000000000E+00  0.48916384747E+03  0.84009086140E+03  0.68298710510E+03 0.  0.
        5    1    3    3  502    0  0.29543327371E+02  0.23291931287E+03  0.54954749273E+03  0.59761923602E+03  0.46999998093E+01 0.  1.
       -5    1    3    3    0  502 -0.29543327371E+02 -0.23291931287E+03 -0.60383645260E+02  0.24247162538E+03  0.46999998093E+01 0. -1.
</event>
<event>
 5   0  0.1226303E-02  0.6978855E+03  0.7818609E-02  0.9720855E-01
       -1   -1    0    0    0  501  0.00000000000E+00  0.00000000000E+00  0.99149813117E+02  0.99149813245E+02  0.50400001928E-02 0. -1.
        1   -1    0    0  501    0  0.00000000000E+00  0.00000000000E+00 -0.12280510506E+04  0.12280510506E+04  0.50400001928E-02 0.  1.
    10030    2    1    2    0    0  0.00000000000E+00  0.00000000000E+00 -0.11289012375E+04  0.13272008638E+04  0.69788546985E+03 0.  0.
        4    1    3    3  502    0  0.21500950378E+03  0.27463308847E+03 -0.58412237277E+03  0.68033299146E+03  0.12699999809E+01 0.  1.
       -4    1    3    3    0  502 -0.21500950378E+03 -0.27463308847E+03 -0.54477886470E+03  0.64686787239E+03  0.12699999809E+01 0. -1.
</event>
<event>
 5   0  0.1197259E-02  0.6501087E+03  0.7818609E-02  0.9806575E-01
        1   -1    0    0  501    0  0.00000000000E+00  0.00000000000E+00  0.50578837151E+03  0.50578837154E+03  0.50400001928E-02 0. -1.
       -1   -1    0    0    0  501  0.00000000000E+00  0.00000000000E+00 -0.20890225378E+03  0.20890225385E+03  0.50400001928E-02 0.  1.
    10030    2    1    2    0    0  0.00000000000E+00  0.00000000000E+00  0.29688611773E+03  0.71469062539E+03  0.65010870100E+03 0.  0.
        3    1    3    3  502    0  0.16459579178E+03  0.25648779210E+03  0.27273443595E+03  0.40897658236E+03  0.10100000352E+00 0. -1.
       -3    1    3    3    0  502 -0.16459579178E+03 -0.25648779210E+03  0.24151681781E+02  0.30571404302E+03  0.10100000352E+00 0.  1.
</event>
<event>
 5   0  0.2006362E-02  0.7040432E+03  0.7818609E-02  0.9710343E-01
       -2   -1    0    0    0  501  0.00000000000E+00  0.00000000000E+00  0.65462591309E+02  0.65462591359E+02  0.25500000920E-02 0.  1.
        2   -1    0    0  501    0  0.00000000000E+00  0.00000000000E+00 -0.18929771964E+04  0.18929771964E+04  0.25500000920E-02 0. -1.
    10030    2    1    2    0    0  0.00000000000E+00  0.00000000000E+00 -0.18275146051E+04  0.19584397878E+04  0.70404315952E+03 0.  0.
        4    1    3    3  502    0 -0.19691922721E+03  0.28874149829E+03 -0.79676870534E+03  0.87005219245E+03  0.12699999809E+01 0.  1.
       -4    1    3    3    0  502  0.19691922721E+03 -0.28874149829E+03 -0.10307458998E+04  0.10883875953E+04  0.12699999809E+01 0. -1.
</event>
<event>
 5   0  0.1197259E-02  0.7012937E+03  0.7818609E-02  0.9715022E-01
        1   -1    0    0  501    0  0.00000000000E+00  0.00000000000E+00  0.31812484883E+03  0.31812484887E+03  0.50400001928E-02 0. -1.
       -1   -1    0    0    0  501  0.00000000000E+00  0.00000000000E+00 -0.38649363877E+03  0.38649363881E+03  0.50400001928E-02 0.  1.
    10030    2    1    2    0    0  0.00000000000E+00  0.00000000000E+00 -0.68368789941E+02  0.70461848768E+03  0.70129374854E+03 0.  0.
        3    1    3    3  502    0  0.18619236098E+03 -0.20965477960E+03  0.17736187547E+03  0.33178301187E+03  0.10100000352E+00 0. -1.
       -3    1    3    3    0  502 -0.18619236098E+03  0.20965477960E+03 -0.24573066541E+03  0.37283547581E+03  0.10100000352E+00 0.  1.
</event>
<event>
 5   0  0.1948138E-02  0.6975692E+03  0.7818609E-02  0.9721398E-01
        2   -1    0    0  501    0  0.00000000000E+00  0.00000000000E+00  0.23136546288E+03  0.23136546289E+03  0.25500000920E-02 0.  1.
       -2   -1    0    0    0  501  0.00000000000E+00  0.00000000000E+00 -0.52579451234E+03  0.52579451235E+03  0.25500000920E-02 0. -1.
    10030    2    1    2    0    0  0.00000000000E+00  0.00000000000E+00 -0.29442904946E+03  0.75715997524E+03  0.69756918147E+03 0.  0.
        3    1    3    3  502    0  0.16995377826E+02 -0.23087783489E+03  0.13594919120E+03  0.26846901180E+03  0.10100000352E+00 0.  1.
       -3    1    3    3    0  502 -0.16995377826E+02  0.23087783489E+03 -0.43037824066E+03  0.48869096344E+03  0.10100000352E+00 0. -1.
</event>
<event>
 5   0  0.1948138E-02  0.6985664E+03  0.7818609E-02  0.9719687E-01
        2   -1    0    0  501    0  0.00000000000E+00  0.00000000000E+00  0.92328999574E+03  0.92328999575E+03  0.25500000920E-02 0.  1.
       -2   -1    0    0    0  501  0.00000000000E+00  0.00000000000E+00 -0.13213479966E+03  0.13213479969E+03  0.25500000920E-02 0. -1.
    10030    2    1    2    0    0  0.00000000000E+00  0.00000000000E+00  0.79115519608E+03  0.10554247954E+04  0.69856635658E+03 0.  0.
        3    1    3    3  502    0 -0.22147963275E+03 -0.15163949609E+02 -0.11833907643E+02  0.22231334792E+03  0.10100000352E+00 0. -1.
       -3    1    3    3    0  502  0.22147963275E+03  0.15163949609E+02  0.80298910372E+03  0.83311144752E+03  0.10100000352E+00 0.  1.
</event>
<event>
 5   0  0.7947250E-03  0.7026445E+03  0.7818609E-02  0.9712720E-01
        4   -1    0    0  501    0  0.00000000000E+00  0.00000000000E+00  0.98951527065E+03  0.98951608564E+03  0.12699999809E+01 0.  1.
       -4   -1    0    0    0  501  0.00000000000E+00  0.00000000000E+00 -0.12473103972E+03  0.12473750507E+03  0.12699999809E+01 0. -1.
    10030    2    1    2    0    0  0.00000000000E+00  0.00000000000E+00  0.86478423093E+03  0.11142535907E+04  0.70264450354E+03 0.  0.
        2    1    3    3  502    0 -0.90682553382E+02 -0.33927798501E+03  0.44780360872E+03  0.56908782151E+03  0.25500000920E-02 0. -1.
       -2    1    3    3    0  502  0.90682553382E+02  0.33927798501E+03  0.41698062221E+03  0.54516576920E+03  0.25500000920E-02 0.  1.
</event>
<event>
 5   0  0.1973067E-02  0.7010473E+03  0.7818609E-02  0.9715443E-01
       -2   -1    0    0    0  501  0.00000000000E+00  0.00000000000E+00  0.83142846354E+02  0.83142846393E+02  0.25500000920E-02 0.  1.
        2   -1    0    0  501    0  0.00000000000E+00  0.00000000000E+00 -0.14777799763E+04  0.14777799763E+04  0.25500000920E-02 0. -1.
    10030    2    1    2    0    0  0.00000000000E+00  0.00000000000E+00 -0.13946371299E+04  0.15609228227E+04  0.70104731236E+03 0.  0.
        5    1    3    3  502    0 -0.38116416827E+02  0.28026037843E+03 -0.23643708499E+03  0.36867780799E+03  0.46999998093E+01 0.  1.
       -5    1    3    3    0  502  0.38116416827E+02 -0.28026037843E+03 -0.11582000449E+04  0.11922450147E+04  0.46999998093E+01 0. -1.
</event>
<event>
 5   0  0.1237686E-02  0.7095574E+03  0.7818609E-02  0.9701026E-01
       -1   -1    0    0    0  501  0.00000000000E+00  0.00000000000E+00  0.14752403427E+03  0.14752403435E+03  0.50400001928E-02 0. -1.
        1   -1    0    0  501    0  0.00000000000E+00  0.00000000000E+00 -0.85320289602E+03  0.85320289604E+03  0.50400001928E-02 0.  1.
    10030    2    1    2    0    0  0.00000000000E+00  0.00000000000E+00 -0.70567886176E+03  0.10007269304E+04  0.70955742070E+03 0.  0.
        5    1    3    3  502    0  0.32674356073E+03 -0.10373976698E+03 -0.48150319020E+03  0.59109280651E+03  0.46999998093E+01 0.  1.
       -5    1    3    3    0  502 -0.32674356073E+03  0.10373976698E+03 -0.22417567155E+03  0.40963412388E+03  0.46999998093E+01 0. -1.
</event>
<event>
 5   0  0.1223742E-02  0.7007394E+03  0.7818609E-02  0.9715969E-01
       -1   -1    0    0    0  501  0.00000000000E+00  0.00000000000E+00  0.32460826182E+03  0.32460826186E+03  0.50400001928E-02 0. -1.
        1   -1    0    0  501    0  0.00000000000E+00  0.00000000000E+00 -0.37817560031E+03  0.37817560034E+03  0.50400001928E-02 0.  1.
    10030    2    1    2    0    0  0.00000000000E+00  0.00000000000E+00 -0.53567338495E+02  0.70278386220E+03  0.70073939322E+03 0.  0.
        2    1    3    3  502    0  0.20663548545E+03 -0.27133173983E+02 -0.30925143546E+03  0.37292208747E+03  0.25500000920E-02 0. -1.
       -2    1    3    3    0  502 -0.20663548545E+03  0.27133173983E+02  0.25568409697E+03  0.32986177473E+03  0.25500000920E-02 0.  1.
</event>
<event>
 5   0  0.1973067E-02  0.7224650E+03  0.7818609E-02  0.9679567E-01
       -2   -1    0    0    0  501  0.00000000000E+00  0.00000000000E+00  0.99701146410E+02  0.99701146442E+02  0.25500000920E-02 0. -1.
        2   -1    0    0  501    0  0.00000000000E+00  0.00000000000E+00 -0.13088007502E+04  0.13088007502E+04  0.25500000920E-02 0.  1.
    10030    2    1    2    0    0  0.00000000000E+00  0.00000000000E+00 -0.12090996038E+04  0.14085018966E+04  0.72246504480E+03 0.  0.
        5    1    3    3  502    0 -0.25702732270E+03  0.95479919138E+02 -0.10629593173E+04  0.10977632075E+04  0.46999998093E+01 0.  1.
       -5    1    3    3    0  502  0.25702732270E+03 -0.95479919138E+02 -0.14614028647E+03  0.31073868910E+03  0.46999998093E+01 0. -1.
</event>
<event>
 5   0  0.1909053E-02  0.6990253E+03  0.7818609E-02  0.9718901E-01
        2   -1    0    0  501    0  0.00000000000E+00  0.00000000000E+00  0.37169931699E+03  0.37169931700E+03  0.25500000920E-02 0. -1.
       -2   -1    0    0    0  501  0.00000000000E+00  0.00000000000E+00 -0.32865030052E+03  0.32865030053E+03  0.25500000920E-02 0.  1.
    10030    2    1    2    0    0  0.00000000000E+00  0.00000000000E+00  0.43049016476E+02  0.70034961753E+03  0.69902529922E+03 0.  0.
        1    1    3    3  502    0 -0.12353890001E+03 -0.25728991450E+03 -0.18059795245E+03  0.33775076665E+03  0.50400001928E-02 0.  1.
       -1    1    3    3    0  502  0.12353890001E+03  0.25728991450E+03  0.22364696893E+03  0.36259885088E+03  0.50400001928E-02 0. -1.
</event>
<event>
 5   0  0.1223742E-02  0.6994592E+03  0.7818609E-02  0.9718158E-01
       -1   -1    0    0    0  501  0.00000000000E+00  0.00000000000E+00  0.67407144707E+03  0.67407144708E+03  0.50400001928E-02 0. -1.
        1   -1    0    0  501    0  0.00000000000E+00  0.00000000000E+00 -0.18145076390E+03  0.18145076397E+03  0.50400001928E-02 0.  1.
    10030    2    1    2    0    0  0.00000000000E+00  0.00000000000E+00  0.49262068317E+03  0.85552221105E+03  0.69945915973E+03 0.  0.
        2    1    3    3  502    0  0.15416851932E+03 -0.90198374196E+02 -0.12145449011E+03  0.21599738941E+03  0.25500000920E-02 0.  1.
       -2    1    3    3    0  502 -0.15416851932E+03  0.90198374196E+02  0.61407517328E+03  0.63952482165E+03  0.25500000920E-02 0. -1.
</event>
<event>
 5   0  0.1909053E-02  0.7006642E+03  0.7818609E-02  0.9716097E-01
        2   -1    0    0  501    0  0.00000000000E+00  0.00000000000E+00  0.10436649559E+04  0.10436649559E+04  0.25500000920E-02 0.  1.
       -2   -1    0    0    0  501  0.00000000000E+00  0.00000000000E+00 -0.11759767034E+03  0.11759767037E+03  0.25500000920E-02 0. -1.
    10030    2    1    2    0    0  0.00000000000E+00  0.00000000000E+00  0.92606728557E+03  0.11612626263E+04  0.70066416335E+03 0.  0.
        1    1    3    3  502    0  0.15675532684E+03  0.17635795677E+03  0.33846691899E+02  0.23836937720E+03  0.50400001928E-02 0. -1.
       -1    1    3    3    0  502 -0.15675532684E+03 -0.17635795677E+03  0.89222059367E+03  0.92289324909E+03  0.50400001928E-02 0.  1.
</event>
<event>
 5   0  0.1226303E-02  0.7010727E+03  0.7818609E-02  0.9715399E-01
       -1   -1    0    0    0  501  0.00000000000E+00  0.00000000000E+00  0.12058892014E+03  0.12058892025E+03  0.50400001928E-02 0.  1.
        1   -1    0    0  501    0  0.00000000000E+00  0.00000000000E+00 -0.10189637866E+04  0.10189637866E+04  0.50400001928E-02 0. -1.
    10030    2    1    2    0    0  0.00000000000E+00  0.00000000000E+00 -0.89837486644E+03  0.11395527068E+04  0.70107272876E+03 0.  0.
        4    1    3    3  502    0 -0.59651260619E+02  0.29007690207E+03 -0.14435215086E+03  0.32945718746E+03  0.12699999809E+01 0.  1.
       -4    1    3    3    0  502  0.59651260619E+02 -0.29007690207E+03 -0.75402271558E+03  0.81009551938E+03  0.12699999809E+01 0. -1.
</event>
<event>
 5   0  0.7947250E-03  0.6991268E+03  0.7818609E-02  0.9718727E-01
       -3   -1    0    0    0  501  0.00000000000E+00  0.00000000000E+00  0.15674527402E+04  0.15674527435E+04  0.10100000352E+00 0.  1.
        3   -1    0    0  501    0  0.00000000000E+00  0.00000000000E+00 -0.77957389613E+02  0.77957455040E+02  0.10100000352E+00 0. -1.
    10030    2    1    2    0    0  0.00000000000E+00  0.00000000000E+00  0.14894953506E+04  0.16454101985E+04  0.69912682819E+03 0.  0.
        1    1    3    3  502    0 -0.14961501577E+03  0.68511608063E+02  0.18900477266E+02  0.16563731901E+03  0.50400001928E-02 0. -1.
       -1    1    3    3    0  502  0.14961501577E+03 -0.68511608063E+02  0.14705948734E+04  0.14797728795E+04  0.50400001928E-02 0.  1.
</event>
<event>
 5   0  0.1948138E-02  0.7100286E+03  0.7818609E-02  0.9700234E-01
        2   -1    0    0  501    0  0.00000000000E+00  0.00000000000E+00  0.36434974941E+03  0.36434974942E+03  0.25500000920E-02 0. -1.
       -2   -1    0    0    0  501  0.00000000000E+00  0.00000000000E+00 -0.34591801242E+03  0.34591801243E+03  0.25500000920E-02 0.  1.
    10030    2    1    2    0    0  0.00000000000E+00  0.00000000000E+00  0.18431736995E+02  0.71026776185E+03  0.71002856604E+03 0.  0.
        3    1    3    3  502    0  0.66636253325E+02 -0.26466331033E+03  0.23633436167E+03  0.36102769810E+03  0.10100000352E+00 0.  1.
       -3    1    3    3    0  502 -0.66636253325E+02  0.26466331033E+03 -0.21790262467E+03  0.34924006375E+03  0.10100000352E+00 0. -1.
</event>
<event>
 5   0  0.1226303E-02  0.7008264E+03  0.7818609E-02  0.9715820E-01
       -1   -1    0    0    0  501  0.00000000000E+00  0.00000000000E+00  0.23766336897E+03  0.23766336902E+03  0.50400001928E-02 0.  1.
        1   -1    0    0  501    0  0.00000000000E+00  0.00000000000E+00 -0.51665260076E+03  0.51665260078E+03  0.50400001928E-02 0. -1.
    10030    2    1    2    0    0  0.00000000000E+00  0.00000000000E+00 -0.27898923179E+03  0.75431596980E+03  0.70082636283E+03 0.  0.
        4    1    3    3  502    0  0.26507779065E+03 -0.11825079910E+03  0.71800344462E+02  0.29900901149E+03  0.12699999809E+01 0.  1.
       -4    1    3    3    0  502 -0.26507779065E+03  0.11825079910E+03 -0.35078957625E+03  0.45530695832E+03  0.12699999809E+01 0. -1.
</event>
<event>
 5   0  0.1948138E-02  0.6937085E+03  0.7818609E-02  0.9728052E-01
        2   -1    0    0  501    0  0.00000000000E+00  0.00000000000E+00  0.69437957630E+03  0.69437957630E+03  0.25500000920E-02 0. -1.
       -2   -1    0    0    0  501  0.00000000000E+00  0.00000000000E+00 -0.17325949958E+03  0.17325949960E+03  0.25500000920E-02 0.  1.
    10030    2    1    2    0    0  0.00000000000E+00  0.00000000000E+00  0.52112007672E+03  0.86763907590E+03  0.69370846303E+03 0.  0.
        3    1    3    3  502    0  0.17344509934E+03 -0.30011021645E+01 -0.11510694221E+03  0.20818700114E+03  0.10100000352E+00 0.  1.
       -3    1    3    3    0  502 -0.17344509934E+03  0.30011021645E+01  0.63622701893E+03  0.65945207476E+03  0.10100000352E+00 0. -1.
</event>
<event>
 5   0  0.2006362E-02  0.7019793E+03  0.7818609E-02  0.9713853E-01
        2   -1    0    0  501    0  0.00000000000E+00  0.00000000000E+00  0.47394422215E+03  0.47394422216E+03  0.25500000920E-02 0. -1.
       -2   -1    0    0    0  501  0.00000000000E+00  0.00000000000E+00 -0.25993297237E+03  0.25993297238E+03  0.25500000920E-02 0.  1.
    10030    2    1    2    0    0  0.00000000000E+00  0.00000000000E+00  0.21401124978E+03  0.73387719454E+03  0.70197928861E+03 0.  0.
        4    1    3    3  502    0  0.30169367004E+03 -0.16578966169E+03  0.17857692851E+03  0.38781002406E+03  0.12699999809E+01 0. -1.
       -4    1    3    3    0  502 -0.30169367004E+03  0.16578966169E+03  0.35434321275E+02  0.34606717048E+03  0.12699999809E+01 0.  1.
</event>
<event>
 5   0  0.2026361E-02  0.6987709E+03  0.7818609E-02  0.9719337E-01
        2   -1    0    0  501    0  0.00000000000E+00  0.00000000000E+00  0.11569781087E+04  0.11569781087E+04  0.25500000920E-02 0.  1.
       -2   -1    0    0    0  501  0.00000000000E+00  0.00000000000E+00 -0.10550776716E+03  0.10550776719E+03  0.25500000920E-02 0. -1.
    10030    2    1    2    0    0  0.00000000000E+00  0.00000000000E+00  0.10514703415E+04  0.12624858758E+04  0.69877085492E+03 0.  0.
        2    1    3    3  502    0 -0.34441958405E+03 -0.31583878139E+02  0.61512301024E+03  0.70569023584E+03  0.25500000920E-02 0. -1.
       -2    1    3    3    0  502  0.34441958405E+03  0.31583878139E+02  0.43634733126E+03  0.55679564001E+03  0.25500000920E-02 0.  1.
</event>
<event>
 5   0  0.2026361E-02  0.7071417E+03  0.7818609E-02  0.9705096E-01
       -2   -1    0    0    0  501  0.00000000000E+00  0.00000000000E+00  0.17387953566E+03  0.17387953568E+03  0.25500000920E-02 0.  1.
        2   -1    0    0  501    0  0.00000000000E+00  0.00000000000E+00 -0.71895954873E+03  0.71895954874E+03  0.25500000920E-02 0. -1.
    10030    2    1    2    0    0  0.00000000000E+00  0.00000000000E+00 -0.54508001307E+03  0.89283908442E+03  0.70714171848E+03 0.  0.
        2    1    3    3  502    0  0.19495362203E+03  0.45473284992E+01 -0.64492169561E+03  0.67375929412E+03  0.25500000920E-02 0. -1.
       -2    1    3    3    0  502 -0.19495362203E+03 -0.45473284992E+01  0.99841682539E+02  0.21907979030E+03  0.25500000920E-02 0.  1.
</event>
<event>
 5   0  0.1223742E-02  0.7184175E+03  0.7818609E-02  0.9686244E-01
       -1   -1    0    0    0  501  0.00000000000E+00  0.00000000000E+00  0.15564224717E+03  0.15564224725E+03  0.50400001928E-02 0.  1.
        1   -1    0    0  501    0  0.00000000000E+00  0.00000000000E+00 -0.82902251156E+03  0.82902251157E+03  0.50400001928E-02 0. -1.
    10030    2    1    2    0    0  0.00000000000E+00  0.00000000000E+00 -0.67338026439E+03  0.98466475882E+03  0.71841750173E+03 0.  0.
        2    1    3    3  502    0  0.30401224506E+03  0.44836067352E+02 -0.59162663331E+03  0.66667517678E+03  0.25500000920E-02 0. -1.
       -2    1    3    3    0  502 -0.30401224506E+03 -0.44836067352E+02 -0.81753631079E+02  0.31798958204E+03  0.25500000920E-02 0.  1.
</event>
<event>
 5   0  0.2026361E-02  0.7015808E+03  0.7818609E-02  0.9714533E-01
       -2   -1    0    0    0  501  0.00000000000E+00  0.00000000000E+00  0.34810555825E+03  0.34810555826E+03  0.25500000920E-02 0.  1.
        2   -1    0    0  501    0  0.00000000000E+00  0.00000000000E+00 -0.35349591070E+03  0.35349591071E+03  0.25500000920E-02 0. -1.
    10030    2    1    2    0    0  0.00000000000E+00  0.00000000000E+00 -0.53903524579E+01  0.70160146897E+03  0.70158076182E+03 0.  0.
        2    1    3    3  502    0 -0.42197421993E+02  0.10224262115E+03  0.33021060190E+03  0.34824304389E+03  0.25500000920E-02 0.  1.
       -2    1    3    3    0  502  0.42197421993E+02 -0.10224262115E+03 -0.33560095436E+03  0.35335842508E+03  0.25500000920E-02 0. -1.
</event>
<event>
 5   0  0.1973067E-02  0.6948062E+03  0.7818609E-02  0.9726156E-01
        2   -1    0    0  501    0  0.00000000000E+00  0.00000000000E+00  0.17113609586E+04  0.17113609586E+04  0.25500000920E-02 0. -1.
       -2   -1    0    0    0  501  0.00000000000E+00  0.00000000000E+00 -0.70522188351E+02  0.70522188397E+02  0.25500000920E-02 0.  1.
    10030    2    1    2    0    0  0.00000000000E+00  0.00000000000E+00  0.16408387702E+04  0.17818831470E+04  0.69480621730E+03 0.  0.
        5    1    3    3  502    0 -0.49356380727E+02 -0.24783870534E+03  0.14316646534E+04  0.14538039228E+04  0.46999998093E+01 0. -1.
       -5    1    3    3    0  502  0.49356380727E+02  0.24783870534E+03  0.20917411683E+03  0.32807922417E+03  0.46999998093E+01 0.  1.
</event>
<event>
 5   0  0.1973067E-02  0.6983419E+03  0.7818609E-02  0.9720072E-01
        2   -1    0    0  501    0  0.00000000000E+00  0.00000000000E+00  0.17798367653E+03  0.17798367655E+03  0.25500000920E-02 0. -1.
       -2   -1    0    0    0  501  0.00000000000E+00  0.00000000000E+00 -0.68500871544E+03  0.68500871544E+03  0.25500000920E-02 0.  1.
    10030    2    1    2    0    0  0.00000000000E+00  0.00000000000E+00 -0.50702503890E+03  0.86299239199E+03  0.69834194959E+03 0.  0.
        5    1    3    3  502    0  0.14543624490E+03 -0.31160534584E+03 -0.32815862013E+03  0.47535225134E+03  0.46999998093E+01 0.  1.
       -5    1    3    3    0  502 -0.14543624490E+03  0.31160534584E+03 -0.17886641877E+03  0.38764014066E+03  0.46999998093E+01 0. -1.
</event>
<event>
 5   0  0.1948138E-02  0.6765888E+03  0.7818609E-02  0.9758128E-01
        2   -1    0    0  501    0  0.00000000000E+00  0.00000000000E+00  0.13606989955E+04  0.13606989955E+04  0.25500000920E-02 0. -1.
       -2   -1    0    0    0  501  0.00000000000E+00  0.00000000000E+00 -0.84106115490E+02  0.84106115528E+02  0.25500000920E-02 0.  1.
    10030    2    1    2    0    0  0.00000000000E+00  0.00000000000E+00  0.12765928800E+04  0.14448051110E+04  0.67658881720E+03 0.  0.
        3    1    3    3  502    0  0.31881583370E+03  0.43446265045E+02  0.41522894372E+03  0.52530581538E+03  0.10100000352E+00 0.  1.
       -3    1    3    3    0  502 -0.31881583370E+03 -0.43446265045E+02  0.86136393628E+03  0.91949929564E+03  0.10100000352E+00 0. -1.
</event>
<event>
 5   0  0.1237686E-02  0.7005196E+03  0.7818609E-02  0.9716344E-01
       -1   -1    0    0    0  501  0.00000000000E+00  0.00000000000E+00  0.31453674124E+03  0.31453674128E+03  0.50400001928E-02 0. -1.
        1   -1    0    0  501    0  0.00000000000E+00  0.00000000000E+00 -0.39004009505E+03  0.39004009508E+03  0.50400001928E-02 0.  1.
    10030    2    1    2    0    0  0.00000000000E+00  0.00000000000E+00 -0.75503353814E+02  0.70457683636E+03  0.70051963705E+03 0.  0.
        5    1    3    3  502    0  0.24007818116E+03 -0.30742490314E+02 -0.29235253722E+03  0.37957177160E+03  0.46999998093E+01 0.  1.
       -5    1    3    3    0  502 -0.24007818116E+03  0.30742490314E+02  0.21684918340E+03  0.32500506476E+03  0.46999998093E+01 0. -1.
</event>
<event>
 5   0  0.1257442E-02  0.7101512E+03  0.7818609E-02  0.9700028E-01
       -1   -1    0    0    0  501  0.00000000000E+00  0.00000000000E+00  0.10780882376E+03  0.10780882388E+03  0.50400001928E-02 0. -1.
        1   -1    0    0  501    0  0.00000000000E+00  0.00000000000E+00 -0.11694652877E+04  0.11694652877E+04  0.50400001928E-02 0.  1.
    10030    2    1    2    0    0  0.00000000000E+00  0.00000000000E+00 -0.10616564640E+04  0.12772741116E+04  0.71015118724E+03 0.  0.
        1    1    3    3  502    0 -0.50225561059E+02 -0.18626883606E+03 -0.10669783730E+04  0.10842792697E+04  0.50400001928E-02 0.  1.
       -1    1    3    3    0  502  0.50225561059E+02  0.18626883606E+03  0.53219090023E+01  0.19299484193E+03  0.50400001928E-02 0. -1.
</event>
<event>
 5   0  0.1948138E-02  0.7012024E+03  0.7818609E-02  0.9715178E-01
        2   -1    0    0  501    0  0.00000000000E+00  0.00000000000E+00  0.17176303449E+03  0.17176303451E+03  0.25500000920E-02 0.  1.
       -2   -1    0    0    0  501  0.00000000000E+00  0.00000000000E+00 -0.71564400191E+03  0.71564400191E+03  0.25500000920E-02 0. -1.
    10030    2    1    2    0    0  0.00000000000E+00  0.00000000000E+00 -0.54388096741E+03  0.88740703642E+03  0.70120235423E+03 0.  0.
        3    1    3    3  502    0 -0.13243643690E+03 -0.30559052396E+03 -0.13332833440E+03  0.35874981967E+03  0.10100000352E+00 0.  1.
       -3    1    3    3    0  502  0.13243643690E+03  0.30559052396E+03 -0.41055263301E+03  0.52865721676E+03  0.10100000352E+00 0. -1.
</event>
<event>
 5   0  0.7947250E-03  0.6994494E+03  0.7818609E-02  0.9718174E-01
       -4   -1    0    0    0  501  0.00000000000E+00  0.00000000000E+00  0.14055897241E+03  0.14056470974E+03  0.12699999809E+01 0.  1.
        4   -1    0    0  501    0  0.00000000000E+00  0.00000000000E+00 -0.87012586439E+03  0.87012679121E+03  0.12699999809E+01 0. -1.
    10030    2    1    2    0    0  0.00000000000E+00  0.00000000000E+00 -0.72956689198E+03  0.10106915009E+04  0.69944939789E+03 0.  0.
        4    1    3    3  502    0 -0.24332799280E+03  0.15747886177E+03 -0.82003657343E+02  0.30122137491E+03  0.12699999809E+01 0.  1.
       -4    1    3    3    0  502  0.24332799280E+03 -0.15747886177E+03 -0.64756323464E+03  0.70947012604E+03  0.12699999809E+01 0. -1.
</event>
<event>
 5   0  0.2006362E-02  0.6483057E+03  0.7818609E-02  0.9809964E-01
        2   -1    0    0  501    0  0.00000000000E+00  0.00000000000E+00  0.44579942616E+03  0.44579942616E+03  0.25500000920E-02 0. -1.
       -2   -1    0    0    0  501  0.00000000000E+00  0.00000000000E+00 -0.23570029676E+03  0.23570029677E+03  0.25500000920E-02 0.  1.
    10030    2    1    2    0    0  0.00000000000E+00  0.00000000000E+00  0.21009912940E+03  0.68149972294E+03  0.64830565954E+03 0.  0.
        4    1    3    3  502    0  0.24616961534E+03  0.20806905414E+03  0.68920749627E+02  0.32961173134E+03  0.12699999809E+01 0.  1.
       -4    1    3    3    0  502 -0.24616961534E+03 -0.20806905414E+03  0.14117837977E+03  0.35188799159E+03  0.12699999809E+01 0. -1.
</event>
<event>
 5   0  0.7947250E-03  0.6941626E+03  0.7818609E-02  0.9727267E-01
        3   -1    0    0  501    0  0.00000000000E+00  0.00000000000E+00  0.80868463670E+03  0.80868464300E+03  0.10100000352E+00 0. -1.
       -3   -1    0    0    0  501  0.00000000000E+00  0.00000000000E+00 -0.14896463040E+03  0.14896466464E+03  0.10100000352E+00 0.  1.
    10030    2    1    2    0    0  0.00000000000E+00  0.00000000000E+00  0.65972000629E+03  0.95764930764E+03  0.69416259603E+03 0.  0.
        4    1    3    3  502    0 -0.51427574762E+02  0.33941091640E+02 -0.14135525585E+03  0.15420672620E+03  0.12699999809E+01 0.  1.
       -4    1    3    3    0  502  0.51427574762E+02 -0.33941091640E+02  0.80107526215E+03  0.80344258144E+03  0.12699999809E+01 0. -1.
</event>
<event>
 5   0  0.1226303E-02  0.7017176E+03  0.7818609E-02  0.9714299E-01
        1   -1    0    0  501    0  0.00000000000E+00  0.00000000000E+00  0.43378518749E+03  0.43378518752E+03  0.50400001928E-02 0. -1.
       -1   -1    0    0    0  501  0.00000000000E+00  0.00000000000E+00 -0.28378540417E+03  0.28378540422E+03  0.50400001928E-02 0.  1.
    10030    2    1    2    0    0  0.00000000000E+00  0.00000000000E+00  0.14999978331E+03  0.71757059173E+03  0.70171762065E+03 0.  0.
        4    1    3    3  502    0 -0.36933429353E+02 -0.31701314758E+03 -0.74028163556E+02  0.32763271486E+03  0.12699999809E+01 0.  1.
       -4    1    3    3    0  502  0.36933429353E+02  0.31701314758E+03  0.22402794687E+03  0.38993787688E+03  0.12699999809E+01 0. -1.
</event>
<event>
 5   0  0.2006362E-02  0.7214917E+03  0.7818609E-02  0.9681168E-01
        2   -1    0    0  501    0  0.00000000000E+00  0.00000000000E+00  0.14267158764E+04  0.14267158764E+04  0.25500000920E-02 0.  1.
       -2   -1    0    0    0  501  0.00000000000E+00  0.00000000000E+00 -0.91214781652E+02  0.91214781688E+02  0.25500000920E-02 0. -1.
    10030    2    1    2    0    0  0.00000000000E+00  0.00000000000E+00  0.13355010948E+04  0.15179306581E+04  0.72149172463E+03 0.  0.
        4    1    3    3  502    0 -0.13324783508E+03 -0.12383482843E+03  0.12346369063E+02  0.18232963560E+03  0.12699999809E+01 0. -1.
       -4    1    3    3    0  502  0.13324783508E+03  0.12383482843E+03  0.13231547257E+04  0.13356010225E+04  0.12699999809E+01 0.  1.
</event>
<event>
 5   0  0.1909053E-02  0.7040390E+03  0.7818609E-02  0.9710350E-01
        2   -1    0    0  501    0  0.00000000000E+00  0.00000000000E+00  0.46163171612E+03  0.46163171613E+03  0.25500000920E-02 0. -1.
       -2   -1    0    0    0  501  0.00000000000E+00  0.00000000000E+00 -0.26843416086E+03  0.26843416087E+03  0.25500000920E-02 0.  1.
    10030    2    1    2    0    0  0.00000000000E+00  0.00000000000E+00  0.19319755527E+03  0.73006587700E+03  0.70403898286E+03 0.  0.
        1    1    3    3  502    0  0.24611416378E+03 -0.12455012381E+02 -0.16407115610E+03  0.29605177458E+03  0.50400001928E-02 0.  1.
       -1    1    3    3    0  502 -0.24611416378E+03  0.12455012381E+02  0.35726871137E+03  0.43401410241E+03  0.50400001928E-02 0. -1.
</event>
<event>
 5   0  0.2026361E-02  0.7085976E+03  0.7818609E-02  0.9702641E-01
        2   -1    0    0  501    0  0.00000000000E+00  0.00000000000E+00  0.35368679798E+03  0.35368679799E+03  0.25500000920E-02 0. -1.
       -2   -1    0    0    0  501  0.00000000000E+00  0.00000000000E+00 -0.35491184876E+03  0.35491184877E+03  0.25500000920E-02 0.  1.
    10030    2    1    2    0    0  0.00000000000E+00  0.00000000000E+00 -0.12250507815E+01  0.70859864675E+03  0.70859758780E+03 0.  0.
        2    1    3    3  502    0  0.31529782318E+03  0.63223254153E+02  0.14810803233E+03  0.35404220994E+03  0.25500000920E-02 0. -1.
       -2    1    3    3    0  502 -0.31529782318E+03 -0.63223254153E+02 -0.14933308311E+03  0.35455643682E+03  0.25500000920E-02 0.  1.
</event>
<event>
 5   0  0.1197259E-02  0.7059082E+03  0.7818609E-02  0.9707181E-01
       -1   -1    0    0    0  501  0.00000000000E+00  0.00000000000E+00  0.10748182474E+03  0.10748182486E+03  0.50400001928E-02 0.  1.
        1   -1    0    0  501    0  0.00000000000E+00  0.00000000000E+00 -0.11590481373E+04  0.11590481373E+04  0.50400001928E-02 0. -1.
    10030    2    1    2    0    0  0.00000000000E+00  0.00000000000E+00 -0.10515663126E+04  0.12665299622E+04  0.70590823438E+03 0.  0.
        3    1    3    3  502    0 -0.14292415222E+03 -0.67660050321E+02 -0.10919370957E+04  0.11033276153E+04  0.10100000352E+00 0. -1.
       -3    1    3    3    0  502  0.14292415222E+03  0.67660050321E+02  0.40370783058E+02  0.16320234687E+03  0.10100000352E+00 0.  1.
</event>
<event>
 5   0  0.7947250E-03  0.7026164E+03  0.7818609E-02  0.9712768E-01
       -3   -1    0    0    0  501  0.00000000000E+00  0.00000000000E+00  0.74576655629E+03  0.74576656313E+03  0.10100000352E+00 0. -1.
        3   -1    0    0  501    0  0.00000000000E+00  0.00000000000E+00 -0.16549068660E+03  0.16549071742E+03  0.10100000352E+00 0.  1.
    10030    2    1    2    0    0  0.00000000000E+00  0.00000000000E+00  0.58027586970E+03  0.91125728055E+03  0.70261635791E+03 0.  0.
        4    1    3    3  502    0 -0.68299883736E+01 -0.58835732431E+02  0.73924096559E+03  0.74161115839E+03  0.12699999809E+01 0. -1.
       -4    1    3    3    0  502  0.68299883736E+01  0.58835732431E+02 -0.15896509589E+03  0.16964612216E+03  0.12699999809E+01 0.  1.
</event>
<event>
 5   0  0.1226303E-02  0.7017418E+03  0.7818609E-02  0.9714258E-01
        1   -1    0    0  501    0  0.00000000000E+00  0.00000000000E+00  0.70722832619E+03  0.70722832621E+03  0.50400001928E-02 0. -1.
       -1   -1    0    0    0  501  0.00000000000E+00  0.00000000000E+00 -0.17407446399E+03  0.17407446406E+03  0.50400001928E-02 0.  1.
    10030    2    1    2    0    0  0.00000000000E+00  0.00000000000E+00  0.53315386220E+03  0.88130279027E+03  0.70174180960E+03 0.  0.
        4    1    3    3  502    0  0.26981323109E+03  0.18947764706E+01 -0.15104179995E+02  0.27024529413E+03  0.12699999809E+01 0.  1.
       -4    1    3    3    0  502 -0.26981323109E+03 -0.18947764706E+01  0.54825804220E+03  0.61105749614E+03  0.12699999809E+01 0. -1.
</event>
<event>
 5   0  0.1223742E-02  0.6992721E+03  0.7818609E-02  0.9718478E-01
        1   -1    0    0  501    0  0.00000000000E+00  0.00000000000E+00  0.24813977335E+03  0.24813977340E+03  0.50400001928E-02 0.  1.
       -1   -1    0    0    0  501  0.00000000000E+00  0.00000000000E+00 -0.49264715254E+03  0.49264715256E+03  0.50400001928E-02 0. -1.
    10030    2    1    2    0    0  0.00000000000E+00  0.00000000000E+00 -0.24450737919E+03  0.74078692596E+03  0.69927205807E+03 0.  0.
        2    1    3    3  502    0 -0.17995408942E+03 -0.25214832677E+03 -0.29399921314E+03  0.42708054314E+03  0.25500000920E-02 0. -1.
       -2    1    3    3    0  502  0.17995408942E+03  0.25214832677E+03  0.49491833953E+02  0.31370638282E+03  0.25500000920E-02 0.  1.
</event>
<event>
 5   0  0.2026361E-02  0.7044657E+03  0.7818609E-02  0.9709626E-01
       -2   -1    0    0    0  501  0.00000000000E+00  0.00000000000E+00  0.99817470524E+02  0.99817470557E+02  0.25500000920E-02 0.  1.
        2   -1    0    0  501    0  0.00000000000E+00  0.00000000000E+00 -0.12429486755E+04  0.12429486755E+04  0.25500000920E-02 0. -1.
    10030    2    1    2    0    0  0.00000000000E+00  0.00000000000E+00 -0.11431312050E+04  0.13427661461E+04  0.70446573459E+03 0.  0.
        2    1    3    3  502    0 -0.28851912413E+03 -0.18770316235E+03 -0.42902681920E+03  0.55003615676E+03  0.25500000920E-02 0.  1.
       -2    1    3    3    0  502  0.28851912413E+03  0.18770316235E+03 -0.71410438578E+03  0.79272998930E+03  0.25500000920E-02 0. -1.
</event>
<event>
 5   0  0.1973067E-02  0.6988937E+03  0.7818609E-02  0.9719126E-01
        2   -1    0    0  501    0  0.00000000000E+00  0.00000000000E+00  0.13680290755E+04  0.13680290755E+04  0.25500000920E-02 0.  1.
       -2   -1    0    0    0  501  0.00000000000E+00  0.00000000000E+00 -0.89262053622E+02  0.89262053658E+02  0.25500000920E-02 0. -1.
    10030    2    1    2    0    0  0.00000000000E+00  0.00000000000E+00  0.12787670219E+04  0.14572911292E+04  0.69889365350E+03 0.  0.
        5    1    3    3  502    0  0.18379426925E+02 -0.14864027237E+03  0.12976383423E+04  0.13062614942E+04  0.46999998093E+01 0.  1.
       -5    1    3    3    0  502 -0.18379426925E+02  0.14864027237E+03 -0.18871320395E+02  0.15102963496E+03  0.46999998093E+01 0. -1.
</event>
<event>
 5   0  0.1257442E-02  0.6978973E+03  0.7818609E-02  0.9720835E-01
       -1   -1    0    0    0  501  0.00000000000E+00  0.00000000000E+00  0.51288959052E+03  0.51288959055E+03  0.50400001928E-02 0. -1.
        1   -1    0    0  501    0  0.00000000000E+00  0.00000000000E+00 -0.23741011488E+03  0.23741011493E+03  0.50400001928E-02 0.  1.
    10030    2    1    2    0    0  0.00000000000E+00  0.00000000000E+00  0.27547947564E+03  0.75029970548E+03  0.69789734671E+03 0.  0.
        1    1    3    3  502    0  0.12018727152E+03 -0.31079060758E+03  0.24910015214E+03  0.41603685872E+03  0.50400001928E-02 0. -1.
       -1    1    3    3    0  502 -0.12018727152E+03  0.31079060758E+03  0.26379323507E+02  0.33426284676E+03  0.50400001928E-02 0.  1.
</event>
<event>
 5   0  0.1909053E-02  0.6931772E+03  0.7818609E-02  0.9728972E-01
       -2   -1    0    0    0  501  0.00000000000E+00  0.00000000000E+00  0.13495132055E+03  0.13495132057E+03  0.25500000920E-02 0.  1.
        2   -1    0    0  501    0  0.00000000000E+00  0.00000000000E+00 -0.89012584450E+03  0.89012584450E+03  0.25500000920E-02 0. -1.
    10030    2    1    2    0    0  0.00000000000E+00  0.00000000000E+00 -0.75517452395E+03  0.10250771651E+04  0.69317720154E+03 0.  0.
        1    1    3    3  502    0  0.52342237554E+02 -0.10930908906E+01  0.12907019044E+03  0.13928395014E+03  0.50400001928E-02 0.  1.
       -1    1    3    3    0  502 -0.52342237554E+02  0.10930908906E+01 -0.88424471439E+03  0.88579321494E+03  0.50400001928E-02 0. -1.
</event>
<event>
 5   0  0.1226303E-02  0.6967325E+03  0.7818609E-02  0.9722836E-01
        1   -1    0    0  501    0  0.00000000000E+00  0.00000000000E+00  0.75272533699E+03  0.75272533701E+03  0.50400001928E-02 0. -1.
       -1   -1    0    0    0  501  0.00000000000E+00  0.00000000000E+00 -0.16122620679E+03  0.16122620687E+03  0.50400001928E-02 0.  1.
    10030    2    1    2    0    0  0.00000000000E+00  0.00000000000E+00  0.59149913020E+03  0.91395154387E+03  0.69673251935E+03 0.  0.
        4    1    3    3  502    0 -0.27526670360E+03 -0.78917152847E+02  0.35510618820E+02  0.28855206129E+03  0.12699999809E+01 0.  1.
       -4    1    3    3    0  502  0.27526670360E+03  0.78917152847E+02  0.55598851138E+03  0.62539948258E+03  0.12699999809E+01 0. -1.
</event>
<event>
 5   0  0.1973067E-02  0.6995413E+03  0.7818609E-02  0.9718017E-01
        2   -1    0    0  501    0  0.00000000000E+00  0.00000000000E+00  0.34346310149E+03  0.34346310150E+03  0.25500000920E-02 0. -1.
       -2   -1    0    0    0  501  0.00000000000E+00  0.00000000000E+00 -0.35619406354E+03  0.35619406355E+03  0.25500000920E-02 0.  1.
    10030    2    1    2    0    0  0.00000000000E+00  0.00000000000E+00 -0.12730962045E+02  0.69965716505E+03  0.69954132916E+03 0.  0.
        5    1    3    3  502    0  0.13012832331E+02  0.23327403414E+03  0.25393002775E+03  0.34509224535E+03  0.46999998093E+01 0. -1.
       -5    1    3    3    0  502 -0.13012832331E+02 -0.23327403414E+03 -0.26666098979E+03  0.35456491970E+03  0.46999998093E+01 0.  1.
</event>
<event>
 5   0  0.1909053E-02  0.7017978E+03  0.7818609E-02  0.9714163E-01
       -2   -1    0    0    0  501  0.00000000000E+00  0.00000000000E+00  0.20467086127E+03  0.20467086129E+03  0.25500000920E-02 0. -1.
        2   -1    0    0  501    0  0.00000000000E+00  0.00000000000E+00 -0.60160018686E+03  0.60160018687E+03  0.25500000920E-02 0.  1.
    10030    2    1    2    0    0  0.00000000000E+00  0.00000000000E+00 -0.39692932559E+03  0.80627104815E+03  0.70179777257E+03 0.  0.
        1    1    3    3  502    0  0.10456358070E+03 -0.15893379488E+02  0.18592284944E+03  0.21390055608E+03  0.50400001928E-02 0. -1.
       -1    1    3    3    0  502 -0.10456358070E+03  0.15893379488E+02 -0.58285217503E+03  0.59237049208E+03  0.50400001928E-02 0.  1.
</event>
<event>
 5   0  0.1973067E-02  0.6542019E+03  0.7818609E-02  0.9798926E-01
        2   -1    0    0  501    0  0.00000000000E+00  0.00000000000E+00  0.44802065427E+03  0.44802065428E+03  0.25500000920E-02 0. -1.
       -2   -1    0    0    0  501  0.00000000000E+00  0.00000000000E+00 -0.23881716751E+03  0.23881716752E+03  0.25500000920E-02 0.  1.
    10030    2    1    2    0    0  0.00000000000E+00  0.00000000000E+00  0.20920348677E+03  0.68683782180E+03  0.65420187601E+03 0.  0.
        5    1    3    3  502    0 -0.12005987018E+03  0.28230521977E+03  0.22367168523E+03  0.37968634727E+03  0.46999998093E+01 0. -1.
       -5    1    3    3    0  502  0.12005987018E+03 -0.28230521977E+03 -0.14468198464E+02  0.30715147452E+03  0.46999998093E+01 0.  1.
</event>
<event>
 5   0  0.1973067E-02  0.7030870E+03  0.7818609E-02  0.9711967E-01
       -2   -1    0    0    0  501  0.00000000000E+00  0.00000000000E+00  0.19505684030E+03  0.19505684032E+03  0.25500000920E-02 0. -1.
        2   -1    0    0  501    0  0.00000000000E+00  0.00000000000E+00 -0.63357347528E+03  0.63357347529E+03  0.25500000920E-02 0.  1.
    10030    2    1    2    0    0  0.00000000000E+00  0.00000000000E+00 -0.43851663499E+03  0.82863031560E+03  0.70308702220E+03 0.  0.
        5    1    3    3  502    0 -0.25429740212E+03  0.24266509090E+03 -0.22242843167E+03  0.41599280316E+03  0.46999998093E+01 0. -1.
       -5    1    3    3    0  502  0.25429740212E+03 -0.24266509090E+03 -0.21608820331E+03  0.41263751244E+03  0.46999998093E+01 0.  1.
</event>
<event>
 5   0  0.7947250E-03  0.7308781E+03  0.7818609E-02  0.9665837E-01
        4   -1    0    0  501    0  0.00000000000E+00  0.00000000000E+00  0.97047476972E+03  0.97047560070E+03  0.12699999809E+01 0. -1.
       -4   -1    0    0    0  501  0.00000000000E+00  0.00000000000E+00 -0.13760480048E+03  0.13761066098E+03  0.12699999809E+01 0.  1.
    10030    2    1    2    0    0  0.00000000000E+00  0.00000000000E+00  0.83286996924E+03  0.11080862617E+04  0.73087808674E+03 0.  0.
        2    1    3    3  502    0 -0.24839221741E+03 -0.74673721651E+02  0.80672716857E+03  0.84739812538E+03  0.25500000920E-02 0. -1.
       -2    1    3    3    0  502  0.24839221741E+03  0.74673721651E+02  0.26142800668E+02  0.26068813631E+03  0.25500000920E-02 0.  1.
</event>
<event>
 5   0  0.1909053E-02  0.6979192E+03  0.7818609E-02  0.9720797E-01
        2   -1    0    0  501    0  0.00000000000E+00  0.00000000000E+00  0.26628718051E+03  0.26628718052E+03  0.25500000920E-02 0.  1.
       -2   -1    0    0    0  501  0.00000000000E+00  0.00000000000E+00 -0.45729877212E+03  0.45729877213E+03  0.25500000920E-02 0. -1.
    10030    2    1    2    0    0  0.00000000000E+00  0.00000000000E+00 -0.19101159161E+03  0.72358595265E+03  0.69791919500E+03 0.  0.
        1    1    3    3  502    0 -0.15320267608E+02 -0.29487089447E+03 -0.28832732799E+03  0.41269383700E+03  0.50400001928E-02 0. -1.
       -1    1    3    3    0  502  0.15320267608E+02  0.29487089447E+03  0.97315736380E+02  0.31089211565E+03  0.50400001928E-02 0.  1.
</event>
<event>
 5   0  0.1223742E-02  0.7025065E+03  0.7818609E-02  0.9712955E-01
        1   -1    0    0  501    0  0.00000000000E+00  0.00000000000E+00  0.44701421907E+03  0.44701421910E+03  0.50400001928E-02 0. -1.
       -1   -1    0    0    0  501  0.00000000000E+00  0.00000000000E+00 -0.27600653963E+03  0.27600653967E+03  0.50400001928E-02 0.  1.
    10030    2    1    2    0    0  0.00000000000E+00  0.00000000000E+00  0.17100767945E+03  0.72302075877E+03  0.70250650615E+03 0.  0.
        2    1    3    3  502    0  0.53974993388E+02 -0.33753382804E+03  0.22945503436E+01  0.34182985526E+03  0.25500000920E-02 0. -1.
       -2    1    3    3    0  502 -0.53974993388E+02  0.33753382804E+03  0.16871312910E+03  0.38119090351E+03  0.25500000920E-02 0.  1.
</event>
<event>
 5   0  0.2006362E-02  0.6994497E+03  0.7818609E-02  0.9718174E-01
       -2   -1    0    0    0  501  0.00000000000E+00  0.00000000000E+00  0.20710082081E+03  0.20710082082E+03  0.25500000920E-02 0.  1.
        2   -1    0    0  501    0  0.00000000000E+00  0.00000000000E+00 -0.59056971322E+03  0.59056971322E+03  0.25500000920E-02 0. -1.
    10030    2    1    2    0    0  0.00000000000E+00  0.00000000000E+00 -0.38346889241E+03  0.79767053404E+03  0.69944970472E+03 0.  0.
        4    1    3    3  502    0 -0.23510827392E+03 -0.12846550409E+03 -0.44808070341E+03  0.52207012544E+03  0.12699999809E+01 0. -1.
       -4    1    3    3    0  502  0.23510827392E+03  0.12846550409E+03  0.64611811000E+02  0.27560040861E+03  0.12699999809E+01 0.  1.
</event>
<event>
 5   0  0.1197259E-02  0.6999076E+03  0.7818609E-02  0.9717390E-01
        1   -1    0    0  501    0  0.00000000000E+00  0.00000000000E+00  0.43959443747E+03  0.43959443750E+03  0.50400001928E-02 0.  1.
       -1   -1    0    0    0  501  0.00000000000E+00  0.00000000000E+00 -0.27859238262E+03  0.27859238267E+03  0.50400001928E-02 0. -1.
    10030    2    1    2    0    0  0.00000000000E+00  0.00000000000E+00  0.16100205485E+03  0.71818682017E+03  0.69990759890E+03 0.  0.
        3    1    3    3  502    0  0.82235392492E+02  0.23618445313E+03 -0.17068153988E+03  0.30278367515E+03  0.10100000352E+00 0. -1.
       -3    1    3    3    0  502 -0.82235392492E+02 -0.23618445313E+03  0.33168359473E+03  0.41540314502E+03  0.10100000352E+00 0.  1.
</event>
<event>
 5   0  0.1948138E-02  0.7115348E+03  0.7818609E-02  0.9697707E-01
       -2   -1    0    0    0  501  0.00000000000E+00  0.00000000000E+00  0.23100552211E+03  0.23100552212E+03  0.25500000920E-02 0. -1.
        2   -1    0    0  501    0  0.00000000000E+00  0.00000000000E+00 -0.54791092857E+03  0.54791092857E+03  0.25500000920E-02 0.  1.
    10030    2    1    2    0    0  0.00000000000E+00  0.00000000000E+00 -0.31690540646E+03  0.77891645070E+03  0.71153482032E+03 0.  0.
        3    1    3    3  502    0  0.27226895921E+03  0.63912204098E+02 -0.39917520440E+03  0.48739717889E+03  0.10100000352E+00 0.  1.
       -3    1    3    3    0  502 -0.27226895921E+03 -0.63912204098E+02  0.82269797943E+02  0.29151927181E+03  0.10100000352E+00 0. -1.
</event>
<event>
 5   0  0.1226303E-02  0.6982767E+03  0.7818609E-02  0.9720184E-01
       -1   -1    0    0    0  501  0.00000000000E+00  0.00000000000E+00  0.11283593049E+03  0.11283593060E+03  0.50400001928E-02 0.  1.
        1   -1    0    0  501    0  0.00000000000E+00  0.00000000000E+00 -0.10803082756E+04  0.10803082756E+04  0.50400001928E-02 0. -1.
    10030    2    1    2    0    0  0.00000000000E+00  0.00000000000E+00 -0.96747234514E+03  0.11931442062E+04  0.69827670610E+03 0.  0.
        4    1    3    3  502    0  0.29480500671E+03 -0.68168248300E+02 -0.78135921170E+03  0.83790257946E+03  0.12699999809E+01 0. -1.
       -4    1    3    3    0  502 -0.29480500671E+03  0.68168248300E+02 -0.18611313344E+03  0.35524162678E+03  0.12699999809E+01 0.  1.
</event>
<event>
 5   0  0.1909053E-02  0.6987539E+03  0.7818609E-02  0.9719366E-01
       -2   -1    0    0    0  501  0.00000000000E+00  0.00000000000E+00  0.11058551821E+03  0.11058551824E+03  0.25500000920E-02 0. -1.
        2   -1    0    0  501    0  0.00000000000E+00  0.00000000000E+00 -0.11037996397E+04  0.11037996397E+04  0.25500000920E-02 0.  1.
    10030    2    1    2    0    0  0.00000000000E+00  0.00000000000E+00 -0.99321412145E+03  0.12143851579E+04  0.69875390568E+03 0.  0.
        1    1    3    3  502    0 -0.46748597780E+02  0.26902754193E+03 -0.11782208372E+03  0.29739417134E+03  0.50400001928E-02 0.  1.
       -1    1    3    3    0  502  0.46748597780E+02 -0.26902754193E+03 -0.87539203773E+03  0.91699098657E+03  0.50400001928E-02 0. -1.
</event>
<event>
 5   0  0.1237686E-02  0.6975511E+03  0.7818609E-02  0.9721429E-01
       -1   -1    0    0    0  501  0.00000000000E+00  0.00000000000E+00  0.34186999097E+03  0.34186999101E+03  0.50400001928E-02 0.  1.
        1   -1    0    0  501    0  0.00000000000E+00  0.00000000000E+00 -0.35582055665E+03  0.35582055669E+03  0.50400001928E-02 0. -1.
    10030    2    1    2    0    0  0.00000000000E+00  0.00000000000E+00 -0.13950565677E+02  0.69769054770E+03  0.69755106054E+03 0.  0.
        5    1    3    3  502    0  0.23098343996E+03 -0.69895872343E+02  0.24483585622E+03  0.34381022236E+03  0.46999998093E+01 0.  1.
       -5    1    3    3    0  502 -0.23098343996E+03  0.69895872343E+02 -0.25878642190E+03  0.35388032534E+03  0.46999998093E+01 0. -1.
</event>
<event>
 5   0  0.1226303E-02  0.7009543E+03  0.7818609E-02  0.9715602E-01
       -1   -1    0    0    0  501  0.00000000000E+00  0.00000000000E+00  0.18569052168E+03  0.18569052175E+03  0.50400001928E-02 0.  1.
        1   -1    0    0  501    0  0.00000000000E+00  0.00000000000E+00 -0.66149974295E+03  0.66149974297E+03  0.50400001928E-02 0. -1.
    10030    2    1    2    0    0  0.00000000000E+00  0.00000000000E+00 -0.47580922127E+03  0.84719026472E+03  0.70095429921E+03 0.  0.
        4    1    3    3  502    0 -0.20349404196E+03 -0.43606016405E+02  0.10292162266E+03  0.23217618976E+03  0.12699999809E+01 0.  1.
       -4    1    3    3    0  502  0.20349404196E+03  0.43606016405E+02 -0.57873084393E+03  0.61501407496E+03  0.12699999809E+01 0. -1.
</event>
<event>
 5   0  0.1948138E-02  0.6945094E+03  0.7818609E-02  0.9726668E-01
       -2   -1    0    0    0  501  0.00000000000E+00  0.00000000000E+00  0.19873305975E+03  0.19873305977E+03  0.25500000920E-02 0.  1.
        2   -1    0    0  501    0  0.00000000000E+00  0.00000000000E+00 -0.60677290033E+03  0.60677290034E+03  0.25500000920E-02 0. -1.
    10030    2    1    2    0    0  0.00000000000E+00  0.00000000000E+00 -0.40803984058E+03  0.80550596010E+03  0.69450942417E+03 0.  0.
        3    1    3    3  502    0 -0.28400818656E+03  0.14391285358E+03 -0.43250847306E+02  0.32131325128E+03  0.10100000352E+00 0.  1.
       -3    1    3    3    0  502  0.28400818656E+03 -0.14391285358E+03 -0.36478899328E+03  0.48419270882E+03  0.10100000352E+00 0. -1.
</event>
<event>
 5   0  0.1237686E-02  0.6999334E+03  0.7818609E-02  0.9717346E-01
        1   -1    0    0  501    0  0.00000000000E+00  0.00000000000E+00  0.66306355218E+03  0.66306355220E+03  0.50400001928E-02 0.  1.
       -1   -1    0    0    0  501  0.00000000000E+00  0.00000000000E+00 -0.18471333211E+03  0.18471333218E+03  0.50400001928E-02 0. -1.
    10030    2    1    2    0    0  0.00000000000E+00  0.00000000000E+00  0.47835022007E+03  0.84777688438E+03  0.69993336301E+03 0.  0.
        5    1    3    3  502    0 -0.20746570219E+03  0.26981858526E+03  0.33765375950E+03  0.47945410400E+03  0.46999998093E+01 0.  1.
       -5    1    3    3    0  502  0.20746570219E+03 -0.26981858526E+03  0.14069646057E+03  0.36832278039E+03  0.46999998093E+01 0. -1.
</event>
<event>
 5   0  0.1197259E-02  0.6980235E+03  0.7818609E-02  0.9720618E-01
        1   -1    0    0  501    0  0.00000000000E+00  0.00000000000E+00  0.10683142068E+03  0.10683142080E+03  0.50400001928E-02 0.  1.
       -1   -1    0    0    0  501  0.00000000000E+00  0.00000000000E+00 -0.11402001055E+04  0.11402001055E+04  0.50400001928E-02 0. -1.
    10030    2    1    2    0    0  0.00000000000E+00  0.00000000000E+00 -0.10333686848E+04  0.12470315263E+04  0.69802348732E+03 0.  0.
        3    1    3    3  502    0 -0.62235821887E+02 -0.28026698679E+03 -0.16213227669E+03  0.32971164183E+03  0.10100000352E+00 0.  1.
       -3    1    3    3    0  502  0.62235821887E+02  0.28026698679E+03 -0.87123640814E+03  0.91731988449E+03  0.10100000352E+00 0. -1.
</event>
<event>
 5   0  0.1223742E-02  0.7029555E+03  0.7818609E-02  0.9712191E-01
       -1   -1    0    0    0  501  0.00000000000E+00  0.00000000000E+00  0.28594823856E+03  0.28594823860E+03  0.50400001928E-02 0.  1.
        1   -1    0    0  501    0  0.00000000000E+00  0.00000000000E+00 -0.43202437142E+03  0.43202437144E+03  0.50400001928E-02 0. -1.
    10030    2    1    2    0    0  0.00000000000E+00  0.00000000000E+00 -0.14607613286E+03  0.71797261005E+03  0.70295549802E+03 0.  0.
        2    1    3    3  502    0  0.10958134351E+03 -0.32182459450E+03  0.18072234969E+02  0.34044932979E+03  0.25500000920E-02 0. -1.
       -2    1    3    3    0  502 -0.10958134351E+03  0.32182459450E+03 -0.16414836782E+03  0.37752328026E+03  0.25500000920E-02 0.  1.
</event>
<event>
 5   0  0.2026361E-02  0.6977396E+03  0.7818609E-02  0.9721106E-01
       -2   -1    0    0    0  501  0.00000000000E+00  0.00000000000E+00  0.20098004724E+03  0.20098004726E+03  0.25500000920E-02 0. -1.
        2   -1    0    0  501    0  0.00000000000E+00  0.00000000000E+00 -0.60558313454E+03  0.60558313454E+03  0.25500000920E-02 0.  1.
    10030    2    1    2    0    0  0.00000000000E+00  0.00000000000E+00 -0.40460308729E+03  0.80656318180E+03  0.69773957031E+03 0.  0.
        2    1    3    3  502    0 -0.32867543962E+03 -0.11588386809E+03 -0.22070688474E+03  0.41251441729E+03  0.25500000920E-02 0. -1.
       -2    1    3    3    0  502  0.32867543962E+03  0.11588386809E+03 -0.18389620255E+03  0.39404876451E+03  0.25500000920E-02 0.  1.
</event>
<event>
 5   0  0.1223742E-02  0.7011553E+03  0.7818609E-02  0.9715259E-01
       -1   -1    0    0    0  501  0.00000000000E+00  0.00000000000E+00  0.99651636771E+02  0.99651636899E+02  0.50400001928E-02 0.  1.
        1   -1    0    0  501    0  0.00000000000E+00  0.00000000000E+00 -0.12333432824E+04  0.12333432824E+04  0.50400001928E-02 0. -1.
    10030    2    1    2    0    0  0.00000000000E+00  0.00000000000E+00 -0.11336916456E+04  0.13329949193E+04  0.70115526634E+03 0.  0.
        2    1    3    3  502    0  0.54832190859E+02  0.10541692963E+02 -0.12248355336E+04  0.12261075731E+04  0.25500000920E-02 0. -1.
       -2    1    3    3    0  502 -0.54832190859E+02 -0.10541692963E+02  0.91143888004E+02  0.10688734617E+03  0.25500000920E-02 0.  1.
</event>
<event>
 5   0  0.1223742E-02  0.6978039E+03  0.7818609E-02  0.9720995E-01
        1   -1    0    0  501    0  0.00000000000E+00  0.00000000000E+00  0.12478013800E+04  0.12478013801E+04  0.50400001928E-02 0.  1.
       -1   -1    0    0    0  501  0.00000000000E+00  0.00000000000E+00 -0.97557658770E+02  0.97557658900E+02  0.50400001928E-02 0. -1.
    10030    2    1    2    0    0  0.00000000000E+00  0.00000000000E+00  0.11502437213E+04  0.13453590390E+04  0.69780393046E+03 0.  0.
        2    1    3    3  502    0  0.16823303819E+02 -0.23141307794E+02  0.12455359788E+04  0.12458645264E+04  0.25500000920E-02 0.  1.
       -2    1    3    3    0  502 -0.16823303819E+02  0.23141307794E+02 -0.95292257519E+02  0.99494512549E+02  0.25500000920E-02 0. -1.
</event>
<event>
 5   0  0.1197259E-02  0.7008899E+03  0.7818609E-02  0.9715712E-01
        1   -1    0    0  501    0  0.00000000000E+00  0.00000000000E+00  0.11562936352E+04  0.11562936352E+04  0.50400001928E-02 0.  1.
       -1   -1    0    0    0  501  0.00000000000E+00  0.00000000000E+00 -0.10621147524E+03  0.10621147536E+03  0.50400001928E-02 0. -1.
    10030    2    1    2    0    0  0.00000000000E+00  0.00000000000E+00  0.10500821600E+04  0.12625051106E+04  0.70088987121E+03 0.  0.
        3    1    3    3  502    0  0.19746742124E+03 -0.21195814728E+03  0.16980790129E+03  0.33578917819E+03  0.10100000352E+00 0. -1.
       -3    1    3    3    0  502 -0.19746742124E+03  0.21195814728E+03  0.88027425868E+03  0.92671593239E+03  0.10100000352E+00 0.  1.
</event>
<event>
 5   0  0.1909053E-02  0.6995277E+03  0.7818609E-02  0.9718040E-01
       -2   -1    0    0    0  501  0.00000000000E+00  0.00000000000E+00  0.10468238080E+03  0.10468238083E+03  0.25500000920E-02 0. -1.
        2   -1    0    0  501    0  0.00000000000E+00  0.00000000000E+00 -0.11686277822E+04  0.11686277822E+04  0.25500000920E-02 0.  1.
    10030    2    1    2    0    0  0.00000000000E+00  0.00000000000E+00 -0.10639454014E+04  0.12733101630E+04  0.69952766502E+03 0.  0.
        1    1    3    3  502    0  0.74657308172E+02  0.32453469915E+03 -0.72664724950E+03  0.79932015479E+03  0.50400001928E-02 0.  1.
       -1    1    3    3    0  502 -0.74657308172E+02 -0.32453469915E+03 -0.33729815187E+03  0.47399000823E+03  0.50400001928E-02 0. -1.
</event>
<event>
 5   0  0.7947250E-03  0.6874163E+03  0.7818609E-02  0.9738997E-01
       -3   -1    0    0    0  501  0.00000000000E+00  0.00000000000E+00  0.30448167936E+03  0.30448169611E+03  0.10100000352E+00 0.  1.
        3   -1    0    0  501    0  0.00000000000E+00  0.00000000000E+00 -0.38798818250E+03  0.38798819565E+03  0.10100000352E+00 0. -1.
    10030    2    1    2    0    0  0.00000000000E+00  0.00000000000E+00 -0.83506503148E+02  0.69246989176E+03  0.68741633303E+03 0.  0.
        3    1    3    3  502    0 -0.10595697107E+03  0.27582739338E+03 -0.21862210031E+03  0.36756395852E+03  0.10100000352E+00 0. -1.
       -3    1    3    3    0  502  0.10595697107E+03 -0.27582739338E+03  0.13511559716E+03  0.32490593324E+03  0.10100000352E+00 0.  1.
</event>
<event>
 5   0  0.2006362E-02  0.7012831E+03  0.7818609E-02  0.9715040E-01
        2   -1    0    0  501    0  0.00000000000E+00  0.00000000000E+00  0.19509602995E+03  0.19509602996E+03  0.25500000920E-02 0. -1.
       -2   -1    0    0    0  501  0.00000000000E+00  0.00000000000E+00 -0.63019997583E+03  0.63019997584E+03  0.25500000920E-02 0.  1.
    10030    2    1    2    0    0  0.00000000000E+00  0.00000000000E+00 -0.43510394588E+03  0.82529600580E+03  0.70128314786E+03 0.  0.
        4    1    3    3  502    0 -0.34288104173E+03  0.15365650882E+02 -0.13314404907E+03  0.36814733831E+03  0.12699999809E+01 0. -1.
       -4    1    3    3    0  502  0.34288104173E+03 -0.15365650882E+02 -0.30195989681E+03  0.45714866749E+03  0.12699999809E+01 0.  1.
</event>
<event>
 5   0  0.1257442E-02  0.6988603E+03  0.7818609E-02  0.9719183E-01
       -1   -1    0    0    0  501  0.00000000000E+00  0.00000000000E+00  0.19471967239E+03  0.19471967246E+03  0.50400001928E-02 0. -1.
        1   -1    0    0  501    0  0.00000000000E+00  0.00000000000E+00 -0.62706267496E+03  0.62706267498E+03  0.50400001928E-02 0.  1.
    10030    2    1    2    0    0  0.00000000000E+00  0.00000000000E+00 -0.43234300257E+03  0.82178234744E+03  0.69886032560E+03 0.  0.
        1    1    3    3  502    0 -0.16511907022E+03  0.51934055893E+02  0.14076461240E+03  0.22310564682E+03  0.50400001928E-02 0. -1.
       -1    1    3    3    0  502  0.16511907022E+03 -0.51934055893E+02 -0.57310761497E+03  0.59867670063E+03  0.50400001928E-02 0.  1.
</event>
<event>
 5   0  0.1909053E-02  0.7025284E+03  0.7818609E-02  0.9712918E-01
       -2   -1    0    0    0  501  0.00000000000E+00  0.00000000000E+00  0.16815750806E+03  0.16815750808E+03  0.25500000920E-02 0.  1.
        2   -1    0    0  501    0  0.00000000000E+00  0.00000000000E+00 -0.73375572067E+03  0.73375572067E+03  0.25500000920E-02 0. -1.
    10030    2    1    2    0    0  0.00000000000E+00  0.00000000000E+00 -0.56559821261E+03  0.90191322875E+03  0.70252838667E+03 0.  0.
        1    1    3    3  502    0  0.29003067298E+03  0.14422192077E+03 -0.10832941955E+03  0.34154504369E+03  0.50400001928E-02 0.  1.
       -1    1    3    3    0  502 -0.29003067298E+03 -0.14422192077E+03 -0.45726879306E+03  0.56036818506E+03  0.50400001928E-02 0. -1.
</event>
<event>
 5   0  0.7947250E-03  0.6991943E+03  0.7818609E-02  0.9718611E-01
       -3   -1    0    0    0  501  0.00000000000E+00  0.00000000000E+00  0.16212522514E+03  0.16212525660E+03  0.10100000352E+00 0. -1.
        3   -1    0    0  501    0  0.00000000000E+00  0.00000000000E+00 -0.75385026311E+03  0.75385026988E+03  0.10100000352E+00 0.  1.
    10030    2    1    2    0    0  0.00000000000E+00  0.00000000000E+00 -0.59172503797E+03  0.91597552648E+03  0.69919428240E+03 0.  0.
        5    1    3    3  502    0  0.86849478704E+02 -0.42115110149E+01  0.14769053224E+03  0.17145014461E+03  0.46999998093E+01 0. -1.
       -5    1    3    3    0  502 -0.86849478704E+02  0.42115110149E+01 -0.73941557021E+03  0.74452538187E+03  0.46999998093E+01 0.  1.
</event>
<event>
 5   0  0.2006362E-02  0.6950860E+03  0.7818609E-02  0.9725673E-01
       -2   -1    0    0    0  501  0.00000000000E+00  0.00000000000E+00  0.11219665596E+03  0.11219665599E+03  0.25500000920E-02 0.  1.
        2   -1    0    0  501    0  0.00000000000E+00  0.00000000000E+00 -0.10765575160E+04  0.10765575160E+04  0.25500000920E-02 0. -1.
    10030    2    1    2    0    0  0.00000000000E+00  0.00000000000E+00 -0.96436086001E+03  0.11887541720E+04  0.69508604721E+03 0.  0.
        4    1    3    3  502    0 -0.31368343971E+03 -0.10204829750E+03 -0.66931841833E+03  0.74619026621E+03  0.12699999809E+01 0. -1.
       -4    1    3    3    0  502  0.31368343971E+03  0.10204829750E+03 -0.29504244168E+03  0.44256390574E+03  0.12699999809E+01 0.  1.
</event>
<event>
 5   0  0.1973067E-02  0.6975987E+03  0.7818609E-02  0.9721348E-01
        2   -1    0    0  501    0  0.00000000000E+00  0.00000000000E+00  0.16844572696E+04  0.16844572696E+04  0.25500000920E-02 0. -1.
       -2   -1    0    0    0  501  0.00000000000E+00  0.00000000000E+00 -0.72225626924E+02  0.72225626969E+02  0.25500000920E-02 0.  1.
    10030    2    1    2    0    0  0.00000000000E+00  0.00000000000E+00  0.16122316427E+04  0.17566828966E+04  0.69759868798E+03 0.  0.
        5    1    3    3  502    0 -0.12204953673E+03  0.44889358998E+02  0.16210426226E+04  0.16262571809E+04  0.46999998093E+01 0. -1.
       -5    1    3    3    0  502  0.12204953673E+03 -0.44889358998E+02 -0.88109798879E+01  0.13042571576E+03  0.46999998093E+01 0.  1.
</event>
<event>
 5   0  0.1909053E-02  0.7052961E+03  0.7818609E-02  0.9708218E-01
        2   -1    0    0  501    0  0.00000000000E+00  0.00000000000E+00  0.47464053392E+03  0.47464053393E+03  0.25500000920E-02 0.  1.
       -2   -1    0    0    0  501  0.00000000000E+00  0.00000000000E+00 -0.26201016960E+03  0.26201016961E+03  0.25500000920E-02 0. -1.
    10030    2    1    2    0    0  0.00000000000E+00  0.00000000000E+00  0.21263036432E+03  0.73665070354E+03  0.70529609895E+03 0.  0.
        1    1    3    3  502    0  0.32031043311E+03  0.45700010719E+02  0.25281248913E+03  0.41061103154E+03  0.50400001928E-02 0. -1.
       -1    1    3    3    0  502 -0.32031043311E+03 -0.45700010719E+02 -0.40182124817E+02  0.32603967200E+03  0.50400001928E-02 0.  1.
</event>
<event>
 5   0  0.1973067E-02  0.7036860E+03  0.7818609E-02  0.9710949E-01
       -2   -1    0    0    0  501  0.00000000000E+00  0.00000000000E+00  0.73198908136E+02  0.73198908180E+02  0.25500000920E-02 0. -1.
        2   -1    0    0  501    0  0.00000000000E+00  0.00000000000E+00 -0.16911929973E+04  0.16911929973E+04  0.25500000920E-02 0.  1.
    10030    2    1    2    0    0  0.00000000000E+00  0.00000000000E+00 -0.16179940892E+04  0.17643919055E+04  0.70368595522E+03 0.  0.
        5    1    3    3  502    0 -0.25311425090E+03 -0.19090166841E+03 -0.11914090195E+04  0.12328778580E+04  0.46999998093E+01 0.  1.
       -5    1    3    3    0  502  0.25311425090E+03  0.19090166841E+03 -0.42658506966E+03  0.53151404748E+03  0.46999998093E+01 0. -1.
</event>
<event>
 5   0  0.1909053E-02  0.7064423E+03  0.7818609E-02  0.9706278E-01
       -2   -1    0    0    0  501  0.00000000000E+00  0.00000000000E+00  0.35378827591E+03  0.35378827592E+03  0.25500000920E-02 0. -1.
        2   -1    0    0  501    0  0.00000000000E+00  0.00000000000E+00 -0.35265492459E+03  0.35265492460E+03  0.25500000920E-02 0.  1.
    10030    2    1    2    0    0  0.00000000000E+00  0.00000000000E+00  0.11333513145E+01  0.70644320052E+03  0.70644229140E+03 0.  0.
        1    1    3    3  502    0 -0.97047453803E+02 -0.34872132662E+02  0.33839976694E+03  0.35376358804E+03  0.50400001928E-02 0. -1.
       -1    1    3    3    0  502  0.97047453803E+02  0.34872132662E+02 -0.33726641563E+03  0.35267961249E+03  0.50400001928E-02 0.  1.
</event>
<event>
 5   0  0.1226303E-02  0.6998931E+03  0.7818609E-02  0.9717415E-01
        1   -1    0    0  501    0  0.00000000000E+00  0.00000000000E+00  0.78702749423E+03  0.78702749425E+03  0.50400001928E-02 0. -1.
       -1   -1    0    0    0  501  0.00000000000E+00  0.00000000000E+00 -0.15560142399E+03  0.15560142407E+03  0.50400001928E-02 0.  1.
    10030    2    1    2    0    0  0.00000000000E+00  0.00000000000E+00  0.63142607024E+03  0.94262891832E+03  0.69989313147E+03 0.  0.
        4    1    3    3  502    0 -0.48142414132E+02  0.16247933640E+03 -0.96650458181E+02  0.19509010934E+03  0.12699999809E+01 0.  1.
       -4    1    3    3    0  502  0.48142414132E+02 -0.16247933640E+03  0.72807652842E+03  0.74753880898E+03  0.12699999809E+01 0. -1.
</event>
<event>
 5   0  0.1197259E-02  0.6994301E+03  0.7818609E-02  0.9718207E-01
       -1   -1    0    0    0  501  0.00000000000E+00  0.00000000000E+00  0.20184261961E+03  0.20184261968E+03  0.50400001928E-02 0. -1.
        1   -1    0    0  501    0  0.00000000000E+00  0.00000000000E+00 -0.60592066163E+03  0.60592066165E+03  0.50400001928E-02 0.  1.
    10030    2    1    2    0    0  0.00000000000E+00  0.00000000000E+00 -0.40407804201E+03  0.80776328133E+03  0.69943009273E+03 0.  0.
        3    1    3    3  502    0  0.58537311444E+02 -0.22123087108E+03  0.10336469441E+03  0.25110552642E+03  0.10100000352E+00 0. -1.
       -3    1    3    3    0  502 -0.58537311444E+02  0.22123087108E+03 -0.50744273642E+03  0.55665775491E+03  0.10100000352E+00 0.  1.
</event>
<event>
 5   0  0.1909053E-02  0.7019460E+03  0.7818609E-02  0.9713910E-01
       -2   -1    0    0    0  501  0.00000000000E+00  0.00000000000E+00  0.85079690597E+02  0.85079690635E+02  0.25500000920E-02 0. -1.
        2   -1    0    0  501    0  0.00000000000E+00  0.00000000000E+00 -0.14478431554E+04  0.14478431554E+04  0.25500000920E-02 0.  1.
    10030    2    1    2    0    0  0.00000000000E+00  0.00000000000E+00 -0.13627634648E+04  0.15329228461E+04  0.70194600285E+03 0.  0.
        1    1    3    3  502    0 -0.24105819216E+03  0.19743289150E+03 -0.10341428187E+04  0.10800648907E+04  0.50400001928E-02 0.  1.
       -1    1    3    3    0  502  0.24105819216E+03 -0.19743289150E+03 -0.32862064619E+03  0.45285795541E+03  0.50400001928E-02 0. -1.
</event>
<event>
 5   0  0.1223742E-02  0.6935864E+03  0.7818609E-02  0.9728264E-01
        1   -1    0    0  501    0  0.00000000000E+00  0.00000000000E+00  0.63954540313E+03  0.63954540315E+03  0.50400001928E-02 0.  1.
       -1   -1    0    0    0  501  0.00000000000E+00  0.00000000000E+00 -0.18804846728E+03  0.18804846735E+03  0.50400001928E-02 0. -1.
    10030    2    1    2    0    0  0.00000000000E+00  0.00000000000E+00  0.45149693585E+03  0.82759387050E+03  0.69358642678E+03 0.  0.
        2    1    3    3  502    0  0.70040749746E+01 -0.33166890513E+03  0.34632883878E+03  0.47958000821E+03  0.25500000920E-02 0. -1.
       -2    1    3    3    0  502 -0.70040749746E+01  0.33166890513E+03  0.10516809707E+03  0.34801386229E+03  0.25500000920E-02 0.  1.
</event>
<event>
 5   0  0.2026361E-02  0.7138667E+03  0.7818609E-02  0.9693808E-01
       -2   -1    0    0    0  501  0.00000000000E+00  0.00000000000E+00  0.63390415910E+02  0.63390415961E+02  0.25500000920E-02 0.  1.
        2   -1    0    0  501    0  0.00000000000E+00  0.00000000000E+00 -0.20097897043E+04  0.20097897043E+04  0.25500000920E-02 0. -1.
    10030    2    1    2    0    0  0.00000000000E+00  0.00000000000E+00 -0.19463992884E+04  0.20731801202E+04  0.71386666907E+03 0.  0.
        2    1    3    3  502    0  0.32530564002E+03 -0.82315868543E+02 -0.61987301506E+03  0.70487035435E+03  0.25500000920E-02 0.  1.
       -2    1    3    3    0  502 -0.32530564002E+03  0.82315868543E+02 -0.13265262733E+04  0.13683097659E+04  0.25500000920E-02 0. -1.
</event>
<event>
 5   0  0.1226303E-02  0.6905215E+03  0.7818609E-02  0.9733580E-01
       -1   -1    0    0    0  501  0.00000000000E+00  0.00000000000E+00  0.11107731937E+04  0.11107731937E+04  0.50400001928E-02 0.  1.
        1   -1    0    0  501    0  0.00000000000E+00  0.00000000000E+00 -0.10731713958E+03  0.10731713970E+03  0.50400001928E-02 0. -1.
    10030    2    1    2    0    0  0.00000000000E+00  0.00000000000E+00  0.10034560541E+04  0.12180903334E+04  0.69052154766E+03 0.  0.
        4    1    3    3  502    0  0.10334285517E+03  0.28220593269E+03  0.20193133851E+03  0.36207431908E+03  0.12699999809E+01 0. -1.
       -4    1    3    3    0  502 -0.10334285517E+03 -0.28220593269E+03  0.80152471557E+03  0.85601601430E+03  0.12699999809E+01 0.  1.
</event>
<event>
 5   0  0.1973067E-02  0.7003961E+03  0.7818609E-02  0.9716555E-01
       -2   -1    0    0    0  501  0.00000000000E+00  0.00000000000E+00  0.66019565538E+03  0.66019565538E+03  0.25500000920E-02 0. -1.
        2   -1    0    0  501    0  0.00000000000E+00  0.00000000000E+00 -0.18576109205E+03  0.18576109206E+03  0.25500000920E-02 0.  1.
    10030    2    1    2    0    0  0.00000000000E+00  0.00000000000E+00  0.47443456333E+03  0.84595674745E+03  0.70039607628E+03 0.  0.
        5    1    3    3  502    0  0.26309988612E+03  0.11048945198E+03 -0.79063020989E+01  0.28550668764E+03  0.46999998093E+01 0.  1.
       -5    1    3    3    0  502 -0.26309988612E+03 -0.11048945198E+03  0.48234086543E+03  0.56045005981E+03  0.46999998093E+01 0. -1.
</event>
<event>
 5   0  0.1226303E-02  0.7062413E+03  0.7818609E-02  0.9706618E-01
       -1   -1    0    0    0  501  0.00000000000E+00  0.00000000000E+00  0.20302653225E+03  0.20302653231E+03  0.50400001928E-02 0. -1.
        1   -1    0    0  501    0  0.00000000000E+00  0.00000000000E+00 -0.61417678973E+03  0.61417678975E+03  0.50400001928E-02 0.  1.
    10030    2    1    2    0    0  0.00000000000E+00  0.00000000000E+00 -0.41115025749E+03  0.81720332207E+03  0.70624127277E+03 0.  0.
        4    1    3    3  502    0 -0.22064500254E+03 -0.12629133088E+03 -0.48914856648E+03  0.55127275499E+03  0.12699999809E+01 0.  1.
       -4    1    3    3    0  502  0.22064500254E+03  0.12629133088E+03  0.77998308994E+02  0.26593056708E+03  0.12699999809E+01 0. -1.
</event>
<event>
 5   0  0.1909053E-02  0.7111206E+03  0.7818609E-02  0.9698401E-01
       -2   -1    0    0    0  501  0.00000000000E+00  0.00000000000E+00  0.54725385908E+02  0.54725385967E+02  0.25500000920E-02 0.  1.
        2   -1    0    0  501    0  0.00000000000E+00  0.00000000000E+00 -0.23101370153E+04  0.23101370153E+04  0.25500000920E-02 0. -1.
    10030    2    1    2    0    0  0.00000000000E+00  0.00000000000E+00 -0.22554116294E+04  0.23648624013E+04  0.71112063600E+03 0.  0.
        1    1    3    3  502    0 -0.32757004453E+03 -0.13801653024E+03 -0.11560106648E+04  0.12094260432E+04  0.50400001928E-02 0.  1.
       -1    1    3    3    0  502  0.32757004453E+03  0.13801653024E+03 -0.10994009646E+04  0.11554363581E+04  0.50400001928E-02 0. -1.
</event>
<event>
 5   0  0.1223742E-02  0.6934489E+03  0.7818609E-02  0.9728502E-01
       -1   -1    0    0    0  501  0.00000000000E+00  0.00000000000E+00  0.24794904772E+03  0.24794904777E+03  0.50400001928E-02 0.  1.
        1   -1    0    0  501    0  0.00000000000E+00  0.00000000000E+00 -0.48484896233E+03  0.48484896235E+03  0.50400001928E-02 0. -1.
    10030    2    1    2    0    0  0.00000000000E+00  0.00000000000E+00 -0.23689991461E+03  0.73279801013E+03  0.69344888356E+03 0.  0.
        2    1    3    3  502    0  0.30759991331E+03  0.86165455320E+02 -0.26091711427E+03  0.41245597691E+03  0.25500000920E-02 0. -1.
       -2    1    3    3    0  502 -0.30759991331E+03 -0.86165455320E+02  0.24017199663E+02  0.32034203322E+03  0.25500000920E-02 0.  1.
</event>
<event>
 5   0  0.7947250E-03  0.7006946E+03  0.7818609E-02  0.9716045E-01
       -4   -1    0    0    0  501  0.00000000000E+00  0.00000000000E+00  0.15458931105E+03  0.15459452768E+03  0.12699999809E+01 0. -1.
        4   -1    0    0  501    0  0.00000000000E+00  0.00000000000E+00 -0.79397657170E+03  0.79397758741E+03  0.12699999809E+01 0.  1.
    10030    2    1    2    0    0  0.00000000000E+00  0.00000000000E+00 -0.63938726065E+03  0.94857211509E+03  0.70069464708E+03 0.  0.
        3    1    3    3  502    0 -0.41053285238E+02  0.22941139480E+03 -0.67382088702E+03  0.71298636612E+03  0.10100000352E+00 0.  1.
       -3    1    3    3    0  502  0.41053285238E+02 -0.22941139480E+03  0.34433626366E+02  0.23558574897E+03  0.10100000352E+00 0. -1.
</event>
<event>
 5   0  0.1197259E-02  0.6952669E+03  0.7818609E-02  0.9725361E-01
       -1   -1    0    0    0  501  0.00000000000E+00  0.00000000000E+00  0.10365568496E+03  0.10365568509E+03  0.50400001928E-02 0. -1.
        1   -1    0    0  501    0  0.00000000000E+00  0.00000000000E+00 -0.11658695191E+04  0.11658695191E+04  0.50400001928E-02 0.  1.
    10030    2    1    2    0    0  0.00000000000E+00  0.00000000000E+00 -0.10622138341E+04  0.12695252042E+04  0.69526686579E+03 0.  0.
        3    1    3    3  502    0 -0.87774988589E+02  0.20006679456E+03 -0.37363385007E+02  0.22164657373E+03  0.10100000352E+00 0. -1.
       -3    1    3    3    0  502  0.87774988589E+02 -0.20006679456E+03 -0.10248504491E+04  0.10478786305E+04  0.10100000352E+00 0.  1.
</event>
<event>
 5   0  0.1237686E-02  0.7027220E+03  0.7818609E-02  0.9712589E-01
        1   -1    0    0  501    0  0.00000000000E+00  0.00000000000E+00  0.53082740766E+03  0.53082740768E+03  0.50400001928E-02 0. -1.
       -1   -1    0    0    0  501  0.00000000000E+00  0.00000000000E+00 -0.23257001053E+03  0.23257001058E+03  0.50400001928E-02 0.  1.
    10030    2    1    2    0    0  0.00000000000E+00  0.00000000000E+00  0.29825739713E+03  0.76339741827E+03  0.70272195303E+03 0.  0.
        5    1    3    3  502    0  0.19042428085E+03  0.11966920601E+03  0.44234148040E+03  0.49625618473E+03  0.46999998093E+01 0. -1.
       -5    1    3    3    0  502 -0.19042428085E+03 -0.11966920601E+03 -0.14408408327E+03  0.26714123353E+03  0.46999998093E+01 0.  1.
</event>
<event>
 5   0  0.1226303E-02  0.7054125E+03  0.7818609E-02  0.9708021E-01
        1   -1    0    0  501    0  0.00000000000E+00  0.00000000000E+00  0.59511528153E+02  0.59511528366E+02  0.50400001928E-02 0. -1.
       -1   -1    0    0    0  501  0.00000000000E+00  0.00000000000E+00 -0.20903795549E+04  0.20903795549E+04  0.50400001928E-02 0.  1.
    10030    2    1    2    0    0  0.00000000000E+00  0.00000000000E+00 -0.20308680268E+04  0.21498910833E+04  0.70541245231E+03 0.  0.
        4    1    3    3  502    0  0.23000644050E+03 -0.21412851945E+03 -0.52736204755E+03  0.61389439451E+03  0.12699999809E+01 0. -1.
       -4    1    3    3    0  502 -0.23000644050E+03  0.21412851945E+03 -0.15035059792E+04  0.15359966888E+04  0.12699999809E+01 0.  1.
</event>
<event>
 5   0  0.2006362E-02  0.6983673E+03  0.7818609E-02  0.9720028E-01
       -2   -1    0    0    0  501  0.00000000000E+00  0.00000000000E+00  0.11595025126E+03  0.11595025129E+03  0.25500000920E-02 0.  1.
        2   -1    0    0  501    0  0.00000000000E+00  0.00000000000E+00 -0.10515651047E+04  0.10515651047E+04  0.25500000920E-02 0. -1.
    10030    2    1    2    0    0  0.00000000000E+00  0.00000000000E+00 -0.93561485347E+03  0.11675153560E+04  0.69836734783E+03 0.  0.
        4    1    3    3  502    0 -0.22793196775E+03 -0.10767746135E+03 -0.87174243411E+03  0.90746013793E+03  0.12699999809E+01 0. -1.
       -4    1    3    3    0  502  0.22793196775E+03  0.10767746135E+03 -0.63872419364E+02  0.26005521810E+03  0.12699999809E+01 0.  1.
</event>
<event>
 5   0  0.1909053E-02  0.7020624E+03  0.7818609E-02  0.9713712E-01
        2   -1    0    0  501    0  0.00000000000E+00  0.00000000000E+00  0.18499834715E+04  0.18499834715E+04  0.25500000920E-02 0. -1.
       -2   -1    0    0    0  501  0.00000000000E+00  0.00000000000E+00 -0.66607575206E+02  0.66607575254E+02  0.25500000920E-02 0.  1.
    10030    2    1    2    0    0  0.00000000000E+00  0.00000000000E+00  0.17833758963E+04  0.19165910467E+04  0.70206242815E+03 0.  0.
        1    1    3    3  502    0  0.17697600551E+03 -0.21893249477E+02  0.17171206615E+04  0.17263554637E+04  0.50400001928E-02 0. -1.
       -1    1    3    3    0  502 -0.17697600551E+03  0.21893249477E+02  0.66255234819E+02  0.19023558307E+03  0.50400001928E-02 0.  1.
</event>
<event>
 5   0  0.1973067E-02  0.6881939E+03  0.7818609E-02  0.9737638E-01
        2   -1    0    0  501    0  0.00000000000E+00  0.00000000000E+00  0.15808146947E+04  0.15808146947E+04  0.25500000920E-02 0.  1.
       -2   -1    0    0    0  501  0.00000000000E+00  0.00000000000E+00 -0.74899806985E+02  0.74899807028E+02  0.25500000920E-02 0. -1.
    10030    2    1    2    0    0  0.00000000000E+00  0.00000000000E+00  0.15059148877E+04  0.16557145017E+04  0.68819391321E+03 0.  0.
        5    1    3    3  502    0  0.98716132516E+02 -0.29959679246E+03  0.10835149404E+04  0.11285077886E+04  0.46999998093E+01 0.  1.
       -5    1    3    3    0  502 -0.98716132516E+02  0.29959679246E+03  0.42239994729E+03  0.52720671310E+03  0.46999998093E+01 0. -1.
</event>
<event>
 5   0  0.2026361E-02  0.6982564E+03  0.7818609E-02  0.9720219E-01
        2   -1    0    0  501    0  0.00000000000E+00  0.00000000000E+00  0.14634681024E+03  0.14634681026E+03  0.25500000920E-02 0.  1.
       -2   -1    0    0    0  501  0.00000000000E+00  0.00000000000E+00 -0.83288802087E+03  0.83288802087E+03  0.25500000920E-02 0. -1.
    10030    2    1    2    0    0  0.00000000000E+00  0.00000000000E+00 -0.68654121063E+03  0.97923483113E+03  0.69825641465E+03 0.  0.
        2    1    3    3  502    0 -0.18418191915E+03  0.27259787192E+01 -0.75919535430E+03  0.78122211714E+03  0.25500000920E-02 0. -1.
       -2    1    3    3    0  502  0.18418191915E+03 -0.27259787192E+01  0.72654143671E+02  0.19801271399E+03  0.25500000920E-02 0.  1.
</event>
<event>
 5   0  0.7947250E-03  0.7200368E+03  0.7818609E-02  0.9683567E-01
        4   -1    0    0  501    0  0.00000000000E+00  0.00000000000E+00  0.62497083005E+03  0.62497212043E+03  0.12699999809E+01 0. -1.
       -4   -1    0    0    0  501  0.00000000000E+00  0.00000000000E+00 -0.20738744433E+03  0.20739133291E+03  0.12699999809E+01 0.  1.
    10030    2    1    2    0    0  0.00000000000E+00  0.00000000000E+00  0.41758338572E+03  0.83236345334E+03  0.72003682852E+03 0.  0.
        3    1    3    3  502    0  0.10289513511E+03  0.34496951931E+03  0.21419781508E+03  0.41889389142E+03  0.10100000352E+00 0. -1.
       -3    1    3    3    0  502 -0.10289513511E+03 -0.34496951931E+03  0.20338557064E+03  0.41346956191E+03  0.10100000352E+00 0.  1.
</event>
<event>
 5   0  0.1257442E-02  0.6989280E+03  0.7818609E-02  0.9719067E-01
        1   -1    0    0  501    0  0.00000000000E+00  0.00000000000E+00  0.87394565303E+03  0.87394565304E+03  0.50400001928E-02 0. -1.
       -1   -1    0    0    0  501  0.00000000000E+00  0.00000000000E+00 -0.13973991063E+03  0.13973991073E+03  0.50400001928E-02 0.  1.
    10030    2    1    2    0    0  0.00000000000E+00  0.00000000000E+00  0.73420574240E+03  0.10136855638E+04  0.69892800060E+03 0.  0.
        1    1    3    3  502    0  0.27457838182E+03  0.59522395477E+02  0.65693456393E+02  0.28853393832E+03  0.50400001928E-02 0.  1.
       -1    1    3    3    0  502 -0.27457838182E+03 -0.59522395477E+02  0.66851228600E+03  0.72515162545E+03  0.50400001928E-02 0. -1.
</event>
<event>
 5   0  0.1973067E-02  0.7000828E+03  0.7818609E-02  0.9717091E-01
       -2   -1    0    0    0  501  0.00000000000E+00  0.00000000000E+00  0.42490471528E+03  0.42490471528E+03  0.25500000920E-02 0.  1.
        2   -1    0    0  501    0  0.00000000000E+00  0.00000000000E+00 -0.28836817823E+03  0.28836817824E+03  0.25500000920E-02 0. -1.
    10030    2    1    2    0    0  0.00000000000E+00  0.00000000000E+00  0.13653653704E+03  0.71327289353E+03  0.70008284845E+03 0.  0.
        5    1    3    3  502    0  0.12805005943E+03 -0.22062610338E+03  0.31243788496E+03  0.40337602454E+03  0.46999998093E+01 0.  1.
       -5    1    3    3    0  502 -0.12805005943E+03  0.22062610338E+03 -0.17590134791E+03  0.30989686899E+03  0.46999998093E+01 0. -1.
</event>
<event>
 5   0  0.1909053E-02  0.7008604E+03  0.7818609E-02  0.9715762E-01
        2   -1    0    0  501    0  0.00000000000E+00  0.00000000000E+00  0.51987949312E+03  0.51987949313E+03  0.25500000920E-02 0. -1.
       -2   -1    0    0    0  501  0.00000000000E+00  0.00000000000E+00 -0.23621116826E+03  0.23621116827E+03  0.25500000920E-02 0.  1.
    10030    2    1    2    0    0  0.00000000000E+00  0.00000000000E+00  0.28366832486E+03  0.75609066140E+03  0.70086044954E+03 0.  0.
        1    1    3    3  502    0 -0.34798170889E+03 -0.85111038819E+01  0.98177481219E+02  0.36166631921E+03  0.50400001928E-02 0.  1.
       -1    1    3    3    0  502  0.34798170889E+03  0.85111038819E+01  0.18549084365E+03  0.39442434219E+03  0.50400001928E-02 0. -1.
</event>
<event>
 5   0  0.1237686E-02  0.6963806E+03  0.7818609E-02  0.9723442E-01
        1   -1    0    0  501    0  0.00000000000E+00  0.00000000000E+00  0.93101367734E+03  0.93101367735E+03  0.50400001928E-02 0.  1.
       -1   -1    0    0    0  501  0.00000000000E+00  0.00000000000E+00 -0.13021986750E+03  0.13021986760E+03  0.50400001928E-02 0. -1.
    10030    2    1    2    0    0  0.00000000000E+00  0.00000000000E+00  0.80079380984E+03  0.10612335450E+04  0.69638057917E+03 0.  0.
        5    1    3    3  502    0 -0.42924455170E+02  0.28686840951E+03  0.69384059752E+03  0.75204578185E+03  0.46999998093E+01 0.  1.
       -5    1    3    3    0  502  0.42924455170E+02 -0.28686840951E+03  0.10695321232E+03  0.30918776310E+03  0.46999998093E+01 0. -1.
</event>
<event>
 5   0  0.1197259E-02  0.6977261E+03  0.7818609E-02  0.9721129E-01
        1   -1    0    0  501    0  0.00000000000E+00  0.00000000000E+00  0.61573671609E+03  0.61573671611E+03  0.50400001928E-02 0. -1.
       -1   -1    0    0    0  501  0.00000000000E+00  0.00000000000E+00 -0.19765822449E+03  0.19765822456E+03  0.50400001928E-02 0.  1.
    10030    2    1    2    0    0  0.00000000000E+00  0.00000000000E+00  0.41807849159E+03  0.81339494066E+03  0.69772609552E+03 0.  0.
        3    1    3    3  502    0 -0.30697641420E+03 -0.15751760919E+03  0.14892411173E+03  0.37579877240E+03  0.10100000352E+00 0. -1.
       -3    1    3    3    0  502  0.30697641420E+03  0.15751760919E+03  0.26915437986E+03  0.43759616826E+03  0.10100000352E+00 0.  1.
</event>
<event>
 5   0  0.1973067E-02  0.6908514E+03  0.7818609E-02  0.9733007E-01
       -2   -1    0    0    0  501  0.00000000000E+00  0.00000000000E+00  0.22907948880E+03  0.22907948882E+03  0.25500000920E-02 0.  1.
        2   -1    0    0  501    0  0.00000000000E+00  0.00000000000E+00 -0.52086257078E+03  0.52086257079E+03  0.25500000920E-02 0. -1.
    10030    2    1    2    0    0  0.00000000000E+00  0.00000000000E+00 -0.29178308198E+03  0.74994205960E+03  0.69085144990E+03 0.  0.
        5    1    3    3  502    0 -0.72805570736E+02  0.19486635411E+02  0.22000951867E+03  0.23260837989E+03  0.46999998093E+01 0.  1.
       -5    1    3    3    0  502  0.72805570736E+02 -0.19486635411E+02 -0.51179260065E+03  0.51733367972E+03  0.46999998093E+01 0. -1.
</event>
<event>
 5   0  0.1197259E-02  0.6985983E+03  0.7818609E-02  0.9719632E-01
        1   -1    0    0  501    0  0.00000000000E+00  0.00000000000E+00  0.51764108936E+03  0.51764108938E+03  0.50400001928E-02 0.  1.
       -1   -1    0    0    0  501  0.00000000000E+00  0.00000000000E+00 -0.23570363501E+03  0.23570363506E+03  0.50400001928E-02 0. -1.
    10030    2    1    2    0    0  0.00000000000E+00  0.00000000000E+00  0.28193745435E+03  0.75334472444E+03  0.69859827203E+03 0.  0.
        3    1    3    3  502    0 -0.29241848705E+03 -0.12651565206E+03  0.29534878743E+03  0.43444872911E+03  0.10100000352E+00 0.  1.
       -3    1    3    3    0  502  0.29241848705E+03  0.12651565206E+03 -0.13411333077E+02  0.31889599534E+03  0.10100000352E+00 0. -1.
</event>
<event>
 5   0  0.1948138E-02  0.7061895E+03  0.7818609E-02  0.9706706E-01
       -2   -1    0    0    0  501  0.00000000000E+00  0.00000000000E+00  0.22082565021E+03  0.22082565022E+03  0.25500000920E-02 0. -1.
        2   -1    0    0  501    0  0.00000000000E+00  0.00000000000E+00 -0.56458969105E+03  0.56458969105E+03  0.25500000920E-02 0.  1.
    10030    2    1    2    0    0  0.00000000000E+00  0.00000000000E+00 -0.34376404084E+03  0.78541534127E+03  0.70618945229E+03 0.  0.
        3    1    3    3  502    0  0.30452200732E+03  0.12959429851E+03 -0.30876492477E+03  0.45261918223E+03  0.10100000352E+00 0.  1.
       -3    1    3    3    0  502 -0.30452200732E+03 -0.12959429851E+03 -0.34999116069E+02  0.33279615905E+03  0.10100000352E+00 0. -1.
</event>
<event>
 5   0  0.1223742E-02  0.7034767E+03  0.7818609E-02  0.9711305E-01
        1   -1    0    0  501    0  0.00000000000E+00  0.00000000000E+00  0.74688696712E+03  0.74688696714E+03  0.50400001928E-02 0. -1.
       -1   -1    0    0    0  501  0.00000000000E+00  0.00000000000E+00 -0.16564736772E+03  0.16564736780E+03  0.50400001928E-02 0.  1.
    10030    2    1    2    0    0  0.00000000000E+00  0.00000000000E+00  0.58123959940E+03  0.91253433493E+03  0.70347668086E+03 0.  0.
        2    1    3    3  502    0 -0.11508625697E+02  0.95075396965E+02 -0.14840941056E+03  0.17662710076E+03  0.25500000920E-02 0.  1.
       -2    1    3    3    0  502  0.11508625697E+02 -0.95075396965E+02  0.72964900996E+03  0.73590723417E+03  0.25500000920E-02 0. -1.
</event>
<event>
 5   0  0.1909053E-02  0.6997039E+03  0.7818609E-02  0.9717739E-01
       -2   -1    0    0    0  501  0.00000000000E+00  0.00000000000E+00  0.36370852821E+03  0.36370852822E+03  0.25500000920E-02 0.  1.
        2   -1    0    0  501    0  0.00000000000E+00  0.00000000000E+00 -0.33652332449E+03  0.33652332450E+03  0.25500000920E-02 0. -1.
    10030    2    1    2    0    0  0.00000000000E+00  0.00000000000E+00  0.27185203722E+02  0.70023185272E+03  0.69970394615E+03 0.  0.
        1    1    3    3  502    0  0.27468532611E+03 -0.32771281575E+02 -0.20074278883E+03  0.34179475211E+03  0.50400001928E-02 0. -1.
       -1    1    3    3    0  502 -0.27468532611E+03  0.32771281575E+02  0.22792799255E+03  0.35843710061E+03  0.50400001928E-02 0.  1.
</event>
<event>
 5   0  0.7947250E-03  0.7013683E+03  0.7818609E-02  0.9714895E-01
        4   -1    0    0  501    0  0.00000000000E+00  0.00000000000E+00  0.17933793733E+03  0.17934243409E+03  0.12699999809E+01 0.  1.
       -4   -1    0    0    0  501  0.00000000000E+00  0.00000000000E+00 -0.68572738875E+03  0.68572856480E+03  0.12699999809E+01 0. -1.
    10030    2    1    2    0    0  0.00000000000E+00  0.00000000000E+00 -0.50638945142E+03  0.86507099889E+03  0.70136834589E+03 0.  0.
        5    1    3    3  502    0  0.44990373011E+02 -0.48922764894E+01  0.17568480700E+03  0.18148087899E+03  0.46999998093E+01 0.  1.
       -5    1    3    3    0  502 -0.44990373011E+02  0.48922764894E+01 -0.68207425842E+03  0.68359011990E+03  0.46999998093E+01 0. -1.
</event>
<event>
 5   0  0.7947250E-03  0.7018619E+03  0.7818609E-02  0.9714053E-01
       -3   -1    0    0    0  501  0.00000000000E+00  0.00000000000E+00  0.54101769514E+03  0.54101770457E+03  0.10100000352E+00 0. -1.
        3   -1    0    0  501    0  0.00000000000E+00  0.00000000000E+00 -0.22763120462E+03  0.22763122702E+03  0.10100000352E+00 0.  1.
    10030    2    1    2    0    0  0.00000000000E+00  0.00000000000E+00  0.31338649052E+03  0.76864893159E+03  0.70186187216E+03 0.  0.
        5    1    3    3  502    0  0.32546194286E+03  0.67692083720E+02  0.33651310399E+02  0.33415893694E+03  0.46999998093E+01 0.  1.
       -5    1    3    3    0  502 -0.32546194286E+03 -0.67692083720E+02  0.27973518012E+03  0.43448999465E+03  0.46999998093E+01 0. -1.
</event>
<event>
 5   0  0.2006362E-02  0.7006380E+03  0.7818609E-02  0.9716142E-01
       -2   -1    0    0    0  501  0.00000000000E+00  0.00000000000E+00  0.90813795022E+03  0.90813795023E+03  0.25500000920E-02 0.  1.
        2   -1    0    0  501    0  0.00000000000E+00  0.00000000000E+00 -0.13513739048E+03  0.13513739050E+03  0.25500000920E-02 0. -1.
    10030    2    1    2    0    0  0.00000000000E+00  0.00000000000E+00  0.77300055975E+03  0.10432753407E+04  0.70063797442E+03 0.  0.
        4    1    3    3  502    0 -0.14436117025E+03  0.23929068093E+02 -0.87446255870E+02  0.17047348281E+03  0.12699999809E+01 0. -1.
       -4    1    3    3    0  502  0.14436117025E+03 -0.23929068093E+02  0.86044681562E+03  0.87280185792E+03  0.12699999809E+01 0.  1.
</event>
<event>
 5   0  0.1223742E-02  0.6969113E+03  0.7818609E-02  0.9722529E-01
       -1   -1    0    0    0  501  0.00000000000E+00  0.00000000000E+00  0.27728351301E+03  0.27728351305E+03  0.50400001928E-02 0.  1.
        1   -1    0    0  501    0  0.00000000000E+00  0.00000000000E+00 -0.43789593503E+03  0.43789593506E+03  0.50400001928E-02 0. -1.
    10030    2    1    2    0    0  0.00000000000E+00  0.00000000000E+00 -0.16061242202E+03  0.71517944811E+03  0.69691125180E+03 0.  0.
        2    1    3    3  502    0  0.10108751341E+03  0.82622283878E+02  0.25123558210E+03  0.28313326346E+03  0.25500000920E-02 0.  1.
       -2    1    3    3    0  502 -0.10108751341E+03 -0.82622283878E+02 -0.41184800412E+03  0.43204618464E+03  0.25500000920E-02 0. -1.
</event>
<event>
 5   0  0.7947250E-03  0.6937899E+03  0.7818609E-02  0.9727912E-01
       -4   -1    0    0    0  501  0.00000000000E+00  0.00000000000E+00  0.35289701148E+03  0.35289929670E+03  0.12699999809E+01 0.  1.
        4   -1    0    0  501    0  0.00000000000E+00  0.00000000000E+00 -0.34099035934E+03  0.34099272435E+03  0.12699999809E+01 0. -1.
    10030    2    1    2    0    0  0.00000000000E+00  0.00000000000E+00  0.11906652138E+02  0.69389202105E+03  0.69378985905E+03 0.  0.
        2    1    3    3  502    0  0.28253300582E+03  0.19981890672E+03  0.30114641135E+02  0.34736060007E+03  0.25500000920E-02 0. -1.
       -2    1    3    3    0  502 -0.28253300582E+03 -0.19981890672E+03 -0.18207988997E+02  0.34653142099E+03  0.25500000920E-02 0.  1.
</event>
<event>
 5   0  0.1197259E-02  0.7069277E+03  0.7818609E-02  0.9705458E-01
        1   -1    0    0  501    0  0.00000000000E+00  0.00000000000E+00  0.35571397854E+03  0.35571397857E+03  0.50400001928E-02 0. -1.
       -1   -1    0    0    0  501  0.00000000000E+00  0.00000000000E+00 -0.35122792309E+03  0.35122792313E+03  0.50400001928E-02 0.  1.
    10030    2    1    2    0    0  0.00000000000E+00  0.00000000000E+00  0.44860554425E+01  0.70694190170E+03  0.70692766793E+03 0.  0.
        3    1    3    3  502    0  0.29749244574E+03  0.19475152415E+02  0.19213006477E+03  0.35467592084E+03  0.10100000352E+00 0. -1.
       -3    1    3    3    0  502 -0.29749244574E+03 -0.19475152415E+02 -0.18764400933E+03  0.35226598086E+03  0.10100000352E+00 0.  1.
</event>
<event>
 5   0  0.1223742E-02  0.6975890E+03  0.7818609E-02  0.9721364E-01
        1   -1    0    0  501    0  0.00000000000E+00  0.00000000000E+00  0.14329255831E+04  0.14329255831E+04  0.50400001928E-02 0. -1.
       -1   -1    0    0    0  501  0.00000000000E+00  0.00000000000E+00 -0.84901540704E+02  0.84901540854E+02  0.50400001928E-02 0.  1.
    10030    2    1    2    0    0  0.00000000000E+00  0.00000000000E+00  0.13480240424E+04  0.15178271239E+04  0.69758896161E+03 0.  0.
        2    1    3    3  502    0 -0.24286054247E+03  0.19583749680E+03  0.10133561970E+04  0.10602944639E+04  0.25500000920E-02 0. -1.
       -2    1    3    3    0  502  0.24286054247E+03 -0.19583749680E+03  0.33466784540E+03  0.45753266003E+03  0.25500000920E-02 0.  1.
</event>
<event>
 5   0  0.1197259E-02  0.7068136E+03  0.7818609E-02  0.9705650E-01
       -1   -1    0    0    0  501  0.00000000000E+00  0.00000000000E+00  0.10564019186E+03  0.10564019198E+03  0.50400001928E-02 0. -1.
        1   -1    0    0  501    0  0.00000000000E+00  0.00000000000E+00 -0.11822807372E+04  0.11822807372E+04  0.50400001928E-02 0.  1.
    10030    2    1    2    0    0  0.00000000000E+00  0.00000000000E+00 -0.10766405453E+04  0.12879209292E+04  0.70681359349E+03 0.  0.
        3    1    3    3  502    0 -0.14012742070E+03 -0.66221019336E+02 -0.11170516383E+04  0.11277523178E+04  0.10100000352E+00 0.  1.
       -3    1    3    3    0  502  0.14012742070E+03  0.66221019336E+02  0.40411092984E+02  0.16016861138E+03  0.10100000352E+00 0. -1.
</event>
<event>
 5   0  0.1237686E-02  0.7001065E+03  0.7818609E-02  0.9717050E-01
       -1   -1    0    0    0  501  0.00000000000E+00  0.00000000000E+00  0.22308257017E+03  0.22308257023E+03  0.50400001928E-02 0. -1.
        1   -1    0    0  501    0  0.00000000000E+00  0.00000000000E+00 -0.54929111085E+03  0.54929111087E+03  0.50400001928E-02 0.  1.
    10030    2    1    2    0    0  0.00000000000E+00  0.00000000000E+00 -0.32620854067E+03  0.77237368110E+03  0.70010648565E+03 0.  0.
        5    1    3    3  502    0 -0.31238194112E+03 -0.14065179527E+02 -0.33661176465E+03  0.45946694823E+03  0.46999998093E+01 0.  1.
       -5    1    3    3    0  502  0.31238194112E+03  0.14065179527E+02  0.10403223975E+02  0.31290673288E+03  0.46999998093E+01 0. -1.
</event>
<event>
 5   0  0.1237686E-02  0.7020535E+03  0.7818609E-02  0.9713727E-01
       -1   -1    0    0    0  501  0.00000000000E+00  0.00000000000E+00  0.56766127891E+03  0.56766127894E+03  0.50400001928E-02 0. -1.
        1   -1    0    0  501    0  0.00000000000E+00  0.00000000000E+00 -0.21706568632E+03  0.21706568637E+03  0.50400001928E-02 0.  1.
    10030    2    1    2    0    0  0.00000000000E+00  0.00000000000E+00  0.35059559260E+03  0.78472696531E+03  0.70205351686E+03 0.  0.
        5    1    3    3  502    0 -0.67433313997E+02  0.34445300670E+03  0.17350607498E+03  0.39156298818E+03  0.46999998093E+01 0.  1.
       -5    1    3    3    0  502  0.67433313997E+02 -0.34445300670E+03  0.17708951762E+03  0.39316397713E+03  0.46999998093E+01 0. -1.
</event>
<event>
 5   0  0.1237686E-02  0.7035557E+03  0.7818609E-02  0.9711171E-01
        1   -1    0    0  501    0  0.00000000000E+00  0.00000000000E+00  0.10433020303E+04  0.10433020303E+04  0.50400001928E-02 0.  1.
       -1   -1    0    0    0  501  0.00000000000E+00  0.00000000000E+00 -0.11861153452E+03  0.11861153463E+03  0.50400001928E-02 0. -1.
    10030    2    1    2    0    0  0.00000000000E+00  0.00000000000E+00  0.92469049574E+03  0.11619135649E+04  0.70355569744E+03 0.  0.
        5    1    3    3  502    0  0.32457422042E+03  0.76437810031E+02  0.64724108714E+03  0.72810320576E+03  0.46999998093E+01 0.  1.
       -5    1    3    3    0  502 -0.32457422042E+03 -0.76437810031E+02  0.27744940860E+03  0.43381035914E+03  0.46999998093E+01 0. -1.
</event>
<event>
 5   0  0.2006362E-02  0.6922330E+03  0.7818609E-02  0.9730608E-01
        2   -1    0    0  501    0  0.00000000000E+00  0.00000000000E+00  0.50549059275E+03  0.50549059276E+03  0.25500000920E-02 0.  1.
       -2   -1    0    0    0  501  0.00000000000E+00  0.00000000000E+00 -0.23699083746E+03  0.23699083747E+03  0.25500000920E-02 0. -1.
    10030    2    1    2    0    0  0.00000000000E+00  0.00000000000E+00  0.26849975529E+03  0.74248143023E+03  0.69223302120E+03 0.  0.
        4    1    3    3  502    0 -0.14445257898E+02  0.23339803004E+03  0.40794235974E+03  0.47021472507E+03  0.12699999809E+01 0.  1.
       -4    1    3    3    0  502  0.14445257898E+02 -0.23339803004E+03 -0.13944260445E+03  0.27226670516E+03  0.12699999809E+01 0. -1.
</event>
<event>
 5   0  0.1226303E-02  0.7048897E+03  0.7818609E-02  0.9708907E-01
       -1   -1    0    0    0  501  0.00000000000E+00  0.00000000000E+00  0.14066183058E+03  0.14066183067E+03  0.50400001928E-02 0.  1.
        1   -1    0    0  501    0  0.00000000000E+00  0.00000000000E+00 -0.88309224929E+03  0.88309224931E+03  0.50400001928E-02 0. -1.
    10030    2    1    2    0    0  0.00000000000E+00  0.00000000000E+00 -0.74243041871E+03  0.10237540800E+04  0.70488970034E+03 0.  0.
        4    1    3    3  502    0 -0.12651882587E+03 -0.24074214561E+03 -0.45640240725E+02  0.27576881341E+03  0.12699999809E+01 0.  1.
       -4    1    3    3    0  502  0.12651882587E+03  0.24074214561E+03 -0.69679017798E+03  0.74798526657E+03  0.12699999809E+01 0. -1.
</event>
<event>
 5   0  0.1948138E-02  0.7012713E+03  0.7818609E-02  0.9715061E-01
        2   -1    0    0  501    0  0.00000000000E+00  0.00000000000E+00  0.10363826093E+04  0.10363826093E+04  0.25500000920E-02 0.  1.
       -2   -1    0    0    0  501  0.00000000000E+00  0.00000000000E+00 -0.11862930483E+03  0.11862930486E+03  0.25500000920E-02 0. -1.
    10030    2    1    2    0    0  0.00000000000E+00  0.00000000000E+00  0.91775330445E+03  0.11550119141E+04  0.70127126990E+03 0.  0.
        3    1    3    3  502    0 -0.64105150346E+02 -0.79172220250E+02  0.10114719357E+04  0.10165890013E+04  0.10100000352E+00 0.  1.
       -3    1    3    3    0  502  0.64105150346E+02  0.79172220250E+02 -0.93718631209E+02  0.13842291283E+03  0.10100000352E+00 0. -1.
</event>
<event>
 5   0  0.1909053E-02  0.7117131E+03  0.7818609E-02  0.9697408E-01
       -2   -1    0    0    0  501  0.00000000000E+00  0.00000000000E+00  0.28996427114E+03  0.28996427116E+03  0.25500000920E-02 0. -1.
        2   -1    0    0  501    0  0.00000000000E+00  0.00000000000E+00 -0.43672236681E+03  0.43672236682E+03  0.25500000920E-02 0.  1.
    10030    2    1    2    0    0  0.00000000000E+00  0.00000000000E+00 -0.14675809567E+03  0.72668663798E+03  0.71171309611E+03 0.  0.
        1    1    3    3  502    0 -0.82283497624E+02 -0.42244262952E+02  0.27747626399E+03  0.29248628829E+03  0.50400001928E-02 0. -1.
       -1    1    3    3    0  502  0.82283497624E+02  0.42244262952E+02 -0.42423435966E+03  0.43420034969E+03  0.50400001928E-02 0.  1.
</event>
<event>
 5   0  0.1223742E-02  0.6771802E+03  0.7818609E-02  0.9757073E-01
       -1   -1    0    0    0  501  0.00000000000E+00  0.00000000000E+00  0.86010664486E+02  0.86010664634E+02  0.50400001928E-02 0.  1.
        1   -1    0    0  501    0  0.00000000000E+00  0.00000000000E+00 -0.13328960077E+04  0.13328960077E+04  0.50400001928E-02 0. -1.
    10030    2    1    2    0    0  0.00000000000E+00  0.00000000000E+00 -0.12468853432E+04  0.14189066723E+04  0.67718024608E+03 0.  0.
        2    1    3    3  502    0  0.41666099069E+02  0.17460208720E+03 -0.21895998045E+02  0.18083524934E+03  0.25500000920E-02 0.  1.
       -2    1    3    3    0  502 -0.41666099069E+02 -0.17460208720E+03 -0.12249893451E+04  0.12380714230E+04  0.25500000920E-02 0. -1.
</event>
<event>
 5   0  0.1909053E-02  0.7073227E+03  0.7818609E-02  0.9704791E-01
       -2   -1    0    0    0  501  0.00000000000E+00  0.00000000000E+00  0.12108247905E+03  0.12108247907E+03  0.25500000920E-02 0.  1.
        2   -1    0    0  501    0  0.00000000000E+00  0.00000000000E+00 -0.10329846889E+04  0.10329846889E+04  0.25500000920E-02 0. -1.
    10030    2    1    2    0    0  0.00000000000E+00  0.00000000000E+00 -0.91190220984E+03  0.11540671680E+04  0.70732269004E+03 0.  0.
        1    1    3    3  502    0  0.26702835989E+03 -0.15872770664E+02 -0.78489665643E+02  0.27877718248E+03  0.50400001928E-02 0.  1.
       -1    1    3    3    0  502 -0.26702835989E+03  0.15872770664E+02 -0.83341254420E+03  0.87528998548E+03  0.50400001928E-02 0. -1.
</event>
<event>
 5   0  0.1909053E-02  0.6994441E+03  0.7818609E-02  0.9718183E-01
       -2   -1    0    0    0  501  0.00000000000E+00  0.00000000000E+00  0.84559958565E+02  0.84559958604E+02  0.25500000920E-02 0.  1.
        2   -1    0    0  501    0  0.00000000000E+00  0.00000000000E+00 -0.14463762619E+04  0.14463762619E+04  0.25500000920E-02 0. -1.
    10030    2    1    2    0    0  0.00000000000E+00  0.00000000000E+00 -0.13618163033E+04  0.15309362205E+04  0.69944411302E+03 0.  0.
        1    1    3    3  502    0  0.28653769390E+03  0.16717977505E+03 -0.43862789671E+03  0.54995214247E+03  0.50400001928E-02 0.  1.
       -1    1    3    3    0  502 -0.28653769390E+03 -0.16717977505E+03 -0.92318840663E+03  0.98098407804E+03  0.50400001928E-02 0. -1.
</event>
<event>
 5   0  0.1223742E-02  0.6988272E+03  0.7818609E-02  0.9719240E-01
        1   -1    0    0  501    0  0.00000000000E+00  0.00000000000E+00  0.17734259541E+03  0.17734259548E+03  0.50400001928E-02 0.  1.
       -1   -1    0    0    0  501  0.00000000000E+00  0.00000000000E+00 -0.68844077640E+03  0.68844077642E+03  0.50400001928E-02 0. -1.
    10030    2    1    2    0    0  0.00000000000E+00  0.00000000000E+00 -0.51109818100E+03  0.86578337190E+03  0.69882722932E+03 0.  0.
        2    1    3    3  502    0  0.13563516985E+03 -0.32017191419E+03 -0.29815964048E+03  0.45804598585E+03  0.25500000920E-02 0.  1.
       -2    1    3    3    0  502 -0.13563516985E+03  0.32017191419E+03 -0.21293854052E+03  0.40773738605E+03  0.25500000920E-02 0. -1.
</event>
<event>
 5   0  0.1909053E-02  0.7019102E+03  0.7818609E-02  0.9713971E-01
        2   -1    0    0  501    0  0.00000000000E+00  0.00000000000E+00  0.72158936439E+03  0.72158936440E+03  0.25500000920E-02 0.  1.
       -2   -1    0    0    0  501  0.00000000000E+00  0.00000000000E+00 -0.17069192400E+03  0.17069192402E+03  0.25500000920E-02 0. -1.
    10030    2    1    2    0    0  0.00000000000E+00  0.00000000000E+00  0.55089744039E+03  0.89228128842E+03  0.70191018502E+03 0.  0.
        1    1    3    3  502    0  0.10921504645E+03 -0.12694686405E+03 -0.11662701017E+03  0.20407178195E+03  0.50400001928E-02 0. -1.
       -1    1    3    3    0  502 -0.10921504645E+03  0.12694686405E+03  0.66752445056E+03  0.68820950646E+03  0.50400001928E-02 0.  1.
</event>
<event>
 5   0  0.1226303E-02  0.6935108E+03  0.7818609E-02  0.9728394E-01
        1   -1    0    0  501    0  0.00000000000E+00  0.00000000000E+00  0.17445541913E+04  0.17445541913E+04  0.50400001928E-02 0. -1.
       -1   -1    0    0    0  501  0.00000000000E+00  0.00000000000E+00 -0.68922665177E+02  0.68922665361E+02  0.50400001928E-02 0.  1.
    10030    2    1    2    0    0  0.00000000000E+00  0.00000000000E+00  0.16756315261E+04  0.18134768566E+04  0.69351084946E+03 0.  0.
        4    1    3    3  502    0 -0.91037419753E+02 -0.14985637679E+02  0.17118623514E+04  0.17143473114E+04  0.12699999809E+01 0. -1.
       -4    1    3    3    0  502  0.91037419753E+02  0.14985637679E+02 -0.36230825310E+02  0.99129545215E+02  0.12699999809E+01 0.  1.
</event>
<event>
 5   0  0.7947250E-03  0.6863135E+03  0.7818609E-02  0.9740929E-01
        4   -1    0    0  501    0  0.00000000000E+00  0.00000000000E+00  0.35050978775E+03  0.35051208854E+03  0.12699999809E+01 0. -1.
       -4   -1    0    0    0  501  0.00000000000E+00  0.00000000000E+00 -0.33595332063E+03  0.33595572110E+03  0.12699999809E+01 0.  1.
    10030    2    1    2    0    0  0.00000000000E+00  0.00000000000E+00  0.14556467123E+02  0.68646780964E+03  0.68631345822E+03 0.  0.
        4    1    3    3  502    0 -0.48808997493E+02  0.13436261362E+03 -0.30475233652E+03  0.33661733421E+03  0.12699999809E+01 0.  1.
       -4    1    3    3    0  502  0.48808997493E+02 -0.13436261362E+03  0.31930880364E+03  0.34985047543E+03  0.12699999809E+01 0. -1.
</event>
<event>
 5   0  0.1226303E-02  0.6955083E+03  0.7818609E-02  0.9724945E-01
        1   -1    0    0  501    0  0.00000000000E+00  0.00000000000E+00  0.73453744340E+03  0.73453744342E+03  0.50400001928E-02 0. -1.
       -1   -1    0    0    0  501  0.00000000000E+00  0.00000000000E+00 -0.16463822707E+03  0.16463822715E+03  0.50400001928E-02 0.  1.
    10030    2    1    2    0    0  0.00000000000E+00  0.00000000000E+00  0.56989921633E+03  0.89917567056E+03  0.69550828159E+03 0.  0.
        4    1    3    3  502    0 -0.26023046834E+03  0.20737426834E+03  0.15433292416E+03  0.36680273745E+03  0.12699999809E+01 0. -1.
       -4    1    3    3    0  502  0.26023046834E+03 -0.20737426834E+03  0.41556629217E+03  0.53237293311E+03  0.12699999809E+01 0.  1.
</event>
<event>
 5   0  0.1909053E-02  0.6992958E+03  0.7818609E-02  0.9718437E-01
       -2   -1    0    0    0  501  0.00000000000E+00  0.00000000000E+00  0.18061503360E+03  0.18061503362E+03  0.25500000920E-02 0. -1.
        2   -1    0    0  501    0  0.00000000000E+00  0.00000000000E+00 -0.67687425346E+03  0.67687425347E+03  0.25500000920E-02 0.  1.
    10030    2    1    2    0    0  0.00000000000E+00  0.00000000000E+00 -0.49625921987E+03  0.85748928709E+03  0.69929583451E+03 0.  0.
        1    1    3    3  502    0 -0.88917511629E+02  0.33606573187E+03 -0.20213145314E+03  0.40212389184E+03  0.50400001928E-02 0. -1.
       -1    1    3    3    0  502  0.88917511629E+02 -0.33606573187E+03 -0.29412776672E+03  0.45536539525E+03  0.50400001928E-02 0.  1.
</event>
<event>
 5   0  0.1257442E-02  0.6947136E+03  0.7818609E-02  0.9726316E-01
        1   -1    0    0  501    0  0.00000000000E+00  0.00000000000E+00  0.61752789964E+03  0.61752789966E+03  0.50400001928E-02 0.  1.
       -1   -1    0    0    0  501  0.00000000000E+00  0.00000000000E+00 -0.19538673360E+03  0.19538673366E+03  0.50400001928E-02 0. -1.
    10030    2    1    2    0    0  0.00000000000E+00  0.00000000000E+00  0.42214116604E+03  0.81291463333E+03  0.69471363670E+03 0.  0.
        1    1    3    3  502    0  0.15408782349E+03 -0.36414959474E+02 -0.15070563622E+03  0.21858933056E+03  0.50400001928E-02 0. -1.
       -1    1    3    3    0  502 -0.15408782349E+03  0.36414959474E+02  0.57284680227E+03  0.59432530277E+03  0.50400001928E-02 0.  1.
</event>
<event>
 5   0  0.1223742E-02  0.7161150E+03  0.7818609E-02  0.9690063E-01
        1   -1    0    0  501    0  0.00000000000E+00  0.00000000000E+00  0.41731136022E+03  0.41731136025E+03  0.50400001928E-02 0. -1.
       -1   -1    0    0    0  501  0.00000000000E+00  0.00000000000E+00 -0.30721706766E+03  0.30721706770E+03  0.50400001928E-02 0.  1.
    10030    2    1    2    0    0  0.00000000000E+00  0.00000000000E+00  0.11009429256E+03  0.72452842796E+03  0.71611499751E+03 0.  0.
        2    1    3    3  502    0 -0.15905840345E+03  0.10508855416E+03  0.36169546765E+03  0.40886035666E+03  0.25500000920E-02 0. -1.
       -2    1    3    3    0  502  0.15905840345E+03 -0.10508855416E+03 -0.25160117509E+03  0.31566807130E+03  0.25500000920E-02 0.  1.
</event>
<event>
 5   0  0.2026361E-02  0.6970262E+03  0.7818609E-02  0.9722331E-01
        2   -1    0    0  501    0  0.00000000000E+00  0.00000000000E+00  0.23137145827E+03  0.23137145829E+03  0.25500000920E-02 0. -1.
       -2   -1    0    0    0  501  0.00000000000E+00  0.00000000000E+00 -0.52496271947E+03  0.52496271948E+03  0.25500000920E-02 0.  1.
    10030    2    1    2    0    0  0.00000000000E+00  0.00000000000E+00 -0.29359126120E+03  0.75633417777E+03  0.69702622605E+03 0.  0.
        2    1    3    3  502    0  0.29738298593E+01  0.33581532532E+03 -0.45698269737E+02  0.33892345485E+03  0.25500000920E-02 0.  1.
       -2    1    3    3    0  502 -0.29738298593E+01 -0.33581532532E+03 -0.24789299146E+03  0.41741072292E+03  0.25500000920E-02 0. -1.
</event>
<event>
 5   0  0.2026361E-02  0.6901096E+03  0.7818609E-02  0.9734297E-01
       -2   -1    0    0    0  501  0.00000000000E+00  0.00000000000E+00  0.12143409828E+03  0.12143409831E+03  0.25500000920E-02 0.  1.
        2   -1    0    0  501    0  0.00000000000E+00  0.00000000000E+00 -0.98047281074E+03  0.98047281074E+03  0.25500000920E-02 0. -1.
    10030    2    1    2    0    0  0.00000000000E+00  0.00000000000E+00 -0.85903871245E+03  0.11019069090E+04  0.69010964833E+03 0.  0.
        2    1    3    3  502    0  0.61436374169E+02 -0.33933512755E+03 -0.44841696420E+03  0.56568589398E+03  0.25500000920E-02 0. -1.
       -2    1    3    3    0  502 -0.61436374169E+02  0.33933512755E+03 -0.41062174825E+03  0.53622101507E+03  0.25500000920E-02 0.  1.
</event>
<event>
 5   0  0.1973067E-02  0.7006331E+03  0.7818609E-02  0.9716150E-01
        2   -1    0    0  501    0  0.00000000000E+00  0.00000000000E+00  0.29546865228E+03  0.29546865229E+03  0.25500000920E-02 0.  1.
       -2   -1    0    0    0  501  0.00000000000E+00  0.00000000000E+00 -0.41534585118E+03  0.41534585119E+03  0.25500000920E-02 0. -1.
    10030    2    1    2    0    0  0.00000000000E+00  0.00000000000E+00 -0.11987719890E+03  0.71081450348E+03  0.70063308197E+03 0.  0.
        5    1    3    3  502    0  0.35012878165E+01  0.19774312095E+03  0.23337336806E+03  0.30594087634E+03  0.46999998093E+01 0.  1.
       -5    1    3    3    0  502 -0.35012878165E+01 -0.19774312095E+03 -0.35325056696E+03  0.40487362714E+03  0.46999998093E+01 0. -1.
</event>
<event>
 5   0  0.1909053E-02  0.6988736E+03  0.7818609E-02  0.9719160E-01
       -2   -1    0    0    0  501  0.00000000000E+00  0.00000000000E+00  0.17433983928E+03  0.17433983930E+03  0.25500000920E-02 0. -1.
        2   -1    0    0  501    0  0.00000000000E+00  0.00000000000E+00 -0.70039118709E+03  0.70039118709E+03  0.25500000920E-02 0.  1.
    10030    2    1    2    0    0  0.00000000000E+00  0.00000000000E+00 -0.52605134781E+03  0.87473102639E+03  0.69887362806E+03 0.  0.
        1    1    3    3  502    0 -0.19476640564E+02 -0.67099116602E+02  0.16550803666E+03  0.17965116532E+03  0.50400001928E-02 0. -1.
       -1    1    3    3    0  502  0.19476640564E+02  0.67099116602E+02 -0.69155938448E+03  0.69507986107E+03  0.50400001928E-02 0.  1.
</event>
<event>
 5   0  0.1197259E-02  0.7077720E+03  0.7818609E-02  0.9704033E-01
       -1   -1    0    0    0  501  0.00000000000E+00  0.00000000000E+00  0.61758640204E+02  0.61758640410E+02  0.50400001928E-02 0. -1.
        1   -1    0    0  501    0  0.00000000000E+00  0.00000000000E+00 -0.20278182664E+04  0.20278182664E+04  0.50400001928E-02 0.  1.
    10030    2    1    2    0    0  0.00000000000E+00  0.00000000000E+00 -0.19660596262E+04  0.20895769068E+04  0.70777199417E+03 0.  0.
        3    1    3    3  502    0  0.55846009353E+02  0.27315351136E+03 -0.33955941434E+03  0.43935432580E+03  0.10100000352E+00 0. -1.
       -3    1    3    3    0  502 -0.55846009353E+02 -0.27315351136E+03 -0.16265002118E+04  0.16502225810E+04  0.10100000352E+00 0.  1.
</event>
<event>
 5   0  0.2006362E-02  0.7007846E+03  0.7818609E-02  0.9715891E-01
       -2   -1    0    0    0  501  0.00000000000E+00  0.00000000000E+00  0.13483215144E+03  0.13483215146E+03  0.25500000920E-02 0. -1.
        2   -1    0    0  501    0  0.00000000000E+00  0.00000000000E+00 -0.91057475393E+03  0.91057475394E+03  0.25500000920E-02 0.  1.
    10030    2    1    2    0    0  0.00000000000E+00  0.00000000000E+00 -0.77574260250E+03  0.10454069054E+04  0.70078456927E+03 0.  0.
        4    1    3    3  502    0  0.75524845500E+02 -0.22328672110E+03 -0.77461640029E+03  0.80968706462E+03  0.12699999809E+01 0.  1.
       -4    1    3    3    0  502 -0.75524845500E+02  0.22328672110E+03 -0.11262022044E+01  0.23571984078E+03  0.12699999809E+01 0. -1.
</event>
<event>
 5   0  0.1973067E-02  0.7031367E+03  0.7818609E-02  0.9711883E-01
        2   -1    0    0  501    0  0.00000000000E+00  0.00000000000E+00  0.32428010281E+04  0.32428010281E+04  0.25500000920E-02 0.  1.
       -2   -1    0    0    0  501  0.00000000000E+00  0.00000000000E+00 -0.38115287262E+02  0.38115287348E+02  0.25500000920E-02 0. -1.
    10030    2    1    2    0    0  0.00000000000E+00  0.00000000000E+00  0.32046857408E+04  0.32809163154E+04  0.70313666627E+03 0.  0.
        5    1    3    3  502    0  0.17482771954E+03  0.30190326456E+03  0.14006776158E+04  0.14434785022E+04  0.46999998093E+01 0.  1.
       -5    1    3    3    0  502 -0.17482771954E+03 -0.30190326456E+03  0.18040081250E+04  0.18374378133E+04  0.46999998093E+01 0. -1.
</event>
<event>
 5   0  0.1909053E-02  0.6916530E+03  0.7818609E-02  0.9731614E-01
       -2   -1    0    0    0  501  0.00000000000E+00  0.00000000000E+00  0.74845096719E+03  0.74845096720E+03  0.25500000920E-02 0. -1.
        2   -1    0    0  501    0  0.00000000000E+00  0.00000000000E+00 -0.15979133393E+03  0.15979133395E+03  0.25500000920E-02 0.  1.
    10030    2    1    2    0    0  0.00000000000E+00  0.00000000000E+00  0.58865963326E+03  0.90824230115E+03  0.69165302989E+03 0.  0.
        1    1    3    3  502    0  0.19671118073E+03  0.27697397351E+03  0.20936900650E+03  0.39905544919E+03  0.50400001928E-02 0. -1.
       -1    1    3    3    0  502 -0.19671118073E+03 -0.27697397351E+03  0.37929062676E+03  0.50918685195E+03  0.50400001928E-02 0.  1.
</event>
<event>
 5   0  0.1257442E-02  0.7001546E+03  0.7818609E-02  0.9716968E-01
        1   -1    0    0  501    0  0.00000000000E+00  0.00000000000E+00  0.73950599009E+03  0.73950599011E+03  0.50400001928E-02 0.  1.
       -1   -1    0    0    0  501  0.00000000000E+00  0.00000000000E+00 -0.16572428736E+03  0.16572428743E+03  0.50400001928E-02 0. -1.
    10030    2    1    2    0    0  0.00000000000E+00  0.00000000000E+00  0.57378170273E+03  0.90523027754E+03  0.70015456364E+03 0.  0.
        1    1    3    3  502    0 -0.33136213524E+03 -0.14901991923E+01  0.14089598847E+03  0.36007605441E+03  0.50400001928E-02 0. -1.
       -1    1    3    3    0  502  0.33136213524E+03  0.14901991923E+01  0.43288571426E+03  0.54515422313E+03  0.50400001928E-02 0.  1.
</event>
<event>
 5   0  0.7947250E-03  0.6995019E+03  0.7818609E-02  0.9718084E-01
        4   -1    0    0  501    0  0.00000000000E+00  0.00000000000E+00  0.37356231644E+03  0.37356447524E+03  0.12699999809E+01 0.  1.
       -4   -1    0    0    0  501  0.00000000000E+00  0.00000000000E+00 -0.32745302853E+03  0.32745549131E+03  0.12699999809E+01 0. -1.
    10030    2    1    2    0    0  0.00000000000E+00  0.00000000000E+00  0.46109287912E+02  0.70101996656E+03  0.69950191357E+03 0.  0.
        2    1    3    3  502    0  0.16845128650E+03 -0.27051747456E+03  0.16748608168E+03  0.36000989921E+03  0.25500000920E-02 0. -1.
       -2    1    3    3    0  502 -0.16845128650E+03  0.27051747456E+03 -0.12137679376E+03  0.34101006735E+03  0.25500000920E-02 0.  1.
</event>
<event>
 5   0  0.1223742E-02  0.7029204E+03  0.7818609E-02  0.9712251E-01
        1   -1    0    0  501    0  0.00000000000E+00  0.00000000000E+00  0.46521195320E+03  0.46521195323E+03  0.50400001928E-02 0.  1.
       -1   -1    0    0    0  501  0.00000000000E+00  0.00000000000E+00 -0.26552259486E+03  0.26552259491E+03  0.50400001928E-02 0. -1.
    10030    2    1    2    0    0  0.00000000000E+00  0.00000000000E+00  0.19968935834E+03  0.73073454814E+03  0.70292043648E+03 0.  0.
        2    1    3    3  502    0  0.18950948797E+03 -0.27142143296E+03 -0.22898682985E+02  0.33182493877E+03  0.25500000920E-02 0. -1.
       -2    1    3    3    0  502 -0.18950948797E+03  0.27142143296E+03  0.22258804133E+03  0.39890960937E+03  0.25500000920E-02 0.  1.
</event>
<event>
 5   0  0.2026361E-02  0.7032032E+03  0.7818609E-02  0.9711770E-01
       -2   -1    0    0    0  501  0.00000000000E+00  0.00000000000E+00  0.24246577835E+03  0.24246577837E+03  0.25500000920E-02 0. -1.
        2   -1    0    0  501    0  0.00000000000E+00  0.00000000000E+00 -0.50986033381E+03  0.50986033382E+03  0.25500000920E-02 0.  1.
    10030    2    1    2    0    0  0.00000000000E+00  0.00000000000E+00 -0.26739455546E+03  0.75232611219E+03  0.70320319310E+03 0.  0.
        2    1    3    3  502    0 -0.11928479102E+02  0.27126507480E+03  0.10528242152E+03  0.29122399920E+03  0.25500000920E-02 0. -1.
       -2    1    3    3    0  502  0.11928479102E+02 -0.27126507480E+03 -0.37267697698E+03  0.46110211299E+03  0.25500000920E-02 0.  1.
</event>
<event>
 5   0  0.2006362E-02  0.6986357E+03  0.7818609E-02  0.9719568E-01
        2   -1    0    0  501    0  0.00000000000E+00  0.00000000000E+00  0.20150625184E+03  0.20150625186E+03  0.25500000920E-02 0.  1.
       -2   -1    0    0    0  501  0.00000000000E+00  0.00000000000E+00 -0.60555421532E+03  0.60555421532E+03  0.25500000920E-02 0. -1.
    10030    2    1    2    0    0  0.00000000000E+00  0.00000000000E+00 -0.40404796348E+03  0.80706046718E+03  0.69863569970E+03 0.  0.
        4    1    3    3  502    0 -0.29088349250E+03  0.11508833352E+03 -0.38159203703E+03  0.49342945428E+03  0.12699999809E+01 0. -1.
       -4    1    3    3    0  502  0.29088349250E+03 -0.11508833352E+03 -0.22455926443E+02  0.31363101290E+03  0.12699999809E+01 0.  1.
</event>
<event>
 5   0  0.1973067E-02  0.6997923E+03  0.7818609E-02  0.9717587E-01
       -2   -1    0    0    0  501  0.00000000000E+00  0.00000000000E+00  0.12025289547E+03  0.12025289550E+03  0.25500000920E-02 0.  1.
        2   -1    0    0  501    0  0.00000000000E+00  0.00000000000E+00 -0.10180821326E+04  0.10180821326E+04  0.25500000920E-02 0. -1.
    10030    2    1    2    0    0  0.00000000000E+00  0.00000000000E+00 -0.89782923717E+03  0.11383350281E+04  0.69979232433E+03 0.  0.
        5    1    3    3  502    0 -0.21214582091E+03  0.27658788408E+03 -0.49767494191E+03  0.60762582627E+03  0.46999998093E+01 0.  1.
       -5    1    3    3    0  502  0.21214582091E+03 -0.27658788408E+03 -0.40015429526E+03  0.53070920188E+03  0.46999998093E+01 0. -1.
</event>
<event>
 5   0  0.1226303E-02  0.7038043E+03  0.7818609E-02  0.9710748E-01
       -1   -1    0    0    0  501  0.00000000000E+00  0.00000000000E+00  0.26792810305E+03  0.26792810310E+03  0.50400001928E-02 0. -1.
        1   -1    0    0  501    0  0.00000000000E+00  0.00000000000E+00 -0.46219530141E+03  0.46219530144E+03  0.50400001928E-02 0.  1.
    10030    2    1    2    0    0  0.00000000000E+00  0.00000000000E+00 -0.19426719836E+03  0.73012340454E+03  0.70380426362E+03 0.  0.
        4    1    3    3  502    0  0.27368165418E+03  0.20405669147E+03 -0.85427149344E+01  0.34148992964E+03  0.12699999809E+01 0.  1.
       -4    1    3    3    0  502 -0.27368165418E+03 -0.20405669147E+03 -0.18572448343E+03  0.38863347490E+03  0.12699999809E+01 0. -1.
</event>
<event>
 5   0  0.1226303E-02  0.7059596E+03  0.7818609E-02  0.9707094E-01
       -1   -1    0    0    0  501  0.00000000000E+00  0.00000000000E+00  0.14538301547E+03  0.14538301556E+03  0.50400001928E-02 0. -1.
        1   -1    0    0  501    0  0.00000000000E+00  0.00000000000E+00 -0.85701035863E+03  0.85701035864E+03  0.50400001928E-02 0.  1.
    10030    2    1    2    0    0  0.00000000000E+00  0.00000000000E+00 -0.71162734315E+03  0.10023933742E+04  0.70595963137E+03 0.  0.
        4    1    3    3  502    0  0.69999017269E+02 -0.12100132443E+03  0.10440092392E+03  0.17447735884E+03  0.12699999809E+01 0. -1.
       -4    1    3    3    0  502 -0.69999017269E+02  0.12100132443E+03 -0.81602826708E+03  0.82791601537E+03  0.12699999809E+01 0.  1.
</event>
<event>
 5   0  0.2026361E-02  0.6990869E+03  0.7818609E-02  0.9718795E-01
       -2   -1    0    0    0  501  0.00000000000E+00  0.00000000000E+00  0.78933434386E+02  0.78933434427E+02  0.25500000920E-02 0.  1.
        2   -1    0    0  501    0  0.00000000000E+00  0.00000000000E+00 -0.15478943610E+04  0.15478943610E+04  0.25500000920E-02 0. -1.
    10030    2    1    2    0    0  0.00000000000E+00  0.00000000000E+00 -0.14689609267E+04  0.16268277955E+04  0.69908688450E+03 0.  0.
        2    1    3    3  502    0  0.19458905221E+02  0.12538174550E+03 -0.14924120806E+04  0.14977960640E+04  0.25500000920E-02 0. -1.
       -2    1    3    3    0  502 -0.19458905221E+02 -0.12538174550E+03  0.23451153923E+02  0.12903173146E+03  0.25500000920E-02 0.  1.
</event>
<event>
 5   0  0.1909053E-02  0.6972396E+03  0.7818609E-02  0.9721965E-01
       -2   -1    0    0    0  501  0.00000000000E+00  0.00000000000E+00  0.23466762142E+03  0.23466762143E+03  0.25500000920E-02 0. -1.
        2   -1    0    0  501    0  0.00000000000E+00  0.00000000000E+00 -0.51790591125E+03  0.51790591125E+03  0.25500000920E-02 0.  1.
    10030    2    1    2    0    0  0.00000000000E+00  0.00000000000E+00 -0.28323828983E+03  0.75257353269E+03  0.69723955229E+03 0.  0.
        1    1    3    3  502    0 -0.57567121119E+02  0.33259760416E+03 -0.23571946670E+03  0.41170232782E+03  0.50400001928E-02 0.  1.
       -1    1    3    3    0  502  0.57567121119E+02 -0.33259760416E+03 -0.47518823133E+02  0.34087120486E+03  0.50400001928E-02 0. -1.
</event>
<event>
 5   0  0.1909053E-02  0.6936185E+03  0.7818609E-02  0.9728208E-01
        2   -1    0    0  501    0  0.00000000000E+00  0.00000000000E+00  0.25226952279E+03  0.25226952281E+03  0.25500000920E-02 0. -1.
       -2   -1    0    0    0  501  0.00000000000E+00  0.00000000000E+00 -0.47677842420E+03  0.47677842421E+03  0.25500000920E-02 0.  1.
    10030    2    1    2    0    0  0.00000000000E+00  0.00000000000E+00 -0.22450890141E+03  0.72904794702E+03  0.69361852789E+03 0.  0.
        1    1    3    3  502    0 -0.21417319534E+03 -0.94299272993E+02 -0.38128585461E+03  0.44737167260E+03  0.50400001928E-02 0.  1.
       -1    1    3    3    0  502  0.21417319534E+03  0.94299272993E+02  0.15677695320E+03  0.28167627442E+03  0.50400001928E-02 0. -1.
</event>
<event>
 5   0  0.7947250E-03  0.7005177E+03  0.7818609E-02  0.9716347E-01
        4   -1    0    0  501    0  0.00000000000E+00  0.00000000000E+00  0.18125444266E+03  0.18125889188E+03  0.12699999809E+01 0. -1.
       -4   -1    0    0    0  501  0.00000000000E+00  0.00000000000E+00 -0.67683209837E+03  0.67683328988E+03  0.12699999809E+01 0.  1.
    10030    2    1    2    0    0  0.00000000000E+00  0.00000000000E+00 -0.49557765571E+03  0.85809218176E+03  0.70051765113E+03 0.  0.
        3    1    3    3  502    0  0.14369773921E+03  0.70618453489E+02 -0.62938319530E+03  0.64942992151E+03  0.10100000352E+00 0.  1.
       -3    1    3    3    0  502 -0.14369773921E+03 -0.70618453489E+02  0.13380553958E+03  0.20866226025E+03  0.10100000352E+00 0. -1.
</event>
<event>
 5   0  0.1973067E-02  0.7091336E+03  0.7818609E-02  0.9701739E-01
       -2   -1    0    0    0  501  0.00000000000E+00  0.00000000000E+00  0.23346058244E+03  0.23346058246E+03  0.25500000920E-02 0. -1.
        2   -1    0    0  501    0  0.00000000000E+00  0.00000000000E+00 -0.53849603522E+03  0.53849603523E+03  0.25500000920E-02 0.  1.
    10030    2    1    2    0    0  0.00000000000E+00  0.00000000000E+00 -0.30503545278E+03  0.77195661768E+03  0.70913355028E+03 0.  0.
        5    1    3    3  502    0 -0.79204246121E+02  0.68907847283E+02 -0.52115323035E+03  0.53164309788E+03  0.46999998093E+01 0.  1.
       -5    1    3    3    0  502  0.79204246121E+02 -0.68907847283E+02  0.21611777757E+03  0.24031351981E+03  0.46999998093E+01 0. -1.
</event>
<event>
 5   0  0.1226303E-02  0.7060633E+03  0.7818609E-02  0.9706919E-01
        1   -1    0    0  501    0  0.00000000000E+00  0.00000000000E+00  0.53006152268E+03  0.53006152271E+03  0.50400001928E-02 0. -1.
       -1   -1    0    0    0  501  0.00000000000E+00  0.00000000000E+00 -0.23512621493E+03  0.23512621498E+03  0.50400001928E-02 0.  1.
    10030    2    1    2    0    0  0.00000000000E+00  0.00000000000E+00  0.29493530775E+03  0.76518773769E+03  0.70606333862E+03 0.  0.
        4    1    3    3  502    0 -0.26481352137E+03 -0.91583201929E+02 -0.85261317554E+02  0.29289040467E+03  0.12699999809E+01 0.  1.
       -4    1    3    3    0  502  0.26481352137E+03  0.91583201929E+02  0.38019662531E+03  0.47229733302E+03  0.12699999809E+01 0. -1.
</event>
<event>
 5   0  0.1257442E-02  0.7021401E+03  0.7818609E-02  0.9713579E-01
       -1   -1    0    0    0  501  0.00000000000E+00  0.00000000000E+00  0.27255743770E+03  0.27255743774E+03  0.50400001928E-02 0. -1.
        1   -1    0    0  501    0  0.00000000000E+00  0.00000000000E+00 -0.45219891733E+03  0.45219891735E+03  0.50400001928E-02 0.  1.
    10030    2    1    2    0    0  0.00000000000E+00  0.00000000000E+00 -0.17964147963E+03  0.72475635509E+03  0.70214009503E+03 0.  0.
        1    1    3    3  502    0  0.85599511284E+02  0.32470066544E+03 -0.19555245056E+03  0.38858533093E+03  0.50400001928E-02 0. -1.
       -1    1    3    3    0  502 -0.85599511284E+02 -0.32470066544E+03  0.15910970927E+02  0.33617102417E+03  0.50400001928E-02 0.  1.
</event>
<event>
 5   0  0.1257442E-02  0.6902854E+03  0.7818609E-02  0.9733991E-01
       -1   -1    0    0    0  501  0.00000000000E+00  0.00000000000E+00  0.15121948871E+03  0.15121948880E+03  0.50400001928E-02 0.  1.
        1   -1    0    0  501    0  0.00000000000E+00  0.00000000000E+00 -0.78775230156E+03  0.78775230157E+03  0.50400001928E-02 0. -1.
    10030    2    1    2    0    0  0.00000000000E+00  0.00000000000E+00 -0.63653281284E+03  0.93897179037E+03  0.69028544913E+03 0.  0.
        1    1    3    3  502    0  0.99131519602E+02  0.32974995167E+03 -0.28603609705E+03  0.44763683679E+03  0.50400001928E-02 0.  1.
       -1    1    3    3    0  502 -0.99131519602E+02 -0.32974995167E+03 -0.35049671579E+03  0.49133495358E+03  0.50400001928E-02 0. -1.
</event>
<event>
 5   0  0.7947250E-03  0.7116222E+03  0.7818609E-02  0.9697561E-01
       -4   -1    0    0    0  501  0.00000000000E+00  0.00000000000E+00  0.51765002283E+03  0.51765158073E+03  0.12699999809E+01 0.  1.
        4   -1    0    0  501    0  0.00000000000E+00  0.00000000000E+00 -0.24456620354E+03  0.24456950099E+03  0.12699999809E+01 0. -1.
    10030    2    1    2    0    0  0.00000000000E+00  0.00000000000E+00  0.27308381929E+03  0.76222108171E+03  0.71162223479E+03 0.  0.
        1    1    3    3  502    0 -0.27574659479E+03  0.21687481341E+03  0.72897428613E+02  0.35830839280E+03  0.50400001928E-02 0. -1.
       -1    1    3    3    0  502  0.27574659479E+03 -0.21687481341E+03  0.20018639068E+03  0.40391268891E+03  0.50400001928E-02 0.  1.
</event>
<event>
 5   0  0.7947250E-03  0.7003012E+03  0.7818609E-02  0.9716717E-01
        3   -1    0    0  501    0  0.00000000000E+00  0.00000000000E+00  0.11335253996E+04  0.11335254041E+04  0.10100000352E+00 0. -1.
       -3   -1    0    0    0  501  0.00000000000E+00  0.00000000000E+00 -0.10816290226E+03  0.10816294942E+03  0.10100000352E+00 0.  1.
    10030    2    1    2    0    0  0.00000000000E+00  0.00000000000E+00  0.10253624973E+04  0.12416883535E+04  0.70030116114E+03 0.  0.
        1    1    3    3  502    0 -0.29734137215E+03 -0.16544170989E+03  0.65913551198E+03  0.74178330673E+03  0.50400001928E-02 0.  1.
       -1    1    3    3    0  502  0.29734137215E+03  0.16544170989E+03  0.36622698536E+03  0.49990504678E+03  0.50400001928E-02 0. -1.
</event>
<event>
 5   0  0.1257442E-02  0.6974455E+03  0.7818609E-02  0.9721611E-01
       -1   -1    0    0    0  501  0.00000000000E+00  0.00000000000E+00  0.38511875029E+03  0.38511875032E+03  0.50400001928E-02 0.  1.
        1   -1    0    0  501    0  0.00000000000E+00  0.00000000000E+00 -0.31576641217E+03  0.31576641221E+03  0.50400001928E-02 0. -1.
    10030    2    1    2    0    0  0.00000000000E+00  0.00000000000E+00  0.69352338111E+02  0.70088516253E+03  0.69744552781E+03 0.  0.
        1    1    3    3  502    0  0.68162510489E+02  0.32079678686E+02  0.37684374977E+03  0.38429994195E+03  0.50400001928E-02 0.  1.
       -1    1    3    3    0  502 -0.68162510489E+02 -0.32079678686E+02 -0.30749141166E+03  0.31658522058E+03  0.50400001928E-02 0. -1.
</event>
<event>
 5   0  0.1948138E-02  0.7058928E+03  0.7818609E-02  0.9707207E-01
        2   -1    0    0  501    0  0.00000000000E+00  0.00000000000E+00  0.10350458600E+04  0.10350458600E+04  0.25500000920E-02 0. -1.
       -2   -1    0    0    0  501  0.00000000000E+00  0.00000000000E+00 -0.12035328296E+03  0.12035328299E+03  0.25500000920E-02 0.  1.
    10030    2    1    2    0    0  0.00000000000E+00  0.00000000000E+00  0.91469257705E+03  0.11553991430E+04  0.70589281703E+03 0.  0.
        3    1    3    3  502    0  0.31272941692E+02  0.34916949422E+03  0.39038123200E+03  0.52468547633E+03  0.10100000352E+00 0. -1.
       -3    1    3    3    0  502 -0.31272941692E+02 -0.34916949422E+03  0.52431134504E+03  0.63071366666E+03  0.10100000352E+00 0.  1.
</event>
<event>
 5   0  0.1257442E-02  0.6923360E+03  0.7818609E-02  0.9730429E-01
       -1   -1    0    0    0  501  0.00000000000E+00  0.00000000000E+00  0.15326198498E+03  0.15326198506E+03  0.50400001928E-02 0.  1.
        1   -1    0    0  501    0  0.00000000000E+00  0.00000000000E+00 -0.78187878403E+03  0.78187878405E+03  0.50400001928E-02 0. -1.
    10030    2    1    2    0    0  0.00000000000E+00  0.00000000000E+00 -0.62861679905E+03  0.93514076911E+03  0.69233602969E+03 0.  0.
        1    1    3    3  502    0  0.26345950056E+03  0.16335644152E+03 -0.10621209641E+03  0.32768467292E+03  0.50400001928E-02 0.  1.
       -1    1    3    3    0  502 -0.26345950056E+03 -0.16335644152E+03 -0.52240470265E+03  0.60745609619E+03  0.50400001928E-02 0. -1.
</event>
<event>
 5   0  0.2006362E-02  0.7020660E+03  0.7818609E-02  0.9713706E-01
        2   -1    0    0  501    0  0.00000000000E+00  0.00000000000E+00  0.81419253320E+03  0.81419253320E+03  0.25500000920E-02 0. -1.
       -2   -1    0    0    0  501  0.00000000000E+00  0.00000000000E+00 -0.15134522990E+03  0.15134522992E+03  0.25500000920E-02 0.  1.
    10030    2    1    2    0    0  0.00000000000E+00  0.00000000000E+00  0.66284730330E+03  0.96553776312E+03  0.70206596879E+03 0.  0.
        4    1    3    3  502    0  0.43133758195E+02 -0.32262767086E+03  0.15067279703E+03  0.35868236612E+03  0.12699999809E+01 0.  1.
       -4    1    3    3    0  502 -0.43133758195E+02  0.32262767086E+03  0.51217450627E+03  0.60685539701E+03  0.12699999809E+01 0. -1.
</event>
<event>
 5   0  0.1948138E-02  0.6971117E+03  0.7818609E-02  0.9722184E-01
       -2   -1    0    0    0  501  0.00000000000E+00  0.00000000000E+00  0.15111846473E+03  0.15111846476E+03  0.25500000920E-02 0.  1.
        2   -1    0    0  501    0  0.00000000000E+00  0.00000000000E+00 -0.80394659922E+03  0.80394659923E+03  0.25500000920E-02 0. -1.
    10030    2    1    2    0    0  0.00000000000E+00  0.00000000000E+00 -0.65282813449E+03  0.95506506398E+03  0.69711168636E+03 0.  0.
        3    1    3    3  502    0 -0.33148878717E+02 -0.34306478395E+03 -0.39758812014E+03  0.52618306474E+03  0.10100000352E+00 0. -1.
       -3    1    3    3    0  502  0.33148878717E+02  0.34306478395E+03 -0.25524001435E+03  0.42888199924E+03  0.10100000352E+00 0.  1.
</event>
<event>
 5   0  0.2026361E-02  0.7000769E+03  0.7818609E-02  0.9717101E-01
       -2   -1    0    0    0  501  0.00000000000E+00  0.00000000000E+00  0.72088632309E+03  0.72088632310E+03  0.25500000920E-02 0. -1.
        2   -1    0    0  501    0  0.00000000000E+00  0.00000000000E+00 -0.16996704171E+03  0.16996704173E+03  0.25500000920E-02 0.  1.
    10030    2    1    2    0    0  0.00000000000E+00  0.00000000000E+00  0.55091928139E+03  0.89085336482E+03  0.70007689793E+03 0.  0.
        2    1    3    3  502    0 -0.61988556486E+02  0.15295339341E+01 -0.16292254487E+03  0.17432348162E+03  0.25500000920E-02 0.  1.
       -2    1    3    3    0  502  0.61988556486E+02 -0.15295339341E+01  0.71384182626E+03  0.71652988321E+03  0.25500000920E-02 0. -1.
</event>
<event>
 5   0  0.1237686E-02  0.6988659E+03  0.7818609E-02  0.9719174E-01
       -1   -1    0    0    0  501  0.00000000000E+00  0.00000000000E+00  0.16747046336E+03  0.16747046344E+03  0.50400001928E-02 0. -1.
        1   -1    0    0  501    0  0.00000000000E+00  0.00000000000E+00 -0.72910399407E+03  0.72910399409E+03  0.50400001928E-02 0.  1.
    10030    2    1    2    0    0  0.00000000000E+00  0.00000000000E+00 -0.56163353071E+03  0.89657445753E+03  0.69886589205E+03 0.  0.
        5    1    3    3  502    0 -0.12559333235E+03 -0.52569724655E+02  0.13199784016E+03  0.18969127783E+03  0.46999998093E+01 0. -1.
       -5    1    3    3    0  502  0.12559333235E+03  0.52569724655E+02 -0.69363137087E+03  0.70688317970E+03  0.46999998093E+01 0.  1.
</event>
<event>
 5   0  0.1257442E-02  0.7009382E+03  0.7818609E-02  0.9715629E-01
        1   -1    0    0  501    0  0.00000000000E+00  0.00000000000E+00  0.19558178264E+03  0.19558178270E+03  0.50400001928E-02 0. -1.
       -1   -1    0    0    0  501  0.00000000000E+00  0.00000000000E+00 -0.62801644725E+03  0.62801644727E+03  0.50400001928E-02 0.  1.
    10030    2    1    2    0    0  0.00000000000E+00  0.00000000000E+00 -0.43243466461E+03  0.82359822997E+03  0.70093816079E+03 0.  0.
        1    1    3    3  502    0  0.13854017106E+03 -0.32183798461E+03 -0.22497154750E+03  0.41639556259E+03  0.50400001928E-02 0. -1.
       -1    1    3    3    0  502 -0.13854017106E+03  0.32183798461E+03 -0.20746311711E+03  0.40720266738E+03  0.50400001928E-02 0.  1.
</event>
<event>
 5   0  0.2006362E-02  0.7021713E+03  0.7818609E-02  0.9713526E-01
        2   -1    0    0  501    0  0.00000000000E+00  0.00000000000E+00  0.17421292306E+04  0.17421292306E+04  0.25500000920E-02 0. -1.
       -2   -1    0    0    0  501  0.00000000000E+00  0.00000000000E+00 -0.70753147486E+02  0.70753147532E+02  0.25500000920E-02 0.  1.
    10030    2    1    2    0    0  0.00000000000E+00  0.00000000000E+00  0.16713760831E+04  0.18128823781E+04  0.70217127948E+03 0.  0.
        4    1    3    3  502    0 -0.18311041809E+03 -0.27512590469E+02  0.16058038501E+04  0.16164448601E+04  0.12699999809E+01 0. -1.
       -4    1    3    3    0  502  0.18311041809E+03  0.27512590469E+02  0.65572233007E+02  0.19643751803E+03  0.12699999809E+01 0.  1.
</event>
<event>
 5   0  0.2006362E-02  0.6995933E+03  0.7818609E-02  0.9717928E-01
       -2   -1    0    0    0  501  0.00000000000E+00  0.00000000000E+00  0.18767451596E+03  0.18767451598E+03  0.25500000920E-02 0. -1.
        2   -1    0    0  501    0  0.00000000000E+00  0.00000000000E+00 -0.65196762298E+03  0.65196762298E+03  0.25500000920E-02 0.  1.
    10030    2    1    2    0    0  0.00000000000E+00  0.00000000000E+00 -0.46429310701E+03  0.83964213896E+03  0.69959333352E+03 0.  0.
        4    1    3    3  502    0  0.17813461209E+03  0.29956915870E+03 -0.26779984250E+03  0.43953610706E+03  0.12699999809E+01 0.  1.
       -4    1    3    3    0  502 -0.17813461209E+03 -0.29956915870E+03 -0.19649326451E+03  0.40010603190E+03  0.12699999809E+01 0. -1.
</event>
<event>
 5   0  0.1973067E-02  0.6969616E+03  0.7818609E-02  0.9722442E-01
       -2   -1    0    0    0  501  0.00000000000E+00  0.00000000000E+00  0.31692680351E+03  0.31692680352E+03  0.25500000920E-02 0.  1.
        2   -1    0    0  501    0  0.00000000000E+00  0.00000000000E+00 -0.38317641099E+03  0.38317641099E+03  0.25500000920E-02 0. -1.
    10030    2    1    2    0    0  0.00000000000E+00  0.00000000000E+00 -0.66249607475E+02  0.70010321451E+03  0.69696162052E+03 0.  0.
        5    1    3    3  502    0  0.37930861393E+02 -0.33914652653E+03  0.37603288908E+02  0.34335872501E+03  0.46999998093E+01 0.  1.
       -5    1    3    3    0  502 -0.37930861393E+02  0.33914652653E+03 -0.10385289638E+03  0.35674448950E+03  0.46999998093E+01 0. -1.
</event>
<event>
 5   0  0.1948138E-02  0.6934403E+03  0.7818609E-02  0.9728516E-01
       -2   -1    0    0    0  501  0.00000000000E+00  0.00000000000E+00  0.22293056163E+03  0.22293056164E+03  0.25500000920E-02 0.  1.
        2   -1    0    0  501    0  0.00000000000E+00  0.00000000000E+00 -0.53924808884E+03  0.53924808885E+03  0.25500000920E-02 0. -1.
    10030    2    1    2    0    0  0.00000000000E+00  0.00000000000E+00 -0.31631752721E+03  0.76217865049E+03  0.69344034872E+03 0.  0.
        3    1    3    3  502    0  0.26564097119E+03  0.15216002535E+03  0.20756173376E+02  0.30683648385E+03  0.10100000352E+00 0.  1.
       -3    1    3    3    0  502 -0.26564097119E+03 -0.15216002535E+03 -0.33707370059E+03  0.45534216664E+03  0.10100000352E+00 0. -1.
</event>
<event>
 5   0  0.7947250E-03  0.7011648E+03  0.7818609E-02  0.9715242E-01
        3   -1    0    0  501    0  0.00000000000E+00  0.00000000000E+00  0.27910346319E+03  0.27910348146E+03  0.10100000352E+00 0.  1.
       -3   -1    0    0    0  501  0.00000000000E+00  0.00000000000E+00 -0.44036714565E+03  0.44036715723E+03  0.10100000352E+00 0. -1.
    10030    2    1    2    0    0  0.00000000000E+00  0.00000000000E+00 -0.16126368246E+03  0.71947063870E+03  0.70116476285E+03 0.  0.
        5    1    3    3  502    0  0.33319695439E+03  0.17335051031E+02 -0.19098114556E+03  0.38446924762E+03  0.46999998093E+01 0. -1.
       -5    1    3    3    0  502 -0.33319695439E+03 -0.17335051031E+02  0.29717463099E+02  0.33500139107E+03  0.46999998093E+01 0.  1.
</event>
<event>
 5   0  0.2006362E-02  0.6968917E+03  0.7818609E-02  0.9722563E-01
        2   -1    0    0  501    0  0.00000000000E+00  0.00000000000E+00  0.16712276206E+04  0.16712276207E+04  0.25500000920E-02 0. -1.
       -2   -1    0    0    0  501  0.00000000000E+00  0.00000000000E+00 -0.72649889694E+02  0.72649889739E+02  0.25500000920E-02 0.  1.
    10030    2    1    2    0    0  0.00000000000E+00  0.00000000000E+00  0.15985777310E+04  0.17438775104E+04  0.69689167690E+03 0.  0.
        4    1    3    3  502    0  0.16195126280E+03 -0.76363562030E+02  0.51281353531E+02  0.18625518851E+03  0.12699999809E+01 0.  1.
       -4    1    3    3    0  502 -0.16195126280E+03  0.76363562030E+02  0.15472963774E+04  0.15576223219E+04  0.12699999809E+01 0. -1.
</event>
<event>
 5   0  0.7947250E-03  0.7004540E+03  0.7818609E-02  0.9716456E-01
        3   -1    0    0  501    0  0.00000000000E+00  0.00000000000E+00  0.18171938928E+03  0.18171941734E+03  0.10100000352E+00 0. -1.
       -3   -1    0    0    0  501  0.00000000000E+00  0.00000000000E+00 -0.67499100487E+03  0.67499101243E+03  0.10100000352E+00 0.  1.
    10030    2    1    2    0    0  0.00000000000E+00  0.00000000000E+00 -0.49327161560E+03  0.85671042977E+03  0.70045404826E+03 0.  0.
        3    1    3    3  502    0  0.25550603331E+03 -0.14208809875E+02  0.45814906398E+02  0.25996968897E+03  0.10100000352E+00 0. -1.
       -3    1    3    3    0  502 -0.25550603331E+03  0.14208809875E+02 -0.53908652200E+03  0.59674074080E+03  0.10100000352E+00 0.  1.
</event>
<event>
 5   0  0.1237686E-02  0.7026841E+03  0.7818609E-02  0.9712653E-01
       -1   -1    0    0    0  501  0.00000000000E+00  0.00000000000E+00  0.10375682482E+03  0.10375682494E+03  0.50400001928E-02 0. -1.
        1   -1    0    0  501    0  0.00000000000E+00  0.00000000000E+00 -0.11897166952E+04  0.11897166952E+04  0.50400001928E-02 0.  1.
    10030    2    1    2    0    0  0.00000000000E+00  0.00000000000E+00 -0.10859598703E+04  0.12934735201E+04  0.70268407357E+03 0.  0.
        5    1    3    3  502    0  0.14670383567E+03  0.21496023176E+03 -0.97737311720E+03  0.10114396753E+04  0.46999998093E+01 0.  1.
       -5    1    3    3    0  502 -0.14670383567E+03 -0.21496023176E+03 -0.10858675314E+03  0.28203384477E+03  0.46999998093E+01 0. -1.
</event>
<event>
 5   0  0.1223742E-02  0.7498181E+03  0.7818609E-02  0.9635636E-01
       -1   -1    0    0    0  501  0.00000000000E+00  0.00000000000E+00  0.10329508299E+03  0.10329508312E+03  0.50400001928E-02 0. -1.
        1   -1    0    0  501    0  0.00000000000E+00  0.00000000000E+00 -0.13607307679E+04  0.13607307679E+04  0.50400001928E-02 0.  1.
    10030    2    1    2    0    0  0.00000000000E+00  0.00000000000E+00 -0.12574356849E+04  0.14640258510E+04  0.74981810513E+03 0.  0.
        2    1    3    3  502    0  0.24653589917E+03  0.19784919157E+03 -0.10222949574E+04  0.10700519763E+04  0.25500000920E-02 0.  1.
       -2    1    3    3    0  502 -0.24653589917E+03 -0.19784919157E+03 -0.23514072751E+03  0.39397387467E+03  0.25500000920E-02 0. -1.
</event>
<event>
 5   0  0.7947250E-03  0.6980015E+03  0.7818609E-02  0.9720656E-01
        3   -1    0    0  501    0  0.00000000000E+00  0.00000000000E+00  0.23207988719E+03  0.23207990917E+03  0.10100000352E+00 0. -1.
       -3   -1    0    0    0  501  0.00000000000E+00  0.00000000000E+00 -0.52482583599E+03  0.52482584571E+03  0.10100000352E+00 0.  1.
    10030    2    1    2    0    0  0.00000000000E+00  0.00000000000E+00 -0.29274594880E+03  0.75690575488E+03  0.69800152666E+03 0.  0.
        1    1    3    3  502    0  0.24025018341E+03 -0.17137119519E+03  0.55665163929E+02  0.30031125133E+03  0.50400001928E-02 0. -1.
       -1    1    3    3    0  502 -0.24025018341E+03  0.17137119519E+03 -0.34841111273E+03  0.45659450355E+03  0.50400001928E-02 0.  1.
</event>
<event>
 5   0  0.2006362E-02  0.7051315E+03  0.7818609E-02  0.9708497E-01
        2   -1    0    0  501    0  0.00000000000E+00  0.00000000000E+00  0.10966578835E+04  0.10966578835E+04  0.25500000920E-02 0. -1.
       -2   -1    0    0    0  501  0.00000000000E+00  0.00000000000E+00 -0.11334673535E+03  0.11334673538E+03  0.25500000920E-02 0.  1.
    10030    2    1    2    0    0  0.00000000000E+00  0.00000000000E+00  0.98331114816E+03  0.12100046189E+04  0.70513145133E+03 0.  0.
        4    1    3    3  502    0  0.17607499977E+03  0.23664657294E+03  0.16025463927E+03  0.33568909476E+03  0.12699999809E+01 0.  1.
       -4    1    3    3    0  502 -0.17607499977E+03 -0.23664657294E+03  0.82305650889E+03  0.87431552414E+03  0.12699999809E+01 0. -1.
</event>
<event>
 5   0  0.1948138E-02  0.6971957E+03  0.7818609E-02  0.9722040E-01
        2   -1    0    0  501    0  0.00000000000E+00  0.00000000000E+00  0.28018422785E+03  0.28018422787E+03  0.25500000920E-02 0.  1.
       -2   -1    0    0    0  501  0.00000000000E+00  0.00000000000E+00 -0.43371631531E+03  0.43371631532E+03  0.25500000920E-02 0. -1.
    10030    2    1    2    0    0  0.00000000000E+00  0.00000000000E+00 -0.15353208745E+03  0.71390054318E+03  0.69719572838E+03 0.  0.
        3    1    3    3  502    0 -0.29347440171E+03  0.10641542471E+03  0.82093006215E+02  0.32278590264E+03  0.10100000352E+00 0. -1.
       -3    1    3    3    0  502  0.29347440171E+03 -0.10641542471E+03 -0.23562509367E+03  0.39111464054E+03  0.10100000352E+00 0.  1.
</event>
<event>
 5   0  0.1237686E-02  0.7016779E+03  0.7818609E-02  0.9714367E-01
        1   -1    0    0  501    0  0.00000000000E+00  0.00000000000E+00  0.20280253662E+04  0.20280253662E+04  0.50400001928E-02 0. -1.
       -1   -1    0    0    0  501  0.00000000000E+00  0.00000000000E+00 -0.60693511912E+02  0.60693512121E+02  0.50400001928E-02 0.  1.
    10030    2    1    2    0    0  0.00000000000E+00  0.00000000000E+00  0.19673318543E+04  0.20887188783E+04  0.70167793736E+03 0.  0.
        5    1    3    3  502    0  0.30096184632E+03 -0.18017426156E+03  0.96875408648E+03  0.10303142082E+04  0.46999998093E+01 0. -1.
       -5    1    3    3    0  502 -0.30096184632E+03  0.18017426156E+03  0.99857776778E+03  0.10584046701E+04  0.46999998093E+01 0.  1.
</event>
<event>
 5   0  0.2026361E-02  0.6997835E+03  0.7818609E-02  0.9717602E-01
       -2   -1    0    0    0  501  0.00000000000E+00  0.00000000000E+00  0.11994886572E+03  0.11994886575E+03  0.25500000920E-02 0.  1.
        2   -1    0    0  501    0  0.00000000000E+00  0.00000000000E+00 -0.10206369258E+04  0.10206369258E+04  0.25500000920E-02 0. -1.
    10030    2    1    2    0    0  0.00000000000E+00  0.00000000000E+00 -0.90068806006E+03  0.11405857915E+04  0.69978351390E+03 0.  0.
        2    1    3    3  502    0  0.24205789585E+03  0.11085340323E+03 -0.80301013452E+02  0.27808048245E+03  0.25500000920E-02 0.  1.
       -2    1    3    3    0  502 -0.24205789585E+03 -0.11085340323E+03 -0.82038704660E+03  0.86250530908E+03  0.25500000920E-02 0. -1.
</event>
<event>
 5   0  0.7947250E-03  0.7044424E+03  0.7818609E-02  0.9709665E-01
       -3   -1    0    0    0  501  0.00000000000E+00  0.00000000000E+00  0.37130798103E+03  0.37130799477E+03  0.10100000352E+00 0. -1.
        3   -1    0    0  501    0  0.00000000000E+00  0.00000000000E+00 -0.33411557785E+03  0.33411559312E+03  0.10100000352E+00 0.  1.
    10030    2    1    2    0    0  0.00000000000E+00  0.00000000000E+00  0.37192403180E+02  0.70542358788E+03  0.70444244867E+03 0.  0.
        5    1    3    3  502    0  0.11324740450E+03  0.76457336114E+02  0.34365114196E+03  0.36984982931E+03  0.46999998093E+01 0. -1.
       -5    1    3    3    0  502 -0.11324740450E+03 -0.76457336114E+02 -0.30645873878E+03  0.33557375857E+03  0.46999998093E+01 0.  1.
</event>
<event>
 5   0  0.2006362E-02  0.6991732E+03  0.7818609E-02  0.9718647E-01
        2   -1    0    0  501    0  0.00000000000E+00  0.00000000000E+00  0.22927815502E+04  0.22927815502E+04  0.25500000920E-02 0. -1.
       -2   -1    0    0    0  501  0.00000000000E+00  0.00000000000E+00 -0.53302417529E+02  0.53302417590E+02  0.25500000920E-02 0.  1.
    10030    2    1    2    0    0  0.00000000000E+00  0.00000000000E+00  0.22394791327E+04  0.23460839678E+04  0.69917322479E+03 0.  0.
        4    1    3    3  502    0 -0.12623053334E+03 -0.13838571511E+03  0.21101808757E+04  0.21184781554E+04  0.12699999809E+01 0. -1.
       -4    1    3    3    0  502  0.12623053334E+03  0.13838571511E+03  0.12929825697E+03  0.22760581242E+03  0.12699999809E+01 0.  1.
</event>
<event>
 5   0  0.1257442E-02  0.6920343E+03  0.7818609E-02  0.9730952E-01
       -1   -1    0    0    0  501  0.00000000000E+00  0.00000000000E+00  0.19427905044E+03  0.19427905051E+03  0.50400001928E-02 0.  1.
        1   -1    0    0  501    0  0.00000000000E+00  0.00000000000E+00 -0.61626750746E+03  0.61626750748E+03  0.50400001928E-02 0. -1.
    10030    2    1    2    0    0  0.00000000000E+00  0.00000000000E+00 -0.42198845702E+03  0.81054655799E+03  0.69203429454E+03 0.  0.
        1    1    3    3  502    0 -0.28311787237E+03  0.18223219384E+03 -0.11756117147E+03  0.35662996395E+03  0.50400001928E-02 0.  1.
       -1    1    3    3    0  502  0.28311787237E+03 -0.18223219384E+03 -0.30442728555E+03  0.45391659404E+03  0.50400001928E-02 0. -1.
</event>
<event>
 5   0  0.2026361E-02  0.7033566E+03  0.7818609E-02  0.9711509E-01
        2   -1    0    0  501    0  0.00000000000E+00  0.00000000000E+00  0.17867484635E+04  0.17867484635E+04  0.25500000920E-02 0. -1.
       -2   -1    0    0    0  501  0.00000000000E+00  0.00000000000E+00 -0.69219380382E+02  0.69219380429E+02  0.25500000920E-02 0.  1.
    10030    2    1    2    0    0  0.00000000000E+00  0.00000000000E+00  0.17175290831E+04  0.18559678440E+04  0.70335658549E+03 0.  0.
        2    1    3    3  502    0 -0.25243104643E+03  0.55977876018E+02  0.14877718500E+04  0.15100728570E+04  0.25500000920E-02 0. -1.
       -2    1    3    3    0  502  0.25243104643E+03 -0.55977876018E+02  0.22975723312E+03  0.34589498693E+03  0.25500000920E-02 0.  1.
</event>
<event>
 5   0  0.1237686E-02  0.7187272E+03  0.7818609E-02  0.9685732E-01
       -1   -1    0    0    0  501  0.00000000000E+00  0.00000000000E+00  0.24651304997E+03  0.24651305003E+03  0.50400001928E-02 0.  1.
        1   -1    0    0  501    0  0.00000000000E+00  0.00000000000E+00 -0.52387563561E+03  0.52387563563E+03  0.50400001928E-02 0. -1.
    10030    2    1    2    0    0  0.00000000000E+00  0.00000000000E+00 -0.27736258564E+03  0.77038868566E+03  0.71872715482E+03 0.  0.
        5    1    3    3  502    0  0.21493288172E+03 -0.27697791674E+03 -0.54232579138E+02  0.35479032209E+03  0.46999998093E+01 0.  1.
       -5    1    3    3    0  502 -0.21493288172E+03  0.27697791674E+03 -0.22313000650E+03  0.41559836357E+03  0.46999998093E+01 0. -1.
</event>
<event>
 5   0  0.7947250E-03  0.6970033E+03  0.7818609E-02  0.9722371E-01
       -3   -1    0    0    0  501  0.00000000000E+00  0.00000000000E+00  0.27527152028E+03  0.27527153881E+03  0.10100000352E+00 0.  1.
        3   -1    0    0  501    0  0.00000000000E+00  0.00000000000E+00 -0.44121305808E+03  0.44121306964E+03  0.10100000352E+00 0. -1.
    10030    2    1    2    0    0  0.00000000000E+00  0.00000000000E+00 -0.16594153780E+03  0.71648460845E+03  0.69700329998E+03 0.  0.
        4    1    3    3  502    0 -0.25845188906E+03 -0.11273108773E+03  0.12756111514E+03  0.30948203195E+03  0.12699999809E+01 0.  1.
       -4    1    3    3    0  502  0.25845188906E+03  0.11273108773E+03 -0.29350265294E+03  0.40700257651E+03  0.12699999809E+01 0. -1.
</event>
<event>
 5   0  0.1257442E-02  0.6967792E+03  0.7818609E-02  0.9722756E-01
        1   -1    0    0  501    0  0.00000000000E+00  0.00000000000E+00  0.11952802951E+04  0.11952802951E+04  0.50400001928E-02 0. -1.
       -1   -1    0    0    0  501  0.00000000000E+00  0.00000000000E+00 -0.10154549171E+03  0.10154549184E+03  0.50400001928E-02 0.  1.
    10030    2    1    2    0    0  0.00000000000E+00  0.00000000000E+00  0.10937348034E+04  0.12968257869E+04  0.69677923444E+03 0.  0.
        1    1    3    3  502    0 -0.86399687214E+02 -0.90619457320E+02 -0.58223912792E+02  0.13808264207E+03  0.50400001928E-02 0.  1.
       -1    1    3    3    0  502  0.86399687214E+02  0.90619457320E+02  0.11519587162E+04  0.11587431449E+04  0.50400001928E-02 0. -1.
</event>
<event>
 5   0  0.1973067E-02  0.7016987E+03  0.7818609E-02  0.9714332E-01
        2   -1    0    0  501    0  0.00000000000E+00  0.00000000000E+00  0.66679766554E+03  0.66679766554E+03  0.25500000920E-02 0.  1.
       -2   -1    0    0    0  501  0.00000000000E+00  0.00000000000E+00 -0.18460660228E+03  0.18460660229E+03  0.25500000920E-02 0. -1.
    10030    2    1    2    0    0  0.00000000000E+00  0.00000000000E+00  0.48219106326E+03  0.85140426784E+03  0.70169865740E+03 0.  0.
        5    1    3    3  502    0 -0.73209436167E+02 -0.14634662075E+03 -0.13542595667E+03  0.21245996020E+03  0.46999998093E+01 0. -1.
       -5    1    3    3    0  502  0.73209436167E+02  0.14634662075E+03  0.61761701993E+03  0.63894430764E+03  0.46999998093E+01 0.  1.
</event>
<event>
 5   0  0.1237686E-02  0.6993807E+03  0.7818609E-02  0.9718292E-01
        1   -1    0    0  501    0  0.00000000000E+00  0.00000000000E+00  0.67411470036E+03  0.67411470038E+03  0.50400001928E-02 0. -1.
       -1   -1    0    0    0  501  0.00000000000E+00  0.00000000000E+00 -0.18139844479E+03  0.18139844486E+03  0.50400001928E-02 0.  1.
    10030    2    1    2    0    0  0.00000000000E+00  0.00000000000E+00  0.49271625557E+03  0.85551314524E+03  0.69938074978E+03 0.  0.
        5    1    3    3  502    0 -0.22541608090E+03  0.17297237425E+02 -0.79928623980E+02  0.23983802634E+03  0.46999998093E+01 0.  1.
       -5    1    3    3    0  502  0.22541608090E+03 -0.17297237425E+02  0.57264487955E+03  0.61567511889E+03  0.46999998093E+01 0. -1.
</event>
<event>
 5   0  0.1948138E-02  0.7055586E+03  0.7818609E-02  0.9707773E-01
       -2   -1    0    0    0  501  0.00000000000E+00  0.00000000000E+00  0.31790564125E+03  0.31790564126E+03  0.25500000920E-02 0. -1.
        2   -1    0    0  501    0  0.00000000000E+00  0.00000000000E+00 -0.39147855143E+03  0.39147855144E+03  0.25500000920E-02 0.  1.
    10030    2    1    2    0    0  0.00000000000E+00  0.00000000000E+00 -0.73572910186E+02  0.70938419270E+03  0.70555861538E+03 0.  0.
        3    1    3    3  502    0 -0.35161438302E+03 -0.91472710967E+01 -0.94936846770E+01  0.35186146019E+03  0.10100000352E+00 0. -1.
       -3    1    3    3    0  502  0.35161438302E+03  0.91472710967E+01 -0.64079225509E+02  0.35752273251E+03  0.10100000352E+00 0.  1.
</event>
<event>
 5   0  0.1257442E-02  0.7001066E+03  0.7818609E-02  0.9717050E-01
        1   -1    0    0  501    0  0.00000000000E+00  0.00000000000E+00  0.17873351622E+03  0.17873351629E+03  0.50400001928E-02 0. -1.
       -1   -1    0    0    0  501  0.00000000000E+00  0.00000000000E+00 -0.68558668446E+03  0.68558668448E+03  0.50400001928E-02 0.  1.
    10030    2    1    2    0    0  0.00000000000E+00  0.00000000000E+00 -0.50685316825E+03  0.86432020077E+03  0.70010661709E+03 0.  0.
        1    1    3    3  502    0  0.12882141646E+02 -0.24411792340E+02 -0.68424109534E+03  0.68479760642E+03  0.50400001928E-02 0.  1.
       -1    1    3    3    0  502 -0.12882141646E+02  0.24411792340E+02  0.17738792709E+03  0.17952259435E+03  0.50400001928E-02 0. -1.
</event>
<event>
 5   0  0.1197259E-02  0.6975933E+03  0.7818609E-02  0.9721357E-01
       -1   -1    0    0    0  501  0.00000000000E+00  0.00000000000E+00  0.13490851751E+03  0.13490851760E+03  0.50400001928E-02 0.  1.
        1   -1    0    0  501    0  0.00000000000E+00  0.00000000000E+00 -0.90178962692E+03  0.90178962694E+03  0.50400001928E-02 0. -1.
    10030    2    1    2    0    0  0.00000000000E+00  0.00000000000E+00 -0.76688110942E+03  0.10366981445E+04  0.69759329620E+03 0.  0.
        3    1    3    3  502    0  0.78591091099E+02 -0.33966365257E+03 -0.36777392641E+03  0.50675993096E+03  0.10100000352E+00 0.  1.
       -3    1    3    3    0  502 -0.78591091099E+02  0.33966365257E+03 -0.39910718301E+03  0.52993821358E+03  0.10100000352E+00 0. -1.
</event>
<event>
 5   0  0.1948138E-02  0.6986423E+03  0.7818609E-02  0.9719557E-01
        2   -1    0    0  501    0  0.00000000000E+00  0.00000000000E+00  0.10501312147E+04  0.10501312147E+04  0.25500000920E-02 0.  1.
       -2   -1    0    0    0  501  0.00000000000E+00  0.00000000000E+00 -0.11620000555E+03  0.11620000557E+03  0.25500000920E-02 0. -1.
    10030    2    1    2    0    0  0.00000000000E+00  0.00000000000E+00  0.93393120911E+03  0.11663312202E+04  0.69864226321E+03 0.  0.
        3    1    3    3  502    0 -0.46337767882E+02  0.14418915637E+03  0.99247026615E+03  0.10039596311E+04  0.10100000352E+00 0.  1.
       -3    1    3    3    0  502  0.46337767882E+02 -0.14418915637E+03 -0.58539057044E+02  0.16237158910E+03  0.10100000352E+00 0. -1.
</event>
<event>
 5   0  0.1973067E-02  0.6973121E+03  0.7818609E-02  0.9721840E-01
        2   -1    0    0  501    0  0.00000000000E+00  0.00000000000E+00  0.39156471954E+03  0.39156471955E+03  0.25500000920E-02 0.  1.
       -2   -1    0    0    0  501  0.00000000000E+00  0.00000000000E+00 -0.31044941428E+03  0.31044941429E+03  0.25500000920E-02 0. -1.
    10030    2    1    2    0    0  0.00000000000E+00  0.00000000000E+00  0.81115305263E+02  0.70201413384E+03  0.69731209036E+03 0.  0.
        5    1    3    3  502    0 -0.33099833157E+03 -0.61338643704E+02 -0.50699170227E+02  0.34046265665E+03  0.46999998093E+01 0. -1.
       -5    1    3    3    0  502  0.33099833157E+03  0.61338643704E+02  0.13181447549E+03  0.36155147719E+03  0.46999998093E+01 0.  1.
</event>
<event>
 5   0  0.1973067E-02  0.6992661E+03  0.7818609E-02  0.9718488E-01
        2   -1    0    0  501    0  0.00000000000E+00  0.00000000000E+00  0.84942313719E+03  0.84942313719E+03  0.25500000920E-02 0. -1.
       -2   -1    0    0    0  501  0.00000000000E+00  0.00000000000E+00 -0.14391328029E+03  0.14391328032E+03  0.25500000920E-02 0.  1.
    10030    2    1    2    0    0  0.00000000000E+00  0.00000000000E+00  0.70550985690E+03  0.99333641751E+03  0.69926610112E+03 0.  0.
        5    1    3    3  502    0  0.33646050791E+03  0.12315196163E+02  0.48649603143E+03  0.59165683976E+03  0.46999998093E+01 0. -1.
       -5    1    3    3    0  502 -0.33646050791E+03 -0.12315196163E+02  0.21901382546E+03  0.40167957775E+03  0.46999998093E+01 0.  1.
</event>
<event>
 5   0  0.1226303E-02  0.6941142E+03  0.7818609E-02  0.9727351E-01
        1   -1    0    0  501    0  0.00000000000E+00  0.00000000000E+00  0.19814699559E+04  0.19814699560E+04  0.50400001928E-02 0.  1.
       -1   -1    0    0    0  501  0.00000000000E+00  0.00000000000E+00 -0.60787513663E+02  0.60787513872E+02  0.50400001928E-02 0. -1.
    10030    2    1    2    0    0  0.00000000000E+00  0.00000000000E+00  0.19206824423E+04  0.20422574698E+04  0.69411420455E+03 0.  0.
        4    1    3    3  502    0  0.10983200796E+03  0.41969680952E+02  0.19210770389E+04  0.19246722127E+04  0.12699999809E+01 0.  1.
       -4    1    3    3    0  502 -0.10983200796E+03 -0.41969680952E+02 -0.39459658868E+00  0.11758525714E+03  0.12699999809E+01 0. -1.
</event>
<event>
 5   0  0.1237686E-02  0.7037953E+03  0.7818609E-02  0.9710764E-01
       -1   -1    0    0    0  501  0.00000000000E+00  0.00000000000E+00  0.30317648494E+03  0.30317648498E+03  0.50400001928E-02 0.  1.
        1   -1    0    0  501    0  0.00000000000E+00  0.00000000000E+00 -0.40844842506E+03  0.40844842509E+03  0.50400001928E-02 0. -1.
    10030    2    1    2    0    0  0.00000000000E+00  0.00000000000E+00 -0.10527194012E+03  0.71162491007E+03  0.70379530494E+03 0.  0.
        5    1    3    3  502    0  0.78885854603E+02  0.19400986430E+03  0.23325868209E+03  0.31351955006E+03  0.46999998093E+01 0.  1.
       -5    1    3    3    0  502 -0.78885854603E+02 -0.19400986430E+03 -0.33853062221E+03  0.39810536001E+03  0.46999998093E+01 0. -1.
</event>
<event>
 5   0  0.1223742E-02  0.7004105E+03  0.7818609E-02  0.9716530E-01
       -1   -1    0    0    0  501  0.00000000000E+00  0.00000000000E+00  0.23896684071E+03  0.23896684076E+03  0.50400001928E-02 0.  1.
        1   -1    0    0  501    0  0.00000000000E+00  0.00000000000E+00 -0.51322485743E+03  0.51322485745E+03  0.50400001928E-02 0. -1.
    10030    2    1    2    0    0  0.00000000000E+00  0.00000000000E+00 -0.27425801672E+03  0.75219169821E+03  0.70041051614E+03 0.  0.
        2    1    3    3  502    0 -0.21057318286E+01 -0.32133378286E+02 -0.51163148267E+03  0.51264389411E+03  0.25500000920E-02 0. -1.
       -2    1    3    3    0  502  0.21057318286E+01  0.32133378286E+02  0.23737346595E+03  0.23954780410E+03  0.25500000920E-02 0.  1.
</event>
<event>
 5   0  0.1257442E-02  0.7051957E+03  0.7818609E-02  0.9708388E-01
        1   -1    0    0  501    0  0.00000000000E+00  0.00000000000E+00  0.52267270516E+03  0.52267270518E+03  0.50400001928E-02 0. -1.
       -1   -1    0    0    0  501  0.00000000000E+00  0.00000000000E+00 -0.23786440075E+03  0.23786440081E+03  0.50400001928E-02 0.  1.
    10030    2    1    2    0    0  0.00000000000E+00  0.00000000000E+00  0.28480830440E+03  0.76053710599E+03  0.70519566031E+03 0.  0.
        1    1    3    3  502    0  0.16802966571E+03  0.30995277872E+03  0.13751683014E+03  0.37843833340E+03  0.50400001928E-02 0. -1.
       -1    1    3    3    0  502 -0.16802966571E+03 -0.30995277872E+03  0.14729147427E+03  0.38209877258E+03  0.50400001928E-02 0.  1.
</event>
<event>
 5   0  0.7947250E-03  0.7069865E+03  0.7818609E-02  0.9705358E-01
       -3   -1    0    0    0  501  0.00000000000E+00  0.00000000000E+00  0.39970777718E+03  0.39970778994E+03  0.10100000352E+00 0.  1.
        3   -1    0    0  501    0  0.00000000000E+00  0.00000000000E+00 -0.31262205888E+03  0.31262207519E+03  0.10100000352E+00 0. -1.
    10030    2    1    2    0    0  0.00000000000E+00  0.00000000000E+00  0.87085718304E+02  0.71232986514E+03  0.70698650230E+03 0.  0.
        1    1    3    3  502    0  0.38103772729E+02 -0.16859466070E+03  0.35422612625E+03  0.39414744152E+03  0.50400001928E-02 0.  1.
       -1    1    3    3    0  502 -0.38103772729E+02  0.16859466070E+03 -0.26714040795E+03  0.31818242362E+03  0.50400001928E-02 0. -1.
</event>
<event>
 5   0  0.1226303E-02  0.6915032E+03  0.7818609E-02  0.9731874E-01
       -1   -1    0    0    0  501  0.00000000000E+00  0.00000000000E+00  0.20086193707E+03  0.20086193714E+03  0.50400001928E-02 0. -1.
        1   -1    0    0  501    0  0.00000000000E+00  0.00000000000E+00 -0.59515599424E+03  0.59515599426E+03  0.50400001928E-02 0.  1.
    10030    2    1    2    0    0  0.00000000000E+00  0.00000000000E+00 -0.39429405716E+03  0.79601793139E+03  0.69150324915E+03 0.  0.
        4    1    3    3  502    0  0.28666571550E+03 -0.98008071025E+02 -0.38894166957E+03  0.49301120642E+03  0.12699999809E+01 0. -1.
       -4    1    3    3    0  502 -0.28666571550E+03  0.98008071025E+02 -0.53523875923E+01  0.30300672497E+03  0.12699999809E+01 0.  1.
</event>
<event>
 5   0  0.1948138E-02  0.6991473E+03  0.7818609E-02  0.9718692E-01
       -2   -1    0    0    0  501  0.00000000000E+00  0.00000000000E+00  0.31860774281E+03  0.31860774282E+03  0.25500000920E-02 0.  1.
        2   -1    0    0  501    0  0.00000000000E+00  0.00000000000E+00 -0.38354912251E+03  0.38354912252E+03  0.25500000920E-02 0. -1.
    10030    2    1    2    0    0  0.00000000000E+00  0.00000000000E+00 -0.64941379701E+02  0.70215686534E+03  0.69914725255E+03 0.  0.
        3    1    3    3  502    0 -0.17163099945E+03  0.30403735804E+03 -0.50032959135E+02  0.35270273922E+03  0.10100000352E+00 0. -1.
       -3    1    3    3    0  502  0.17163099945E+03 -0.30403735804E+03 -0.14908420565E+02  0.34945412612E+03  0.10100000352E+00 0.  1.
</event>
<event>
 5   0  0.1973067E-02  0.7067296E+03  0.7818609E-02  0.9705792E-01
       -2   -1    0    0    0  501  0.00000000000E+00  0.00000000000E+00  0.53753143944E+03  0.53753143944E+03  0.25500000920E-02 0.  1.
        2   -1    0    0  501    0  0.00000000000E+00  0.00000000000E+00 -0.23229650450E+03  0.23229650452E+03  0.25500000920E-02 0. -1.
    10030    2    1    2    0    0  0.00000000000E+00  0.00000000000E+00  0.30523493493E+03  0.76982794396E+03  0.70672957898E+03 0.  0.
        5    1    3    3  502    0 -0.29841292460E+03 -0.73872619190E+01  0.35854579527E+03  0.46656406046E+03  0.46999998093E+01 0.  1.
       -5    1    3    3    0  502  0.29841292460E+03  0.73872619190E+01 -0.53310860334E+02  0.30326388350E+03  0.46999998093E+01 0. -1.
</event>
<event>
 5   0  0.1973067E-02  0.6820167E+03  0.7818609E-02  0.9748490E-01
        2   -1    0    0  501    0  0.00000000000E+00  0.00000000000E+00  0.26965376769E+03  0.26965376770E+03  0.25500000920E-02 0. -1.
       -2   -1    0    0    0  501  0.00000000000E+00  0.00000000000E+00 -0.43124448219E+03  0.43124448219E+03  0.25500000920E-02 0.  1.
    10030    2    1    2    0    0  0.00000000000E+00  0.00000000000E+00 -0.16159071450E+03  0.70089824990E+03  0.68201671365E+03 0.  0.
        5    1    3    3  502    0 -0.51650702158E+02  0.48823383131E+02 -0.42351414650E+03  0.42946226849E+03  0.46999998093E+01 0.  1.
       -5    1    3    3    0  502  0.51650702158E+02 -0.48823383131E+02  0.26192343200E+03  0.27143598141E+03  0.46999998093E+01 0. -1.
</event>
<event>
 5   0  0.1257442E-02  0.6980316E+03  0.7818609E-02  0.9720604E-01
       -1   -1    0    0    0  501  0.00000000000E+00  0.00000000000E+00  0.11565512738E+03  0.11565512749E+03  0.50400001928E-02 0. -1.
        1   -1    0    0  501    0  0.00000000000E+00  0.00000000000E+00 -0.10532349461E+04  0.10532349462E+04  0.50400001928E-02 0.  1.
    10030    2    1    2    0    0  0.00000000000E+00  0.00000000000E+00 -0.93757981876E+03  0.11688900736E+04  0.69803158075E+03 0.  0.
        1    1    3    3  502    0  0.60547390749E+02  0.34352965547E+03 -0.48813161330E+03  0.59995923415E+03  0.50400001928E-02 0.  1.
       -1    1    3    3    0  502 -0.60547390749E+02 -0.34352965547E+03 -0.44944820545E+03  0.56893083949E+03  0.50400001928E-02 0. -1.
</event>
<event>
 5   0  0.1909053E-02  0.7027003E+03  0.7818609E-02  0.9712625E-01
       -2   -1    0    0    0  501  0.00000000000E+00  0.00000000000E+00  0.35899873671E+03  0.35899873672E+03  0.25500000920E-02 0. -1.
        2   -1    0    0  501    0  0.00000000000E+00  0.00000000000E+00 -0.34386455992E+03  0.34386455993E+03  0.25500000920E-02 0.  1.
    10030    2    1    2    0    0  0.00000000000E+00  0.00000000000E+00  0.15134176792E+02  0.70286329665E+03  0.70270034188E+03 0.  0.
        1    1    3    3  502    0  0.31708497062E+03 -0.12264821546E+03  0.96252632807E+02  0.35334124115E+03  0.50400001928E-02 0.  1.
       -1    1    3    3    0  502 -0.31708497062E+03  0.12264821546E+03 -0.81118456014E+02  0.34952205550E+03  0.50400001928E-02 0. -1.
</event>
<event>
 5   0  0.1909053E-02  0.7005445E+03  0.7818609E-02  0.9716302E-01
       -2   -1    0    0    0  501  0.00000000000E+00  0.00000000000E+00  0.10532360975E+03  0.10532360978E+03  0.25500000920E-02 0.  1.
        2   -1    0    0  501    0  0.00000000000E+00  0.00000000000E+00 -0.11648920999E+04  0.11648920999E+04  0.25500000920E-02 0. -1.
    10030    2    1    2    0    0  0.00000000000E+00  0.00000000000E+00 -0.10595684901E+04  0.12702157097E+04  0.70054447667E+03 0.  0.
        1    1    3    3  502    0 -0.31311882789E+03 -0.80189362993E+02 -0.28505882519E+03  0.43096666711E+03  0.50400001928E-02 0.  1.
       -1    1    3    3    0  502  0.31311882789E+03  0.80189362993E+02 -0.77450966495E+03  0.83924904256E+03  0.50400001928E-02 0. -1.
</event>
<event>
 5   0  0.1257442E-02  0.6842110E+03  0.7818609E-02  0.9744621E-01
        1   -1    0    0  501    0  0.00000000000E+00  0.00000000000E+00  0.15496716974E+04  0.15496716974E+04  0.50400001928E-02 0. -1.
       -1   -1    0    0    0  501  0.00000000000E+00  0.00000000000E+00 -0.75523208918E+02  0.75523209086E+02  0.50400001928E-02 0.  1.
    10030    2    1    2    0    0  0.00000000000E+00  0.00000000000E+00  0.14741484885E+04  0.16251949065E+04  0.68421101861E+03 0.  0.
        1    1    3    3  502    0  0.31167385555E+03 -0.12108625503E+03  0.56523591019E+03  0.65672985891E+03  0.50400001928E-02 0.  1.
       -1    1    3    3    0  502 -0.31167385555E+03  0.12108625503E+03  0.90891257827E+03  0.96846504756E+03  0.50400001928E-02 0. -1.
</event>
<event>
 5   0  0.2006362E-02  0.6968619E+03  0.7818609E-02  0.9722614E-01
       -2   -1    0    0    0  501  0.00000000000E+00  0.00000000000E+00  0.15460073150E+03  0.15460073152E+03  0.25500000920E-02 0. -1.
        2   -1    0    0  501    0  0.00000000000E+00  0.00000000000E+00 -0.78527516129E+03  0.78527516129E+03  0.25500000920E-02 0.  1.
    10030    2    1    2    0    0  0.00000000000E+00  0.00000000000E+00 -0.63067442979E+03  0.93987589281E+03  0.69686186400E+03 0.  0.
        4    1    3    3  502    0 -0.30805448180E+03 -0.75563761248E+02 -0.12084426824E+03  0.33942951527E+03  0.12699999809E+01 0. -1.
       -4    1    3    3    0  502  0.30805448180E+03  0.75563761248E+02 -0.50983016155E+03  0.60044637753E+03  0.12699999809E+01 0.  1.
</event>
<event>
 5   0  0.1223742E-02  0.6939838E+03  0.7818609E-02  0.9727576E-01
       -1   -1    0    0    0  501  0.00000000000E+00  0.00000000000E+00  0.21626652716E+03  0.21626652722E+03  0.50400001928E-02 0. -1.
        1   -1    0    0  501    0  0.00000000000E+00  0.00000000000E+00 -0.55673606286E+03  0.55673606288E+03  0.50400001928E-02 0.  1.
    10030    2    1    2    0    0  0.00000000000E+00  0.00000000000E+00 -0.34046953569E+03  0.77300259010E+03  0.69398378912E+03 0.  0.
        2    1    3    3  502    0 -0.60256685929E+02 -0.79129539657E+02 -0.54051832076E+03  0.54959294694E+03  0.25500000920E-02 0.  1.
       -2    1    3    3    0  502  0.60256685929E+02  0.79129539657E+02  0.20004878506E+03  0.22340964316E+03  0.25500000920E-02 0. -1.
</event>
<event>
 5   0  0.2026361E-02  0.7347064E+03  0.7818609E-02  0.9659654E-01
        2   -1    0    0  501    0  0.00000000000E+00  0.00000000000E+00  0.54814158780E+03  0.54814158780E+03  0.25500000920E-02 0.  1.
       -2   -1    0    0    0  501  0.00000000000E+00  0.00000000000E+00 -0.24619251774E+03  0.24619251775E+03  0.25500000920E-02 0. -1.
    10030    2    1    2    0    0  0.00000000000E+00  0.00000000000E+00  0.30194907006E+03  0.79433410555E+03  0.73470635654E+03 0.  0.
        2    1    3    3  502    0  0.10353878663E+03  0.26801053543E+02 -0.22898739757E+03  0.25273267510E+03  0.25500000920E-02 0. -1.
       -2    1    3    3    0  502 -0.10353878663E+03 -0.26801053543E+02  0.53093646763E+03  0.54160143046E+03  0.25500000920E-02 0.  1.
</event>
<event>
 5   0  0.1257442E-02  0.7040255E+03  0.7818609E-02  0.9710373E-01
       -1   -1    0    0    0  501  0.00000000000E+00  0.00000000000E+00  0.81961724976E+02  0.81961725131E+02  0.50400001928E-02 0. -1.
        1   -1    0    0  501    0  0.00000000000E+00  0.00000000000E+00 -0.15118395770E+04  0.15118395770E+04  0.50400001928E-02 0.  1.
    10030    2    1    2    0    0  0.00000000000E+00  0.00000000000E+00 -0.14298778521E+04  0.15938013022E+04  0.70402551019E+03 0.  0.
        1    1    3    3  502    0  0.12453767045E+03 -0.13238804085E+03 -0.13973910454E+04  0.14091621477E+04  0.50400001928E-02 0.  1.
       -1    1    3    3    0  502 -0.12453767045E+03  0.13238804085E+03 -0.32486806613E+02  0.18463915443E+03  0.50400001928E-02 0. -1.
</event>
<event>
 5   0  0.2026361E-02  0.7020645E+03  0.7818609E-02  0.9713708E-01
       -2   -1    0    0    0  501  0.00000000000E+00  0.00000000000E+00  0.11194265427E+03  0.11194265430E+03  0.25500000920E-02 0. -1.
        2   -1    0    0  501    0  0.00000000000E+00  0.00000000000E+00 -0.11007745417E+04  0.11007745417E+04  0.25500000920E-02 0.  1.
    10030    2    1    2    0    0  0.00000000000E+00  0.00000000000E+00 -0.98883188740E+03  0.12127171960E+04  0.70206445278E+03 0.  0.
        2    1    3    3  502    0  0.48444740550E+02  0.33820641814E+02  0.10329236602E+03  0.11899597298E+03  0.25500000920E-02 0. -1.
       -2    1    3    3    0  502 -0.48444740550E+02 -0.33820641814E+02 -0.10921242534E+04  0.10937212230E+04  0.25500000920E-02 0.  1.
</event>
<event>
 5   0  0.1973067E-02  0.7005870E+03  0.7818609E-02  0.9716229E-01
        2   -1    0    0  501    0  0.00000000000E+00  0.00000000000E+00  0.43657805282E+03  0.43657805283E+03  0.25500000920E-02 0.  1.
       -2   -1    0    0    0  501  0.00000000000E+00  0.00000000000E+00 -0.28106204666E+03  0.28106204668E+03  0.25500000920E-02 0. -1.
    10030    2    1    2    0    0  0.00000000000E+00  0.00000000000E+00  0.15551600616E+03  0.71764009950E+03  0.70058695695E+03 0.  0.
        5    1    3    3  502    0  0.26449647865E+03  0.22880174997E+03  0.57926930207E+02  0.35452256240E+03  0.46999998093E+01 0. -1.
       -5    1    3    3    0  502 -0.26449647865E+03 -0.22880174997E+03  0.97589075952E+02  0.36311753710E+03  0.46999998093E+01 0.  1.
</event>
<event>
 5   0  0.1973067E-02  0.7065267E+03  0.7818609E-02  0.9706135E-01
       -2   -1    0    0    0  501  0.00000000000E+00  0.00000000000E+00  0.15123830957E+03  0.15123830959E+03  0.25500000920E-02 0.  1.
        2   -1    0    0  501    0  0.00000000000E+00  0.00000000000E+00 -0.82515466999E+03  0.82515466999E+03  0.25500000920E-02 0. -1.
    10030    2    1    2    0    0  0.00000000000E+00  0.00000000000E+00 -0.67391636042E+03  0.97639297958E+03  0.70652670844E+03 0.  0.
        5    1    3    3  502    0 -0.29153331911E+03 -0.18906860698E+03 -0.24918137089E+03  0.42761204367E+03  0.46999998093E+01 0. -1.
       -5    1    3    3    0  502  0.29153331911E+03  0.18906860698E+03 -0.42473498952E+03  0.54878093591E+03  0.46999998093E+01 0.  1.
</event>
<event>
 5   0  0.1973067E-02  0.6993683E+03  0.7818609E-02  0.9718313E-01
        2   -1    0    0  501    0  0.00000000000E+00  0.00000000000E+00  0.43132432215E+03  0.43132432216E+03  0.25500000920E-02 0.  1.
       -2   -1    0    0    0  501  0.00000000000E+00  0.00000000000E+00 -0.28349669629E+03  0.28349669630E+03  0.25500000920E-02 0. -1.
    10030    2    1    2    0    0  0.00000000000E+00  0.00000000000E+00  0.14782762586E+03  0.71482101846E+03  0.69936834462E+03 0.  0.
        5    1    3    3  502    0 -0.78911754037E+02 -0.16796106177E+01 -0.27423984100E+03  0.28541104815E+03  0.46999998093E+01 0. -1.
       -5    1    3    3    0  502  0.78911754037E+02  0.16796106177E+01  0.42206746686E+03  0.42940997031E+03  0.46999998093E+01 0.  1.
</event>
<event>
 5   0  0.1257442E-02  0.7023021E+03  0.7818609E-02  0.9713303E-01
        1   -1    0    0  501    0  0.00000000000E+00  0.00000000000E+00  0.73792018957E+03  0.73792018959E+03  0.50400001928E-02 0. -1.
       -1   -1    0    0    0  501  0.00000000000E+00  0.00000000000E+00 -0.16710082996E+03  0.16710083004E+03  0.50400001928E-02 0.  1.
    10030    2    1    2    0    0  0.00000000000E+00  0.00000000000E+00  0.57081935961E+03  0.90502101963E+03  0.70230214628E+03 0.  0.
        1    1    3    3  502    0  0.61935225856E+02 -0.31893483456E+03  0.11371598665E+03  0.34421900956E+03  0.50400001928E-02 0.  1.
       -1    1    3    3    0  502 -0.61935225856E+02  0.31893483456E+03  0.45710337296E+03  0.56080201007E+03  0.50400001928E-02 0. -1.
</event>
<event>
 5   0  0.1257442E-02  0.6898928E+03  0.7818609E-02  0.9734675E-01
       -1   -1    0    0    0  501  0.00000000000E+00  0.00000000000E+00  0.90672189878E+02  0.90672190018E+02  0.50400001928E-02 0.  1.
        1   -1    0    0  501    0  0.00000000000E+00  0.00000000000E+00 -0.13122877994E+04  0.13122877994E+04  0.50400001928E-02 0. -1.
    10030    2    1    2    0    0  0.00000000000E+00  0.00000000000E+00 -0.12216156095E+04  0.14029599894E+04  0.68989277030E+03 0.  0.
        1    1    3    3  502    0 -0.13093731598E+03 -0.43459962246E+02  0.32124449983E+02  0.14165214205E+03  0.50400001928E-02 0.  1.
       -1    1    3    3    0  502  0.13093731598E+03  0.43459962246E+02 -0.12537400595E+04  0.12613078474E+04  0.50400001928E-02 0. -1.
</event>
<event>
 5   0  0.1197259E-02  0.7044115E+03  0.7818609E-02  0.9709718E-01
        1   -1    0    0  501    0  0.00000000000E+00  0.00000000000E+00  0.90487692650E+03  0.90487692652E+03  0.50400001928E-02 0. -1.
       -1   -1    0    0    0  501  0.00000000000E+00  0.00000000000E+00 -0.13708923909E+03  0.13708923918E+03  0.50400001928E-02 0.  1.
    10030    2    1    2    0    0  0.00000000000E+00  0.00000000000E+00  0.76778768741E+03  0.10419661657E+04  0.70441149729E+03 0.  0.
        3    1    3    3  502    0 -0.10671769541E+03 -0.63260806673E+02  0.87148812140E+03  0.88027390743E+03  0.10100000352E+00 0. -1.
       -3    1    3    3    0  502  0.10671769541E+03  0.63260806673E+02 -0.10370043398E+03  0.16169225827E+03  0.10100000352E+00 0.  1.
</event>
<event>
 5   0  0.1909053E-02  0.7011784E+03  0.7818609E-02  0.9715219E-01
       -2   -1    0    0    0  501  0.00000000000E+00  0.00000000000E+00  0.12438233993E+03  0.12438233996E+03  0.25500000920E-02 0. -1.
        2   -1    0    0  501    0  0.00000000000E+00  0.00000000000E+00 -0.98818533360E+03  0.98818533360E+03  0.25500000920E-02 0.  1.
    10030    2    1    2    0    0  0.00000000000E+00  0.00000000000E+00 -0.86380299367E+03  0.11125676736E+04  0.70117844831E+03 0.  0.
        1    1    3    3  502    0 -0.15175028160E+03  0.28843094509E+03 -0.63690216024E+03  0.71544735641E+03  0.50400001928E-02 0.  1.
       -1    1    3    3    0  502  0.15175028160E+03 -0.28843094509E+03 -0.22690083343E+03  0.39712031715E+03  0.50400001928E-02 0. -1.
</event>
<event>
 5   0  0.1237686E-02  0.6976530E+03  0.7818609E-02  0.9721254E-01
        1   -1    0    0  501    0  0.00000000000E+00  0.00000000000E+00  0.18854307439E+03  0.18854307445E+03  0.50400001928E-02 0. -1.
       -1   -1    0    0    0  501  0.00000000000E+00  0.00000000000E+00 -0.64536946738E+03  0.64536946740E+03  0.50400001928E-02 0.  1.
    10030    2    1    2    0    0  0.00000000000E+00  0.00000000000E+00 -0.45682639299E+03  0.83391254185E+03  0.69765304710E+03 0.  0.
        5    1    3    3  502    0 -0.22712104437E+03 -0.21229039836E+03 -0.39392676023E+02  0.31340876656E+03  0.46999998093E+01 0. -1.
       -5    1    3    3    0  502  0.22712104437E+03  0.21229039836E+03 -0.41743371697E+03  0.52050377529E+03  0.46999998093E+01 0.  1.
</event>
<event>
 5   0  0.1909053E-02  0.7003320E+03  0.7818609E-02  0.9716665E-01
       -2   -1    0    0    0  501  0.00000000000E+00  0.00000000000E+00  0.17212145430E+03  0.17212145432E+03  0.25500000920E-02 0. -1.
        2   -1    0    0  501    0  0.00000000000E+00  0.00000000000E+00 -0.71238201674E+03  0.71238201675E+03  0.25500000920E-02 0.  1.
    10030    2    1    2    0    0  0.00000000000E+00  0.00000000000E+00 -0.54026056244E+03  0.88450347107E+03  0.70033200341E+03 0.  0.
        1    1    3    3  502    0  0.28180104569E+03 -0.99297662180E+02 -0.39505033179E+02  0.30138431071E+03  0.50400001928E-02 0. -1.
       -1    1    3    3    0  502 -0.28180104569E+03  0.99297662180E+02 -0.50075552926E+03  0.58311916036E+03  0.50400001928E-02 0.  1.
</event>
<event>
 5   0  0.1948138E-02  0.7014397E+03  0.7818609E-02  0.9714773E-01
       -2   -1    0    0    0  501  0.00000000000E+00  0.00000000000E+00  0.12128127378E+03  0.12128127380E+03  0.25500000920E-02 0. -1.
        2   -1    0    0  501    0  0.00000000000E+00  0.00000000000E+00 -0.10142078461E+04  0.10142078461E+04  0.25500000920E-02 0.  1.
    10030    2    1    2    0    0  0.00000000000E+00  0.00000000000E+00 -0.89292657234E+03  0.11354891199E+04  0.70143971792E+03 0.  0.
        3    1    3    3  502    0 -0.10604435205E+03 -0.97127400864E+02 -0.96428955625E+03  0.97495307328E+03  0.10100000352E+00 0.  1.
       -3    1    3    3    0  502  0.10604435205E+03  0.97127400864E+02  0.71362983910E+02  0.16053604665E+03  0.10100000352E+00 0. -1.
</event>
<event>
 5   0  0.2026361E-02  0.6979021E+03  0.7818609E-02  0.9720827E-01
       -2   -1    0    0    0  501  0.00000000000E+00  0.00000000000E+00  0.10182357255E+03  0.10182357258E+03  0.25500000920E-02 0.  1.
        2   -1    0    0  501    0  0.00000000000E+00  0.00000000000E+00 -0.11958610873E+04  0.11958610873E+04  0.25500000920E-02 0. -1.
    10030    2    1    2    0    0  0.00000000000E+00  0.00000000000E+00 -0.10940375147E+04  0.12976846599E+04  0.69790213697E+03 0.  0.
        2    1    3    3  502    0  0.15613176628E+03  0.13343848159E+03 -0.22468350666E+02  0.20661022143E+03  0.25500000920E-02 0.  1.
       -2    1    3    3    0  502 -0.15613176628E+03 -0.13343848159E+03 -0.10715691641E+04  0.10910744384E+04  0.25500000920E-02 0. -1.
</event>
<event>
 5   0  0.1223742E-02  0.7033341E+03  0.7818609E-02  0.9711547E-01
       -1   -1    0    0    0  501  0.00000000000E+00  0.00000000000E+00  0.34306197385E+03  0.34306197389E+03  0.50400001928E-02 0. -1.
        1   -1    0    0  501    0  0.00000000000E+00  0.00000000000E+00 -0.36048797524E+03  0.36048797527E+03  0.50400001928E-02 0.  1.
    10030    2    1    2    0    0  0.00000000000E+00  0.00000000000E+00 -0.17426001386E+02  0.70354994916E+03  0.70333410655E+03 0.  0.
        2    1    3    3  502    0 -0.89991664365E+02 -0.21942603143E+03 -0.26845291338E+03  0.35820838856E+03  0.25500000920E-02 0.  1.
       -2    1    3    3    0  502  0.89991664365E+02  0.21942603143E+03  0.25102691199E+03  0.34534156060E+03  0.25500000920E-02 0. -1.
</event>
<event>
 5   0  0.1973067E-02  0.7126403E+03  0.7818609E-02  0.9695856E-01
       -2   -1    0    0    0  501  0.00000000000E+00  0.00000000000E+00  0.56066860256E+03  0.56066860257E+03  0.25500000920E-02 0.  1.
        2   -1    0    0  501    0  0.00000000000E+00  0.00000000000E+00 -0.22645116835E+03  0.22645116837E+03  0.25500000920E-02 0. -1.
    10030    2    1    2    0    0  0.00000000000E+00  0.00000000000E+00  0.33421743421E+03  0.78711977094E+03  0.71264033037E+03 0.  0.
        5    1    3    3  502    0 -0.14265697395E+03  0.13636533085E+03 -0.16053401879E+03  0.25444012432E+03  0.46999998093E+01 0. -1.
       -5    1    3    3    0  502  0.14265697395E+03 -0.13636533085E+03  0.49475145300E+03  0.53267964662E+03  0.46999998093E+01 0.  1.
</event>
<event>
 5   0  0.7947250E-03  0.7104329E+03  0.7818609E-02  0.9699555E-01
        3   -1    0    0  501    0  0.00000000000E+00  0.00000000000E+00  0.86823789850E+03  0.86823790437E+03  0.10100000352E+00 0.  1.
       -3   -1    0    0    0  501  0.00000000000E+00  0.00000000000E+00 -0.14532732838E+03  0.14532736347E+03  0.10100000352E+00 0. -1.
    10030    2    1    2    0    0  0.00000000000E+00  0.00000000000E+00  0.72291057012E+03  0.10135652678E+04  0.71043286790E+03 0.  0.
        2    1    3    3  502    0 -0.33362492138E+03  0.12133557404E+03  0.37897539781E+03  0.51927859753E+03  0.25500000920E-02 0. -1.
       -2    1    3    3    0  502  0.33362492138E+03 -0.12133557404E+03  0.34393517231E+03  0.49428667032E+03  0.25500000920E-02 0.  1.
</event>
<event>
 5   0  0.1973067E-02  0.6952077E+03  0.7818609E-02  0.9725463E-01
       -2   -1    0    0    0  501  0.00000000000E+00  0.00000000000E+00  0.53454720869E+02  0.53454720930E+02  0.25500000920E-02 0.  1.
        2   -1    0    0  501    0  0.00000000000E+00  0.00000000000E+00 -0.22603883976E+04  0.22603883976E+04  0.25500000920E-02 0. -1.
    10030    2    1    2    0    0  0.00000000000E+00  0.00000000000E+00 -0.22069336768E+04  0.23138431186E+04  0.69520768386E+03 0.  0.
        5    1    3    3  502    0 -0.72669868445E+02  0.31493197244E+03 -0.15289564965E+04  0.15627517765E+04  0.46999998093E+01 0. -1.
       -5    1    3    3    0  502  0.72669868445E+02 -0.31493197244E+03 -0.67797718032E+03  0.75109134204E+03  0.46999998093E+01 0.  1.
</event>
<event>
 5   0  0.1909053E-02  0.6931591E+03  0.7818609E-02  0.9729003E-01
       -2   -1    0    0    0  501  0.00000000000E+00  0.00000000000E+00  0.29105972391E+03  0.29105972392E+03  0.25500000920E-02 0. -1.
        2   -1    0    0  501    0  0.00000000000E+00  0.00000000000E+00 -0.41268978621E+03  0.41268978622E+03  0.25500000920E-02 0.  1.
    10030    2    1    2    0    0  0.00000000000E+00  0.00000000000E+00 -0.12163006230E+03  0.70374951014E+03  0.69315907335E+03 0.  0.
        1    1    3    3  502    0  0.25506558708E+03  0.15730177883E+03 -0.23758744580E+03  0.38242659134E+03  0.50400001928E-02 0.  1.
       -1    1    3    3    0  502 -0.25506558708E+03 -0.15730177883E+03  0.11595738350E+03  0.32132291880E+03  0.50400001928E-02 0. -1.
</event>
<event>
 5   0  0.2006362E-02  0.6946677E+03  0.7818609E-02  0.9726395E-01
        2   -1    0    0  501    0  0.00000000000E+00  0.00000000000E+00  0.12788352021E+04  0.12788352021E+04  0.25500000920E-02 0.  1.
       -2   -1    0    0    0  501  0.00000000000E+00  0.00000000000E+00 -0.94336467852E+02  0.94336467887E+02  0.25500000920E-02 0. -1.
    10030    2    1    2    0    0  0.00000000000E+00  0.00000000000E+00  0.11844987342E+04  0.13731716700E+04  0.69466767869E+03 0.  0.
        4    1    3    3  502    0  0.17222776798E+03  0.25610726325E+03  0.27729793612E+03  0.41490853526E+03  0.12699999809E+01 0. -1.
       -4    1    3    3    0  502 -0.17222776798E+03 -0.25610726325E+03  0.90720079809E+03  0.95826313470E+03  0.12699999809E+01 0.  1.
</event>
<event>
 5   0  0.1223742E-02  0.7050486E+03  0.7818609E-02  0.9708637E-01
        1   -1    0    0  501    0  0.00000000000E+00  0.00000000000E+00  0.40027074125E+03  0.40027074128E+03  0.50400001928E-02 0.  1.
       -1   -1    0    0    0  501  0.00000000000E+00  0.00000000000E+00 -0.31047332661E+03  0.31047332665E+03  0.50400001928E-02 0. -1.
    10030    2    1    2    0    0  0.00000000000E+00  0.00000000000E+00  0.89797414638E+02  0.71074406793E+03  0.70504861848E+03 0.  0.
        2    1    3    3  502    0  0.12436601018E+03 -0.11773371435E+03 -0.26572229303E+03  0.31612729873E+03  0.25500000920E-02 0. -1.
       -2    1    3    3    0  502 -0.12436601018E+03  0.11773371435E+03  0.35551970767E+03  0.39461676920E+03  0.25500000920E-02 0.  1.
</event>
<event>
 5   0  0.1223742E-02  0.7028820E+03  0.7818609E-02  0.9712316E-01
        1   -1    0    0  501    0  0.00000000000E+00  0.00000000000E+00  0.43022647762E+03  0.43022647765E+03  0.50400001928E-02 0.  1.
       -1   -1    0    0    0  501  0.00000000000E+00  0.00000000000E+00 -0.28708318444E+03  0.28708318448E+03  0.50400001928E-02 0. -1.
    10030    2    1    2    0    0  0.00000000000E+00  0.00000000000E+00  0.14314329318E+03  0.71730966213E+03  0.70288203065E+03 0.  0.
        2    1    3    3  502    0 -0.24193152048E+03 -0.21147068255E+03  0.21683122745E+03  0.38764222085E+03  0.25500000920E-02 0.  1.
       -2    1    3    3    0  502  0.24193152048E+03  0.21147068255E+03 -0.73687934270E+02  0.32966744129E+03  0.25500000920E-02 0. -1.
</event>
<event>
 5   0  0.1973067E-02  0.6967951E+03  0.7818609E-02  0.9722729E-01
       -2   -1    0    0    0  501  0.00000000000E+00  0.00000000000E+00  0.25927769788E+03  0.25927769790E+03  0.25500000920E-02 0. -1.
        2   -1    0    0  501    0  0.00000000000E+00  0.00000000000E+00 -0.46814999973E+03  0.46814999974E+03  0.25500000920E-02 0.  1.
    10030    2    1    2    0    0  0.00000000000E+00  0.00000000000E+00 -0.20887230185E+03  0.72742769764E+03  0.69679510389E+03 0.  0.
        5    1    3    3  502    0  0.25882332485E+03 -0.15332569293E+02  0.13845990123E+03  0.29396910623E+03  0.46999998093E+01 0. -1.
       -5    1    3    3    0  502 -0.25882332485E+03  0.15332569293E+02 -0.34733220308E+03  0.43345859141E+03  0.46999998093E+01 0.  1.
</event>
<event>
 5   0  0.1948138E-02  0.6974323E+03  0.7818609E-02  0.9721633E-01
       -2   -1    0    0    0  501  0.00000000000E+00  0.00000000000E+00  0.21335023886E+03  0.21335023887E+03  0.25500000920E-02 0.  1.
        2   -1    0    0  501    0  0.00000000000E+00  0.00000000000E+00 -0.56996872882E+03  0.56996872883E+03  0.25500000920E-02 0. -1.
    10030    2    1    2    0    0  0.00000000000E+00  0.00000000000E+00 -0.35661848997E+03  0.78331896770E+03  0.69743233204E+03 0.  0.
        3    1    3    3  502    0 -0.11148426371E+03  0.29167698291E+03 -0.35266401434E+03  0.47103728157E+03  0.10100000352E+00 0. -1.
       -3    1    3    3    0  502  0.11148426371E+03 -0.29167698291E+03 -0.39544756216E+01  0.31228168613E+03  0.10100000352E+00 0.  1.
</event>
<event>
 5   0  0.7947250E-03  0.6996111E+03  0.7818609E-02  0.9717897E-01
       -4   -1    0    0    0  501  0.00000000000E+00  0.00000000000E+00  0.14206940124E+03  0.14207507757E+03  0.12699999809E+01 0. -1.
        4   -1    0    0  501    0  0.00000000000E+00  0.00000000000E+00 -0.86127350293E+03  0.86127443928E+03  0.12699999809E+01 0.  1.
    10030    2    1    2    0    0  0.00000000000E+00  0.00000000000E+00 -0.71920410170E+03  0.10033495169E+04  0.69961111560E+03 0.  0.
        5    1    3    3  502    0 -0.26436041814E+03 -0.59978207752E+02 -0.42598967794E+02  0.27444594757E+03  0.46999998093E+01 0. -1.
       -5    1    3    3    0  502  0.26436041814E+03  0.59978207752E+02 -0.67660513390E+03  0.72890356928E+03  0.46999998093E+01 0.  1.
</event>
<event>
 5   0  0.2006362E-02  0.6996975E+03  0.7818609E-02  0.9717750E-01
        2   -1    0    0  501    0  0.00000000000E+00  0.00000000000E+00  0.15237572077E+04  0.15237572077E+04  0.25500000920E-02 0. -1.
       -2   -1    0    0    0  501  0.00000000000E+00  0.00000000000E+00 -0.80323925804E+02  0.80323925845E+02  0.25500000920E-02 0.  1.
    10030    2    1    2    0    0  0.00000000000E+00  0.00000000000E+00  0.14434332819E+04  0.16040811336E+04  0.69969753732E+03 0.  0.
        4    1    3    3  502    0  0.69319943956E+02 -0.22343539011E+02  0.15061793260E+04  0.15079397413E+04  0.12699999809E+01 0. -1.
       -4    1    3    3    0  502 -0.69319943956E+02  0.22343539011E+02 -0.62746044074E+02  0.96141392295E+02  0.12699999809E+01 0.  1.
</event>
<event>
 5   0  0.1223742E-02  0.6935126E+03  0.7818609E-02  0.9728391E-01
       -1   -1    0    0    0  501  0.00000000000E+00  0.00000000000E+00  0.17742120857E+03  0.17742120864E+03  0.50400001928E-02 0.  1.
        1   -1    0    0  501    0  0.00000000000E+00  0.00000000000E+00 -0.67770880903E+03  0.67770880905E+03  0.50400001928E-02 0. -1.
    10030    2    1    2    0    0  0.00000000000E+00  0.00000000000E+00 -0.50028760046E+03  0.85513001769E+03  0.69351255502E+03 0.  0.
        2    1    3    3  502    0  0.19704447626E+03 -0.19106594732E+03  0.11154018500E+02  0.27469461950E+03  0.25500000920E-02 0.  1.
       -2    1    3    3    0  502 -0.19704447626E+03  0.19106594732E+03 -0.51144161896E+03  0.58043539818E+03  0.25500000920E-02 0. -1.
</event>
<event>
 5   0  0.7947250E-03  0.7014294E+03  0.7818609E-02  0.9714791E-01
       -3   -1    0    0    0  501  0.00000000000E+00  0.00000000000E+00  0.22756947961E+03  0.22756950202E+03  0.10100000352E+00 0.  1.
        3   -1    0    0  501    0  0.00000000000E+00  0.00000000000E+00 -0.54049780373E+03  0.54049781317E+03  0.10100000352E+00 0. -1.
    10030    2    1    2    0    0  0.00000000000E+00  0.00000000000E+00 -0.31292832413E+03  0.76806731519E+03  0.70142944379E+03 0.  0.
        3    1    3    3  502    0 -0.32244694881E+03  0.99180852203E+01 -0.30712321006E+03  0.44541562565E+03  0.10100000352E+00 0. -1.
       -3    1    3    3    0  502  0.32244694881E+03 -0.99180852203E+01 -0.58051140650E+01  0.32265168954E+03  0.10100000352E+00 0.  1.
</event>
<event>
 5   0  0.1197259E-02  0.7290858E+03  0.7818609E-02  0.9668745E-01
       -1   -1    0    0    0  501  0.00000000000E+00  0.00000000000E+00  0.13084330515E+03  0.13084330525E+03  0.50400001928E-02 0. -1.
        1   -1    0    0  501    0  0.00000000000E+00  0.00000000000E+00 -0.10156538890E+04  0.10156538890E+04  0.50400001928E-02 0.  1.
    10030    2    1    2    0    0  0.00000000000E+00  0.00000000000E+00 -0.88481058384E+03  0.11464971943E+04  0.72908576119E+03 0.  0.
        3    1    3    3  502    0  0.34536018607E+02  0.17328098444E+03 -0.94381883153E+03  0.96021509731E+03  0.10100000352E+00 0.  1.
       -3    1    3    3    0  502 -0.34536018607E+02 -0.17328098444E+03  0.59008247687E+02  0.18628209695E+03  0.10100000352E+00 0. -1.
</event>
<event>
 5   0  0.1909053E-02  0.6915417E+03  0.7818609E-02  0.9731807E-01
        2   -1    0    0  501    0  0.00000000000E+00  0.00000000000E+00  0.57033036066E+03  0.57033036067E+03  0.25500000920E-02 0.  1.
       -2   -1    0    0    0  501  0.00000000000E+00  0.00000000000E+00 -0.20962848951E+03  0.20962848953E+03  0.25500000920E-02 0. -1.
    10030    2    1    2    0    0  0.00000000000E+00  0.00000000000E+00  0.36070187115E+03  0.77995885019E+03  0.69154173276E+03 0.  0.
        1    1    3    3  502    0 -0.96962262128E+02 -0.10972808357E+02  0.55447834609E+03  0.56299939530E+03  0.50400001928E-02 0.  1.
       -1    1    3    3    0  502  0.96962262128E+02  0.10972808357E+02 -0.19377647494E+03  0.21695945489E+03  0.50400001928E-02 0. -1.
</event>
<event>
 5   0  0.1223742E-02  0.6993709E+03  0.7818609E-02  0.9718309E-01
       -1   -1    0    0    0  501  0.00000000000E+00  0.00000000000E+00  0.33097791866E+03  0.33097791869E+03  0.50400001928E-02 0.  1.
        1   -1    0    0  501    0  0.00000000000E+00  0.00000000000E+00 -0.36945037184E+03  0.36945037187E+03  0.50400001928E-02 0. -1.
    10030    2    1    2    0    0  0.00000000000E+00  0.00000000000E+00 -0.38472453182E+02  0.70042829057E+03  0.69937090343E+03 0.  0.
        2    1    3    3  502    0 -0.17119120912E+03 -0.29462482253E+03 -0.97902414948E+02  0.35453504621E+03  0.25500000920E-02 0. -1.
       -2    1    3    3    0  502  0.17119120912E+03  0.29462482253E+03  0.59429961765E+02  0.34589324436E+03  0.25500000920E-02 0.  1.
</event>
<event>
 5   0  0.1909053E-02  0.6998624E+03  0.7818609E-02  0.9717468E-01
       -2   -1    0    0    0  501  0.00000000000E+00  0.00000000000E+00  0.19296991993E+03  0.19296991995E+03  0.25500000920E-02 0.  1.
        2   -1    0    0  501    0  0.00000000000E+00  0.00000000000E+00 -0.63456445467E+03  0.63456445467E+03  0.25500000920E-02 0. -1.
    10030    2    1    2    0    0  0.00000000000E+00  0.00000000000E+00 -0.44159453474E+03  0.82753437462E+03  0.69986242081E+03 0.  0.
        1    1    3    3  502    0 -0.18822957249E+03 -0.26329035059E+02  0.12661877352E+03  0.22837667105E+03  0.50400001928E-02 0.  1.
       -1    1    3    3    0  502  0.18822957249E+03  0.26329035059E+02 -0.56821330825E+03  0.59915770357E+03  0.50400001928E-02 0. -1.
</event>
<event>
 5   0  0.1948138E-02  0.6988105E+03  0.7818609E-02  0.9719269E-01
       -2   -1    0    0    0  501  0.00000000000E+00  0.00000000000E+00  0.20234568597E+03  0.20234568599E+03  0.25500000920E-02 0.  1.
        2   -1    0    0  501    0  0.00000000000E+00  0.00000000000E+00 -0.60334379925E+03  0.60334379926E+03  0.25500000920E-02 0. -1.
    10030    2    1    2    0    0  0.00000000000E+00  0.00000000000E+00 -0.40099811328E+03  0.80568948525E+03  0.69881046056E+03 0.  0.
        3    1    3    3  502    0  0.18222608098E+03 -0.35767559097E+02  0.14073804246E+03  0.23300830387E+03  0.10100000352E+00 0.  1.
       -3    1    3    3    0  502 -0.18222608098E+03  0.35767559097E+02 -0.54173615574E+03  0.57268118138E+03  0.10100000352E+00 0. -1.
</event>
<event>
 5   0  0.1257442E-02  0.6915164E+03  0.7818609E-02  0.9731851E-01
        1   -1    0    0  501    0  0.00000000000E+00  0.00000000000E+00  0.95587594556E+03  0.95587594557E+03  0.50400001928E-02 0. -1.
       -1   -1    0    0    0  501  0.00000000000E+00  0.00000000000E+00 -0.12506719935E+03  0.12506719945E+03  0.50400001928E-02 0.  1.
    10030    2    1    2    0    0  0.00000000000E+00  0.00000000000E+00  0.83080874621E+03  0.10809431450E+04  0.69151638446E+03 0.  0.
        1    1    3    3  502    0  0.31698160775E+03 -0.78773893971E+02  0.59271027330E+03  0.67674820585E+03  0.50400001928E-02 0. -1.
       -1    1    3    3    0  502 -0.31698160775E+03  0.78773893971E+02  0.23809847291E+03  0.40419493917E+03  0.50400001928E-02 0.  1.
</event>
<event>
 5   0  0.1257442E-02  0.6968569E+03  0.7818609E-02  0.9722622E-01
        1   -1    0    0  501    0  0.00000000000E+00  0.00000000000E+00  0.27019621842E+03  0.27019621846E+03  0.50400001928E-02 0. -1.
       -1   -1    0    0    0  501  0.00000000000E+00  0.00000000000E+00 -0.44931195223E+03  0.44931195226E+03  0.50400001928E-02 0.  1.
    10030    2    1    2    0    0  0.00000000000E+00  0.00000000000E+00 -0.17911573382E+03  0.71950817072E+03  0.69685691619E+03 0.  0.
        1    1    3    3  502    0  0.12094052394E+02  0.26868924403E+03  0.13914188239E+03  0.30282113437E+03  0.50400001928E-02 0. -1.
       -1    1    3    3    0  502 -0.12094052394E+02 -0.26868924403E+03 -0.31825761621E+03  0.41668703635E+03  0.50400001928E-02 0.  1.
</event>
<event>
 5   0  0.1909053E-02  0.7012284E+03  0.7818609E-02  0.9715134E-01
        2   -1    0    0  501    0  0.00000000000E+00  0.00000000000E+00  0.29201943196E+04  0.29201943196E+04  0.25500000920E-02 0. -1.
       -2   -1    0    0    0  501  0.00000000000E+00  0.00000000000E+00 -0.42096617345E+02  0.42096617422E+02  0.25500000920E-02 0.  1.
    10030    2    1    2    0    0  0.00000000000E+00  0.00000000000E+00  0.28780977023E+04  0.29622909370E+04  0.70122835927E+03 0.  0.
        1    1    3    3  502    0  0.19824514732E+03  0.14409181567E+03  0.37984728154E+03  0.45204816900E+03  0.50400001928E-02 0. -1.
       -1    1    3    3    0  502 -0.19824514732E+03 -0.14409181567E+03  0.24982504207E+04  0.25102427680E+04  0.50400001928E-02 0.  1.
</event>
<event>
 5   0  0.7947250E-03  0.6996406E+03  0.7818609E-02  0.9717847E-01
       -4   -1    0    0    0  501  0.00000000000E+00  0.00000000000E+00  0.80331413956E+03  0.80331514346E+03  0.12699999809E+01 0.  1.
        4   -1    0    0  501    0  0.00000000000E+00  0.00000000000E+00 -0.15233296020E+03  0.15233825410E+03  0.12699999809E+01 0. -1.
    10030    2    1    2    0    0  0.00000000000E+00  0.00000000000E+00  0.65098117936E+03  0.95565339756E+03  0.69964056514E+03 0.  0.
        3    1    3    3  502    0  0.19165778340E+03  0.12354329841E+03  0.68785508385E+03  0.72466563262E+03  0.10100000352E+00 0.  1.
       -3    1    3    3    0  502 -0.19165778340E+03 -0.12354329841E+03 -0.36873904489E+02  0.23098776495E+03  0.10100000352E+00 0. -1.
</event>
<event>
 5   0  0.1257442E-02  0.6862278E+03  0.7818609E-02  0.9741079E-01
        1   -1    0    0  501    0  0.00000000000E+00  0.00000000000E+00  0.11476563292E+03  0.11476563303E+03  0.50400001928E-02 0.  1.
       -1   -1    0    0    0  501  0.00000000000E+00  0.00000000000E+00 -0.10258049706E+04  0.10258049707E+04  0.50400001928E-02 0. -1.
    10030    2    1    2    0    0  0.00000000000E+00  0.00000000000E+00 -0.91103933772E+03  0.11405706037E+04  0.68622782450E+03 0.  0.
        1    1    3    3  502    0 -0.29889418803E+03 -0.83911671659E+02 -0.21267139779E+03  0.37630842104E+03  0.50400001928E-02 0. -1.
       -1    1    3    3    0  502  0.29889418803E+03  0.83911671659E+02 -0.69836793993E+03  0.76426218265E+03  0.50400001928E-02 0.  1.
</event>
<event>
 5   0  0.1948138E-02  0.6936402E+03  0.7818609E-02  0.9728171E-01
        2   -1    0    0  501    0  0.00000000000E+00  0.00000000000E+00  0.65714649060E+03  0.65714649060E+03  0.25500000920E-02 0.  1.
       -2   -1    0    0    0  501  0.00000000000E+00  0.00000000000E+00 -0.18304012434E+03  0.18304012435E+03  0.25500000920E-02 0. -1.
    10030    2    1    2    0    0  0.00000000000E+00  0.00000000000E+00  0.47410636626E+03  0.84018661496E+03  0.69364018152E+03 0.  0.
        3    1    3    3  502    0  0.19030012062E+03 -0.25914459338E+03  0.39458420034E+03  0.50898600919E+03  0.10100000352E+00 0.  1.
       -3    1    3    3    0  502 -0.19030012062E+03  0.25914459338E+03  0.79522165918E+02  0.33120060577E+03  0.10100000352E+00 0. -1.
</event>
<event>
 5   0  0.1226303E-02  0.6914620E+03  0.7818609E-02  0.9731946E-01
        1   -1    0    0  501    0  0.00000000000E+00  0.00000000000E+00  0.55679408779E+03  0.55679408781E+03  0.50400001928E-02 0. -1.
       -1   -1    0    0    0  501  0.00000000000E+00  0.00000000000E+00 -0.21467526950E+03  0.21467526956E+03  0.50400001928E-02 0.  1.
    10030    2    1    2    0    0  0.00000000000E+00  0.00000000000E+00  0.34211881829E+03  0.77146935738E+03  0.69146198995E+03 0.  0.
        4    1    3    3  502    0 -0.17546153947E+03  0.12619825786E+03  0.47212592286E+03  0.51924681227E+03  0.12699999809E+01 0. -1.
       -4    1    3    3    0  502  0.17546153947E+03 -0.12619825786E+03 -0.13000710457E+03  0.25222254510E+03  0.12699999809E+01 0.  1.
</event>
<event>
 5   0  0.1226303E-02  0.7000215E+03  0.7818609E-02  0.9717195E-01
       -1   -1    0    0    0  501  0.00000000000E+00  0.00000000000E+00  0.23206586554E+03  0.23206586560E+03  0.50400001928E-02 0.  1.
        1   -1    0    0  501    0  0.00000000000E+00  0.00000000000E+00 -0.52789980775E+03  0.52789980778E+03  0.50400001928E-02 0. -1.
    10030    2    1    2    0    0  0.00000000000E+00  0.00000000000E+00 -0.29583394221E+03  0.75996567338E+03  0.70002150206E+03 0.  0.
        4    1    3    3  502    0 -0.10646076031E+03 -0.17983365645E+03 -0.45272999930E+03  0.49863824828E+03  0.12699999809E+01 0. -1.
       -4    1    3    3    0  502  0.10646076031E+03  0.17983365645E+03  0.15689605709E+03  0.26132742510E+03  0.12699999809E+01 0.  1.
</event>
<event>
 5   0  0.1226303E-02  0.6863664E+03  0.7818609E-02  0.9740836E-01
       -1   -1    0    0    0  501  0.00000000000E+00  0.00000000000E+00  0.67515160518E+03  0.67515160519E+03  0.50400001928E-02 0.  1.
        1   -1    0    0  501    0  0.00000000000E+00  0.00000000000E+00 -0.17444186442E+03  0.17444186449E+03  0.50400001928E-02 0. -1.
    10030    2    1    2    0    0  0.00000000000E+00  0.00000000000E+00  0.50070974076E+03  0.84959346969E+03  0.68636638849E+03 0.  0.
        4    1    3    3  502    0 -0.28580747073E+03  0.16243024716E+03  0.37228794357E+03  0.49665825408E+03  0.12699999809E+01 0. -1.
       -4    1    3    3    0  502  0.28580747073E+03 -0.16243024716E+03  0.12842179719E+03  0.35293521560E+03  0.12699999809E+01 0.  1.
</event>
<event>
 5   0  0.2026361E-02  0.7003354E+03  0.7818609E-02  0.9716659E-01
       -2   -1    0    0    0  501  0.00000000000E+00  0.00000000000E+00  0.53990264624E+02  0.53990264684E+02  0.25500000920E-02 0.  1.
        2   -1    0    0  501    0  0.00000000000E+00  0.00000000000E+00 -0.22711025035E+04  0.22711025035E+04  0.25500000920E-02 0. -1.
    10030    2    1    2    0    0  0.00000000000E+00  0.00000000000E+00 -0.22171122388E+04  0.23250927682E+04  0.70033542027E+03 0.  0.
        2    1    3    3  502    0 -0.85697861510E+02  0.59183012485E+02  0.13803620397E+01  0.10415689051E+03  0.25500000920E-02 0.  1.
       -2    1    3    3    0  502  0.85697861510E+02 -0.59183012485E+02 -0.22184926009E+04  0.22209358777E+04  0.25500000920E-02 0. -1.
</event>
<event>
 5   0  0.2006362E-02  0.6899963E+03  0.7818609E-02  0.9734494E-01
       -2   -1    0    0    0  501  0.00000000000E+00  0.00000000000E+00  0.23363066315E+03  0.23363066316E+03  0.25500000920E-02 0.  1.
        2   -1    0    0  501    0  0.00000000000E+00  0.00000000000E+00 -0.50945252134E+03  0.50945252135E+03  0.25500000920E-02 0. -1.
    10030    2    1    2    0    0  0.00000000000E+00  0.00000000000E+00 -0.27582185819E+03  0.74308318451E+03  0.68999632002E+03 0.  0.
        4    1    3    3  502    0 -0.46722716442E+02  0.34162489847E+03 -0.12555971336E+03  0.36695699749E+03  0.12699999809E+01 0.  1.
       -4    1    3    3    0  502  0.46722716442E+02 -0.34162489847E+03 -0.15026214483E+03  0.37612618702E+03  0.12699999809E+01 0. -1.
</event>
<event>
 5   0  0.1948138E-02  0.7019017E+03  0.7818609E-02  0.9713986E-01
        2   -1    0    0  501    0  0.00000000000E+00  0.00000000000E+00  0.25282154559E+04  0.25282154559E+04  0.25500000920E-02 0.  1.
       -2   -1    0    0    0  501  0.00000000000E+00  0.00000000000E+00 -0.48716776340E+02  0.48716776407E+02  0.25500000920E-02 0. -1.
    10030    2    1    2    0    0  0.00000000000E+00  0.00000000000E+00  0.24794986796E+04  0.25769322323E+04  0.70190172244E+03 0.  0.
        3    1    3    3  502    0  0.11343983383E+03 -0.16846802417E+03  0.22905302802E+04  0.22995171332E+04  0.10100000352E+00 0.  1.
       -3    1    3    3    0  502 -0.11343983383E+03  0.16846802417E+03  0.18896839937E+03  0.27741509913E+03  0.10100000352E+00 0. -1.
</event>
<event>
 5   0  0.1197259E-02  0.7008488E+03  0.7818609E-02  0.9715782E-01
       -1   -1    0    0    0  501  0.00000000000E+00  0.00000000000E+00  0.21938149914E+03  0.21938149920E+03  0.50400001928E-02 0.  1.
        1   -1    0    0  501    0  0.00000000000E+00  0.00000000000E+00 -0.55974301724E+03  0.55974301727E+03  0.50400001928E-02 0. -1.
    10030    2    1    2    0    0  0.00000000000E+00  0.00000000000E+00 -0.34036151810E+03  0.77912451647E+03  0.70084880620E+03 0.  0.
        3    1    3    3  502    0  0.36769291771E+02  0.17312447967E+03 -0.50640531980E+03  0.53644237752E+03  0.10100000352E+00 0. -1.
       -3    1    3    3    0  502 -0.36769291771E+02 -0.17312447967E+03  0.16604380170E+03  0.24268213894E+03  0.10100000352E+00 0.  1.
</event>
<event>
 5   0  0.1948138E-02  0.6898529E+03  0.7818609E-02  0.9734744E-01
       -2   -1    0    0    0  501  0.00000000000E+00  0.00000000000E+00  0.47302380904E+03  0.47302380905E+03  0.25500000920E-02 0. -1.
        2   -1    0    0  501    0  0.00000000000E+00  0.00000000000E+00 -0.25151854823E+03  0.25151854825E+03  0.25500000920E-02 0.  1.
    10030    2    1    2    0    0  0.00000000000E+00  0.00000000000E+00  0.22150526081E+03  0.72454235729E+03  0.68985291689E+03 0.  0.
        3    1    3    3  502    0  0.19197823615E+03 -0.95243791680E+02  0.39461586442E+03  0.44905313011E+03  0.10100000352E+00 0. -1.
       -3    1    3    3    0  502 -0.19197823615E+03  0.95243791680E+02 -0.17311060362E+03  0.27548922718E+03  0.10100000352E+00 0.  1.
</event>
<event>
 5   0  0.7947250E-03  0.7036444E+03  0.7818609E-02  0.9711020E-01
        3   -1    0    0  501    0  0.00000000000E+00  0.00000000000E+00  0.12724068974E+04  0.12724069014E+04  0.10100000352E+00 0. -1.
       -3   -1    0    0    0  501  0.00000000000E+00  0.00000000000E+00 -0.97279286245E+02  0.97279338677E+02  0.10100000352E+00 0.  1.
    10030    2    1    2    0    0  0.00000000000E+00  0.00000000000E+00  0.11751276111E+04  0.13696862400E+04  0.70364443703E+03 0.  0.
        1    1    3    3  502    0  0.18305206069E+03  0.66757476590E+02  0.17337097688E+02  0.19561490890E+03  0.50400001928E-02 0.  1.
       -1    1    3    3    0  502 -0.18305206069E+03 -0.66757476590E+02  0.11577905134E+04  0.11740713311E+04  0.50400001928E-02 0. -1.
</event>
<event>
 5   0  0.2026361E-02  0.7008335E+03  0.7818609E-02  0.9715808E-01
        2   -1    0    0  501    0  0.00000000000E+00  0.00000000000E+00  0.24057508313E+03  0.24057508315E+03  0.25500000920E-02 0.  1.
       -2   -1    0    0    0  501  0.00000000000E+00  0.00000000000E+00 -0.51040993406E+03  0.51040993407E+03  0.25500000920E-02 0. -1.
    10030    2    1    2    0    0  0.00000000000E+00  0.00000000000E+00 -0.26983485093E+03  0.75098501721E+03  0.70083353894E+03 0.  0.
        2    1    3    3  502    0  0.84891225494E+02 -0.12541936459E+03  0.20369439853E+03  0.25382660455E+03  0.25500000920E-02 0.  1.
       -2    1    3    3    0  502 -0.84891225494E+02  0.12541936459E+03 -0.47352924946E+03  0.49715841266E+03  0.25500000920E-02 0. -1.
</event>
<event>
 5   0  0.1197259E-02  0.7229009E+03  0.7818609E-02  0.9678851E-01
        1   -1    0    0  501    0  0.00000000000E+00  0.00000000000E+00  0.30106752679E+03  0.30106752683E+03  0.50400001928E-02 0. -1.
       -1   -1    0    0    0  501  0.00000000000E+00  0.00000000000E+00 -0.43394390009E+03  0.43394390012E+03  0.50400001928E-02 0.  1.
    10030    2    1    2    0    0  0.00000000000E+00  0.00000000000E+00 -0.13287637330E+03  0.73501142695E+03  0.72290086953E+03 0.  0.
        3    1    3    3  502    0 -0.32032991281E+03  0.26824685588E+02 -0.23448126740E+03  0.39788477196E+03  0.10100000352E+00 0.  1.
       -3    1    3    3    0  502  0.32032991281E+03 -0.26824685588E+02  0.10160489410E+03  0.33712665499E+03  0.10100000352E+00 0. -1.
</event>
<event>
 5   0  0.1973067E-02  0.6873321E+03  0.7818609E-02  0.9739145E-01
        2   -1    0    0  501    0  0.00000000000E+00  0.00000000000E+00  0.73874580358E+03  0.73874580359E+03  0.25500000920E-02 0. -1.
       -2   -1    0    0    0  501  0.00000000000E+00  0.00000000000E+00 -0.15987412518E+03  0.15987412520E+03  0.25500000920E-02 0.  1.
    10030    2    1    2    0    0  0.00000000000E+00  0.00000000000E+00  0.57887167840E+03  0.89861992879E+03  0.68733205685E+03 0.  0.
        5    1    3    3  502    0  0.10146183262E+03 -0.19344862758E+03  0.63624863972E+03  0.67271932968E+03  0.46999998093E+01 0. -1.
       -5    1    3    3    0  502 -0.10146183262E+03  0.19344862758E+03 -0.57376961318E+02  0.22590059911E+03  0.46999998093E+01 0.  1.
</event>
<event>
 5   0  0.1237686E-02  0.7003483E+03  0.7818609E-02  0.9716637E-01
        1   -1    0    0  501    0  0.00000000000E+00  0.00000000000E+00  0.38320906909E+03  0.38320906912E+03  0.50400001928E-02 0.  1.
       -1   -1    0    0    0  501  0.00000000000E+00  0.00000000000E+00 -0.31998703358E+03  0.31998703362E+03  0.50400001928E-02 0. -1.
    10030    2    1    2    0    0  0.00000000000E+00  0.00000000000E+00  0.63222035505E+02  0.70319610275E+03  0.70034829417E+03 0.  0.
        5    1    3    3  502    0 -0.20599981470E+03  0.43097297888E+02  0.31258195779E+03  0.37685921917E+03  0.46999998093E+01 0. -1.
       -5    1    3    3    0  502  0.20599981470E+03 -0.43097297888E+02 -0.24935992229E+03  0.32633688357E+03  0.46999998093E+01 0.  1.
</event>
<event>
 5   0  0.1973067E-02  0.7014722E+03  0.7818609E-02  0.9714718E-01
        2   -1    0    0  501    0  0.00000000000E+00  0.00000000000E+00  0.11461731918E+04  0.11461731918E+04  0.25500000920E-02 0.  1.
       -2   -1    0    0    0  501  0.00000000000E+00  0.00000000000E+00 -0.10732741871E+03  0.10732741874E+03  0.25500000920E-02 0. -1.
    10030    2    1    2    0    0  0.00000000000E+00  0.00000000000E+00  0.10388457731E+04  0.12535006105E+04  0.70147219501E+03 0.  0.
        5    1    3    3  502    0 -0.20398268582E+03 -0.48764431054E+02  0.10217034397E+04  0.10430181755E+04  0.46999998093E+01 0.  1.
       -5    1    3    3    0  502  0.20398268582E+03  0.48764431054E+02  0.17142333393E+02  0.21048243499E+03  0.46999998093E+01 0. -1.
</event>
<event>
 5   0  0.1909053E-02  0.7034129E+03  0.7818609E-02  0.9711413E-01
       -2   -1    0    0    0  501  0.00000000000E+00  0.00000000000E+00  0.75069797602E+02  0.75069797646E+02  0.25500000920E-02 0.  1.
        2   -1    0    0  501    0  0.00000000000E+00  0.00000000000E+00 -0.16477654914E+04  0.16477654914E+04  0.25500000920E-02 0. -1.
    10030    2    1    2    0    0  0.00000000000E+00  0.00000000000E+00 -0.15726956938E+04  0.17228352890E+04  0.70341288579E+03 0.  0.
        1    1    3    3  502    0  0.37866058425E+02 -0.99378431945E+02  0.34745371640E+02  0.11188007862E+03  0.50400001928E-02 0.  1.
       -1    1    3    3    0  502 -0.37866058425E+02  0.99378431945E+02 -0.16074410654E+04  0.16109552104E+04  0.50400001928E-02 0. -1.
</event>
<event>
 5   0  0.2006362E-02  0.7096635E+03  0.7818609E-02  0.9700848E-01
       -2   -1    0    0    0  501  0.00000000000E+00  0.00000000000E+00  0.14170501231E+03  0.14170501233E+03  0.25500000920E-02 0. -1.
        2   -1    0    0  501    0  0.00000000000E+00  0.00000000000E+00 -0.88850472333E+03  0.88850472333E+03  0.25500000920E-02 0.  1.
    10030    2    1    2    0    0  0.00000000000E+00  0.00000000000E+00 -0.74679971101E+03  0.10302097357E+04  0.70966350553E+03 0.  0.
        4    1    3    3  502    0 -0.28277822831E+03 -0.18087311723E+03 -0.20645357520E+03  0.39408540008E+03  0.12699999809E+01 0. -1.
       -4    1    3    3    0  502  0.28277822831E+03  0.18087311723E+03 -0.54034613581E+03  0.63612433559E+03  0.12699999809E+01 0.  1.
</event>
<event>
 5   0  0.1197259E-02  0.7023474E+03  0.7818609E-02  0.9713226E-01
       -1   -1    0    0    0  501  0.00000000000E+00  0.00000000000E+00  0.11875166926E+03  0.11875166937E+03  0.50400001928E-02 0. -1.
        1   -1    0    0  501    0  0.00000000000E+00  0.00000000000E+00 -0.10384946351E+04  0.10384946352E+04  0.50400001928E-02 0.  1.
    10030    2    1    2    0    0  0.00000000000E+00  0.00000000000E+00 -0.91974296588E+03  0.11572463045E+04  0.70234741122E+03 0.  0.
        3    1    3    3  502    0  0.28037120881E+03 -0.19165430896E+03 -0.31264957166E+03  0.46161580750E+03  0.10100000352E+00 0.  1.
       -3    1    3    3    0  502 -0.28037120881E+03  0.19165430896E+03 -0.60709339422E+03  0.69563049702E+03  0.10100000352E+00 0. -1.
</event>
<event>
 5   0  0.1226303E-02  0.6998666E+03  0.7818609E-02  0.9717460E-01
       -1   -1    0    0    0  501  0.00000000000E+00  0.00000000000E+00  0.23483458337E+03  0.23483458343E+03  0.50400001928E-02 0. -1.
        1   -1    0    0  501    0  0.00000000000E+00  0.00000000000E+00 -0.52144498822E+03  0.52144498824E+03  0.50400001928E-02 0.  1.
    10030    2    1    2    0    0  0.00000000000E+00  0.00000000000E+00 -0.28661040484E+03  0.75627957167E+03  0.69986660612E+03 0.  0.
        4    1    3    3  502    0  0.12099298693E+03  0.12569029897E+03 -0.47109458178E+03  0.50236348596E+03  0.12699999809E+01 0.  1.
       -4    1    3    3    0  502 -0.12099298693E+03 -0.12569029897E+03  0.18448417694E+03  0.25391608571E+03  0.12699999809E+01 0. -1.
</event>
<event>
 5   0  0.1909053E-02  0.7030104E+03  0.7818609E-02  0.9712098E-01
       -2   -1    0    0    0  501  0.00000000000E+00  0.00000000000E+00  0.24610340347E+03  0.24610340348E+03  0.25500000920E-02 0.  1.
        2   -1    0    0  501    0  0.00000000000E+00  0.00000000000E+00 -0.50204876681E+03  0.50204876682E+03  0.25500000920E-02 0. -1.
    10030    2    1    2    0    0  0.00000000000E+00  0.00000000000E+00 -0.25594536334E+03  0.74815217030E+03  0.70301041309E+03 0.  0.
        1    1    3    3  502    0  0.29253880726E+02  0.19997969527E+03  0.17808450195E+03  0.26937289752E+03  0.50400001928E-02 0.  1.
       -1    1    3    3    0  502 -0.29253880726E+02 -0.19997969527E+03 -0.43402986529E+03  0.47877927278E+03  0.50400001928E-02 0. -1.
</event>
<event>
 5   0  0.1226303E-02  0.6879542E+03  0.7818609E-02  0.9738057E-01
       -1   -1    0    0    0  501  0.00000000000E+00  0.00000000000E+00  0.11857916024E+03  0.11857916035E+03  0.50400001928E-02 0.  1.
        1   -1    0    0  501    0  0.00000000000E+00  0.00000000000E+00 -0.99781640269E+03  0.99781640271E+03  0.50400001928E-02 0. -1.
    10030    2    1    2    0    0  0.00000000000E+00  0.00000000000E+00 -0.87923724245E+03  0.11163955631E+04  0.68795415887E+03 0.  0.
        4    1    3    3  502    0 -0.10650489204E+02  0.19120011374E+03 -0.90331166840E+03  0.92338751322E+03  0.12699999809E+01 0. -1.
       -4    1    3    3    0  502  0.10650489204E+02 -0.19120011374E+03  0.24074425950E+02  0.19300804983E+03  0.12699999809E+01 0.  1.
</event>
<event>
 5   0  0.2006362E-02  0.6975350E+03  0.7818609E-02  0.9721457E-01
       -2   -1    0    0    0  501  0.00000000000E+00  0.00000000000E+00  0.24205254770E+03  0.24205254771E+03  0.25500000920E-02 0. -1.
        2   -1    0    0  501    0  0.00000000000E+00  0.00000000000E+00 -0.50253044110E+03  0.50253044111E+03  0.25500000920E-02 0.  1.
    10030    2    1    2    0    0  0.00000000000E+00  0.00000000000E+00 -0.26047789341E+03  0.74458298882E+03  0.69753501295E+03 0.  0.
        4    1    3    3  502    0 -0.31846276789E+03  0.14051089319E+03 -0.10696672346E+03  0.36415015923E+03  0.12699999809E+01 0.  1.
       -4    1    3    3    0  502  0.31846276789E+03 -0.14051089319E+03 -0.15351116994E+03  0.38043282960E+03  0.12699999809E+01 0. -1.
</event>
<event>
 5   0  0.1948138E-02  0.6816906E+03  0.7818609E-02  0.9749066E-01
       -2   -1    0    0    0  501  0.00000000000E+00  0.00000000000E+00  0.96154348854E+03  0.96154348855E+03  0.25500000920E-02 0. -1.
        2   -1    0    0  501    0  0.00000000000E+00  0.00000000000E+00 -0.12082189637E+03  0.12082189640E+03  0.25500000920E-02 0.  1.
    10030    2    1    2    0    0  0.00000000000E+00  0.00000000000E+00  0.84072159218E+03  0.10823653849E+04  0.68169056835E+03 0.  0.
        3    1    3    3  502    0  0.63012246225E+02  0.23401532653E+03  0.39820581252E+02  0.24560009185E+03  0.10100000352E+00 0.  1.
       -3    1    3    3    0  502 -0.63012246225E+02 -0.23401532653E+03  0.80090101092E+03  0.83676529309E+03  0.10100000352E+00 0. -1.
</event>
<event>
 5   0  0.1973067E-02  0.7009968E+03  0.7818609E-02  0.9715529E-01
        2   -1    0    0  501    0  0.00000000000E+00  0.00000000000E+00  0.78104543574E+03  0.78104543575E+03  0.25500000920E-02 0.  1.
       -2   -1    0    0    0  501  0.00000000000E+00  0.00000000000E+00 -0.15728808684E+03  0.15728808686E+03  0.25500000920E-02 0. -1.
    10030    2    1    2    0    0  0.00000000000E+00  0.00000000000E+00  0.62375734891E+03  0.93833352260E+03  0.70099683974E+03 0.  0.
        5    1    3    3  502    0 -0.53992526315E+01 -0.13851523943E+03 -0.11899008216E+03  0.18274669117E+03  0.46999998093E+01 0. -1.
       -5    1    3    3    0  502  0.53992526315E+01  0.13851523943E+03  0.74274743107E+03  0.75558683143E+03  0.46999998093E+01 0.  1.
</event>
<event>
 5   0  0.1223742E-02  0.7026024E+03  0.7818609E-02  0.9712792E-01
       -1   -1    0    0    0  501  0.00000000000E+00  0.00000000000E+00  0.14198394783E+03  0.14198394792E+03  0.50400001928E-02 0.  1.
        1   -1    0    0  501    0  0.00000000000E+00  0.00000000000E+00 -0.86920057769E+03  0.86920057771E+03  0.50400001928E-02 0. -1.
    10030    2    1    2    0    0  0.00000000000E+00  0.00000000000E+00 -0.72721662986E+03  0.10111845256E+04  0.70260238978E+03 0.  0.
        2    1    3    3  502    0 -0.67672351945E+02  0.81985312054E+01 -0.85959090254E+03  0.86228955860E+03  0.25500000920E-02 0. -1.
       -2    1    3    3    0  502  0.67672351945E+02 -0.81985312054E+01  0.13237427268E+03  0.14889496703E+03  0.25500000920E-02 0.  1.
</event>
<event>
 5   0  0.1223742E-02  0.7051021E+03  0.7818609E-02  0.9708546E-01
       -1   -1    0    0    0  501  0.00000000000E+00  0.00000000000E+00  0.79955791168E+03  0.79955791169E+03  0.50400001928E-02 0. -1.
        1   -1    0    0  501    0  0.00000000000E+00  0.00000000000E+00 -0.15545121486E+03  0.15545121494E+03  0.50400001928E-02 0.  1.
    10030    2    1    2    0    0  0.00000000000E+00  0.00000000000E+00  0.64410669682E+03  0.95500912664E+03  0.70510211678E+03 0.  0.
        2    1    3    3  502    0 -0.31296622561E+02  0.21515777525E+03  0.69794006989E+03  0.73102167409E+03  0.25500000920E-02 0. -1.
       -2    1    3    3    0  502  0.31296622561E+02 -0.21515777525E+03 -0.53833373070E+02  0.22398745255E+03  0.25500000920E-02 0.  1.
</event>
<event>
 5   0  0.7947250E-03  0.6997875E+03  0.7818609E-02  0.9717596E-01
        3   -1    0    0  501    0  0.00000000000E+00  0.00000000000E+00  0.14168363379E+03  0.14168366978E+03  0.10100000352E+00 0. -1.
       -3   -1    0    0    0  501  0.00000000000E+00  0.00000000000E+00 -0.86407729396E+03  0.86407729986E+03  0.10100000352E+00 0.  1.
    10030    2    1    2    0    0  0.00000000000E+00  0.00000000000E+00 -0.72239366017E+03  0.10057609696E+04  0.69978748760E+03 0.  0.
        1    1    3    3  502    0 -0.21287608583E+02 -0.11523890272E+03 -0.83503312534E+03  0.84321615700E+03  0.50400001928E-02 0.  1.
       -1    1    3    3    0  502  0.21287608583E+02  0.11523890272E+03  0.11263946517E+03  0.16254481265E+03  0.50400001928E-02 0. -1.
</event>
<event>
 5   0  0.1257442E-02  0.7216852E+03  0.7818609E-02  0.9680850E-01
        1   -1    0    0  501    0  0.00000000000E+00  0.00000000000E+00  0.15039938107E+04  0.15039938107E+04  0.50400001928E-02 0.  1.
       -1   -1    0    0    0  501  0.00000000000E+00  0.00000000000E+00 -0.86574414169E+02  0.86574414315E+02  0.50400001928E-02 0. -1.
    10030    2    1    2    0    0  0.00000000000E+00  0.00000000000E+00  0.14174193965E+04  0.15905682250E+04  0.72168520339E+03 0.  0.
        1    1    3    3  502    0  0.82055359393E+02 -0.16847904295E+03  0.29083831548E+02  0.18964213456E+03  0.50400001928E-02 0. -1.
       -1    1    3    3    0  502 -0.82055359393E+02  0.16847904295E+03  0.13883355650E+04  0.14009260904E+04  0.50400001928E-02 0.  1.
</event>
<event>
 5   0  0.1973067E-02  0.7045928E+03  0.7818609E-02  0.9709410E-01
        2   -1    0    0  501    0  0.00000000000E+00  0.00000000000E+00  0.51218221556E+03  0.51218221556E+03  0.25500000920E-02 0.  1.
       -2   -1    0    0    0  501  0.00000000000E+00  0.00000000000E+00 -0.24232150357E+03  0.24232150358E+03  0.25500000920E-02 0. -1.
    10030    2    1    2    0    0  0.00000000000E+00  0.00000000000E+00  0.26986071199E+03  0.75450371914E+03  0.70459283159E+03 0.  0.
        5    1    3    3  502    0 -0.15380134346E+02  0.90819425352E+02 -0.22916343511E+03  0.24702770400E+03  0.46999998093E+01 0. -1.
       -5    1    3    3    0  502  0.15380134346E+02 -0.90819425352E+02  0.49902414710E+03  0.50747601514E+03  0.46999998093E+01 0.  1.
</event>
<event>
 5   0  0.2006362E-02  0.7063016E+03  0.7818609E-02  0.9706516E-01
        2   -1    0    0  501    0  0.00000000000E+00  0.00000000000E+00  0.11825625665E+03  0.11825625668E+03  0.25500000920E-02 0.  1.
       -2   -1    0    0    0  501  0.00000000000E+00  0.00000000000E+00 -0.10546206608E+04  0.10546206608E+04  0.25500000920E-02 0. -1.
    10030    2    1    2    0    0  0.00000000000E+00  0.00000000000E+00 -0.93636440419E+03  0.11728769175E+04  0.70630161137E+03 0.  0.
        4    1    3    3  502    0  0.16616762043E+03  0.19035174913E+03 -0.87787490498E+03  0.91351597040E+03  0.12699999809E+01 0. -1.
       -4    1    3    3    0  502 -0.16616762043E+03 -0.19035174913E+03 -0.58489499206E+02  0.25936094712E+03  0.12699999809E+01 0.  1.
</event>
<event>
 5   0  0.1909053E-02  0.7053471E+03  0.7818609E-02  0.9708131E-01
        2   -1    0    0  501    0  0.00000000000E+00  0.00000000000E+00  0.13577477666E+04  0.13577477666E+04  0.25500000920E-02 0. -1.
       -2   -1    0    0    0  501  0.00000000000E+00  0.00000000000E+00 -0.91606590083E+02  0.91606590118E+02  0.25500000920E-02 0.  1.
    10030    2    1    2    0    0  0.00000000000E+00  0.00000000000E+00  0.12661411766E+04  0.14493543568E+04  0.70534712907E+03 0.  0.
        1    1    3    3  502    0 -0.41680297531E+02  0.23017022555E+03  0.11754122417E+04  0.11984613127E+04  0.50400001928E-02 0. -1.
       -1    1    3    3    0  502  0.41680297531E+02 -0.23017022555E+03  0.90728934833E+02  0.25089304409E+03  0.50400001928E-02 0.  1.
</event>
<event>
 5   0  0.1909053E-02  0.7224585E+03  0.7818609E-02  0.9679578E-01
       -2   -1    0    0    0  501  0.00000000000E+00  0.00000000000E+00  0.96637786017E+02  0.96637786050E+02  0.25500000920E-02 0.  1.
        2   -1    0    0  501    0  0.00000000000E+00  0.00000000000E+00 -0.13502643621E+04  0.13502643621E+04  0.25500000920E-02 0. -1.
    10030    2    1    2    0    0  0.00000000000E+00  0.00000000000E+00 -0.12536265761E+04  0.14469021482E+04  0.72245846529E+03 0.  0.
        1    1    3    3  502    0 -0.34018485779E+03  0.60023038958E+02 -0.41525962866E+03  0.54015651611E+03  0.50400001928E-02 0. -1.
       -1    1    3    3    0  502  0.34018485779E+03 -0.60023038958E+02 -0.83836694744E+03  0.90674563206E+03  0.50400001928E-02 0.  1.
</event>
<event>
 5   0  0.1223742E-02  0.6979586E+03  0.7818609E-02  0.9720730E-01
        1   -1    0    0  501    0  0.00000000000E+00  0.00000000000E+00  0.98609251388E+03  0.98609251389E+03  0.50400001928E-02 0.  1.
       -1   -1    0    0    0  501  0.00000000000E+00  0.00000000000E+00 -0.12350417406E+03  0.12350417416E+03  0.50400001928E-02 0. -1.
    10030    2    1    2    0    0  0.00000000000E+00  0.00000000000E+00  0.86258833982E+03  0.11095966881E+04  0.69795857051E+03 0.  0.
        2    1    3    3  502    0 -0.33417161355E+03 -0.23871713363E+02  0.58662103446E+03  0.67554775115E+03  0.25500000920E-02 0.  1.
       -2    1    3    3    0  502  0.33417161355E+03  0.23871713363E+02  0.27596730536E+03  0.43404893691E+03  0.25500000920E-02 0. -1.
</event>
<event>
 5   0  0.1237686E-02  0.7056289E+03  0.7818609E-02  0.9707654E-01
       -1   -1    0    0    0  501  0.00000000000E+00  0.00000000000E+00  0.20486809683E+03  0.20486809689E+03  0.50400001928E-02 0. -1.
        1   -1    0    0  501    0  0.00000000000E+00  0.00000000000E+00 -0.60760092695E+03  0.60760092697E+03  0.50400001928E-02 0.  1.
    10030    2    1    2    0    0  0.00000000000E+00  0.00000000000E+00 -0.40273283012E+03  0.81246902386E+03  0.70562892676E+03 0.  0.
        5    1    3    3  502    0 -0.26049260239E+03  0.58958806445E+02  0.64016795840E+02  0.27468668862E+03  0.46999998093E+01 0. -1.
       -5    1    3    3    0  502  0.26049260239E+03 -0.58958806445E+02 -0.46674962596E+03  0.53778233524E+03  0.46999998093E+01 0.  1.
</event>
<event>
 5   0  0.1973067E-02  0.6994007E+03  0.7818609E-02  0.9718258E-01
       -2   -1    0    0    0  501  0.00000000000E+00  0.00000000000E+00  0.54071938353E+03  0.54071938354E+03  0.25500000920E-02 0.  1.
        2   -1    0    0  501    0  0.00000000000E+00  0.00000000000E+00 -0.22616227735E+03  0.22616227737E+03  0.25500000920E-02 0. -1.
    10030    2    1    2    0    0  0.00000000000E+00  0.00000000000E+00  0.31455710618E+03  0.76688166090E+03  0.69940067828E+03 0.  0.
        5    1    3    3  502    0 -0.23472185858E+03  0.98675420849E+02  0.42006221314E+03  0.49122860511E+03  0.46999998093E+01 0.  1.
       -5    1    3    3    0  502  0.23472185858E+03 -0.98675420849E+02 -0.10550510696E+03  0.27565305579E+03  0.46999998093E+01 0. -1.
</event>
<event>
 5   0  0.1226303E-02  0.6957823E+03  0.7818609E-02  0.9724472E-01
       -1   -1    0    0    0  501  0.00000000000E+00  0.00000000000E+00  0.32630202171E+03  0.32630202175E+03  0.50400001928E-02 0.  1.
        1   -1    0    0  501    0  0.00000000000E+00  0.00000000000E+00 -0.37090867915E+03  0.37090867919E+03  0.50400001928E-02 0. -1.
    10030    2    1    2    0    0  0.00000000000E+00  0.00000000000E+00 -0.44606657439E+02  0.69721070094E+03  0.69578229901E+03 0.  0.
        4    1    3    3  502    0 -0.12623759318E+03  0.28615027121E+03  0.13035354670E+03  0.33883855696E+03  0.12699999809E+01 0.  1.
       -4    1    3    3    0  502  0.12623759318E+03 -0.28615027121E+03 -0.17496020414E+03  0.35837214398E+03  0.12699999809E+01 0. -1.
</event>
<event>
 5   0  0.2026361E-02  0.6999358E+03  0.7818609E-02  0.9717342E-01
        2   -1    0    0  501    0  0.00000000000E+00  0.00000000000E+00  0.94114238408E+03  0.94114238408E+03  0.25500000920E-02 0.  1.
       -2   -1    0    0    0  501  0.00000000000E+00  0.00000000000E+00 -0.13013709509E+03  0.13013709512E+03  0.25500000920E-02 0. -1.
    10030    2    1    2    0    0  0.00000000000E+00  0.00000000000E+00  0.81100528898E+03  0.10712794792E+04  0.69993581405E+03 0.  0.
        2    1    3    3  502    0  0.27485708477E+03 -0.10820494317E+02  0.73665863175E+03  0.78633926513E+03  0.25500000920E-02 0.  1.
       -2    1    3    3    0  502 -0.27485708477E+03  0.10820494317E+02  0.74346657238E+02  0.28494021407E+03  0.25500000920E-02 0. -1.
</event>
<event>
 5   0  0.1257442E-02  0.7016557E+03  0.7818609E-02  0.9714405E-01
       -1   -1    0    0    0  501  0.00000000000E+00  0.00000000000E+00  0.30584658588E+03  0.30584658592E+03  0.50400001928E-02 0.  1.
        1   -1    0    0  501    0  0.00000000000E+00  0.00000000000E+00 -0.40242462559E+03  0.40242462563E+03  0.50400001928E-02 0. -1.
    10030    2    1    2    0    0  0.00000000000E+00  0.00000000000E+00 -0.96578039714E+02  0.70827121155E+03  0.70165574989E+03 0.  0.
        1    1    3    3  502    0  0.18709781240E+03 -0.16177331301E+03  0.20286195204E+03  0.31988930557E+03  0.50400001928E-02 0.  1.
       -1    1    3    3    0  502 -0.18709781240E+03  0.16177331301E+03 -0.29943999175E+03  0.38838190598E+03  0.50400001928E-02 0. -1.
</event>
<event>
 5   0  0.1948138E-02  0.7012736E+03  0.7818609E-02  0.9715057E-01
       -2   -1    0    0    0  501  0.00000000000E+00  0.00000000000E+00  0.31083309216E+03  0.31083309218E+03  0.25500000920E-02 0.  1.
        2   -1    0    0  501    0  0.00000000000E+00  0.00000000000E+00 -0.39553758779E+03  0.39553758780E+03  0.25500000920E-02 0. -1.
    10030    2    1    2    0    0  0.00000000000E+00  0.00000000000E+00 -0.84704495628E+02  0.70637067998E+03  0.70127361704E+03 0.  0.
        3    1    3    3  502    0 -0.25350481305E+03  0.95908184143E+02  0.18171252114E+03  0.32631659560E+03  0.10100000352E+00 0.  1.
       -3    1    3    3    0  502  0.25350481305E+03 -0.95908184143E+02 -0.26641701677E+03  0.38005408437E+03  0.10100000352E+00 0. -1.
</event>
<event>
 5   0  0.1973067E-02  0.6992683E+03  0.7818609E-02  0.9718484E-01
       -2   -1    0    0    0  501  0.00000000000E+00  0.00000000000E+00  0.12695657973E+03  0.12695657975E+03  0.25500000920E-02 0.  1.
        2   -1    0    0  501    0  0.00000000000E+00  0.00000000000E+00 -0.96288079396E+03  0.96288079397E+03  0.25500000920E-02 0. -1.
    10030    2    1    2    0    0  0.00000000000E+00  0.00000000000E+00 -0.83592421424E+03  0.10898373737E+04  0.69926833849E+03 0.  0.
        5    1    3    3  502    0  0.18766296909E+03  0.80023410862E+02 -0.86043592612E+03  0.88430379916E+03  0.46999998093E+01 0. -1.
       -5    1    3    3    0  502 -0.18766296909E+03 -0.80023410862E+02  0.24511711887E+02  0.20553357456E+03  0.46999998093E+01 0.  1.
</event>
<event>
 5   0  0.1257442E-02  0.6937881E+03  0.7818609E-02  0.9727915E-01
        1   -1    0    0  501    0  0.00000000000E+00  0.00000000000E+00  0.61031130082E+03  0.61031130084E+03  0.50400001928E-02 0.  1.
       -1   -1    0    0    0  501  0.00000000000E+00  0.00000000000E+00 -0.19717065262E+03  0.19717065268E+03  0.50400001928E-02 0. -1.
    10030    2    1    2    0    0  0.00000000000E+00  0.00000000000E+00  0.41314064820E+03  0.80748195352E+03  0.69378808729E+03 0.  0.
        1    1    3    3  502    0 -0.29453258745E+03 -0.17523416762E+03  0.26901972061E+03  0.43569263096E+03  0.50400001928E-02 0. -1.
       -1    1    3    3    0  502  0.29453258745E+03  0.17523416762E+03  0.14412092759E+03  0.37178932256E+03  0.50400001928E-02 0.  1.
</event>
<event>
 5   0  0.1226303E-02  0.6999210E+03  0.7818609E-02  0.9717367E-01
       -1   -1    0    0    0  501  0.00000000000E+00  0.00000000000E+00  0.41883498098E+03  0.41883498101E+03  0.50400001928E-02 0. -1.
        1   -1    0    0  501    0  0.00000000000E+00  0.00000000000E+00 -0.29241190852E+03  0.29241190857E+03  0.50400001928E-02 0.  1.
    10030    2    1    2    0    0  0.00000000000E+00  0.00000000000E+00  0.12642307245E+03  0.71124688957E+03  0.69992095602E+03 0.  0.
        4    1    3    3  502    0  0.28363459644E+03 -0.47883993802E+02  0.26575891765E+03  0.39162593935E+03  0.12699999809E+01 0. -1.
       -4    1    3    3    0  502 -0.28363459644E+03  0.47883993802E+02 -0.13933584520E+03  0.31962095022E+03  0.12699999809E+01 0.  1.
</event>
<event>
 5   0  0.1237686E-02  0.7024599E+03  0.7818609E-02  0.9713035E-01
        1   -1    0    0  501    0  0.00000000000E+00  0.00000000000E+00  0.86257308954E+03  0.86257308955E+03  0.50400001928E-02 0. -1.
       -1   -1    0    0    0  501  0.00000000000E+00  0.00000000000E+00 -0.14301685740E+03  0.14301685749E+03  0.50400001928E-02 0.  1.
    10030    2    1    2    0    0  0.00000000000E+00  0.00000000000E+00  0.71955623214E+03  0.10055899470E+04  0.70245994218E+03 0.  0.
        5    1    3    3  502    0  0.15148118664E+03 -0.11499909554E+03 -0.62871562035E+02  0.20036532932E+03  0.46999998093E+01 0.  1.
       -5    1    3    3    0  502 -0.15148118664E+03  0.11499909554E+03  0.78242779418E+03  0.80522461772E+03  0.46999998093E+01 0. -1.
</event>
<event>
 5   0  0.1237686E-02  0.7016383E+03  0.7818609E-02  0.9714435E-01
        1   -1    0    0  501    0  0.00000000000E+00  0.00000000000E+00  0.16324964547E+03  0.16324964555E+03  0.50400001928E-02 0.  1.
       -1   -1    0    0    0  501  0.00000000000E+00  0.00000000000E+00 -0.75390106028E+03  0.75390106029E+03  0.50400001928E-02 0. -1.
    10030    2    1    2    0    0  0.00000000000E+00  0.00000000000E+00 -0.59065141480E+03  0.91715070584E+03  0.70163831382E+03 0.  0.
        5    1    3    3  502    0 -0.59963157074E+02 -0.32705547797E+03 -0.14923311849E+03  0.36449071254E+03  0.46999998093E+01 0.  1.
       -5    1    3    3    0  502  0.59963157074E+02  0.32705547797E+03 -0.44141829632E+03  0.55265999330E+03  0.46999998093E+01 0. -1.
</event>
<event>
 5   0  0.1973067E-02  0.6992348E+03  0.7818609E-02  0.9718542E-01
        2   -1    0    0  501    0  0.00000000000E+00  0.00000000000E+00  0.14583832344E+03  0.14583832346E+03  0.25500000920E-02 0.  1.
       -2   -1    0    0    0  501  0.00000000000E+00  0.00000000000E+00 -0.83813587983E+03  0.83813587984E+03  0.25500000920E-02 0. -1.
    10030    2    1    2    0    0  0.00000000000E+00  0.00000000000E+00 -0.69229755639E+03  0.98397420330E+03  0.69923481476E+03 0.  0.
        5    1    3    3  502    0 -0.19756311277E+03  0.13232834570E+03  0.14461787042E+02  0.23827129052E+03  0.46999998093E+01 0.  1.
       -5    1    3    3    0  502  0.19756311277E+03 -0.13232834570E+03 -0.70675934343E+03  0.74570291278E+03  0.46999998093E+01 0. -1.
</event>
<event>
 5   0  0.1973067E-02  0.6477095E+03  0.7818609E-02  0.9811087E-01
       -2   -1    0    0    0  501  0.00000000000E+00  0.00000000000E+00  0.16794606888E+03  0.16794606890E+03  0.25500000920E-02 0. -1.
        2   -1    0    0  501    0  0.00000000000E+00  0.00000000000E+00 -0.62449741768E+03  0.62449741769E+03  0.25500000920E-02 0.  1.
    10030    2    1    2    0    0  0.00000000000E+00  0.00000000000E+00 -0.45655134880E+03  0.79244348659E+03  0.64770946059E+03 0.  0.
        5    1    3    3  502    0  0.10626229274E+03  0.28988203376E+03 -0.34775237015E+03  0.46505598513E+03  0.46999998093E+01 0.  1.
       -5    1    3    3    0  502 -0.10626229274E+03 -0.28988203376E+03 -0.10879897864E+03  0.32738750146E+03  0.46999998093E+01 0. -1.
</event>
<event>
 5   0  0.1948138E-02  0.6958828E+03  0.7818609E-02  0.9724299E-01
       -2   -1    0    0    0  501  0.00000000000E+00  0.00000000000E+00  0.17100642001E+03  0.17100642003E+03  0.25500000920E-02 0. -1.
        2   -1    0    0  501    0  0.00000000000E+00  0.00000000000E+00 -0.70794538620E+03  0.70794538621E+03  0.25500000920E-02 0.  1.
    10030    2    1    2    0    0  0.00000000000E+00  0.00000000000E+00 -0.53693896619E+03  0.87895180624E+03  0.69588276619E+03 0.  0.
        3    1    3    3  502    0  0.82646116089E+02  0.12405077221E+03 -0.66557381431E+03  0.68206120479E+03  0.10100000352E+00 0.  1.
       -3    1    3    3    0  502 -0.82646116089E+02 -0.12405077221E+03  0.12863484811E+03  0.19689060145E+03  0.10100000352E+00 0. -1.
</event>
<event>
 5   0  0.1973067E-02  0.6995818E+03  0.7818609E-02  0.9717948E-01
       -2   -1    0    0    0  501  0.00000000000E+00  0.00000000000E+00  0.13449929019E+03  0.13449929021E+03  0.25500000920E-02 0.  1.
        2   -1    0    0  501    0  0.00000000000E+00  0.00000000000E+00 -0.90969767121E+03  0.90969767121E+03  0.25500000920E-02 0. -1.
    10030    2    1    2    0    0  0.00000000000E+00  0.00000000000E+00 -0.77519838102E+03  0.10441969614E+04  0.69958184961E+03 0.  0.
        5    1    3    3  502    0 -0.10625243856E+03 -0.30537713230E+03 -0.58666337897E+03  0.66988117145E+03  0.46999998093E+01 0. -1.
       -5    1    3    3    0  502  0.10625243856E+03  0.30537713230E+03 -0.18853500205E+03  0.37431578998E+03  0.46999998093E+01 0.  1.
</event>
<event>
 5   0  0.1223742E-02  0.6994082E+03  0.7818609E-02  0.9718245E-01
       -1   -1    0    0    0  501  0.00000000000E+00  0.00000000000E+00  0.25713274265E+03  0.25713274270E+03  0.50400001928E-02 0.  1.
        1   -1    0    0  501    0  0.00000000000E+00  0.00000000000E+00 -0.47560237967E+03  0.47560237970E+03  0.50400001928E-02 0. -1.
    10030    2    1    2    0    0  0.00000000000E+00  0.00000000000E+00 -0.21846963702E+03  0.73273512239E+03  0.69940816216E+03 0.  0.
        2    1    3    3  502    0  0.15126820587E+03  0.18362622670E+03 -0.37775287229E+03  0.44642792674E+03  0.25500000920E-02 0. -1.
       -2    1    3    3    0  502 -0.15126820587E+03 -0.18362622670E+03  0.15928323527E+03  0.28630719566E+03  0.25500000920E-02 0.  1.
</event>
<event>
 5   0  0.1948138E-02  0.6958079E+03  0.7818609E-02  0.9724428E-01
       -2   -1    0    0    0  501  0.00000000000E+00  0.00000000000E+00  0.88548820779E+02  0.88548820816E+02  0.25500000920E-02 0. -1.
        2   -1    0    0  501    0  0.00000000000E+00  0.00000000000E+00 -0.13668973154E+04  0.13668973154E+04  0.25500000920E-02 0.  1.
    10030    2    1    2    0    0  0.00000000000E+00  0.00000000000E+00 -0.12783484946E+04  0.14554461362E+04  0.69580786265E+03 0.  0.
        3    1    3    3  502    0  0.44643374796E+02 -0.90755444322E+02  0.57117886633E+02  0.11615526145E+03  0.10100000352E+00 0. -1.
       -3    1    3    3    0  502 -0.44643374796E+02  0.90755444322E+02 -0.13354663812E+04  0.13392908748E+04  0.10100000352E+00 0.  1.
</event>
<event>
 5   0  0.2006362E-02  0.6977951E+03  0.7818609E-02  0.9721010E-01
       -2   -1    0    0    0  501  0.00000000000E+00  0.00000000000E+00  0.14977392720E+03  0.14977392722E+03  0.25500000920E-02 0.  1.
        2   -1    0    0  501    0  0.00000000000E+00  0.00000000000E+00 -0.81275495405E+03  0.81275495405E+03  0.25500000920E-02 0. -1.
    10030    2    1    2    0    0  0.00000000000E+00  0.00000000000E+00 -0.66298102685E+03  0.96252888127E+03  0.69779510268E+03 0.  0.
        4    1    3    3  502    0  0.17975392973E+03  0.25216838061E+03 -0.55317087145E+03  0.63395582918E+03  0.12699999809E+01 0. -1.
       -4    1    3    3    0  502 -0.17975392973E+03 -0.25216838061E+03 -0.10981015540E+03  0.32857305209E+03  0.12699999809E+01 0.  1.
</event>
<event>
 5   0  0.1948138E-02  0.7046959E+03  0.7818609E-02  0.9709235E-01
       -2   -1    0    0    0  501  0.00000000000E+00  0.00000000000E+00  0.94366878183E+02  0.94366878218E+02  0.25500000920E-02 0. -1.
        2   -1    0    0  501    0  0.00000000000E+00  0.00000000000E+00 -0.13156001224E+04  0.13156001224E+04  0.25500000920E-02 0.  1.
    10030    2    1    2    0    0  0.00000000000E+00  0.00000000000E+00 -0.12212332442E+04  0.14099670006E+04  0.70469589616E+03 0.  0.
        3    1    3    3  502    0  0.22645680663E+03  0.23598923489E+03 -0.34839927410E+03  0.47786574333E+03  0.10100000352E+00 0. -1.
       -3    1    3    3    0  502 -0.22645680663E+03 -0.23598923489E+03 -0.87283397013E+03  0.93210125730E+03  0.10100000352E+00 0.  1.
</event>
<event>
 5   0  0.7947250E-03  0.6955758E+03  0.7818609E-02  0.9724828E-01
       -4   -1    0    0    0  501  0.00000000000E+00  0.00000000000E+00  0.64203484888E+03  0.64203610497E+03  0.12699999809E+01 0.  1.
        4   -1    0    0  501    0  0.00000000000E+00  0.00000000000E+00 -0.18839183028E+03  0.18839611093E+03  0.12699999809E+01 0. -1.
    10030    2    1    2    0    0  0.00000000000E+00  0.00000000000E+00  0.45364301861E+03  0.83043221590E+03  0.69557578801E+03 0.  0.
        1    1    3    3  502    0 -0.20983416725E+03  0.25275739762E+03  0.90490644888E+02  0.34074218500E+03  0.50400001928E-02 0.  1.
       -1    1    3    3    0  502  0.20983416725E+03 -0.25275739762E+03  0.36315237372E+03  0.48969003090E+03  0.50400001928E-02 0. -1.
</event>
<event>
 5   0  0.2026361E-02  0.6970658E+03  0.7818609E-02  0.9722263E-01
        2   -1    0    0  501    0  0.00000000000E+00  0.00000000000E+00  0.68071370690E+03  0.68071370691E+03  0.25500000920E-02 0. -1.
       -2   -1    0    0    0  501  0.00000000000E+00  0.00000000000E+00 -0.17845267964E+03  0.17845267966E+03  0.25500000920E-02 0.  1.
    10030    2    1    2    0    0  0.00000000000E+00  0.00000000000E+00  0.50226102727E+03  0.85916638657E+03  0.69706580772E+03 0.  0.
        2    1    3    3  502    0  0.25115194078E+03  0.24078880545E+03  0.27634924744E+03  0.44432584075E+03  0.25500000920E-02 0.  1.
       -2    1    3    3    0  502 -0.25115194078E+03 -0.24078880545E+03  0.22591177982E+03  0.41484054582E+03  0.25500000920E-02 0. -1.
</event>
<event>
 5   0  0.1223742E-02  0.6958687E+03  0.7818609E-02  0.9724323E-01
        1   -1    0    0  501    0  0.00000000000E+00  0.00000000000E+00  0.49551381682E+03  0.49551381685E+03  0.50400001928E-02 0.  1.
       -1   -1    0    0    0  501  0.00000000000E+00  0.00000000000E+00 -0.24430865577E+03  0.24430865582E+03  0.50400001928E-02 0. -1.
    10030    2    1    2    0    0  0.00000000000E+00  0.00000000000E+00  0.25120516105E+03  0.73982247267E+03  0.69586870754E+03 0.  0.
        2    1    3    3  502    0 -0.13634162895E+03 -0.21736066299E+03 -0.12423780186E+03  0.28507846116E+03  0.25500000920E-02 0. -1.
       -2    1    3    3    0  502  0.13634162895E+03  0.21736066299E+03  0.37544296291E+03  0.45474401151E+03  0.25500000920E-02 0.  1.
</event>
<event>
 5   0  0.1223742E-02  0.6995848E+03  0.7818609E-02  0.9717943E-01
        1   -1    0    0  501    0  0.00000000000E+00  0.00000000000E+00  0.35721127113E+03  0.35721127116E+03  0.50400001928E-02 0.  1.
       -1   -1    0    0    0  501  0.00000000000E+00  0.00000000000E+00 -0.34252758314E+03  0.34252758318E+03  0.50400001928E-02 0. -1.
    10030    2    1    2    0    0  0.00000000000E+00  0.00000000000E+00  0.14683687983E+02  0.69973885434E+03  0.69958477226E+03 0.  0.
        2    1    3    3  502    0  0.24564661318E+03 -0.19215705373E+03  0.16576903217E+03  0.35319394658E+03  0.25500000920E-02 0.  1.
       -2    1    3    3    0  502 -0.24564661318E+03  0.19215705373E+03 -0.15108534419E+03  0.34654490777E+03  0.25500000920E-02 0. -1.
</event>
<event>
 5   0  0.2006362E-02  0.7002728E+03  0.7818609E-02  0.9716766E-01
       -2   -1    0    0    0  501  0.00000000000E+00  0.00000000000E+00  0.16356105015E+03  0.16356105017E+03  0.25500000920E-02 0. -1.
        2   -1    0    0  501    0  0.00000000000E+00  0.00000000000E+00 -0.74953973445E+03  0.74953973445E+03  0.25500000920E-02 0.  1.
    10030    2    1    2    0    0  0.00000000000E+00  0.00000000000E+00 -0.58597868429E+03  0.91310078462E+03  0.70027282143E+03 0.  0.
        4    1    3    3  502    0  0.14876675463E+03  0.29828419468E+03 -0.15322692971E+03  0.36685843723E+03  0.12699999809E+01 0. -1.
       -4    1    3    3    0  502 -0.14876675463E+03 -0.29828419468E+03 -0.43275175459E+03  0.54624234739E+03  0.12699999809E+01 0.  1.
</event>
<event>
 5   0  0.1197259E-02  0.6989583E+03  0.7818609E-02  0.9719015E-01
        1   -1    0    0  501    0  0.00000000000E+00  0.00000000000E+00  0.72225496476E+03  0.72225496477E+03  0.50400001928E-02 0. -1.
       -1   -1    0    0    0  501  0.00000000000E+00  0.00000000000E+00 -0.16910325369E+03  0.16910325377E+03  0.50400001928E-02 0.  1.
    10030    2    1    2    0    0  0.00000000000E+00  0.00000000000E+00  0.55315171107E+03  0.89135821854E+03  0.69895826650E+03 0.  0.
        3    1    3    3  502    0  0.32521953496E+03  0.12386040368E+03  0.31743435172E+03  0.47103473690E+03  0.10100000352E+00 0.  1.
       -3    1    3    3    0  502 -0.32521953496E+03 -0.12386040368E+03  0.23571735935E+03  0.42032348164E+03  0.10100000352E+00 0. -1.
</event>
<event>
 5   0  0.7947250E-03  0.7025951E+03  0.7818609E-02  0.9712804E-01
       -4   -1    0    0    0  501  0.00000000000E+00  0.00000000000E+00  0.17317325070E+03  0.17317790753E+03  0.12699999809E+01 0. -1.
        4   -1    0    0  501    0  0.00000000000E+00  0.00000000000E+00 -0.71262398155E+03  0.71262511321E+03  0.12699999809E+01 0.  1.
    10030    2    1    2    0    0  0.00000000000E+00  0.00000000000E+00 -0.53945073085E+03  0.88580302074E+03  0.70259511850E+03 0.  0.
        2    1    3    3  502    0  0.21281195950E+03  0.16686820590E+03  0.12966030358E+02  0.27074350629E+03  0.25500000920E-02 0. -1.
       -2    1    3    3    0  502 -0.21281195950E+03 -0.16686820590E+03 -0.55241676121E+03  0.61505951445E+03  0.25500000920E-02 0.  1.
</event>
<event>
 5   0  0.1909053E-02  0.6987183E+03  0.7818609E-02  0.9719427E-01
        2   -1    0    0  501    0  0.00000000000E+00  0.00000000000E+00  0.81808509998E+03  0.81808509999E+03  0.25500000920E-02 0.  1.
       -2   -1    0    0    0  501  0.00000000000E+00  0.00000000000E+00 -0.14919208332E+03  0.14919208334E+03  0.25500000920E-02 0. -1.
    10030    2    1    2    0    0  0.00000000000E+00  0.00000000000E+00  0.66889301666E+03  0.96727718333E+03  0.69871831353E+03 0.  0.
        1    1    3    3  502    0  0.12754360818E+03  0.23274161828E+03  0.64896059098E+03  0.70113185745E+03  0.50400001928E-02 0.  1.
       -1    1    3    3    0  502 -0.12754360818E+03 -0.23274161828E+03  0.19932425684E+02  0.26614532588E+03  0.50400001928E-02 0. -1.
</event>
<event>
 5   0  0.1948138E-02  0.7024991E+03  0.7818609E-02  0.9712968E-01
       -2   -1    0    0    0  501  0.00000000000E+00  0.00000000000E+00  0.51673600035E+02  0.51673600098E+02  0.25500000920E-02 0. -1.
        2   -1    0    0  501    0  0.00000000000E+00  0.00000000000E+00 -0.23876066113E+04  0.23876066113E+04  0.25500000920E-02 0.  1.
    10030    2    1    2    0    0  0.00000000000E+00  0.00000000000E+00 -0.23359330113E+04  0.24392802114E+04  0.70249905096E+03 0.  0.
        3    1    3    3  502    0 -0.38225292530E+02  0.24882153573E+02 -0.23772804343E+04  0.23777179328E+04  0.10100000352E+00 0.  1.
       -3    1    3    3    0  502  0.38225292530E+02 -0.24882153573E+02  0.41347423014E+02  0.61562278599E+02  0.10100000352E+00 0. -1.
</event>
<event>
 5   0  0.2006362E-02  0.7006212E+03  0.7818609E-02  0.9716171E-01
        2   -1    0    0  501    0  0.00000000000E+00  0.00000000000E+00  0.11433707091E+04  0.11433707091E+04  0.25500000920E-02 0.  1.
       -2   -1    0    0    0  501  0.00000000000E+00  0.00000000000E+00 -0.10732958651E+03  0.10732958654E+03  0.25500000920E-02 0. -1.
    10030    2    1    2    0    0  0.00000000000E+00  0.00000000000E+00  0.10360411226E+04  0.12507002957E+04  0.70062116857E+03 0.  0.
        4    1    3    3  502    0 -0.95172875552E+02  0.16205213254E+03  0.10457588020E+04  0.10625120493E+04  0.12699999809E+01 0.  1.
       -4    1    3    3    0  502  0.95172875552E+02 -0.16205213254E+03 -0.97176793919E+01  0.18818824643E+03  0.12699999809E+01 0. -1.
</event>
<event>
 5   0  0.1257442E-02  0.7031504E+03  0.7818609E-02  0.9711860E-01
       -1   -1    0    0    0  501  0.00000000000E+00  0.00000000000E+00  0.33871233473E+03  0.33871233477E+03  0.50400001928E-02 0.  1.
        1   -1    0    0  501    0  0.00000000000E+00  0.00000000000E+00 -0.36492652087E+03  0.36492652090E+03  0.50400001928E-02 0. -1.
    10030    2    1    2    0    0  0.00000000000E+00  0.00000000000E+00 -0.26214186135E+02  0.70363885567E+03  0.70315037912E+03 0.  0.
        1    1    3    3  502    0 -0.29906951139E+03  0.17881763054E+03 -0.59902772703E+02  0.35356280890E+03  0.50400001928E-02 0. -1.
       -1    1    3    3    0  502  0.29906951139E+03 -0.17881763054E+03  0.33688586568E+02  0.35007604677E+03  0.50400001928E-02 0.  1.
</event>
<event>
 5   0  0.2006362E-02  0.6714091E+03  0.7818609E-02  0.9767416E-01
       -2   -1    0    0    0  501  0.00000000000E+00  0.00000000000E+00  0.97175964563E+02  0.97175964596E+02  0.25500000920E-02 0.  1.
        2   -1    0    0  501    0  0.00000000000E+00  0.00000000000E+00 -0.11597263946E+04  0.11597263946E+04  0.25500000920E-02 0. -1.
    10030    2    1    2    0    0  0.00000000000E+00  0.00000000000E+00 -0.10625504301E+04  0.12569023592E+04  0.67140905877E+03 0.  0.
        4    1    3    3  502    0  0.12021852145E+03 -0.37360023625E+02 -0.11138596766E+04  0.11209519420E+04  0.12699999809E+01 0. -1.
       -4    1    3    3    0  502 -0.12021852145E+03  0.37360023625E+02  0.51309246519E+02  0.13595041722E+03  0.12699999809E+01 0.  1.
</event>
<event>
 5   0  0.1197259E-02  0.6888905E+03  0.7818609E-02  0.9736422E-01
        1   -1    0    0  501    0  0.00000000000E+00  0.00000000000E+00  0.10214246901E+04  0.10214246902E+04  0.50400001928E-02 0. -1.
       -1   -1    0    0    0  501  0.00000000000E+00  0.00000000000E+00 -0.11615396997E+03  0.11615397008E+03  0.50400001928E-02 0.  1.
    10030    2    1    2    0    0  0.00000000000E+00  0.00000000000E+00  0.90527072018E+03  0.11375786602E+04  0.68889050756E+03 0.  0.
        3    1    3    3  502    0  0.12010537050E+03  0.10475532256E+02  0.98544517371E+03  0.99279264572E+03  0.10100000352E+00 0. -1.
       -3    1    3    3    0  502 -0.12010537050E+03 -0.10475532256E+02 -0.80174453536E+02  0.14478601452E+03  0.10100000352E+00 0.  1.
</event>
<event>
 5   0  0.1948138E-02  0.6961254E+03  0.7818609E-02  0.9723881E-01
        2   -1    0    0  501    0  0.00000000000E+00  0.00000000000E+00  0.21510885874E+04  0.21510885874E+04  0.25500000920E-02 0. -1.
       -2   -1    0    0    0  501  0.00000000000E+00  0.00000000000E+00 -0.56319218327E+02  0.56319218385E+02  0.25500000920E-02 0.  1.
    10030    2    1    2    0    0  0.00000000000E+00  0.00000000000E+00  0.20947693691E+04  0.22074078058E+04  0.69612535613E+03 0.  0.
        3    1    3    3  502    0 -0.29003569306E+03 -0.17551799896E+03  0.12974781865E+04  0.13410357660E+04  0.10100000352E+00 0.  1.
       -3    1    3    3    0  502  0.29003569306E+03  0.17551799896E+03  0.79729118258E+03  0.86637203974E+03  0.10100000352E+00 0. -1.
</event>
<event>
 5   0  0.1948138E-02  0.6905886E+03  0.7818609E-02  0.9733464E-01
       -2   -1    0    0    0  501  0.00000000000E+00  0.00000000000E+00  0.15116713230E+03  0.15116713232E+03  0.25500000920E-02 0. -1.
        2   -1    0    0  501    0  0.00000000000E+00  0.00000000000E+00 -0.78871739067E+03  0.78871739067E+03  0.25500000920E-02 0.  1.
    10030    2    1    2    0    0  0.00000000000E+00  0.00000000000E+00 -0.63755025837E+03  0.93988452299E+03  0.69058857840E+03 0.  0.
        3    1    3    3  502    0 -0.29195377041E+03 -0.30285576419E+02 -0.56628807258E+03  0.63783729238E+03  0.10100000352E+00 0.  1.
       -3    1    3    3    0  502  0.29195377041E+03  0.30285576419E+02 -0.71262185786E+02  0.30204723061E+03  0.10100000352E+00 0. -1.
</event>
<event>
 5   0  0.1226303E-02  0.6925187E+03  0.7818609E-02  0.9730112E-01
        1   -1    0    0  501    0  0.00000000000E+00  0.00000000000E+00  0.34521036735E+03  0.34521036739E+03  0.50400001928E-02 0. -1.
       -1   -1    0    0    0  501  0.00000000000E+00  0.00000000000E+00 -0.34731156481E+03  0.34731156485E+03  0.50400001928E-02 0.  1.
    10030    2    1    2    0    0  0.00000000000E+00  0.00000000000E+00 -0.21011974607E+01  0.69252193224E+03  0.69251874459E+03 0.  0.
        4    1    3    3  502    0  0.28296659593E+03  0.19479737207E+03 -0.44384727416E+02  0.34639244724E+03  0.12699999809E+01 0.  1.
       -4    1    3    3    0  502 -0.28296659593E+03 -0.19479737207E+03  0.42283529955E+02  0.34612948500E+03  0.12699999809E+01 0. -1.
</event>
<event>
 5   0  0.1257442E-02  0.7055271E+03  0.7818609E-02  0.9707826E-01
        1   -1    0    0  501    0  0.00000000000E+00  0.00000000000E+00  0.74190208984E+03  0.74190208986E+03  0.50400001928E-02 0. -1.
       -1   -1    0    0    0  501  0.00000000000E+00  0.00000000000E+00 -0.16773390093E+03  0.16773390101E+03  0.50400001928E-02 0.  1.
    10030    2    1    2    0    0  0.00000000000E+00  0.00000000000E+00  0.57416818891E+03  0.90963599086E+03  0.70552712685E+03 0.  0.
        1    1    3    3  502    0  0.65348305439E+01  0.86751288921E+02  0.72785427626E+03  0.73303501802E+03  0.50400001928E-02 0. -1.
       -1    1    3    3    0  502 -0.65348305439E+01 -0.86751288921E+02 -0.15368608735E+03  0.17660097285E+03  0.50400001928E-02 0.  1.
</event>
<event>
 5   0  0.1909053E-02  0.7021688E+03  0.7818609E-02  0.9713530E-01
       -2   -1    0    0    0  501  0.00000000000E+00  0.00000000000E+00  0.13909694206E+03  0.13909694208E+03  0.25500000920E-02 0.  1.
        2   -1    0    0  501    0  0.00000000000E+00  0.00000000000E+00 -0.88614653562E+03  0.88614653562E+03  0.25500000920E-02 0. -1.
    10030    2    1    2    0    0  0.00000000000E+00  0.00000000000E+00 -0.74704959356E+03  0.10252434777E+04  0.70216884960E+03 0.  0.
        1    1    3    3  502    0  0.25691285135E+02  0.13807219613E+03 -0.84334509511E+03  0.85495901829E+03  0.50400001928E-02 0. -1.
       -1    1    3    3    0  502 -0.25691285135E+02 -0.13807219613E+03  0.96295501554E+02  0.17028445942E+03  0.50400001928E-02 0.  1.
</event>
<event>
 5   0  0.1223742E-02  0.7012922E+03  0.7818609E-02  0.9715025E-01
        1   -1    0    0  501    0  0.00000000000E+00  0.00000000000E+00  0.12421688606E+04  0.12421688606E+04  0.50400001928E-02 0. -1.
       -1   -1    0    0    0  501  0.00000000000E+00  0.00000000000E+00 -0.98982273157E+02  0.98982273286E+02  0.50400001928E-02 0.  1.
    10030    2    1    2    0    0  0.00000000000E+00  0.00000000000E+00  0.11431865874E+04  0.13411511339E+04  0.70129222884E+03 0.  0.
        2    1    3    3  502    0  0.26512280735E+03 -0.38493141975E+02  0.13894744826E+03  0.30179168037E+03  0.25500000920E-02 0.  1.
       -2    1    3    3    0  502 -0.26512280735E+03  0.38493141975E+02  0.10042391392E+04  0.10393594535E+04  0.25500000920E-02 0. -1.
</event>
<event>
 5   0  0.1973067E-02  0.6986895E+03  0.7818609E-02  0.9719476E-01
       -2   -1    0    0    0  501  0.00000000000E+00  0.00000000000E+00  0.44668753851E+03  0.44668753851E+03  0.25500000920E-02 0.  1.
        2   -1    0    0  501    0  0.00000000000E+00  0.00000000000E+00 -0.27321507597E+03  0.27321507598E+03  0.25500000920E-02 0. -1.
    10030    2    1    2    0    0  0.00000000000E+00  0.00000000000E+00  0.17347246254E+03  0.71990261449E+03  0.69868954414E+03 0.  0.
        5    1    3    3  502    0  0.25058221287E+03 -0.12166179025E+03 -0.13043948197E+03  0.30761922091E+03  0.46999998093E+01 0. -1.
       -5    1    3    3    0  502 -0.25058221287E+03  0.12166179025E+03  0.30391194451E+03  0.41228339359E+03  0.46999998093E+01 0.  1.
</event>
<event>
 5   0  0.1223742E-02  0.7037773E+03  0.7818609E-02  0.9710794E-01
       -1   -1    0    0    0  501  0.00000000000E+00  0.00000000000E+00  0.12730139625E+03  0.12730139635E+03  0.50400001928E-02 0. -1.
        1   -1    0    0  501    0  0.00000000000E+00  0.00000000000E+00 -0.97269644863E+03  0.97269644864E+03  0.50400001928E-02 0.  1.
    10030    2    1    2    0    0  0.00000000000E+00  0.00000000000E+00 -0.84539505237E+03  0.10999978450E+04  0.70377728325E+03 0.  0.
        2    1    3    3  502    0 -0.14875887616E+02  0.17312980076E+03 -0.90095858431E+03  0.91756285375E+03  0.25500000920E-02 0.  1.
       -2    1    3    3    0  502  0.14875887616E+02 -0.17312980076E+03  0.55563531935E+02  0.18243499124E+03  0.25500000920E-02 0. -1.
</event>
<event>
 5   0  0.1237686E-02  0.6996780E+03  0.7818609E-02  0.9717783E-01
       -1   -1    0    0    0  501  0.00000000000E+00  0.00000000000E+00  0.16111124565E+04  0.16111124565E+04  0.50400001928E-02 0. -1.
        1   -1    0    0  501    0  0.00000000000E+00  0.00000000000E+00 -0.75964473189E+02  0.75964473356E+02  0.50400001928E-02 0.  1.
    10030    2    1    2    0    0  0.00000000000E+00  0.00000000000E+00  0.15351479833E+04  0.16870769299E+04  0.69967795208E+03 0.  0.
        5    1    3    3  502    0 -0.89408073240E+02 -0.19405190336E+03  0.14354219755E+04  0.14512437020E+04  0.46999998093E+01 0. -1.
       -5    1    3    3    0  502  0.89408073240E+02  0.19405190336E+03  0.99726007850E+02  0.23583322793E+03  0.46999998093E+01 0.  1.
</event>
<event>
 5   0  0.1257442E-02  0.6998840E+03  0.7818609E-02  0.9717431E-01
        1   -1    0    0  501    0  0.00000000000E+00  0.00000000000E+00  0.36664098940E+03  0.36664098943E+03  0.50400001928E-02 0. -1.
       -1   -1    0    0    0  501  0.00000000000E+00  0.00000000000E+00 -0.33400361423E+03  0.33400361427E+03  0.50400001928E-02 0.  1.
    10030    2    1    2    0    0  0.00000000000E+00  0.00000000000E+00  0.32637375164E+02  0.70064460370E+03  0.69988403499E+03 0.  0.
        1    1    3    3  502    0  0.28960398266E+03  0.23095291864E+02 -0.17897163913E+03  0.34122530228E+03  0.50400001928E-02 0.  1.
       -1    1    3    3    0  502 -0.28960398266E+03 -0.23095291864E+02  0.21160901429E+03  0.35941930142E+03  0.50400001928E-02 0. -1.
</event>
<event>
 5   0  0.1973067E-02  0.7048038E+03  0.7818609E-02  0.9709052E-01
        2   -1    0    0  501    0  0.00000000000E+00  0.00000000000E+00  0.17237675278E+04  0.17237675278E+04  0.25500000920E-02 0.  1.
       -2   -1    0    0    0  501  0.00000000000E+00  0.00000000000E+00 -0.72043986182E+02  0.72043986227E+02  0.25500000920E-02 0. -1.
    10030    2    1    2    0    0  0.00000000000E+00  0.00000000000E+00  0.16517235416E+04  0.17958115140E+04  0.70480375707E+03 0.  0.
        5    1    3    3  502    0  0.19036522606E+03  0.85441474933E+02  0.10237659311E+03  0.23246982975E+03  0.46999998093E+01 0. -1.
       -5    1    3    3    0  502 -0.19036522606E+03 -0.85441474933E+02  0.15493469485E+04  0.15633416843E+04  0.46999998093E+01 0.  1.
</event>
<event>
 5   0  0.1223742E-02  0.7010805E+03  0.7818609E-02  0.9715386E-01
       -1   -1    0    0    0  501  0.00000000000E+00  0.00000000000E+00  0.69232924446E+02  0.69232924629E+02  0.50400001928E-02 0.  1.
        1   -1    0    0  501    0  0.00000000000E+00  0.00000000000E+00 -0.17748558168E+04  0.17748558168E+04  0.50400001928E-02 0. -1.
    10030    2    1    2    0    0  0.00000000000E+00  0.00000000000E+00 -0.17056228924E+04  0.18440887415E+04  0.70108047711E+03 0.  0.
        2    1    3    3  502    0 -0.30688046593E+02 -0.21485471789E+03 -0.12875156007E+03  0.25235148153E+03  0.25500000920E-02 0.  1.
       -2    1    3    3    0  502  0.30688046593E+02  0.21485471789E+03 -0.15768713323E+04  0.15917372599E+04  0.25500000920E-02 0. -1.
</event>
<event>
 5   0  0.1197259E-02  0.6982161E+03  0.7818609E-02  0.9720288E-01
        1   -1    0    0  501    0  0.00000000000E+00  0.00000000000E+00  0.11906958083E+04  0.11906958083E+04  0.50400001928E-02 0.  1.
       -1   -1    0    0    0  501  0.00000000000E+00  0.00000000000E+00 -0.10235732122E+03  0.10235732135E+03  0.50400001928E-02 0. -1.
    10030    2    1    2    0    0  0.00000000000E+00  0.00000000000E+00  0.10883384871E+04  0.12930531297E+04  0.69821610815E+03 0.  0.
        3    1    3    3  502    0  0.18200847375E+02  0.67168812088E+02  0.11777202835E+04  0.11797745532E+04  0.10100000352E+00 0.  1.
       -3    1    3    3    0  502 -0.18200847375E+02 -0.67168812088E+02 -0.89381796361E+02  0.11327857646E+03  0.10100000352E+00 0. -1.
</event>
<event>
 5   0  0.1948138E-02  0.6967083E+03  0.7818609E-02  0.9722878E-01
       -2   -1    0    0    0  501  0.00000000000E+00  0.00000000000E+00  0.14232940999E+03  0.14232941001E+03  0.25500000920E-02 0. -1.
        2   -1    0    0  501    0  0.00000000000E+00  0.00000000000E+00 -0.85260381614E+03  0.85260381614E+03  0.25500000920E-02 0.  1.
    10030    2    1    2    0    0  0.00000000000E+00  0.00000000000E+00 -0.71027440615E+03  0.99493322615E+03  0.69670825492E+03 0.  0.
        3    1    3    3  502    0  0.11176645364E+03 -0.15606213963E+03 -0.77026347052E+03  0.79382174057E+03  0.10100000352E+00 0.  1.
       -3    1    3    3    0  502 -0.11176645364E+03  0.15606213963E+03  0.59989064376E+02  0.20111148558E+03  0.10100000352E+00 0. -1.
</event>
<event>
 5   0  0.1973067E-02  0.7015382E+03  0.7818609E-02  0.9714605E-01
       -2   -1    0    0    0  501  0.00000000000E+00  0.00000000000E+00  0.10874032349E+03  0.10874032352E+03  0.25500000920E-02 0.  1.
        2   -1    0    0  501    0  0.00000000000E+00  0.00000000000E+00 -0.11314935754E+04  0.11314935754E+04  0.25500000920E-02 0. -1.
    10030    2    1    2    0    0  0.00000000000E+00  0.00000000000E+00 -0.10227532519E+04  0.12402338989E+04  0.70153824537E+03 0.  0.
        5    1    3    3  502    0  0.33624159735E+03  0.95841378386E+02 -0.46222752956E+03  0.57958637034E+03  0.46999998093E+01 0. -1.
       -5    1    3    3    0  502 -0.33624159735E+03 -0.95841378386E+02 -0.56052572233E+03  0.66064752856E+03  0.46999998093E+01 0.  1.
</event>
<event>
 5   0  0.1909053E-02  0.7015066E+03  0.7818609E-02  0.9714659E-01
        2   -1    0    0  501    0  0.00000000000E+00  0.00000000000E+00  0.14142395106E+04  0.14142395106E+04  0.25500000920E-02 0. -1.
       -2   -1    0    0    0  501  0.00000000000E+00  0.00000000000E+00 -0.86992260188E+02  0.86992260225E+02  0.25500000920E-02 0.  1.
    10030    2    1    2    0    0  0.00000000000E+00  0.00000000000E+00  0.13272472504E+04  0.15012317709E+04  0.70150664004E+03 0.  0.
        1    1    3    3  502    0  0.14299798506E+03  0.14223765441E+03  0.49519137799E+02  0.20768273664E+03  0.50400001928E-02 0.  1.
       -1    1    3    3    0  502 -0.14299798506E+03 -0.14223765441E+03  0.12777281126E+04  0.12935490342E+04  0.50400001928E-02 0. -1.
</event>
<event>
 5   0  0.1226303E-02  0.7006470E+03  0.7818609E-02  0.9716126E-01
        1   -1    0    0  501    0  0.00000000000E+00  0.00000000000E+00  0.34885080562E+03  0.34885080566E+03  0.50400001928E-02 0.  1.
       -1   -1    0    0    0  501  0.00000000000E+00  0.00000000000E+00 -0.35180242736E+03  0.35180242740E+03  0.50400001928E-02 0. -1.
    10030    2    1    2    0    0  0.00000000000E+00  0.00000000000E+00 -0.29516217382E+01  0.70065323306E+03  0.70064701593E+03 0.  0.
        4    1    3    3  502    0 -0.13819960651E+03 -0.32154201282E+03 -0.16856132146E+02  0.35039140877E+03  0.12699999809E+01 0.  1.
       -4    1    3    3    0  502  0.13819960651E+03  0.32154201282E+03  0.13904510407E+02  0.35026182429E+03  0.12699999809E+01 0. -1.
</event>
<event>
 5   0  0.1197259E-02  0.6991121E+03  0.7818609E-02  0.9718752E-01
        1   -1    0    0  501    0  0.00000000000E+00  0.00000000000E+00  0.12003122358E+04  0.12003122358E+04  0.50400001928E-02 0.  1.
       -1   -1    0    0    0  501  0.00000000000E+00  0.00000000000E+00 -0.10179804824E+03  0.10179804837E+03  0.50400001928E-02 0. -1.
    10030    2    1    2    0    0  0.00000000000E+00  0.00000000000E+00  0.10985141876E+04  0.13021102842E+04  0.69911213114E+03 0.  0.
        3    1    3    3  502    0 -0.12348078738E+03 -0.83606954594E+01 -0.59624651114E+02  0.13737727361E+03  0.10100000352E+00 0. -1.
       -3    1    3    3    0  502  0.12348078738E+03  0.83606954594E+01  0.11581388387E+04  0.11647330106E+04  0.10100000352E+00 0.  1.
</event>
<event>
 5   0  0.1257442E-02  0.7037842E+03  0.7818609E-02  0.9710782E-01
        1   -1    0    0  501    0  0.00000000000E+00  0.00000000000E+00  0.46125749526E+03  0.46125749529E+03  0.50400001928E-02 0.  1.
       -1   -1    0    0    0  501  0.00000000000E+00  0.00000000000E+00 -0.26845755193E+03  0.26845755198E+03  0.50400001928E-02 0. -1.
    10030    2    1    2    0    0  0.00000000000E+00  0.00000000000E+00  0.19279994333E+03  0.72971504727E+03  0.70378422266E+03 0.  0.
        1    1    3    3  502    0  0.21866452406E+03  0.55050978176E+02  0.37650792816E+03  0.43886558794E+03  0.50400001928E-02 0.  1.
       -1    1    3    3    0  502 -0.21866452406E+03 -0.55050978176E+02 -0.18370798483E+03  0.29084945933E+03  0.50400001928E-02 0. -1.
</event>
<event>
 5   0  0.2026361E-02  0.6989748E+03  0.7818609E-02  0.9718987E-01
       -2   -1    0    0    0  501  0.00000000000E+00  0.00000000000E+00  0.14529150117E+03  0.14529150119E+03  0.25500000920E-02 0. -1.
        2   -1    0    0  501    0  0.00000000000E+00  0.00000000000E+00 -0.84066471654E+03  0.84066471654E+03  0.25500000920E-02 0.  1.
    10030    2    1    2    0    0  0.00000000000E+00  0.00000000000E+00 -0.69537321537E+03  0.98595621774E+03  0.69897478827E+03 0.  0.
        2    1    3    3  502    0  0.18016144929E+03  0.28091514190E+03 -0.49407392238E+03  0.59622185933E+03  0.25500000920E-02 0.  1.
       -2    1    3    3    0  502 -0.18016144929E+03 -0.28091514190E+03 -0.20129929299E+03  0.38973435841E+03  0.25500000920E-02 0. -1.
</event>
<event>
 5   0  0.1257442E-02  0.6975117E+03  0.7818609E-02  0.9721497E-01
       -1   -1    0    0    0  501  0.00000000000E+00  0.00000000000E+00  0.43335067211E+03  0.43335067214E+03  0.50400001928E-02 0.  1.
        1   -1    0    0  501    0  0.00000000000E+00  0.00000000000E+00 -0.28067487901E+03  0.28067487905E+03  0.50400001928E-02 0. -1.
    10030    2    1    2    0    0  0.00000000000E+00  0.00000000000E+00  0.15267579311E+03  0.71402555119E+03  0.69751171313E+03 0.  0.
        1    1    3    3  502    0 -0.60945690054E+01  0.13920668851E+03 -0.25094217992E+03  0.28703244344E+03  0.50400001928E-02 0. -1.
       -1    1    3    3    0  502  0.60945690054E+01 -0.13920668851E+03  0.40361797302E+03  0.42699310776E+03  0.50400001928E-02 0.  1.
</event>
<event>
 5   0  0.7947250E-03  0.6999184E+03  0.7818609E-02  0.9717372E-01
        4   -1    0    0  501    0  0.00000000000E+00  0.00000000000E+00  0.52922441375E+03  0.52922593758E+03  0.12699999809E+01 0. -1.
       -4   -1    0    0    0  501  0.00000000000E+00  0.00000000000E+00 -0.23141322261E+03  0.23141670747E+03  0.12699999809E+01 0.  1.
    10030    2    1    2    0    0  0.00000000000E+00  0.00000000000E+00  0.29781119115E+03  0.76064264505E+03  0.69991837231E+03 0.  0.
        2    1    3    3  502    0 -0.26116148265E+03 -0.32393378750E+02  0.39960746775E+03  0.47847756404E+03  0.25500000920E-02 0. -1.
       -2    1    3    3    0  502  0.26116148265E+03  0.32393378750E+02 -0.10179627661E+03  0.28216508101E+03  0.25500000920E-02 0.  1.
</event>
<event>
 5   0  0.1226303E-02  0.6923340E+03  0.7818609E-02  0.9730433E-01
        1   -1    0    0  501    0  0.00000000000E+00  0.00000000000E+00  0.16268634157E+04  0.16268634157E+04  0.50400001928E-02 0.  1.
       -1   -1    0    0    0  501  0.00000000000E+00  0.00000000000E+00 -0.73658050214E+02  0.73658050387E+02  0.50400001928E-02 0. -1.
    10030    2    1    2    0    0  0.00000000000E+00  0.00000000000E+00  0.15532053655E+04  0.17005214661E+04  0.69233398679E+03 0.  0.
        4    1    3    3  502    0  0.81441704891E+02 -0.78812405808E+02 -0.26793182928E+02  0.11646301626E+03  0.12699999809E+01 0. -1.
       -4    1    3    3    0  502 -0.81441704891E+02  0.78812405808E+02  0.15799985484E+04  0.15840584498E+04  0.12699999809E+01 0.  1.
</event>
<event>
 5   0  0.1909053E-02  0.6548420E+03  0.7818609E-02  0.9797736E-01
        2   -1    0    0  501    0  0.00000000000E+00  0.00000000000E+00  0.46702428336E+02  0.46702428406E+02  0.25500000920E-02 0.  1.
       -2   -1    0    0    0  501  0.00000000000E+00  0.00000000000E+00 -0.22954801391E+04  0.22954801391E+04  0.25500000920E-02 0. -1.
    10030    2    1    2    0    0  0.00000000000E+00  0.00000000000E+00 -0.22487777108E+04  0.23421825675E+04  0.65484195582E+03 0.  0.
        1    1    3    3  502    0  0.64287502654E+02 -0.25423538262E+03 -0.18256071677E+04  0.18443454241E+04  0.50400001928E-02 0. -1.
       -1    1    3    3    0  502 -0.64287502654E+02  0.25423538262E+03 -0.42317054307E+03  0.49783714337E+03  0.50400001928E-02 0.  1.
</event>
<event>
 5   0  0.1948138E-02  0.7019019E+03  0.7818609E-02  0.9713985E-01
       -2   -1    0    0    0  501  0.00000000000E+00  0.00000000000E+00  0.16557186617E+03  0.16557186619E+03  0.25500000920E-02 0.  1.
        2   -1    0    0  501    0  0.00000000000E+00  0.00000000000E+00 -0.74388579513E+03  0.74388579513E+03  0.25500000920E-02 0. -1.
    10030    2    1    2    0    0  0.00000000000E+00  0.00000000000E+00 -0.57831392896E+03  0.90945766132E+03  0.70190187156E+03 0.  0.
        3    1    3    3  502    0  0.29169151101E+03  0.17393663860E+03 -0.17451338799E+03  0.38182826589E+03  0.10100000352E+00 0.  1.
       -3    1    3    3    0  502 -0.29169151101E+03 -0.17393663860E+03 -0.40380054096E+03  0.52762939543E+03  0.10100000352E+00 0. -1.
</event>
<event>
 5   0  0.7947250E-03  0.6991607E+03  0.7818609E-02  0.9718669E-01
        4   -1    0    0  501    0  0.00000000000E+00  0.00000000000E+00  0.21891247532E+03  0.21891615918E+03  0.12699999809E+01 0.  1.
       -4   -1    0    0    0  501  0.00000000000E+00  0.00000000000E+00 -0.55823418834E+03  0.55823563298E+03  0.12699999809E+01 0. -1.
    10030    2    1    2    0    0  0.00000000000E+00  0.00000000000E+00 -0.33932171302E+03  0.77715179216E+03  0.69916069908E+03 0.  0.
        3    1    3    3  502    0 -0.33107102933E+03 -0.12922838361E+02 -0.45727391451E+02  0.33446379586E+03  0.10100000352E+00 0.  1.
       -3    1    3    3    0  502  0.33107102933E+03  0.12922838361E+02 -0.29359432157E+03  0.44268799630E+03  0.10100000352E+00 0. -1.
</event>
<event>
 5   0  0.7947250E-03  0.6949894E+03  0.7818609E-02  0.9725839E-01
        3   -1    0    0  501    0  0.00000000000E+00  0.00000000000E+00  0.23679696009E+03  0.23679698163E+03  0.10100000352E+00 0.  1.
       -3   -1    0    0    0  501  0.00000000000E+00  0.00000000000E+00 -0.50994137244E+03  0.50994138244E+03  0.10100000352E+00 0. -1.
    10030    2    1    2    0    0  0.00000000000E+00  0.00000000000E+00 -0.27314441235E+03  0.74673836407E+03  0.69498943472E+03 0.  0.
        2    1    3    3  502    0 -0.81051480186E+02 -0.24853593599E+03  0.10941373537E+03  0.28339163610E+03  0.25500000920E-02 0.  1.
       -2    1    3    3    0  502  0.81051480186E+02  0.24853593599E+03 -0.38255814772E+03  0.46334672796E+03  0.25500000920E-02 0. -1.
</event>
<event>
 5   0  0.1237686E-02  0.6967158E+03  0.7818609E-02  0.9722865E-01
       -1   -1    0    0    0  501  0.00000000000E+00  0.00000000000E+00  0.26968021654E+03  0.26968021658E+03  0.50400001928E-02 0. -1.
        1   -1    0    0  501    0  0.00000000000E+00  0.00000000000E+00 -0.44998937682E+03  0.44998937684E+03  0.50400001928E-02 0.  1.
    10030    2    1    2    0    0  0.00000000000E+00  0.00000000000E+00 -0.18030916028E+03  0.71966959343E+03  0.69671581755E+03 0.  0.
        5    1    3    3  502    0  0.16064947985E+03 -0.28541287290E+03 -0.21264634331E+03  0.39052441756E+03  0.46999998093E+01 0.  1.
       -5    1    3    3    0  502 -0.16064947985E+03  0.28541287290E+03  0.32337183028E+02  0.32914517587E+03  0.46999998093E+01 0. -1.
</event>
<event>
 5   0  0.1973067E-02  0.6975896E+03  0.7818609E-02  0.9721363E-01
       -2   -1    0    0    0  501  0.00000000000E+00  0.00000000000E+00  0.44578957376E+03  0.44578957376E+03  0.25500000920E-02 0.  1.
        2   -1    0    0  501    0  0.00000000000E+00  0.00000000000E+00 -0.27290414583E+03  0.27290414584E+03  0.25500000920E-02 0. -1.
    10030    2    1    2    0    0  0.00000000000E+00  0.00000000000E+00  0.17288542792E+03  0.71869371961E+03  0.69758962966E+03 0.  0.
        5    1    3    3  502    0 -0.34202930918E+03  0.37043235931E+02  0.27443457485E+02  0.34515428872E+03  0.46999998093E+01 0.  1.
       -5    1    3    3    0  502  0.34202930918E+03 -0.37043235931E+02  0.14544197044E+03  0.37353943089E+03  0.46999998093E+01 0. -1.
</event>
<event>
 5   0  0.1909053E-02  0.7023324E+03  0.7818609E-02  0.9713252E-01
       -2   -1    0    0    0  501  0.00000000000E+00  0.00000000000E+00  0.38435478547E+03  0.38435478547E+03  0.25500000920E-02 0.  1.
        2   -1    0    0  501    0  0.00000000000E+00  0.00000000000E+00 -0.32084341629E+03  0.32084341630E+03  0.25500000920E-02 0. -1.
    10030    2    1    2    0    0  0.00000000000E+00  0.00000000000E+00  0.63511369177E+02  0.70519820177E+03  0.70233240689E+03 0.  0.
        1    1    3    3  502    0 -0.14787465374E+03 -0.30181222197E+03  0.13395593696E+03  0.36180343230E+03  0.50400001928E-02 0.  1.
       -1    1    3    3    0  502  0.14787465374E+03  0.30181222197E+03 -0.70444567779E+02  0.34339476948E+03  0.50400001928E-02 0. -1.
</event>
<event>
 5   0  0.1237686E-02  0.7080395E+03  0.7818609E-02  0.9703581E-01
       -1   -1    0    0    0  501  0.00000000000E+00  0.00000000000E+00  0.40007856263E+03  0.40007856266E+03  0.50400001928E-02 0. -1.
        1   -1    0    0  501    0  0.00000000000E+00  0.00000000000E+00 -0.31326345994E+03  0.31326345998E+03  0.50400001928E-02 0.  1.
    10030    2    1    2    0    0  0.00000000000E+00  0.00000000000E+00  0.86815102687E+02  0.71334202264E+03  0.70803953224E+03 0.  0.
        5    1    3    3  502    0 -0.18033292098E+03  0.25676160019E+03  0.20852950221E+03  0.37676667184E+03  0.46999998093E+01 0. -1.
       -5    1    3    3    0  502  0.18033292098E+03 -0.25676160019E+03 -0.12171439952E+03  0.33657535080E+03  0.46999998093E+01 0.  1.
</event>
<event>
 5   0  0.1223742E-02  0.7047891E+03  0.7818609E-02  0.9709077E-01
        1   -1    0    0  501    0  0.00000000000E+00  0.00000000000E+00  0.34601526785E+03  0.34601526788E+03  0.50400001928E-02 0. -1.
       -1   -1    0    0    0  501  0.00000000000E+00  0.00000000000E+00 -0.35889142578E+03  0.35889142582E+03  0.50400001928E-02 0.  1.
    10030    2    1    2    0    0  0.00000000000E+00  0.00000000000E+00 -0.12876157937E+02  0.70490669370E+03  0.70478908291E+03 0.  0.
        2    1    3    3  502    0 -0.37511130919E+02  0.20367474036E+03  0.27872601609E+03  0.34724440507E+03  0.25500000920E-02 0. -1.
       -2    1    3    3    0  502  0.37511130919E+02 -0.20367474036E+03 -0.29160217402E+03  0.35766228863E+03  0.25500000920E-02 0.  1.
</event>
<event>
 5   0  0.2006362E-02  0.6935418E+03  0.7818609E-02  0.9728341E-01
       -2   -1    0    0    0  501  0.00000000000E+00  0.00000000000E+00  0.51805890810E+03  0.51805890811E+03  0.25500000920E-02 0.  1.
        2   -1    0    0  501    0  0.00000000000E+00  0.00000000000E+00 -0.23211659639E+03  0.23211659640E+03  0.25500000920E-02 0. -1.
    10030    2    1    2    0    0  0.00000000000E+00  0.00000000000E+00  0.28594231171E+03  0.75017550452E+03  0.69354183864E+03 0.  0.
        4    1    3    3  502    0  0.24353868121E+03  0.12099842219E+03  0.37570817455E+03  0.46379947471E+03  0.12699999809E+01 0.  1.
       -4    1    3    3    0  502 -0.24353868121E+03 -0.12099842219E+03 -0.89765862834E+02  0.28637602981E+03  0.12699999809E+01 0. -1.
</event>
<event>
 5   0  0.1909053E-02  0.6976223E+03  0.7818609E-02  0.9721307E-01
       -2   -1    0    0    0  501  0.00000000000E+00  0.00000000000E+00  0.49270497993E+02  0.49270498059E+02  0.25500000920E-02 0.  1.
        2   -1    0    0  501    0  0.00000000000E+00  0.00000000000E+00 -0.24694135189E+04  0.24694135189E+04  0.25500000920E-02 0. -1.
    10030    2    1    2    0    0  0.00000000000E+00  0.00000000000E+00 -0.24201430209E+04  0.25186840169E+04  0.69762234456E+03 0.  0.
        1    1    3    3  502    0  0.48706374938E+02  0.33705849606E+02 -0.24511238172E+04  0.24518393835E+04  0.50400001928E-02 0. -1.
       -1    1    3    3    0  502 -0.48706374938E+02 -0.33705849606E+02  0.30980796290E+02  0.66844633453E+02  0.50400001928E-02 0.  1.
</event>
<event>
 5   0  0.1973067E-02  0.6974558E+03  0.7818609E-02  0.9721593E-01
        2   -1    0    0  501    0  0.00000000000E+00  0.00000000000E+00  0.12255300839E+04  0.12255300839E+04  0.25500000920E-02 0.  1.
       -2   -1    0    0    0  501  0.00000000000E+00  0.00000000000E+00 -0.99231473156E+02  0.99231473189E+02  0.25500000920E-02 0. -1.
    10030    2    1    2    0    0  0.00000000000E+00  0.00000000000E+00  0.11262986107E+04  0.13247615571E+04  0.69745582123E+03 0.  0.
        5    1    3    3  502    0 -0.31984577492E+02 -0.23500614836E+01 -0.96364038760E+02  0.10166933633E+03  0.46999998093E+01 0. -1.
       -5    1    3    3    0  502  0.31984577492E+02  0.23500614836E+01  0.12226626495E+04  0.12230922207E+04  0.46999998093E+01 0.  1.
</event>
<event>
 5   0  0.1973067E-02  0.6978210E+03  0.7818609E-02  0.9720966E-01
        2   -1    0    0  501    0  0.00000000000E+00  0.00000000000E+00  0.84007038560E+03  0.84007038560E+03  0.25500000920E-02 0.  1.
       -2   -1    0    0    0  501  0.00000000000E+00  0.00000000000E+00 -0.14491468030E+03  0.14491468032E+03  0.25500000920E-02 0. -1.
    10030    2    1    2    0    0  0.00000000000E+00  0.00000000000E+00  0.69515570529E+03  0.98498506592E+03  0.69782098384E+03 0.  0.
        5    1    3    3  502    0  0.28863280269E+02  0.61857470335E+02 -0.13535230492E+03  0.15166335097E+03  0.46999998093E+01 0. -1.
       -5    1    3    3    0  502 -0.28863280269E+02 -0.61857470335E+02  0.83050801021E+03  0.83332171495E+03  0.46999998093E+01 0.  1.
</event>
<event>
 5   0  0.1973067E-02  0.7008992E+03  0.7818609E-02  0.9715696E-01
        2   -1    0    0  501    0  0.00000000000E+00  0.00000000000E+00  0.36155518931E+03  0.36155518932E+03  0.25500000920E-02 0. -1.
       -2   -1    0    0    0  501  0.00000000000E+00  0.00000000000E+00 -0.33968509772E+03  0.33968509773E+03  0.25500000920E-02 0.  1.
    10030    2    1    2    0    0  0.00000000000E+00  0.00000000000E+00  0.21870091592E+02  0.70124028704E+03  0.70089916484E+03 0.  0.
        5    1    3    3  502    0 -0.10341354231E+03  0.15464609053E+03  0.30803587493E+03  0.35988604348E+03  0.46999998093E+01 0. -1.
       -5    1    3    3    0  502  0.10341354231E+03 -0.15464609053E+03 -0.28616578334E+03  0.34135424357E+03  0.46999998093E+01 0.  1.
</event>
<event>
 5   0  0.1237686E-02  0.7048063E+03  0.7818609E-02  0.9709048E-01
       -1   -1    0    0    0  501  0.00000000000E+00  0.00000000000E+00  0.33004251698E+03  0.33004251702E+03  0.50400001928E-02 0.  1.
        1   -1    0    0  501    0  0.00000000000E+00  0.00000000000E+00 -0.37627871922E+03  0.37627871926E+03  0.50400001928E-02 0. -1.
    10030    2    1    2    0    0  0.00000000000E+00  0.00000000000E+00 -0.46236202240E+02  0.70632123627E+03  0.70480628716E+03 0.  0.
        5    1    3    3  502    0  0.23130964606E+03 -0.10661039658E+03 -0.26714912062E+03  0.36913503175E+03  0.46999998093E+01 0. -1.
       -5    1    3    3    0  502 -0.23130964606E+03  0.10661039658E+03  0.22091291838E+03  0.33718620453E+03  0.46999998093E+01 0.  1.
</event>
<event>
 5   0  0.1909053E-02  0.6981509E+03  0.7818609E-02  0.9720400E-01
        2   -1    0    0  501    0  0.00000000000E+00  0.00000000000E+00  0.61904370050E+03  0.61904370050E+03  0.25500000920E-02 0.  1.
       -2   -1    0    0    0  501  0.00000000000E+00  0.00000000000E+00 -0.19684179632E+03  0.19684179634E+03  0.25500000920E-02 0. -1.
    10030    2    1    2    0    0  0.00000000000E+00  0.00000000000E+00  0.42220190417E+03  0.81588549684E+03  0.69815091210E+03 0.  0.
        1    1    3    3  502    0  0.10008274908E+03 -0.55917418592E+02 -0.17421356314E+03  0.20855138448E+03  0.50400001928E-02 0. -1.
       -1    1    3    3    0  502 -0.10008274908E+03  0.55917418592E+02  0.59641546731E+03  0.60733411236E+03  0.50400001928E-02 0.  1.
</event>
<event>
 5   0  0.7947250E-03  0.6984051E+03  0.7818609E-02  0.9719964E-01
        4   -1    0    0  501    0  0.00000000000E+00  0.00000000000E+00  0.34144574800E+03  0.34144810986E+03  0.12699999809E+01 0. -1.
       -4   -1    0    0    0  501  0.00000000000E+00  0.00000000000E+00 -0.35713080840E+03  0.35713306653E+03  0.12699999809E+01 0.  1.
    10030    2    1    2    0    0  0.00000000000E+00  0.00000000000E+00 -0.15685060403E+02  0.69858117639E+03  0.69840506791E+03 0.  0.
        5    1    3    3  502    0  0.26801353787E+02 -0.27488427975E+03  0.20584804076E+03  0.34449264971E+03  0.46999998093E+01 0. -1.
       -5    1    3    3    0  502 -0.26801353787E+02  0.27488427975E+03 -0.22153310116E+03  0.35408852668E+03  0.46999998093E+01 0.  1.
</event>
<event>
 5   0  0.1223742E-02  0.6955924E+03  0.7818609E-02  0.9724800E-01
       -1   -1    0    0    0  501  0.00000000000E+00  0.00000000000E+00  0.14614436638E+03  0.14614436647E+03  0.50400001928E-02 0. -1.
        1   -1    0    0  501    0  0.00000000000E+00  0.00000000000E+00 -0.82768968004E+03  0.82768968005E+03  0.50400001928E-02 0.  1.
    10030    2    1    2    0    0  0.00000000000E+00  0.00000000000E+00 -0.68154531366E+03  0.97383404652E+03  0.69559236309E+03 0.  0.
        2    1    3    3  502    0  0.14943173799E+03 -0.26992826294E+03 -0.11602436759E+03  0.32962518916E+03  0.25500000920E-02 0. -1.
       -2    1    3    3    0  502 -0.14943173799E+03  0.26992826294E+03 -0.56552094606E+03  0.64420885735E+03  0.25500000920E-02 0.  1.
</event>
<event>
 5   0  0.1197259E-02  0.7075004E+03  0.7818609E-02  0.9704491E-01
        1   -1    0    0  501    0  0.00000000000E+00  0.00000000000E+00  0.39305507179E+03  0.39305507182E+03  0.50400001928E-02 0. -1.
       -1   -1    0    0    0  501  0.00000000000E+00  0.00000000000E+00 -0.31837577283E+03  0.31837577287E+03  0.50400001928E-02 0.  1.
    10030    2    1    2    0    0  0.00000000000E+00  0.00000000000E+00  0.74679298964E+02  0.71143084469E+03  0.70750042338E+03 0.  0.
        3    1    3    3  502    0  0.79710234397E+02  0.13990672710E+03 -0.27938888232E+03  0.32246824886E+03  0.10100000352E+00 0.  1.
       -3    1    3    3    0  502 -0.79710234397E+02 -0.13990672710E+03  0.35406818129E+03  0.38896259583E+03  0.10100000352E+00 0. -1.
</event>
<event>
 5   0  0.1909053E-02  0.6901280E+03  0.7818609E-02  0.9734265E-01
       -2   -1    0    0    0  501  0.00000000000E+00  0.00000000000E+00  0.11116832275E+03  0.11116832278E+03  0.25500000920E-02 0. -1.
        2   -1    0    0  501    0  0.00000000000E+00  0.00000000000E+00 -0.10710711173E+04  0.10710711173E+04  0.25500000920E-02 0.  1.
    10030    2    1    2    0    0  0.00000000000E+00  0.00000000000E+00 -0.95990279460E+03  0.11822394401E+04  0.69012804515E+03 0.  0.
        1    1    3    3  502    0 -0.18815529841E+03 -0.14080849082E+03 -0.47117469713E+02  0.23968626032E+03  0.50400001928E-02 0. -1.
       -1    1    3    3    0  502  0.18815529841E+03  0.14080849082E+03 -0.91278532488E+03  0.94255317980E+03  0.50400001928E-02 0.  1.
</event>
<event>
 5   0  0.1226303E-02  0.6949487E+03  0.7818609E-02  0.9725910E-01
       -1   -1    0    0    0  501  0.00000000000E+00  0.00000000000E+00  0.13061230208E+03  0.13061230218E+03  0.50400001928E-02 0. -1.
        1   -1    0    0  501    0  0.00000000000E+00  0.00000000000E+00 -0.92440319135E+03  0.92440319136E+03  0.50400001928E-02 0.  1.
    10030    2    1    2    0    0  0.00000000000E+00  0.00000000000E+00 -0.79379088926E+03  0.10550154935E+04  0.69494871447E+03 0.  0.
        4    1    3    3  502    0  0.21984079395E+03 -0.24854184104E+03 -0.55344441495E+03  0.64529478130E+03  0.12699999809E+01 0.  1.
       -4    1    3    3    0  502 -0.21984079395E+03  0.24854184104E+03 -0.24034647431E+03  0.40972071225E+03  0.12699999809E+01 0. -1.
</event>
<event>
 5   0  0.1226303E-02  0.6993894E+03  0.7818609E-02  0.9718277E-01
        1   -1    0    0  501    0  0.00000000000E+00  0.00000000000E+00  0.20989564141E+04  0.20989564141E+04  0.50400001928E-02 0.  1.
       -1   -1    0    0    0  501  0.00000000000E+00  0.00000000000E+00 -0.58260556134E+02  0.58260556352E+02  0.50400001928E-02 0. -1.
    10030    2    1    2    0    0  0.00000000000E+00  0.00000000000E+00  0.20406958580E+04  0.21572169705E+04  0.69938935716E+03 0.  0.
        4    1    3    3  502    0 -0.28280796463E+03  0.56735603236E+02  0.41055477575E+03  0.50175303718E+03  0.12699999809E+01 0. -1.
       -4    1    3    3    0  502  0.28280796463E+03 -0.56735603236E+02  0.16301410822E+04  0.16554639333E+04  0.12699999809E+01 0.  1.
</event>
<event>
 5   0  0.1237686E-02  0.7148472E+03  0.7818609E-02  0.9692173E-01
        1   -1    0    0  501    0  0.00000000000E+00  0.00000000000E+00  0.36271986803E+03  0.36271986806E+03  0.50400001928E-02 0. -1.
       -1   -1    0    0    0  501  0.00000000000E+00  0.00000000000E+00 -0.35220462801E+03  0.35220462805E+03  0.50400001928E-02 0.  1.
    10030    2    1    2    0    0  0.00000000000E+00  0.00000000000E+00  0.10515240012E+02  0.71492449611E+03  0.71484716189E+03 0.  0.
        5    1    3    3  502    0  0.16537289960E+03  0.30460383500E+03 -0.81917364951E+02  0.35618006246E+03  0.46999998093E+01 0. -1.
       -5    1    3    3    0  502 -0.16537289960E+03 -0.30460383500E+03  0.92432604963E+02  0.35874443365E+03  0.46999998093E+01 0.  1.
</event>
<event>
 5   0  0.2026361E-02  0.7023201E+03  0.7818609E-02  0.9713273E-01
        2   -1    0    0  501    0  0.00000000000E+00  0.00000000000E+00  0.98634650870E+03  0.98634650870E+03  0.25500000920E-02 0.  1.
       -2   -1    0    0    0  501  0.00000000000E+00  0.00000000000E+00 -0.12502032832E+03  0.12502032835E+03  0.25500000920E-02 0. -1.
    10030    2    1    2    0    0  0.00000000000E+00  0.00000000000E+00  0.86132618038E+03  0.11113668371E+04  0.70232005346E+03 0.  0.
        2    1    3    3  502    0 -0.32056491361E+02  0.21239015686E+03 -0.89432698091E+01  0.21498181190E+03  0.25500000920E-02 0. -1.
       -2    1    3    3    0  502  0.32056491361E+02 -0.21239015686E+03  0.87026945019E+03  0.89638502515E+03  0.25500000920E-02 0.  1.
</event>
<event>
 5   0  0.2006362E-02  0.6987550E+03  0.7818609E-02  0.9719364E-01
        2   -1    0    0  501    0  0.00000000000E+00  0.00000000000E+00  0.18780580803E+04  0.18780580803E+04  0.25500000920E-02 0. -1.
       -2   -1    0    0    0  501  0.00000000000E+00  0.00000000000E+00 -0.64995139731E+02  0.64995139781E+02  0.25500000920E-02 0.  1.
    10030    2    1    2    0    0  0.00000000000E+00  0.00000000000E+00  0.18130629406E+04  0.19430532201E+04  0.69875502833E+03 0.  0.
        4    1    3    3  502    0 -0.38191271576E+02  0.22958334209E+03  0.16311037009E+04  0.16476249513E+04  0.12699999809E+01 0. -1.
       -4    1    3    3    0  502  0.38191271576E+02 -0.22958334209E+03  0.18195923966E+03  0.29542826877E+03  0.12699999809E+01 0.  1.
</event>
<event>
 5   0  0.1973067E-02  0.6977557E+03  0.7818609E-02  0.9721078E-01
       -2   -1    0    0    0  501  0.00000000000E+00  0.00000000000E+00  0.94881676173E+02  0.94881676207E+02  0.25500000920E-02 0.  1.
        2   -1    0    0  501    0  0.00000000000E+00  0.00000000000E+00 -0.12828162600E+04  0.12828162600E+04  0.25500000920E-02 0. -1.
    10030    2    1    2    0    0  0.00000000000E+00  0.00000000000E+00 -0.11879345838E+04  0.13776979362E+04  0.69775570795E+03 0.  0.
        5    1    3    3  502    0 -0.33044657591E+03  0.10945169355E+03 -0.63895117941E+03  0.72763679980E+03  0.46999998093E+01 0.  1.
       -5    1    3    3    0  502  0.33044657591E+03 -0.10945169355E+03 -0.54898340442E+03  0.65006113641E+03  0.46999998093E+01 0. -1.
</event>
<event>
 5   0  0.1948138E-02  0.6711873E+03  0.7818609E-02  0.9767815E-01
       -2   -1    0    0    0  501  0.00000000000E+00  0.00000000000E+00  0.14239840825E+03  0.14239840827E+03  0.25500000920E-02 0. -1.
        2   -1    0    0  501    0  0.00000000000E+00  0.00000000000E+00 -0.79090145850E+03  0.79090145850E+03  0.25500000920E-02 0.  1.
    10030    2    1    2    0    0  0.00000000000E+00  0.00000000000E+00 -0.64850305025E+03  0.93329986678E+03  0.67118733237E+03 0.  0.
        3    1    3    3  502    0  0.82878251863E+02 -0.22848173855E+03 -0.64603131813E+03  0.69023849769E+03  0.10100000352E+00 0.  1.
       -3    1    3    3    0  502 -0.82878251863E+02  0.22848173855E+03 -0.24717321194E+01  0.24306136909E+03  0.10100000352E+00 0. -1.
</event>
<event>
 5   0  0.1973067E-02  0.7003686E+03  0.7818609E-02  0.9716602E-01
       -2   -1    0    0    0  501  0.00000000000E+00  0.00000000000E+00  0.28289178873E+03  0.28289178874E+03  0.25500000920E-02 0.  1.
        2   -1    0    0  501    0  0.00000000000E+00  0.00000000000E+00 -0.43348395290E+03  0.43348395291E+03  0.25500000920E-02 0. -1.
    10030    2    1    2    0    0  0.00000000000E+00  0.00000000000E+00 -0.15059216417E+03  0.71637574165E+03  0.70036861960E+03 0.  0.
        5    1    3    3  502    0 -0.26029739731E+03  0.13366540980E+03  0.12141625882E+03  0.31683619542E+03  0.46999998093E+01 0.  1.
       -5    1    3    3    0  502  0.26029739731E+03 -0.13366540980E+03 -0.27200842299E+03  0.39953954623E+03  0.46999998093E+01 0. -1.
</event>
<event>
 5   0  0.2026361E-02  0.6901146E+03  0.7818609E-02  0.9734288E-01
        2   -1    0    0  501    0  0.00000000000E+00  0.00000000000E+00  0.53283719105E+03  0.53283719106E+03  0.25500000920E-02 0. -1.
       -2   -1    0    0    0  501  0.00000000000E+00  0.00000000000E+00 -0.22345387831E+03  0.22345387833E+03  0.25500000920E-02 0.  1.
    10030    2    1    2    0    0  0.00000000000E+00  0.00000000000E+00  0.30938331274E+03  0.75629106938E+03  0.69011459007E+03 0.  0.
        2    1    3    3  502    0  0.49044336411E+02  0.31359453638E+03  0.30301268213E+03  0.43882065325E+03  0.25500000920E-02 0. -1.
       -2    1    3    3    0  502 -0.49044336411E+02 -0.31359453638E+03  0.63706306051E+01  0.31747041613E+03  0.25500000920E-02 0.  1.
</event>
<event>
 5   0  0.1257442E-02  0.6996759E+03  0.7818609E-02  0.9717787E-01
       -1   -1    0    0    0  501  0.00000000000E+00  0.00000000000E+00  0.46041187722E+03  0.46041187725E+03  0.50400001928E-02 0.  1.
        1   -1    0    0  501    0  0.00000000000E+00  0.00000000000E+00 -0.26581981079E+03  0.26581981084E+03  0.50400001928E-02 0. -1.
    10030    2    1    2    0    0  0.00000000000E+00  0.00000000000E+00  0.19459206644E+03  0.72623168809E+03  0.69967591960E+03 0.  0.
        1    1    3    3  502    0  0.21909948587E+03 -0.13848814206E+03  0.34116682929E+03  0.42846044815E+03  0.50400001928E-02 0.  1.
       -1    1    3    3    0  502 -0.21909948587E+03  0.13848814206E+03 -0.14657476285E+03  0.29777123993E+03  0.50400001928E-02 0. -1.
</event>
<event>
 5   0  0.1226303E-02  0.6978601E+03  0.7818609E-02  0.9720899E-01
       -1   -1    0    0    0  501  0.00000000000E+00  0.00000000000E+00  0.43298203669E+03  0.43298203672E+03  0.50400001928E-02 0.  1.
        1   -1    0    0  501    0  0.00000000000E+00  0.00000000000E+00 -0.28119455416E+03  0.28119455421E+03  0.50400001928E-02 0. -1.
    10030    2    1    2    0    0  0.00000000000E+00  0.00000000000E+00  0.15178748253E+03  0.71417659092E+03  0.69786013152E+03 0.  0.
        4    1    3    3  502    0  0.19605326597E+03 -0.25218196194E+03 -0.67810019872E+02  0.32654622448E+03  0.12699999809E+01 0. -1.
       -4    1    3    3    0  502 -0.19605326597E+03  0.25218196194E+03  0.21959750240E+03  0.38763036644E+03  0.12699999809E+01 0.  1.
</event>
<event>
 5   0  0.2006362E-02  0.7019677E+03  0.7818609E-02  0.9713873E-01
       -2   -1    0    0    0  501  0.00000000000E+00  0.00000000000E+00  0.14753190504E+03  0.14753190506E+03  0.25500000920E-02 0. -1.
        2   -1    0    0  501    0  0.00000000000E+00  0.00000000000E+00 -0.83500346478E+03  0.83500346478E+03  0.25500000920E-02 0.  1.
    10030    2    1    2    0    0  0.00000000000E+00  0.00000000000E+00 -0.68747155974E+03  0.98253536985E+03  0.70196766845E+03 0.  0.
        4    1    3    3  502    0 -0.49605683381E+02  0.27721697137E+03 -0.50541953128E+02  0.28612248246E+03  0.12699999809E+01 0. -1.
       -4    1    3    3    0  502  0.49605683381E+02 -0.27721697137E+03 -0.63692960661E+03  0.69641288739E+03  0.12699999809E+01 0.  1.
</event>
<event>
 5   0  0.2006362E-02  0.6846403E+03  0.7818609E-02  0.9743866E-01
        2   -1    0    0  501    0  0.00000000000E+00  0.00000000000E+00  0.42915131806E+03  0.42915131807E+03  0.25500000920E-02 0.  1.
       -2   -1    0    0    0  501  0.00000000000E+00  0.00000000000E+00 -0.27305769293E+03  0.27305769294E+03  0.25500000920E-02 0. -1.
    10030    2    1    2    0    0  0.00000000000E+00  0.00000000000E+00  0.15609362513E+03  0.70220901101E+03  0.68464025249E+03 0.  0.
        4    1    3    3  502    0  0.29556375546E+03 -0.59795944682E+01 -0.98973434198E+02  0.31175477970E+03  0.12699999809E+01 0. -1.
       -4    1    3    3    0  502 -0.29556375546E+03  0.59795944682E+01  0.25506705933E+03  0.39045423130E+03  0.12699999809E+01 0.  1.
</event>
<event>
 5   0  0.1223742E-02  0.6888399E+03  0.7818609E-02  0.9736510E-01
        1   -1    0    0  501    0  0.00000000000E+00  0.00000000000E+00  0.23630929298E+04  0.23630929298E+04  0.50400001928E-02 0.  1.
       -1   -1    0    0    0  501  0.00000000000E+00  0.00000000000E+00 -0.50199087028E+02  0.50199087281E+02  0.50400001928E-02 0. -1.
    10030    2    1    2    0    0  0.00000000000E+00  0.00000000000E+00  0.23128938428E+04  0.24132920171E+04  0.68883991740E+03 0.  0.
        2    1    3    3  502    0  0.13296206501E+03  0.31515904013E+03  0.12974991485E+04  0.13418301576E+04  0.25500000920E-02 0.  1.
       -2    1    3    3    0  502 -0.13296206501E+03 -0.31515904013E+03  0.10153946942E+04  0.10714618595E+04  0.25500000920E-02 0. -1.
</event>
<event>
 5   0  0.7947250E-03  0.7113214E+03  0.7818609E-02  0.9698065E-01
       -4   -1    0    0    0  501  0.00000000000E+00  0.00000000000E+00  0.31433860498E+03  0.31434117052E+03  0.12699999809E+01 0. -1.
        4   -1    0    0  501    0  0.00000000000E+00  0.00000000000E+00 -0.40240968359E+03  0.40241168764E+03  0.12699999809E+01 0.  1.
    10030    2    1    2    0    0  0.00000000000E+00  0.00000000000E+00 -0.88071078608E+02  0.71675285816E+03  0.71132140752E+03 0.  0.
        4    1    3    3  502    0 -0.20606196824E+03 -0.69358832555E+02 -0.32764649551E+03  0.39322515348E+03  0.12699999809E+01 0.  1.
       -4    1    3    3    0  502  0.20606196824E+03  0.69358832555E+02  0.23957541690E+03  0.32352770468E+03  0.12699999809E+01 0. -1.
</event>
<event>
 5   0  0.2026361E-02  0.7036389E+03  0.7818609E-02  0.9711029E-01
       -2   -1    0    0    0  501  0.00000000000E+00  0.00000000000E+00  0.13796171008E+03  0.13796171010E+03  0.25500000920E-02 0. -1.
        2   -1    0    0  501    0  0.00000000000E+00  0.00000000000E+00 -0.89718325833E+03  0.89718325834E+03  0.25500000920E-02 0.  1.
    10030    2    1    2    0    0  0.00000000000E+00  0.00000000000E+00 -0.75922154826E+03  0.10351449684E+04  0.70363893180E+03 0.  0.
        2    1    3    3  502    0 -0.19097461873E+03 -0.16755025496E+03 -0.21570808804E+02  0.25496998399E+03  0.25500000920E-02 0. -1.
       -2    1    3    3    0  502  0.19097461873E+03  0.16755025496E+03 -0.73765073945E+03  0.78017498445E+03  0.25500000920E-02 0.  1.
</event>
<event>
 5   0  0.1948138E-02  0.6979229E+03  0.7818609E-02  0.9720791E-01
       -2   -1    0    0    0  501  0.00000000000E+00  0.00000000000E+00  0.67305036230E+02  0.67305036278E+02  0.25500000920E-02 0.  1.
        2   -1    0    0  501    0  0.00000000000E+00  0.00000000000E+00 -0.18092865919E+04  0.18092865919E+04  0.25500000920E-02 0. -1.
    10030    2    1    2    0    0  0.00000000000E+00  0.00000000000E+00 -0.17419815557E+04  0.18765916282E+04  0.69792291742E+03 0.  0.
        3    1    3    3  502    0  0.11001817566E+02 -0.32113879307E+03 -0.12369368584E+04  0.12779921620E+04  0.10100000352E+00 0. -1.
       -3    1    3    3    0  502 -0.11001817566E+02  0.32113879307E+03 -0.50504469729E+03  0.59859946614E+03  0.10100000352E+00 0.  1.
</event>
<event>
 5   0  0.7947250E-03  0.7016400E+03  0.7818609E-02  0.9714432E-01
       -3   -1    0    0    0  501  0.00000000000E+00  0.00000000000E+00  0.79053739016E+02  0.79053803535E+02  0.10100000352E+00 0.  1.
        3   -1    0    0  501    0  0.00000000000E+00  0.00000000000E+00 -0.15568475413E+04  0.15568475446E+04  0.10100000352E+00 0. -1.
    10030    2    1    2    0    0  0.00000000000E+00  0.00000000000E+00 -0.14777938023E+04  0.16359013481E+04  0.70164000648E+03 0.  0.
        1    1    3    3  502    0  0.32883632735E+03  0.11804435590E+02 -0.45523372403E+03  0.56170314082E+03  0.50400001928E-02 0.  1.
       -1    1    3    3    0  502 -0.32883632735E+03 -0.11804435590E+02 -0.10225600783E+04  0.10741982073E+04  0.50400001928E-02 0. -1.
</event>
<event>
 5   0  0.2026361E-02  0.6976379E+03  0.7818609E-02  0.9721280E-01
       -2   -1    0    0    0  501  0.00000000000E+00  0.00000000000E+00  0.51560603021E+03  0.51560603022E+03  0.25500000920E-02 0.  1.
        2   -1    0    0  501    0  0.00000000000E+00  0.00000000000E+00 -0.23598379462E+03  0.23598379464E+03  0.25500000920E-02 0. -1.
    10030    2    1    2    0    0  0.00000000000E+00  0.00000000000E+00  0.27962223559E+03  0.75158982486E+03  0.69763792199E+03 0.  0.
        2    1    3    3  502    0  0.45312809295E+02 -0.32781995612E+03  0.25858941772E+03  0.41998531079E+03  0.25500000920E-02 0.  1.
       -2    1    3    3    0  502 -0.45312809295E+02  0.32781995612E+03  0.21032817862E+02  0.33160451407E+03  0.25500000920E-02 0. -1.
</event>
<event>
 5   0  0.1909053E-02  0.6987537E+03  0.7818609E-02  0.9719366E-01
       -2   -1    0    0    0  501  0.00000000000E+00  0.00000000000E+00  0.12564936714E+03  0.12564936717E+03  0.25500000920E-02 0. -1.
        2   -1    0    0  501    0  0.00000000000E+00  0.00000000000E+00 -0.97146680296E+03  0.97146680297E+03  0.25500000920E-02 0.  1.
    10030    2    1    2    0    0  0.00000000000E+00  0.00000000000E+00 -0.84581743582E+03  0.10971161701E+04  0.69875371629E+03 0.  0.
        1    1    3    3  502    0 -0.32780915893E+03  0.12002044901E+03 -0.44513754148E+03  0.56569530997E+03  0.50400001928E-02 0. -1.
       -1    1    3    3    0  502  0.32780915893E+03 -0.12002044901E+03 -0.40067989435E+03  0.53142086017E+03  0.50400001928E-02 0.  1.
</event>
<event>
 5   0  0.1197259E-02  0.7263918E+03  0.7818609E-02  0.9673134E-01
       -1   -1    0    0    0  501  0.00000000000E+00  0.00000000000E+00  0.25167811065E+03  0.25167811070E+03  0.50400001928E-02 0. -1.
        1   -1    0    0  501    0  0.00000000000E+00  0.00000000000E+00 -0.52412681228E+03  0.52412681230E+03  0.50400001928E-02 0.  1.
    10030    2    1    2    0    0  0.00000000000E+00  0.00000000000E+00 -0.27244870162E+03  0.77580492301E+03  0.72639175625E+03 0.  0.
        3    1    3    3  502    0 -0.95047275647E+02 -0.60501828575E+02  0.23254117816E+03  0.25839865637E+03  0.10100000352E+00 0. -1.
       -3    1    3    3    0  502  0.95047275647E+02  0.60501828575E+02 -0.50498987979E+03  0.51740626664E+03  0.10100000352E+00 0.  1.
</event>
<event>
 5   0  0.1973067E-02  0.6959820E+03  0.7818609E-02  0.9724128E-01
       -2   -1    0    0    0  501  0.00000000000E+00  0.00000000000E+00  0.92038651701E+02  0.92038651736E+02  0.25500000920E-02 0.  1.
        2   -1    0    0  501    0  0.00000000000E+00  0.00000000000E+00 -0.13157268727E+04  0.13157268728E+04  0.25500000920E-02 0. -1.
    10030    2    1    2    0    0  0.00000000000E+00  0.00000000000E+00 -0.12236882210E+04  0.14077655245E+04  0.69598197506E+03 0.  0.
        5    1    3    3  502    0  0.32540046331E+02 -0.33492124405E+03 -0.43269438002E+03  0.54815838115E+03  0.46999998093E+01 0.  1.
       -5    1    3    3    0  502 -0.32540046331E+02  0.33492124405E+03 -0.79099384103E+03  0.85960714333E+03  0.46999998093E+01 0. -1.
</event>
<event>
 5   0  0.2006362E-02  0.7086771E+03  0.7818609E-02  0.9702507E-01
        2   -1    0    0  501    0  0.00000000000E+00  0.00000000000E+00  0.31088290733E+03  0.31088290735E+03  0.25500000920E-02 0. -1.
       -2   -1    0    0    0  501  0.00000000000E+00  0.00000000000E+00 -0.40386853119E+03  0.40386853119E+03  0.25500000920E-02 0.  1.
    10030    2    1    2    0    0  0.00000000000E+00  0.00000000000E+00 -0.92985623850E+02  0.71475143854E+03  0.70867714275E+03 0.  0.
        4    1    3    3  502    0  0.84238555053E+02  0.15997715751E+03 -0.35384304359E+03  0.39736046290E+03  0.12699999809E+01 0.  1.
       -4    1    3    3    0  502 -0.84238555053E+02 -0.15997715751E+03  0.26085741974E+03  0.31739097564E+03  0.12699999809E+01 0. -1.
</event>
<event>
 5   0  0.2026361E-02  0.6959908E+03  0.7818609E-02  0.9724113E-01
       -2   -1    0    0    0  501  0.00000000000E+00  0.00000000000E+00  0.12712800290E+03  0.12712800292E+03  0.25500000920E-02 0. -1.
        2   -1    0    0  501    0  0.00000000000E+00  0.00000000000E+00 -0.95258951971E+03  0.95258951971E+03  0.25500000920E-02 0.  1.
    10030    2    1    2    0    0  0.00000000000E+00  0.00000000000E+00 -0.82546151681E+03  0.10797175226E+04  0.69599081384E+03 0.  0.
        2    1    3    3  502    0  0.69459737274E+02 -0.16541592178E+03 -0.87531521381E+03  0.89351206249E+03  0.25500000920E-02 0.  1.
       -2    1    3    3    0  502 -0.69459737274E+02  0.16541592178E+03  0.49853696997E+02  0.18620546015E+03  0.25500000920E-02 0. -1.
</event>
<event>
 5   0  0.1197259E-02  0.6746400E+03  0.7818609E-02  0.9761612E-01
       -1   -1    0    0    0  501  0.00000000000E+00  0.00000000000E+00  0.23494705349E+03  0.23494705355E+03  0.50400001928E-02 0. -1.
        1   -1    0    0  501    0  0.00000000000E+00  0.00000000000E+00 -0.48429967349E+03  0.48429967352E+03  0.50400001928E-02 0.  1.
    10030    2    1    2    0    0  0.00000000000E+00  0.00000000000E+00 -0.24935262000E+03  0.71924672706E+03  0.67463999681E+03 0.  0.
        3    1    3    3  502    0 -0.13656672869E+01 -0.58795198871E+02  0.22943908319E+03  0.23685658858E+03  0.10100000352E+00 0. -1.
       -3    1    3    3    0  502  0.13656672869E+01  0.58795198871E+02 -0.47879170319E+03  0.48239013848E+03  0.10100000352E+00 0.  1.
</event>
<event>
 5   0  0.1237686E-02  0.7083484E+03  0.7818609E-02  0.9703061E-01
        1   -1    0    0  501    0  0.00000000000E+00  0.00000000000E+00  0.37462707230E+03  0.37462707233E+03  0.50400001928E-02 0.  1.
       -1   -1    0    0    0  501  0.00000000000E+00  0.00000000000E+00 -0.33483797648E+03  0.33483797651E+03  0.50400001928E-02 0. -1.
    10030    2    1    2    0    0  0.00000000000E+00  0.00000000000E+00  0.39789095822E+02  0.70946504885E+03  0.70834841949E+03 0.  0.
        5    1    3    3  502    0 -0.72716027415E+02 -0.25944881174E+03 -0.21028499525E+03  0.34182331076E+03  0.46999998093E+01 0. -1.
       -5    1    3    3    0  502  0.72716027415E+02  0.25944881174E+03  0.25007409107E+03  0.36764173808E+03  0.46999998093E+01 0.  1.
</event>
<event>
 5   0  0.1909053E-02  0.6975389E+03  0.7818609E-02  0.9721450E-01
        2   -1    0    0  501    0  0.00000000000E+00  0.00000000000E+00  0.63719638560E+03  0.63719638560E+03  0.25500000920E-02 0. -1.
       -2   -1    0    0    0  501  0.00000000000E+00  0.00000000000E+00 -0.19089894708E+03  0.19089894710E+03  0.25500000920E-02 0.  1.
    10030    2    1    2    0    0  0.00000000000E+00  0.00000000000E+00  0.44629743851E+03  0.82809533270E+03  0.69753887090E+03 0.  0.
        1    1    3    3  502    0 -0.21455289431E+03 -0.26160004340E+03  0.12260614885E+03  0.35986079938E+03  0.50400001928E-02 0. -1.
       -1    1    3    3    0  502  0.21455289431E+03  0.26160004340E+03  0.32369128966E+03  0.46823453332E+03  0.50400001928E-02 0.  1.
</event>
<event>
 5   0  0.1973067E-02  0.7100969E+03  0.7818609E-02  0.9700119E-01
        2   -1    0    0  501    0  0.00000000000E+00  0.00000000000E+00  0.91876337398E+03  0.91876337398E+03  0.25500000920E-02 0. -1.
       -2   -1    0    0    0  501  0.00000000000E+00  0.00000000000E+00 -0.13720551821E+03  0.13720551823E+03  0.25500000920E-02 0.  1.
    10030    2    1    2    0    0  0.00000000000E+00  0.00000000000E+00  0.78155785577E+03  0.10559688922E+04  0.71009690846E+03 0.  0.
        5    1    3    3  502    0  0.26795543156E+03  0.98013631568E+01  0.44762132257E+02  0.27188585566E+03  0.46999998093E+01 0.  1.
       -5    1    3    3    0  502 -0.26795543156E+03 -0.98013631568E+01  0.73679572352E+03  0.78408303656E+03  0.46999998093E+01 0. -1.
</event>
<event>
 5   0  0.1973067E-02  0.6999981E+03  0.7818609E-02  0.9717235E-01
        2   -1    0    0  501    0  0.00000000000E+00  0.00000000000E+00  0.66736231299E+03  0.66736231300E+03  0.25500000920E-02 0.  1.
       -2   -1    0    0    0  501  0.00000000000E+00  0.00000000000E+00 -0.18355747069E+03  0.18355747071E+03  0.25500000920E-02 0. -1.
    10030    2    1    2    0    0  0.00000000000E+00  0.00000000000E+00  0.48380484230E+03  0.85091978371E+03  0.69999810919E+03 0.  0.
        5    1    3    3  502    0  0.18937182197E+03  0.20729666724E+03 -0.12049967004E+02  0.28107096418E+03  0.46999998093E+01 0. -1.
       -5    1    3    3    0  502 -0.18937182197E+03 -0.20729666724E+03  0.49585480931E+03  0.56984881953E+03  0.46999998093E+01 0.  1.
</event>
<event>
 5   0  0.1226303E-02  0.7049321E+03  0.7818609E-02  0.9708835E-01
       -1   -1    0    0    0  501  0.00000000000E+00  0.00000000000E+00  0.21476033044E+03  0.21476033050E+03  0.50400001928E-02 0. -1.
        1   -1    0    0  501    0  0.00000000000E+00  0.00000000000E+00 -0.57846958808E+03  0.57846958810E+03  0.50400001928E-02 0.  1.
    10030    2    1    2    0    0  0.00000000000E+00  0.00000000000E+00 -0.36370925764E+03  0.79322991860E+03  0.70493210997E+03 0.  0.
        4    1    3    3  502    0 -0.18631659154E+03  0.26067039358E+03 -0.34710959588E+03  0.47238714084E+03  0.12699999809E+01 0. -1.
       -4    1    3    3    0  502  0.18631659154E+03 -0.26067039358E+03 -0.16599661751E+02  0.32084277776E+03  0.12699999809E+01 0.  1.
</event>
<event>
 5   0  0.1226303E-02  0.7048735E+03  0.7818609E-02  0.9708934E-01
        1   -1    0    0  501    0  0.00000000000E+00  0.00000000000E+00  0.35300657959E+03  0.35300657962E+03  0.50400001928E-02 0.  1.
       -1   -1    0    0    0  501  0.00000000000E+00  0.00000000000E+00 -0.35186783281E+03  0.35186783285E+03  0.50400001928E-02 0. -1.
    10030    2    1    2    0    0  0.00000000000E+00  0.00000000000E+00  0.11387467743E+01  0.70487441247E+03  0.70487349263E+03 0.  0.
        4    1    3    3  502    0  0.81589976019E+02  0.21767295952E+03  0.26546895607E+03  0.35286515984E+03  0.12699999809E+01 0.  1.
       -4    1    3    3    0  502 -0.81589976019E+02 -0.21767295952E+03 -0.26433020930E+03  0.35200925263E+03  0.12699999809E+01 0. -1.
</event>
<event>
 5   0  0.1223742E-02  0.6945864E+03  0.7818609E-02  0.9726535E-01
       -1   -1    0    0    0  501  0.00000000000E+00  0.00000000000E+00  0.95547705730E+02  0.95547705863E+02  0.50400001928E-02 0.  1.
        1   -1    0    0  501    0  0.00000000000E+00  0.00000000000E+00 -0.12623281527E+04  0.12623281527E+04  0.50400001928E-02 0. -1.
    10030    2    1    2    0    0  0.00000000000E+00  0.00000000000E+00 -0.11667804470E+04  0.13578758586E+04  0.69458637754E+03 0.  0.
        2    1    3    3  502    0  0.62976658440E+02 -0.10874082121E+03  0.49545907891E+02  0.13507561845E+03  0.25500000920E-02 0.  1.
       -2    1    3    3    0  502 -0.62976658440E+02  0.10874082121E+03 -0.12163263549E+04  0.12228002401E+04  0.25500000920E-02 0. -1.
</event>
<event>
 5   0  0.1909053E-02  0.6963689E+03  0.7818609E-02  0.9723462E-01
       -2   -1    0    0    0  501  0.00000000000E+00  0.00000000000E+00  0.46853958609E+02  0.46853958678E+02  0.25500000920E-02 0. -1.
        2   -1    0    0  501    0  0.00000000000E+00  0.00000000000E+00 -0.25874530701E+04  0.25874530701E+04  0.25500000920E-02 0.  1.
    10030    2    1    2    0    0  0.00000000000E+00  0.00000000000E+00 -0.25405991115E+04  0.26343070288E+04  0.69636892275E+03 0.  0.
        1    1    3    3  502    0  0.50803235369E+02 -0.33441583711E+03 -0.95795098140E+03  0.10159158448E+04  0.50400001928E-02 0. -1.
       -1    1    3    3    0  502 -0.50803235369E+02  0.33441583711E+03 -0.15826481301E+04  0.16183911841E+04  0.50400001928E-02 0.  1.
</event>
<event>
 5   0  0.1973067E-02  0.6998696E+03  0.7818609E-02  0.9717455E-01
       -2   -1    0    0    0  501  0.00000000000E+00  0.00000000000E+00  0.24560774269E+03  0.24560774270E+03  0.25500000920E-02 0.  1.
        2   -1    0    0  501    0  0.00000000000E+00  0.00000000000E+00 -0.49857700703E+03  0.49857700704E+03  0.25500000920E-02 0. -1.
    10030    2    1    2    0    0  0.00000000000E+00  0.00000000000E+00 -0.25296926435E+03  0.74418474974E+03  0.69986962574E+03 0.  0.
        5    1    3    3  502    0 -0.11586755243E+03 -0.32404485839E+03 -0.59218260719E+02  0.34922664898E+03  0.46999998093E+01 0. -1.
       -5    1    3    3    0  502  0.11586755243E+03  0.32404485839E+03 -0.19375100363E+03  0.39495810076E+03  0.46999998093E+01 0.  1.
</event>
<event>
 5   0  0.1948138E-02  0.7036599E+03  0.7818609E-02  0.9710994E-01
       -2   -1    0    0    0  501  0.00000000000E+00  0.00000000000E+00  0.10292499469E+03  0.10292499472E+03  0.25500000920E-02 0. -1.
        2   -1    0    0  501    0  0.00000000000E+00  0.00000000000E+00 -0.12026650748E+04  0.12026650748E+04  0.25500000920E-02 0.  1.
    10030    2    1    2    0    0  0.00000000000E+00  0.00000000000E+00 -0.10997400801E+04  0.13055900695E+04  0.70365985095E+03 0.  0.
        3    1    3    3  502    0  0.45444576868E+02  0.24192770487E+03 -0.83459390687E+02  0.25992249623E+03  0.10100000352E+00 0. -1.
       -3    1    3    3    0  502 -0.45444576868E+02 -0.24192770487E+03 -0.10162806894E+04  0.10456675733E+04  0.10100000352E+00 0.  1.
</event>
<event>
 5   0  0.1226303E-02  0.6975647E+03  0.7818609E-02  0.9721406E-01
        1   -1    0    0  501    0  0.00000000000E+00  0.00000000000E+00  0.31736460924E+03  0.31736460928E+03  0.50400001928E-02 0.  1.
       -1   -1    0    0    0  501  0.00000000000E+00  0.00000000000E+00 -0.38331032538E+03  0.38331032542E+03  0.50400001928E-02 0. -1.
    10030    2    1    2    0    0  0.00000000000E+00  0.00000000000E+00 -0.65945716140E+02  0.70067493470E+03  0.69756471143E+03 0.  0.
        4    1    3    3  502    0  0.32059399963E+03  0.91953969058E+02 -0.13546443691E+03  0.35998371018E+03  0.12699999809E+01 0.  1.
       -4    1    3    3    0  502 -0.32059399963E+03 -0.91953969058E+02  0.69518720769E+02  0.34069122452E+03  0.12699999809E+01 0. -1.
</event>
<event>
 5   0  0.1909053E-02  0.7062545E+03  0.7818609E-02  0.9706596E-01
       -2   -1    0    0    0  501  0.00000000000E+00  0.00000000000E+00  0.16429201722E+03  0.16429201724E+03  0.25500000920E-02 0. -1.
        2   -1    0    0  501    0  0.00000000000E+00  0.00000000000E+00 -0.75900739411E+03  0.75900739412E+03  0.25500000920E-02 0.  1.
    10030    2    1    2    0    0  0.00000000000E+00  0.00000000000E+00 -0.59471537690E+03  0.92329941136E+03  0.70625450335E+03 0.  0.
        1    1    3    3  502    0 -0.15596958230E+03  0.31294370987E+02 -0.70951142815E+03  0.72712606539E+03  0.50400001928E-02 0.  1.
       -1    1    3    3    0  502  0.15596958230E+03 -0.31294370987E+02  0.11479605126E+03  0.19617334597E+03  0.50400001928E-02 0. -1.
</event>
<event>
 5   0  0.1226303E-02  0.6619109E+03  0.7818609E-02  0.9784682E-01
       -1   -1    0    0    0  501  0.00000000000E+00  0.00000000000E+00  0.31529865896E+03  0.31529865900E+03  0.50400001928E-02 0. -1.
        1   -1    0    0  501    0  0.00000000000E+00  0.00000000000E+00 -0.34738973954E+03  0.34738973957E+03  0.50400001928E-02 0.  1.
    10030    2    1    2    0    0  0.00000000000E+00  0.00000000000E+00 -0.32091080578E+02  0.66268839857E+03  0.66191092765E+03 0.  0.
        4    1    3    3  502    0  0.13058748318E+03 -0.52229900073E+01  0.28836675094E+03  0.31660285269E+03  0.12699999809E+01 0. -1.
       -4    1    3    3    0  502 -0.13058748318E+03  0.52229900073E+01 -0.32045783151E+03  0.34608554588E+03  0.12699999809E+01 0.  1.
</event>
<event>
 5   0  0.1948138E-02  0.7020608E+03  0.7818609E-02  0.9713715E-01
        2   -1    0    0  501    0  0.00000000000E+00  0.00000000000E+00  0.11950709019E+04  0.11950709019E+04  0.25500000920E-02 0.  1.
       -2   -1    0    0    0  501  0.00000000000E+00  0.00000000000E+00 -0.10310880067E+03  0.10310880070E+03  0.25500000920E-02 0. -1.
    10030    2    1    2    0    0  0.00000000000E+00  0.00000000000E+00  0.10919621012E+04  0.12981797026E+04  0.70206075928E+03 0.  0.
        3    1    3    3  502    0  0.90750260147E+02 -0.30132497105E+03  0.25838840630E+03  0.40718168747E+03  0.10100000352E+00 0. -1.
       -3    1    3    3    0  502 -0.90750260147E+02  0.30132497105E+03  0.83357369492E+03  0.89099801513E+03  0.10100000352E+00 0.  1.
</event>
<event>
 5   0  0.2006362E-02  0.7007734E+03  0.7818609E-02  0.9715910E-01
       -2   -1    0    0    0  501  0.00000000000E+00  0.00000000000E+00  0.54096492803E+03  0.54096492804E+03  0.25500000920E-02 0. -1.
        2   -1    0    0  501    0  0.00000000000E+00  0.00000000000E+00 -0.22694787711E+03  0.22694787712E+03  0.25500000920E-02 0.  1.
    10030    2    1    2    0    0  0.00000000000E+00  0.00000000000E+00  0.31401705093E+03  0.76791280516E+03  0.70077340707E+03 0.  0.
        4    1    3    3  502    0  0.14422808914E+03 -0.27891823377E+03 -0.13360855088E+02  0.31428847923E+03  0.12699999809E+01 0.  1.
       -4    1    3    3    0  502 -0.14422808914E+03  0.27891823377E+03  0.32737790602E+03  0.45362432593E+03  0.12699999809E+01 0. -1.
</event>
<event>
 5   0  0.1257442E-02  0.7033098E+03  0.7818609E-02  0.9711589E-01
        1   -1    0    0  501    0  0.00000000000E+00  0.00000000000E+00  0.11357333556E+04  0.11357333557E+04  0.50400001928E-02 0. -1.
       -1   -1    0    0    0  501  0.00000000000E+00  0.00000000000E+00 -0.10888221819E+03  0.10888221831E+03  0.50400001928E-02 0.  1.
    10030    2    1    2    0    0  0.00000000000E+00  0.00000000000E+00  0.10268511375E+04  0.12446155740E+04  0.70330979552E+03 0.  0.
        1    1    3    3  502    0  0.28438127479E+03  0.99064258042E+02  0.19207491207E+03  0.35718231836E+03  0.50400001928E-02 0.  1.
       -1    1    3    3    0  502 -0.28438127479E+03 -0.99064258042E+02  0.83477622538E+03  0.88743325561E+03  0.50400001928E-02 0. -1.
</event>
<event>
 5   0  0.1909053E-02  0.6982804E+03  0.7818609E-02  0.9720178E-01
        2   -1    0    0  501    0  0.00000000000E+00  0.00000000000E+00  0.86061795974E+03  0.86061795974E+03  0.25500000920E-02 0. -1.
       -2   -1    0    0    0  501  0.00000000000E+00  0.00000000000E+00 -0.14164109413E+03  0.14164109415E+03  0.25500000920E-02 0.  1.
    10030    2    1    2    0    0  0.00000000000E+00  0.00000000000E+00  0.71897686561E+03  0.10022590539E+04  0.69828037194E+03 0.  0.
        1    1    3    3  502    0 -0.53362644835E+02  0.20934112579E+03 -0.34187377286E+02  0.21872369693E+03  0.50400001928E-02 0.  1.
       -1    1    3    3    0  502  0.53362644835E+02 -0.20934112579E+03  0.75316424289E+03  0.78353535696E+03  0.50400001928E-02 0. -1.
</event>
<event>
 5   0  0.1197259E-02  0.6961051E+03  0.7818609E-02  0.9723916E-01
        1   -1    0    0  501    0  0.00000000000E+00  0.00000000000E+00  0.69839594584E+03  0.69839594586E+03  0.50400001928E-02 0. -1.
       -1   -1    0    0    0  501  0.00000000000E+00  0.00000000000E+00 -0.17345544243E+03  0.17345544250E+03  0.50400001928E-02 0.  1.
    10030    2    1    2    0    0  0.00000000000E+00  0.00000000000E+00  0.52494050341E+03  0.87185138836E+03  0.69610510073E+03 0.  0.
        3    1    3    3  502    0 -0.11803330864E+03  0.69241502517E+02  0.66328896568E+03  0.67725808213E+03  0.10100000352E+00 0. -1.
       -3    1    3    3    0  502  0.11803330864E+03 -0.69241502517E+02 -0.13834846226E+03  0.19459330623E+03  0.10100000352E+00 0.  1.
</event>
<event>
 5   0  0.1237686E-02  0.7010404E+03  0.7818609E-02  0.9715455E-01
        1   -1    0    0  501    0  0.00000000000E+00  0.00000000000E+00  0.28585324915E+03  0.28585324919E+03  0.50400001928E-02 0.  1.
       -1   -1    0    0    0  501  0.00000000000E+00  0.00000000000E+00 -0.42981636756E+03  0.42981636759E+03  0.50400001928E-02 0. -1.
    10030    2    1    2    0    0  0.00000000000E+00  0.00000000000E+00 -0.14396311841E+03  0.71566961678E+03  0.70104038466E+03 0.  0.
        5    1    3    3  502    0  0.23300970779E+03  0.22776530249E+03 -0.20379516657E+03  0.38435025284E+03  0.46999998093E+01 0. -1.
       -5    1    3    3    0  502 -0.23300970779E+03 -0.22776530249E+03  0.59832048161E+02  0.33131936395E+03  0.46999998093E+01 0.  1.
</event>
<event>
 5   0  0.1226303E-02  0.6985195E+03  0.7818609E-02  0.9719767E-01
       -1   -1    0    0    0  501  0.00000000000E+00  0.00000000000E+00  0.18665734546E+03  0.18665734553E+03  0.50400001928E-02 0. -1.
        1   -1    0    0  501    0  0.00000000000E+00  0.00000000000E+00 -0.65350955108E+03  0.65350955110E+03  0.50400001928E-02 0.  1.
    10030    2    1    2    0    0  0.00000000000E+00  0.00000000000E+00 -0.46685220563E+03  0.84016689663E+03  0.69851945735E+03 0.  0.
        4    1    3    3  502    0 -0.79478393610E+02  0.24660597567E+02  0.17455616529E+03  0.19338156030E+03  0.12699999809E+01 0. -1.
       -4    1    3    3    0  502  0.79478393610E+02 -0.24660597567E+02 -0.64140837091E+03  0.64678533634E+03  0.12699999809E+01 0.  1.
</event>
<event>
 5   0  0.1197259E-02  0.6981117E+03  0.7818609E-02  0.9720467E-01
        1   -1    0    0  501    0  0.00000000000E+00  0.00000000000E+00  0.37054125667E+03  0.37054125670E+03  0.50400001928E-02 0. -1.
       -1   -1    0    0    0  501  0.00000000000E+00  0.00000000000E+00 -0.32881621567E+03  0.32881621571E+03  0.50400001928E-02 0.  1.
    10030    2    1    2    0    0  0.00000000000E+00  0.00000000000E+00  0.41725040994E+02  0.69935747241E+03  0.69811166383E+03 0.  0.
        3    1    3    3  502    0  0.23469217217E+03  0.16163205285E+03  0.22280257370E+03  0.36172687658E+03  0.10100000352E+00 0. -1.
       -3    1    3    3    0  502 -0.23469217217E+03 -0.16163205285E+03 -0.18107753271E+03  0.33763059583E+03  0.10100000352E+00 0.  1.
</event>
<event>
 5   0  0.1197259E-02  0.6974271E+03  0.7818609E-02  0.9721642E-01
        1   -1    0    0  501    0  0.00000000000E+00  0.00000000000E+00  0.31950024573E+03  0.31950024577E+03  0.50400001928E-02 0. -1.
       -1   -1    0    0    0  501  0.00000000000E+00  0.00000000000E+00 -0.38059792733E+03  0.38059792736E+03  0.50400001928E-02 0.  1.
    10030    2    1    2    0    0  0.00000000000E+00  0.00000000000E+00 -0.61097681594E+02  0.70009817313E+03  0.69742707527E+03 0.  0.
        3    1    3    3  502    0  0.68996203819E+02 -0.26628694404E+03  0.18458928759E+03  0.33127394706E+03  0.10100000352E+00 0. -1.
       -3    1    3    3    0  502 -0.68996203819E+02  0.26628694404E+03 -0.24568696918E+03  0.36882422607E+03  0.10100000352E+00 0.  1.
</event>
<event>
 5   0  0.1226303E-02  0.7016960E+03  0.7818609E-02  0.9714336E-01
        1   -1    0    0  501    0  0.00000000000E+00  0.00000000000E+00  0.90738738146E+03  0.90738738148E+03  0.50400001928E-02 0.  1.
       -1   -1    0    0    0  501  0.00000000000E+00  0.00000000000E+00 -0.13565795058E+03  0.13565795067E+03  0.50400001928E-02 0. -1.
    10030    2    1    2    0    0  0.00000000000E+00  0.00000000000E+00  0.77172943088E+03  0.10430453321E+04  0.70169598148E+03 0.  0.
        4    1    3    3  502    0  0.32831027826E+03 -0.51880347781E+02  0.55280910756E+03  0.64504165106E+03  0.12699999809E+01 0.  1.
       -4    1    3    3    0  502 -0.32831027826E+03  0.51880347781E+02  0.21892032332E+03  0.39800368109E+03  0.12699999809E+01 0. -1.
</event>
<event>
 5   0  0.1197259E-02  0.7005007E+03  0.7818609E-02  0.9716376E-01
        1   -1    0    0  501    0  0.00000000000E+00  0.00000000000E+00  0.25285629744E+04  0.25285629744E+04  0.50400001928E-02 0. -1.
       -1   -1    0    0    0  501  0.00000000000E+00  0.00000000000E+00 -0.48515819259E+02  0.48515819520E+02  0.50400001928E-02 0.  1.
    10030    2    1    2    0    0  0.00000000000E+00  0.00000000000E+00  0.24800471552E+04  0.25770787939E+04  0.70050069121E+03 0.  0.
        3    1    3    3  502    0 -0.91261621974E+02 -0.13196089230E+03  0.23854173236E+04  0.23908070141E+04  0.10100000352E+00 0. -1.
       -3    1    3    3    0  502  0.91261621974E+02  0.13196089230E+03  0.94629831548E+02  0.18627177983E+03  0.10100000352E+00 0.  1.
</event>
<event>
 5   0  0.1257442E-02  0.6910507E+03  0.7818609E-02  0.9732660E-01
       -1   -1    0    0    0  501  0.00000000000E+00  0.00000000000E+00  0.77225208927E+02  0.77225209092E+02  0.50400001928E-02 0.  1.
        1   -1    0    0  501    0  0.00000000000E+00  0.00000000000E+00 -0.15459689296E+04  0.15459689296E+04  0.50400001928E-02 0. -1.
    10030    2    1    2    0    0  0.00000000000E+00  0.00000000000E+00 -0.14687437207E+04  0.16231941387E+04  0.69105071804E+03 0.  0.
        1    1    3    3  502    0 -0.34165245428E+03  0.16749290443E+02 -0.84898257845E+03  0.91530233081E+03  0.50400001928E-02 0. -1.
       -1    1    3    3    0  502  0.34165245428E+03 -0.16749290443E+02 -0.61976114225E+03  0.70789180792E+03  0.50400001928E-02 0.  1.
</event>
<event>
 5   0  0.1237686E-02  0.6985350E+03  0.7818609E-02  0.9719741E-01
       -1   -1    0    0    0  501  0.00000000000E+00  0.00000000000E+00  0.22318208193E+03  0.22318208199E+03  0.50400001928E-02 0. -1.
        1   -1    0    0  501    0  0.00000000000E+00  0.00000000000E+00 -0.54658419480E+03  0.54658419483E+03  0.50400001928E-02 0.  1.
    10030    2    1    2    0    0  0.00000000000E+00  0.00000000000E+00 -0.32340211287E+03  0.76976627681E+03  0.69853503442E+03 0.  0.
        5    1    3    3  502    0 -0.25992270419E+01 -0.88273379046E+02 -0.53404177479E+03  0.54131474453E+03  0.46999998093E+01 0.  1.
       -5    1    3    3    0  502  0.25992270419E+01  0.88273379046E+02  0.21063966192E+03  0.22845153228E+03  0.46999998093E+01 0. -1.
</event>
<event>
 5   0  0.1948138E-02  0.7134884E+03  0.7818609E-02  0.9694439E-01
       -2   -1    0    0    0  501  0.00000000000E+00  0.00000000000E+00  0.11112728723E+03  0.11112728726E+03  0.25500000920E-02 0. -1.
        2   -1    0    0  501    0  0.00000000000E+00  0.00000000000E+00 -0.11452310299E+04  0.11452310299E+04  0.25500000920E-02 0.  1.
    10030    2    1    2    0    0  0.00000000000E+00  0.00000000000E+00 -0.10341037427E+04  0.12563583172E+04  0.71348838148E+03 0.  0.
        3    1    3    3  502    0  0.25934152693E+02 -0.33369103562E+03 -0.73446100813E+03  0.80712779049E+03  0.10100000352E+00 0.  1.
       -3    1    3    3    0  502 -0.25934152693E+02  0.33369103562E+03 -0.29964273455E+03  0.44923052668E+03  0.10100000352E+00 0. -1.
</event>
<event>
 5   0  0.2026361E-02  0.7029647E+03  0.7818609E-02  0.9712176E-01
       -2   -1    0    0    0  501  0.00000000000E+00  0.00000000000E+00  0.72172763593E+02  0.72172763638E+02  0.25500000920E-02 0. -1.
        2   -1    0    0  501    0  0.00000000000E+00  0.00000000000E+00 -0.17117236447E+04  0.17117236447E+04  0.25500000920E-02 0.  1.
    10030    2    1    2    0    0  0.00000000000E+00  0.00000000000E+00 -0.16395508811E+04  0.17838964083E+04  0.70296465341E+03 0.  0.
        2    1    3    3  502    0  0.42507169037E+02  0.34170007433E+03 -0.99874952844E+03  0.10564404483E+04  0.25500000920E-02 0. -1.
       -2    1    3    3    0  502 -0.42507169037E+02 -0.34170007433E+03 -0.64080135263E+03  0.72745596001E+03  0.25500000920E-02 0.  1.
</event>
<event>
 5   0  0.1237686E-02  0.7007327E+03  0.7818609E-02  0.9715980E-01
       -1   -1    0    0    0  501  0.00000000000E+00  0.00000000000E+00  0.67385242434E+03  0.67385242436E+03  0.50400001928E-02 0.  1.
        1   -1    0    0  501    0  0.00000000000E+00  0.00000000000E+00 -0.18217129063E+03  0.18217129070E+03  0.50400001928E-02 0. -1.
    10030    2    1    2    0    0  0.00000000000E+00  0.00000000000E+00  0.49168113372E+03  0.85602371506E+03  0.70073266193E+03 0.  0.
        5    1    3    3  502    0 -0.18334025804E+03  0.27317294600E+02  0.60899984497E+03  0.63660253375E+03  0.46999998093E+01 0.  1.
       -5    1    3    3    0  502  0.18334025804E+03 -0.27317294600E+02 -0.11731871125E+03  0.21942118131E+03  0.46999998093E+01 0. -1.
</event>
<event>
 5   0  0.1948138E-02  0.7065563E+03  0.7818609E-02  0.9706085E-01
        2   -1    0    0  501    0  0.00000000000E+00  0.00000000000E+00  0.71007806922E+03  0.71007806923E+03  0.25500000920E-02 0. -1.
       -2   -1    0    0    0  501  0.00000000000E+00  0.00000000000E+00 -0.17576300886E+03  0.17576300888E+03  0.25500000920E-02 0.  1.
    10030    2    1    2    0    0  0.00000000000E+00  0.00000000000E+00  0.53431506036E+03  0.88584107811E+03  0.70655631901E+03 0.  0.
        3    1    3    3  502    0  0.61243434250E+02  0.23226601585E+03 -0.57625664407E+02  0.24702021730E+03  0.10100000352E+00 0.  1.
       -3    1    3    3    0  502 -0.61243434250E+02 -0.23226601585E+03  0.59194072477E+03  0.63882086080E+03  0.10100000352E+00 0. -1.
</event>
<event>
 5   0  0.1909053E-02  0.7054213E+03  0.7818609E-02  0.9708006E-01
       -2   -1    0    0    0  501  0.00000000000E+00  0.00000000000E+00  0.13195712306E+03  0.13195712308E+03  0.25500000920E-02 0.  1.
        2   -1    0    0  501    0  0.00000000000E+00  0.00000000000E+00 -0.94276673870E+03  0.94276673871E+03  0.25500000920E-02 0. -1.
    10030    2    1    2    0    0  0.00000000000E+00  0.00000000000E+00 -0.81080961565E+03  0.10747238618E+04  0.70542125448E+03 0.  0.
        1    1    3    3  502    0  0.17905133930E+03 -0.21979277582E+03 -0.72511386928E+03  0.77856173156E+03  0.50400001928E-02 0. -1.
       -1    1    3    3    0  502 -0.17905133930E+03  0.21979277582E+03 -0.85695746367E+02  0.29616213022E+03  0.50400001928E-02 0.  1.
</event>
<event>
 5   0  0.2006362E-02  0.6984955E+03  0.7818609E-02  0.9719808E-01
       -2   -1    0    0    0  501  0.00000000000E+00  0.00000000000E+00  0.31912150642E+03  0.31912150643E+03  0.25500000920E-02 0. -1.
        2   -1    0    0  501    0  0.00000000000E+00  0.00000000000E+00 -0.38221806583E+03  0.38221806584E+03  0.25500000920E-02 0.  1.
    10030    2    1    2    0    0  0.00000000000E+00  0.00000000000E+00 -0.63096559413E+02  0.70133957227E+03  0.69849554030E+03 0.  0.
        4    1    3    3  502    0  0.26735396121E+03 -0.19157347385E+03 -0.14947373024E+03  0.36127904090E+03  0.12699999809E+01 0.  1.
       -4    1    3    3    0  502 -0.26735396121E+03  0.19157347385E+03  0.86377170828E+02  0.34006053137E+03  0.12699999809E+01 0. -1.
</event>
<event>
 5   0  0.2026361E-02  0.6833043E+03  0.7818609E-02  0.9746218E-01
       -2   -1    0    0    0  501  0.00000000000E+00  0.00000000000E+00  0.56109585872E+03  0.56109585872E+03  0.25500000920E-02 0.  1.
        2   -1    0    0  501    0  0.00000000000E+00  0.00000000000E+00 -0.20803255500E+03  0.20803255501E+03  0.25500000920E-02 0. -1.
    10030    2    1    2    0    0  0.00000000000E+00  0.00000000000E+00  0.35306330372E+03  0.76912841374E+03  0.68330433950E+03 0.  0.
        2    1    3    3  502    0 -0.28794354197E+01 -0.81093930162E+02 -0.19702849868E+03  0.21308389418E+03  0.25500000920E-02 0. -1.
       -2    1    3    3    0  502  0.28794354197E+01  0.81093930162E+02  0.55009180240E+03  0.55604451956E+03  0.25500000920E-02 0.  1.
</event>
<event>
 5   0  0.1237686E-02  0.6958608E+03  0.7818609E-02  0.9724337E-01
       -1   -1    0    0    0  501  0.00000000000E+00  0.00000000000E+00  0.22709627161E+03  0.22709627167E+03  0.50400001928E-02 0. -1.
        1   -1    0    0  501    0  0.00000000000E+00  0.00000000000E+00 -0.53305834082E+03  0.53305834084E+03  0.50400001928E-02 0.  1.
    10030    2    1    2    0    0  0.00000000000E+00  0.00000000000E+00 -0.30596206920E+03  0.76015461251E+03  0.69586079580E+03 0.  0.
        5    1    3    3  502    0  0.10586875609E+03  0.32770158284E+03 -0.99054445406E+02  0.35837186562E+03  0.46999998093E+01 0. -1.
       -5    1    3    3    0  502 -0.10586875609E+03 -0.32770158284E+03 -0.20690762380E+03  0.40178274689E+03  0.46999998093E+01 0.  1.
</event>
<event>
 5   0  0.2026361E-02  0.6970563E+03  0.7818609E-02  0.9722280E-01
        2   -1    0    0  501    0  0.00000000000E+00  0.00000000000E+00  0.10756342539E+04  0.10756342539E+04  0.25500000920E-02 0. -1.
       -2   -1    0    0    0  501  0.00000000000E+00  0.00000000000E+00 -0.11293046187E+03  0.11293046190E+03  0.25500000920E-02 0.  1.
    10030    2    1    2    0    0  0.00000000000E+00  0.00000000000E+00  0.96270379201E+03  0.11885647158E+04  0.69705630509E+03 0.  0.
        2    1    3    3  502    0 -0.66670691950E+01  0.92237525568E+02 -0.91628493995E+02  0.13018445319E+03  0.25500000920E-02 0.  1.
       -2    1    3    3    0  502  0.66670691950E+01 -0.92237525568E+02  0.10543322860E+04  0.10583802626E+04  0.25500000920E-02 0. -1.
</event>
<event>
 5   0  0.1237686E-02  0.7030895E+03  0.7818609E-02  0.9711963E-01
        1   -1    0    0  501    0  0.00000000000E+00  0.00000000000E+00  0.10781346719E+04  0.10781346719E+04  0.50400001928E-02 0.  1.
       -1   -1    0    0    0  501  0.00000000000E+00  0.00000000000E+00 -0.11462734579E+03  0.11462734590E+03  0.50400001928E-02 0. -1.
    10030    2    1    2    0    0  0.00000000000E+00  0.00000000000E+00  0.96350732611E+03  0.11927620178E+04  0.70308951327E+03 0.  0.
        5    1    3    3  502    0  0.18182475288E+03 -0.25722517386E+03  0.21710293756E+03  0.38259744683E+03  0.46999998093E+01 0. -1.
       -5    1    3    3    0  502 -0.18182475288E+03  0.25722517386E+03  0.74640438855E+03  0.81016457098E+03  0.46999998093E+01 0.  1.
</event>
<event>
 5   0  0.1223742E-02  0.6988235E+03  0.7818609E-02  0.9719246E-01
        1   -1    0    0  501    0  0.00000000000E+00  0.00000000000E+00  0.30348652553E+03  0.30348652558E+03  0.50400001928E-02 0.  1.
       -1   -1    0    0    0  501  0.00000000000E+00  0.00000000000E+00 -0.40228666579E+03  0.40228666583E+03  0.50400001928E-02 0. -1.
    10030    2    1    2    0    0  0.00000000000E+00  0.00000000000E+00 -0.98800140259E+02  0.70577319140E+03  0.69882353279E+03 0.  0.
        2    1    3    3  502    0  0.24913068068E+03 -0.77766900594E+02 -0.28403525610E+03  0.38573282671E+03  0.25500000920E-02 0. -1.
       -2    1    3    3    0  502 -0.24913068068E+03  0.77766900594E+02  0.18523511584E+03  0.32004036469E+03  0.25500000920E-02 0.  1.
</event>
<event>
 5   0  0.1223742E-02  0.6984848E+03  0.7818609E-02  0.9719827E-01
       -1   -1    0    0    0  501  0.00000000000E+00  0.00000000000E+00  0.19906946878E+03  0.19906946884E+03  0.50400001928E-02 0.  1.
        1   -1    0    0  501    0  0.00000000000E+00  0.00000000000E+00 -0.61270196083E+03  0.61270196085E+03  0.50400001928E-02 0. -1.
    10030    2    1    2    0    0  0.00000000000E+00  0.00000000000E+00 -0.41363249206E+03  0.81177142969E+03  0.69848479982E+03 0.  0.
        2    1    3    3  502    0  0.11216718580E+03 -0.32892919711E+03 -0.16665156185E+03  0.38542007908E+03  0.25500000920E-02 0. -1.
       -2    1    3    3    0  502 -0.11216718580E+03  0.32892919711E+03 -0.24698093020E+03  0.42635135062E+03  0.25500000920E-02 0.  1.
</event>
<event>
 5   0  0.1223742E-02  0.6995642E+03  0.7818609E-02  0.9717978E-01
        1   -1    0    0  501    0  0.00000000000E+00  0.00000000000E+00  0.15887266666E+04  0.15887266666E+04  0.50400001928E-02 0. -1.
       -1   -1    0    0    0  501  0.00000000000E+00  0.00000000000E+00 -0.77009796385E+02  0.77009796550E+02  0.50400001928E-02 0.  1.
    10030    2    1    2    0    0  0.00000000000E+00  0.00000000000E+00  0.15117168702E+04  0.16657364631E+04  0.69956419933E+03 0.  0.
        2    1    3    3  502    0 -0.10320718107E+03  0.13153526868E+03  0.14874210916E+04  0.14967881456E+04  0.25500000920E-02 0. -1.
       -2    1    3    3    0  502  0.10320718107E+03 -0.13153526868E+03  0.24295778603E+02  0.16894831752E+03  0.25500000920E-02 0.  1.
</event>
<event>
 5   0  0.1909053E-02  0.6876195E+03  0.7818609E-02  0.9738642E-01
        2   -1    0    0  501    0  0.00000000000E+00  0.00000000000E+00  0.11372494977E+04  0.11372494977E+04  0.25500000920E-02 0. -1.
       -2   -1    0    0    0  501  0.00000000000E+00  0.00000000000E+00 -0.10393948976E+03  0.10393948979E+03  0.25500000920E-02 0.  1.
    10030    2    1    2    0    0  0.00000000000E+00  0.00000000000E+00  0.10333100079E+04  0.12411889874E+04  0.68761946608E+03 0.  0.
        1    1    3    3  502    0 -0.37684030570E+02 -0.10610696539E+03  0.11030229564E+04  0.11087553457E+04  0.50400001928E-02 0. -1.
       -1    1    3    3    0  502  0.37684030570E+02  0.10610696539E+03 -0.69712948464E+02  0.13243364178E+03  0.50400001928E-02 0.  1.
</event>
<event>
 5   0  0.2006362E-02  0.7047713E+03  0.7818609E-02  0.9709107E-01
        2   -1    0    0  501    0  0.00000000000E+00  0.00000000000E+00  0.25406339396E+03  0.25406339398E+03  0.25500000920E-02 0. -1.
       -2   -1    0    0    0  501  0.00000000000E+00  0.00000000000E+00 -0.48875846056E+03  0.48875846057E+03  0.25500000920E-02 0.  1.
    10030    2    1    2    0    0  0.00000000000E+00  0.00000000000E+00 -0.23469506660E+03  0.74282185455E+03  0.70477126311E+03 0.  0.
        4    1    3    3  502    0 -0.30987872168E+03 -0.11391934051E+03  0.12475550599E+02  0.33039323624E+03  0.12699999809E+01 0. -1.
       -4    1    3    3    0  502  0.30987872168E+03  0.11391934051E+03 -0.24717061720E+03  0.41242861831E+03  0.12699999809E+01 0.  1.
</event>
<event>
 5   0  0.1197259E-02  0.6979177E+03  0.7818609E-02  0.9720800E-01
       -1   -1    0    0    0  501  0.00000000000E+00  0.00000000000E+00  0.33039772675E+03  0.33039772679E+03  0.50400001928E-02 0.  1.
        1   -1    0    0  501    0  0.00000000000E+00  0.00000000000E+00 -0.36856271658E+03  0.36856271662E+03  0.50400001928E-02 0. -1.
    10030    2    1    2    0    0  0.00000000000E+00  0.00000000000E+00 -0.38164989830E+02  0.69896044341E+03  0.69791771363E+03 0.  0.
        3    1    3    3  502    0  0.17545514684E+03  0.53076545076E+02  0.27829656681E+03  0.33324258054E+03  0.10100000352E+00 0.  1.
       -3    1    3    3    0  502 -0.17545514684E+03 -0.53076545076E+02 -0.31646155664E+03  0.36571786286E+03  0.10100000352E+00 0. -1.
</event>
<event>
 5   0  0.1948138E-02  0.6967273E+03  0.7818609E-02  0.9722845E-01
        2   -1    0    0  501    0  0.00000000000E+00  0.00000000000E+00  0.36461751528E+03  0.36461751529E+03  0.25500000920E-02 0. -1.
       -2   -1    0    0    0  501  0.00000000000E+00  0.00000000000E+00 -0.33283436060E+03  0.33283436061E+03  0.25500000920E-02 0.  1.
    10030    2    1    2    0    0  0.00000000000E+00  0.00000000000E+00  0.31783154682E+02  0.69745187590E+03  0.69672731415E+03 0.  0.
        3    1    3    3  502    0  0.15512230241E+03  0.11507837452E+03 -0.27432588519E+03  0.33550061471E+03  0.10100000352E+00 0.  1.
       -3    1    3    3    0  502 -0.15512230241E+03 -0.11507837452E+03  0.30610903987E+03  0.36195126119E+03  0.10100000352E+00 0. -1.
</event>
<event>
 5   0  0.1197259E-02  0.6940011E+03  0.7818609E-02  0.9727546E-01
        1   -1    0    0  501    0  0.00000000000E+00  0.00000000000E+00  0.49784153352E+03  0.49784153354E+03  0.50400001928E-02 0. -1.
       -1   -1    0    0    0  501  0.00000000000E+00  0.00000000000E+00 -0.24186289424E+03  0.24186289429E+03  0.50400001928E-02 0.  1.
    10030    2    1    2    0    0  0.00000000000E+00  0.00000000000E+00  0.25597863928E+03  0.73970442783E+03  0.69400113601E+03 0.  0.
        3    1    3    3  502    0 -0.52205490462E+02 -0.28539798511E+03  0.33087152461E+03  0.44006067666E+03  0.10100000352E+00 0. -1.
       -3    1    3    3    0  502  0.52205490462E+02  0.28539798511E+03 -0.74892885334E+02  0.29964375117E+03  0.10100000352E+00 0.  1.
</event>
<event>
 5   0  0.1223742E-02  0.6999779E+03  0.7818609E-02  0.9717270E-01
        1   -1    0    0  501    0  0.00000000000E+00  0.00000000000E+00  0.12605106857E+04  0.12605106857E+04  0.50400001928E-02 0. -1.
       -1   -1    0    0    0  501  0.00000000000E+00  0.00000000000E+00 -0.97176695513E+02  0.97176695643E+02  0.50400001928E-02 0.  1.
    10030    2    1    2    0    0  0.00000000000E+00  0.00000000000E+00  0.11633339902E+04  0.13576873814E+04  0.69997789449E+03 0.  0.
        2    1    3    3  502    0 -0.16217237193E+03  0.21108677798E+03  0.10224111139E+04  0.10564951452E+04  0.25500000920E-02 0. -1.
       -2    1    3    3    0  502  0.16217237193E+03 -0.21108677798E+03  0.14092287636E+03  0.30119223620E+03  0.25500000920E-02 0.  1.
</event>
<event>
 5   0  0.2026361E-02  0.6957704E+03  0.7818609E-02  0.9724493E-01
        2   -1    0    0  501    0  0.00000000000E+00  0.00000000000E+00  0.44533725813E+03  0.44533725813E+03  0.25500000920E-02 0.  1.
       -2   -1    0    0    0  501  0.00000000000E+00  0.00000000000E+00 -0.27175836596E+03  0.27175836597E+03  0.25500000920E-02 0. -1.
    10030    2    1    2    0    0  0.00000000000E+00  0.00000000000E+00  0.17357889217E+03  0.71709562410E+03  0.69577043793E+03 0.  0.
        2    1    3    3  502    0 -0.32184252595E+02  0.88183587255E+02 -0.25845814991E+03  0.27497779263E+03  0.25500000920E-02 0. -1.
       -2    1    3    3    0  502  0.32184252595E+02 -0.88183587255E+02  0.43203704208E+03  0.44211783148E+03  0.25500000920E-02 0.  1.
</event>
<event>
 5   0  0.1237686E-02  0.7019763E+03  0.7818609E-02  0.9713858E-01
       -1   -1    0    0    0  501  0.00000000000E+00  0.00000000000E+00  0.20214188026E+03  0.20214188032E+03  0.50400001928E-02 0. -1.
        1   -1    0    0  501    0  0.00000000000E+00  0.00000000000E+00 -0.60943675463E+03  0.60943675465E+03  0.50400001928E-02 0.  1.
    10030    2    1    2    0    0  0.00000000000E+00  0.00000000000E+00 -0.40729487437E+03  0.81157863497E+03  0.70197632870E+03 0.  0.
        5    1    3    3  502    0 -0.57192802254E+02  0.68701426384E+02  0.18872284557E+03  0.20887629127E+03  0.46999998093E+01 0. -1.
       -5    1    3    3    0  502  0.57192802254E+02 -0.68701426384E+02 -0.59601771994E+03  0.60270234370E+03  0.46999998093E+01 0.  1.
</event>
<event>
 5   0  0.1257442E-02  0.6999525E+03  0.7818609E-02  0.9717313E-01
        1   -1    0    0  501    0  0.00000000000E+00  0.00000000000E+00  0.61428454083E+03  0.61428454085E+03  0.50400001928E-02 0.  1.
       -1   -1    0    0    0  501  0.00000000000E+00  0.00000000000E+00 -0.19939191760E+03  0.19939191767E+03  0.50400001928E-02 0. -1.
    10030    2    1    2    0    0  0.00000000000E+00  0.00000000000E+00  0.41489262323E+03  0.81367645852E+03  0.69995249149E+03 0.  0.
        1    1    3    3  502    0  0.12463452618E+03 -0.30653391494E+03  0.33992022261E+03  0.47438651318E+03  0.50400001928E-02 0.  1.
       -1    1    3    3    0  502 -0.12463452618E+03  0.30653391494E+03  0.74972400620E+02  0.33928994534E+03  0.50400001928E-02 0. -1.
</event>
<event>
 5   0  0.2006362E-02  0.6968244E+03  0.7818609E-02  0.9722678E-01
       -2   -1    0    0    0  501  0.00000000000E+00  0.00000000000E+00  0.54306794170E+02  0.54306794230E+02  0.25500000920E-02 0. -1.
        2   -1    0    0  501    0  0.00000000000E+00  0.00000000000E+00 -0.22352834313E+04  0.22352834313E+04  0.25500000920E-02 0.  1.
    10030    2    1    2    0    0  0.00000000000E+00  0.00000000000E+00 -0.21809766371E+04  0.22895902255E+04  0.69682444643E+03 0.  0.
        4    1    3    3  502    0 -0.31648686189E+03  0.13733000235E+03 -0.12503122666E+04  0.12970373318E+04  0.12699999809E+01 0. -1.
       -4    1    3    3    0  502  0.31648686189E+03 -0.13733000235E+03 -0.93066437057E+03  0.99255289372E+03  0.12699999809E+01 0.  1.
</event>
<event>
 5   0  0.1257442E-02  0.6968957E+03  0.7818609E-02  0.9722556E-01
        1   -1    0    0  501    0  0.00000000000E+00  0.00000000000E+00  0.10769888572E+03  0.10769888584E+03  0.50400001928E-02 0.  1.
       -1   -1    0    0    0  501  0.00000000000E+00  0.00000000000E+00 -0.11273644679E+04  0.11273644679E+04  0.50400001928E-02 0. -1.
    10030    2    1    2    0    0  0.00000000000E+00  0.00000000000E+00 -0.10196655822E+04  0.12350633537E+04  0.69689567963E+03 0.  0.
        1    1    3    3  502    0 -0.20574675208E+01  0.27077653796E+03 -0.12118458691E+03  0.29666457627E+03  0.50400001928E-02 0.  1.
       -1    1    3    3    0  502  0.20574675208E+01 -0.27077653796E+03 -0.89848099526E+03  0.93839877747E+03  0.50400001928E-02 0. -1.
</event>
<event>
 5   0  0.2006362E-02  0.7029985E+03  0.7818609E-02  0.9712118E-01
       -2   -1    0    0    0  501  0.00000000000E+00  0.00000000000E+00  0.25515892900E+03  0.25515892901E+03  0.25500000920E-02 0.  1.
        2   -1    0    0  501    0  0.00000000000E+00  0.00000000000E+00 -0.48421482756E+03  0.48421482757E+03  0.25500000920E-02 0. -1.
    10030    2    1    2    0    0  0.00000000000E+00  0.00000000000E+00 -0.22905589857E+03  0.73937375658E+03  0.70299854001E+03 0.  0.
        4    1    3    3  502    0  0.98997711986E+02  0.29756981864E+03  0.52436964012E+02  0.31796162039E+03  0.12699999809E+01 0.  1.
       -4    1    3    3    0  502 -0.98997711986E+02 -0.29756981864E+03 -0.28149286258E+03  0.42141213619E+03  0.12699999809E+01 0. -1.
</event>
<event>
 5   0  0.1973067E-02  0.6953082E+03  0.7818609E-02  0.9725290E-01
       -2   -1    0    0    0  501  0.00000000000E+00  0.00000000000E+00  0.19747571409E+03  0.19747571411E+03  0.25500000920E-02 0.  1.
        2   -1    0    0  501    0  0.00000000000E+00  0.00000000000E+00 -0.61204162544E+03  0.61204162545E+03  0.25500000920E-02 0. -1.
    10030    2    1    2    0    0  0.00000000000E+00  0.00000000000E+00 -0.41456591135E+03  0.80951733956E+03  0.69530815341E+03 0.  0.
        5    1    3    3  502    0 -0.41742908695E+02  0.17717575337E+03 -0.55208300637E+03  0.58133592176E+03  0.46999998093E+01 0. -1.
       -5    1    3    3    0  502  0.41742908695E+02 -0.17717575337E+03  0.13751709502E+03  0.22818141780E+03  0.46999998093E+01 0.  1.
</event>
<event>
 5   0  0.1226303E-02  0.6961551E+03  0.7818609E-02  0.9723830E-01
       -1   -1    0    0    0  501  0.00000000000E+00  0.00000000000E+00  0.23115920370E+03  0.23115920375E+03  0.50400001928E-02 0.  1.
        1   -1    0    0  501    0  0.00000000000E+00  0.00000000000E+00 -0.52413212245E+03  0.52413212247E+03  0.50400001928E-02 0. -1.
    10030    2    1    2    0    0  0.00000000000E+00  0.00000000000E+00 -0.29297291875E+03  0.75529132622E+03  0.69615505195E+03 0.  0.
        4    1    3    3  502    0 -0.13489323153E+03  0.96236168886E+02 -0.47859149160E+03  0.50646718832E+03  0.12699999809E+01 0. -1.
       -4    1    3    3    0  502  0.13489323153E+03 -0.96236168886E+02  0.18561857285E+03  0.24882413790E+03  0.12699999809E+01 0.  1.
</event>
<event>
 5   0  0.1973067E-02  0.7017616E+03  0.7818609E-02  0.9714224E-01
        2   -1    0    0  501    0  0.00000000000E+00  0.00000000000E+00  0.91744753649E+03  0.91744753649E+03  0.25500000920E-02 0.  1.
       -2   -1    0    0    0  501  0.00000000000E+00  0.00000000000E+00 -0.13419550996E+03  0.13419550999E+03  0.25500000920E-02 0. -1.
    10030    2    1    2    0    0  0.00000000000E+00  0.00000000000E+00  0.78325202653E+03  0.10516430465E+04  0.70176161205E+03 0.  0.
        5    1    3    3  502    0  0.60889107577E+01 -0.22949257176E+03  0.78921866297E+03  0.82194409986E+03  0.46999998093E+01 0.  1.
       -5    1    3    3    0  502 -0.60889107577E+01  0.22949257176E+03 -0.59666364406E+01  0.22969894661E+03  0.46999998093E+01 0. -1.
</event>
<event>
 5   0  0.7947250E-03  0.6922261E+03  0.7818609E-02  0.9730620E-01
        4   -1    0    0  501    0  0.00000000000E+00  0.00000000000E+00  0.14931616394E+04  0.14931621795E+04  0.12699999809E+01 0. -1.
       -4   -1    0    0    0  501  0.00000000000E+00  0.00000000000E+00 -0.80223011176E+02  0.80233063147E+02  0.12699999809E+01 0.  1.
    10030    2    1    2    0    0  0.00000000000E+00  0.00000000000E+00  0.14129386283E+04  0.15733952427E+04  0.69222613535E+03 0.  0.
        4    1    3    3  502    0  0.27797731023E+02  0.28209563335E+03  0.11578772694E+04  0.11920704863E+04  0.12699999809E+01 0. -1.
       -4    1    3    3    0  502 -0.27797731023E+02 -0.28209563335E+03  0.25506135882E+03  0.38132475643E+03  0.12699999809E+01 0.  1.
</event>
<event>
 5   0  0.2026361E-02  0.7566969E+03  0.7818609E-02  0.9624902E-01
        2   -1    0    0  501    0  0.00000000000E+00  0.00000000000E+00  0.25687297855E+03  0.25687297857E+03  0.25500000920E-02 0.  1.
       -2   -1    0    0    0  501  0.00000000000E+00  0.00000000000E+00 -0.55726981055E+03  0.55726981055E+03  0.25500000920E-02 0. -1.
    10030    2    1    2    0    0  0.00000000000E+00  0.00000000000E+00 -0.30039683199E+03  0.81414278912E+03  0.75669691714E+03 0.  0.
        2    1    3    3  502    0  0.29188585658E+03 -0.13003928901E+03 -0.36816113593E+03  0.48749378660E+03  0.25500000920E-02 0.  1.
       -2    1    3    3    0  502 -0.29188585658E+03  0.13003928901E+03  0.67764303936E+02  0.32664900252E+03  0.25500000920E-02 0. -1.
</event>
<event>
 5   0  0.1197259E-02  0.6974072E+03  0.7818609E-02  0.9721677E-01
       -1   -1    0    0    0  501  0.00000000000E+00  0.00000000000E+00  0.56818199914E+03  0.56818199916E+03  0.50400001928E-02 0.  1.
        1   -1    0    0  501    0  0.00000000000E+00  0.00000000000E+00 -0.21400570846E+03  0.21400570852E+03  0.50400001928E-02 0. -1.
    10030    2    1    2    0    0  0.00000000000E+00  0.00000000000E+00  0.35417629068E+03  0.78218770768E+03  0.69740717315E+03 0.  0.
        3    1    3    3  502    0  0.12174895949E+03 -0.29485175761E+03  0.33504107433E+03  0.46261528270E+03  0.10100000352E+00 0.  1.
       -3    1    3    3    0  502 -0.12174895949E+03  0.29485175761E+03  0.19135216355E+02  0.31957242498E+03  0.10100000352E+00 0. -1.
</event>
</LesHouchesEvents>
